<LesHouchesEvents version="3.0">
<header>
<!--
#*********************************************************************
#                                                                    *
#                        MadGraph5_aMC@NLO                           *
#                                                                    *
#                           Going Beyond                             *
#                                                                    *
#                   http://madgraph.hep.uiuc.edu                     *
#                   http://madgraph.phys.ucl.ac.be                   *
#                   http://amcatnlo.cern.ch                          *
#                                                                    *
#                     The MadGraph5_aMC@NLO team                     *
#                                                                    *
#....................................................................*
#                                                                    *
# This file contains all the information necessary to reproduce      *
# the events generated:                                              *
#                                                                    *
# 1. software version                                                *
# 2. proc_card          : code generation info including model       *
# 3. param_card         : model primary parameters in the LH format  *
# 4. run_card           : running parameters (collider and cuts)     *
# 5. pythia_card        : present only if pythia has been run        *
# 6. pgs_card           : present only if pgs has been run           *
# 7. delphes_cards      : present only if delphes has been run       *
#                                                                    *
#                                                                    *
#*********************************************************************
-->
<MGVersion>
#5.2.2.3
</MGVersion>
<MG5ProcCard>
#************************************************************
#*                     MadGraph5_aMC@NLO                    *
#*                                                          *
#*                *                       *                 *
#*                  *        * *        *                   *
#*                    * * * * 5 * * * *                     *
#*                  *        * *        *                   *
#*                *                       *                 *
#*                                                          *
#*                                                          *
#*         VERSION 2.2.3                 2015-02-10         *
#*                                                          *
#*    The MadGraph5_aMC@NLO Development Team - Find us at   *
#*    https://server06.fynu.ucl.ac.be/projects/madgraph     *
#*                                                          *
#************************************************************
#*                                                          *
#*               Command File for MadGraph5_aMC@NLO         *
#*                                                          *
#*     run as ./bin/mg5_aMC  filename                       *
#*                                                          *
#************************************************************
set group_subprocesses Auto
set ignore_six_quark_processes False
set loop_optimized_output True
set gauge unitary
set complex_mass_scheme False
import model sm
define p = g u c d s u~ c~ d~ s~
define j = g u c d s u~ c~ d~ s~
define l+ = e+ mu+
define l- = e- mu-
define vl = ve vm vt
define vl~ = ve~ vm~ vt~
import model Zprime_UFO
generate p p > zph, zph > j j
add process p p > zph, zph > b b~
output Dijet_signal
</MG5ProcCard>
<MGProcCard>
#*********************************************************************
#                        MadGraph/MadEvent                           *
#                   http://madgraph.hep.uiuc.edu                     *
#                                                                    *
#                          proc_card.dat                             *
#*********************************************************************
#                                                                    *
#            This Files is generated by MADGRAPH 5                   *
#                                                                    *
# WARNING: This Files is generated for MADEVENT (compatibility issue)*
#          This files is NOT a valid MG4 proc_card.dat               *
#          Running this in MG4 will NEVER reproduce the result of MG5*
#                                                                    *
#*********************************************************************
#*********************************************************************
# Process(es) requested : mg2 input                                  *
#*********************************************************************
# Begin PROCESS # This is TAG. Do not modify this line
p p > zph , zph > j j           #Process
# Be carefull the coupling are here in MG5 convention
          
end_coup           # End the couplings input

done               # this tells MG there are no more procs
# End PROCESS  # This is TAG. Do not modify this line
#*********************************************************************
# Model information                                                  *
#*********************************************************************
# Begin MODEL  # This is TAG. Do not modify this line
Zprime_UFO
# End   MODEL  # This is TAG. Do not modify this line
#*********************************************************************
# Start multiparticle definitions                                    *
#*********************************************************************
# Begin MULTIPARTICLES # This is TAG. Do not modify this line

# End  MULTIPARTICLES # This is TAG. Do not modify this line
</MGProcCard>
<MGRunCard>
#*********************************************************************
#                       MadGraph5_aMC@NLO                            *
#                                                                    *
#                     run_card.dat MadEvent                          *
#                                                                    *
#  This file is used to set the parameters of the run.               *
#                                                                    *
#  Some notation/conventions:                                        *
#                                                                    *
#   Lines starting with a '# ' are info or comments                  *
#                                                                    *
#   mind the format:   value    = variable     ! comment             *
#*********************************************************************
#
#*******************                                                 
# Running parameters
#*******************                                                 
#                                                                    
#*********************************************************************
# Tag name for the run (one word)                                    *
#*********************************************************************
  tag_1     = run_tag ! name of the run 
#*********************************************************************
# Run to generate the grid pack                                      *
#*********************************************************************
  .false.     = gridpack  !True = setting up the grid pack
#*********************************************************************
# Number of events and rnd seed                                      *
# Warning: Do not generate more than 1M events in a single run       *
# If you want to run Pythia, avoid more than 50k events in a run.    *
#*********************************************************************
  2000 = nevents ! Number of unweighted events requested 
 1353 = iseed   ! rnd seed (0=assigned automatically=default))
#*********************************************************************
# Collider type and energy                                           *
# lpp: 0=No PDF, 1=proton, -1=antiproton, 2=photon from proton,      *
#                                         3=photon from electron     *
#*********************************************************************
        1     = lpp1    ! beam 1 type 
        1     = lpp2    ! beam 2 type
     4000     = ebeam1  ! beam 1 total energy in GeV
     4000     = ebeam2  ! beam 2 total energy in GeV
#*********************************************************************
# Beam polarization from -100 (left-handed) to 100 (right-handed)    *
#*********************************************************************
        0     = polbeam1 ! beam polarization for beam 1
        0     = polbeam2 ! beam polarization for beam 2
#*********************************************************************
# PDF CHOICE: this automatically fixes also alpha_s and its evol.    *
#*********************************************************************
 'nn23lo1'    = pdlabel     ! PDF set                                     
 230000    = lhaid     ! if pdlabel=lhapdf, this is the lhapdf number
#*********************************************************************
# Renormalization and factorization scales                           *
#*********************************************************************
 F        = fixed_ren_scale  ! if .true. use fixed ren scale
 F        = fixed_fac_scale  ! if .true. use fixed fac scale
 91.1880  = scale            ! fixed ren scale
 91.1880  = dsqrt_q2fact1    ! fixed fact scale for pdf1
 91.1880  = dsqrt_q2fact2    ! fixed fact scale for pdf2
 1        = scalefact        ! scale factor for event-by-event scales
#*********************************************************************
# Matching - Warning! ickkw > 1 is still beta
#*********************************************************************
 0        = ickkw            ! 0 no matching, 1 MLM, 2 CKKW matching
 1        = highestmult      ! for ickkw=2, highest mult group
 1        = ktscheme         ! for ickkw=1, 1 Durham kT, 2 Pythia pTE
 1        = alpsfact         ! scale factor for QCD emission vx
 F        = chcluster        ! cluster only according to channel diag
 T        = pdfwgt           ! for ickkw=1, perform pdf reweighting
 5        = asrwgtflavor     ! highest quark flavor for a_s reweight
 T        = clusinfo         ! include clustering tag in output
 3.0      = lhe_version       ! Change the way clustering information pass to shower.        
#*********************************************************************
#**********************************************************
#
#**********************************************************
# Automatic ptj and mjj cuts if xqcut > 0
# (turn off for VBF and single top processes)
#**********************************************************
   T  = auto_ptj_mjj  ! Automatic setting of ptj and mjj
#**********************************************************
#                                                                    
#**********************************
# BW cutoff (M+/-bwcutoff*Gamma)
#**********************************
  15  = bwcutoff      ! (M+/-bwcutoff*Gamma)
#**********************************************************
# Apply pt/E/eta/dr/mij cuts on decay products or not
# (note that etmiss/ptll/ptheavy/ht/sorted cuts always apply)
#**********************************************************
   T  = cut_decays    ! Cut decay products 
#*************************************************************
# Number of helicities to sum per event (0 = all helicities)
# 0 gives more stable result, but longer run time (needed for
# long decay chains e.g.).
# Use >=2 if most helicities contribute, e.g. pure QCD.
#*************************************************************
   0  = nhel          ! Number of helicities used per event
#*******************                                                 
# Standard Cuts
#*******************                                                 
#                                                                    
#*********************************************************************
# Minimum and maximum pt's (for max, -1 means no cut)                *
#*********************************************************************
 20  = ptj       ! minimum pt for the jets 
  0  = ptb       ! minimum pt for the b 
 10  = pta       ! minimum pt for the photons 
 10  = ptl       ! minimum pt for the charged leptons 
  0  = misset    ! minimum missing Et (sum of neutrino's momenta)
  0  = ptheavy   ! minimum pt for one heavy final state
 1.0 = ptonium   ! minimum pt for the quarkonium states
 -1  = ptjmax    ! maximum pt for the jets
 -1  = ptbmax    ! maximum pt for the b
 -1  = ptamax    ! maximum pt for the photons
 -1  = ptlmax    ! maximum pt for the charged leptons
 -1  = missetmax ! maximum missing Et (sum of neutrino's momenta)
#*********************************************************************
# Minimum and maximum E's (in the center of mass frame)              *
#*********************************************************************
  0  = ej     ! minimum E for the jets 
  0  = eb     ! minimum E for the b 
  0  = ea     ! minimum E for the photons 
  0  = el     ! minimum E for the charged leptons 
 -1   = ejmax ! maximum E for the jets
 -1   = ebmax ! maximum E for the b
 -1   = eamax ! maximum E for the photons
 -1   = elmax ! maximum E for the charged leptons
#*********************************************************************
# Maximum and minimum absolute rapidity (for max, -1 means no cut)   *
#*********************************************************************
   5  = etaj    ! max rap for the jets 
  -1  = etab    ! max rap for the b
 2.5  = etaa    ! max rap for the photons 
 2.5  = etal    ! max rap for the charged leptons 
 0.6  = etaonium ! max rap for the quarkonium states
   0  = etajmin ! min rap for the jets
   0  = etabmin ! min rap for the b
   0  = etaamin ! min rap for the photons
   0  = etalmin ! main rap for the charged leptons
#*********************************************************************
# Minimum and maximum DeltaR distance                                *
#*********************************************************************
 0.4 = drjj    ! min distance between jets 
 0   = drbb    ! min distance between b's 
 0.4 = drll    ! min distance between leptons 
 0.4 = draa    ! min distance between gammas 
 0   = drbj    ! min distance between b and jet 
 0.4 = draj    ! min distance between gamma and jet 
 0.4 = drjl    ! min distance between jet and lepton 
 0   = drab    ! min distance between gamma and b 
 0   = drbl    ! min distance between b and lepton 
 0.4 = dral    ! min distance between gamma and lepton 
 -1  = drjjmax ! max distance between jets
 -1  = drbbmax ! max distance between b's
 -1  = drllmax ! max distance between leptons
 -1  = draamax ! max distance between gammas
 -1  = drbjmax ! max distance between b and jet
 -1  = drajmax ! max distance between gamma and jet
 -1  = drjlmax ! max distance between jet and lepton
 -1  = drabmax ! max distance between gamma and b
 -1  = drblmax ! max distance between b and lepton
 -1  = dralmax ! maxdistance between gamma and lepton
#*********************************************************************
# Minimum and maximum invariant mass for pairs                       *
# WARNING: for four lepton final state mmll cut require to have      *
#          different lepton masses for each flavor!                  *           
#*********************************************************************
 0   = mmjj    ! min invariant mass of a jet pair 
 0   = mmbb    ! min invariant mass of a b pair 
 0   = mmaa    ! min invariant mass of gamma gamma pair
 0   = mmll    ! min invariant mass of l+l- (same flavour) lepton pair
 -1  = mmjjmax ! max invariant mass of a jet pair
 -1  = mmbbmax ! max invariant mass of a b pair
 -1  = mmaamax ! max invariant mass of gamma gamma pair
 -1  = mmllmax ! max invariant mass of l+l- (same flavour) lepton pair
#*********************************************************************
# Minimum and maximum invariant mass for all letpons                 *
#*********************************************************************
 0   = mmnl    ! min invariant mass for all letpons (l+- and vl) 
 -1  = mmnlmax ! max invariant mass for all letpons (l+- and vl) 
#*********************************************************************
# Minimum and maximum pt for 4-momenta sum of leptons                *
#*********************************************************************
 0   = ptllmin  ! Minimum pt for 4-momenta sum of leptons(l and vl)
 -1  = ptllmax  ! Maximum pt for 4-momenta sum of leptons(l and vl)
#*********************************************************************
# Inclusive cuts                                                     *
#*********************************************************************
 0  = xptj ! minimum pt for at least one jet  
 0  = xptb ! minimum pt for at least one b 
 0  = xpta ! minimum pt for at least one photon 
 0  = xptl ! minimum pt for at least one charged lepton 
#*********************************************************************
# Control the pt's of the jets sorted by pt                          *
#*********************************************************************
 0   = ptj1min ! minimum pt for the leading jet in pt
 0   = ptj2min ! minimum pt for the second jet in pt
 0   = ptj3min ! minimum pt for the third jet in pt
 0   = ptj4min ! minimum pt for the fourth jet in pt
 -1  = ptj1max ! maximum pt for the leading jet in pt 
 -1  = ptj2max ! maximum pt for the second jet in pt
 -1  = ptj3max ! maximum pt for the third jet in pt
 -1  = ptj4max ! maximum pt for the fourth jet in pt
 0   = cutuse  ! reject event if fails any (0) / all (1) jet pt cuts
#*********************************************************************
# Control the pt's of leptons sorted by pt                           *
#*********************************************************************
 0   = ptl1min ! minimum pt for the leading lepton in pt
 0   = ptl2min ! minimum pt for the second lepton in pt
 0   = ptl3min ! minimum pt for the third lepton in pt
 0   = ptl4min ! minimum pt for the fourth lepton in pt
 -1  = ptl1max ! maximum pt for the leading lepton in pt 
 -1  = ptl2max ! maximum pt for the second lepton in pt
 -1  = ptl3max ! maximum pt for the third lepton in pt
 -1  = ptl4max ! maximum pt for the fourth lepton in pt
#*********************************************************************
# Control the Ht(k)=Sum of k leading jets                            *
#*********************************************************************
 0   = htjmin ! minimum jet HT=Sum(jet pt)
 -1  = htjmax ! maximum jet HT=Sum(jet pt)
 0   = ihtmin  !inclusive Ht for all partons (including b)
 -1  = ihtmax  !inclusive Ht for all partons (including b)
 0   = ht2min ! minimum Ht for the two leading jets
 0   = ht3min ! minimum Ht for the three leading jets
 0   = ht4min ! minimum Ht for the four leading jets
 -1  = ht2max ! maximum Ht for the two leading jets
 -1  = ht3max ! maximum Ht for the three leading jets
 -1  = ht4max ! maximum Ht for the four leading jets
#***********************************************************************
# Photon-isolation cuts, according to hep-ph/9801442                   *
# When ptgmin=0, all the other parameters are ignored                  *
# When ptgmin>0, pta and draj are not going to be used                 *
#***********************************************************************
   0 = ptgmin ! Min photon transverse momentum
 0.4 = R0gamma ! Radius of isolation code
 1.0 = xn ! n parameter of eq.(3.4) in hep-ph/9801442
 1.0 = epsgamma ! epsilon_gamma parameter of eq.(3.4) in hep-ph/9801442
 .true. = isoEM ! isolate photons from EM energy (photons and leptons)
#*********************************************************************
# WBF cuts                                                           *
#*********************************************************************
 0   = xetamin ! minimum rapidity for two jets in the WBF case  
 0   = deltaeta ! minimum rapidity for two jets in the WBF case 
#*********************************************************************
# KT DURHAM CUT                                                      *
#*********************************************************************
 -1    =  ktdurham        
 0.4  =  dparameter 
#*********************************************************************
# maximal pdg code for quark to be considered as a light jet         *
# (otherwise b cuts are applied)                                     *
#*********************************************************************
 4 = maxjetflavor    ! Maximum jet pdg code
#*********************************************************************
# Jet measure cuts                                                   *
#*********************************************************************
 0   = xqcut   ! minimum kt jet measure between partons
#*********************************************************************
#
#*********************************************************************
# Store info for systematics studies                                 *
# WARNING: If use_syst is T, matched Pythia output is                *
#          meaningful ONLY if plotted taking matchscale              *
#          reweighting into account!                                 *
#*********************************************************************
   F  = use_syst      ! Enable systematics studies
#
#**************************************
# Parameter of the systematics study
#  will be used by SysCalc (if installed)
#**************************************                                  
#
0.5 1 2 = sys_scalefact  # factorization/renormalization scale factor
0.5 1 2 = sys_alpsfact  # \alpha_s emission scale factors
30 50 = sys_matchscale # variation of merging scale
# PDF sets and number of members (0 or none for all members).
CT10nlo.LHgrid = sys_pdf # matching scales
# MSTW2008nlo68cl.LHgrid 1  = sys_pdf
</MGRunCard>
<slha>
######################################################################
## PARAM_CARD AUTOMATICALY GENERATED BY MG5 FOLLOWING UFO MODEL   ####
######################################################################
##                                                                  ##
##  Width set on Auto will be computed following the information    ##
##        present in the decay.py files of the model.               ##
##        See  arXiv:1402.1178 for more details.                    ##
##                                                                  ##
######################################################################

###################################
## INFORMATION FOR CKMBLOCK
###################################
Block ckmblock 
    1 2.277360e-01 # cabi 

###################################
## INFORMATION FOR FRBLOCK
###################################
Block frblock 
    1 6.000000e-01 # gz 

###################################
## INFORMATION FOR MASS
###################################
Block mass 
    1 5.040000e-03 # MD 
    2 2.550000e-03 # MU 
    3 1.010000e-01 # MS 
    4 1.270000e+00 # MC 
    5 4.700000e+00 # MB 
    6 1.720000e+02 # MT 
   11 5.110000e-04 # Me 
   13 1.056600e-01 # MM 
   15 1.777000e+00 # MTA 
   23 9.118760e+01 # MZ 
   25 1.200000e+02 # MH 
  10030 2.800000e+03 # MZph 
  10031 3.000000e+02 # MZpl 
## Dependent parameters, given by model restrictions.
## Those values should be edited following the 
## analytical expression. MG5 ignores those values 
## but they are important for interfacing the output of MG5
## to external program such as Pythia.
  12 0.000000 # ve : 0.0 
  14 0.000000 # vm : 0.0 
  16 0.000000 # vt : 0.0 
  21 0.000000 # g : 0.0 
  22 0.000000 # a : 0.0 
  24 79.824360 # w+ : cmath.sqrt(MZ__exp__2/2. + cmath.sqrt(MZ__exp__4/4. - (aEW*cmath.pi*MZ__exp__2)/(Gf*sqrt__2))) 

###################################
## INFORMATION FOR SMINPUTS
###################################
Block sminputs 
    1 1.279000e+02 # aEWM1 
    2 1.166370e-05 # Gf 
    3 1.184000e-01 # aS 

###################################
## INFORMATION FOR YUKAWA
###################################
Block yukawa 
    1 5.040000e-03 # ymdo 
    2 2.550000e-03 # ymup 
    3 1.010000e-01 # yms 
    4 1.270000e+00 # ymc 
    5 4.700000e+00 # ymb 
    6 1.720000e+02 # ymt 
   11 5.110000e-04 # yme 
   13 1.056600e-01 # ymm 
   15 1.777000e+00 # ymtau 

###################################
## INFORMATION FOR DECAY
###################################
DECAY   6 1.508336e+00 # WT 
DECAY  23 2.495200e+00 # WZ 
DECAY  24 2.085000e+00 # WW 
DECAY  25 5.753088e-03 # WH 
## Dependent parameters, given by model restrictions.
## Those values should be edited following the 
## analytical expression. MG5 ignores those values 
## but they are important for interfacing the output of MG5
## to external program such as Pythia.
DECAY  1 0.000000 # d : 0.0 
DECAY  2 0.000000 # u : 0.0 
DECAY  3 0.000000 # s : 0.0 
DECAY  4 0.000000 # c : 0.0 
DECAY  5 0.000000 # b : 0.0 
DECAY  11 0.000000 # e- : 0.0 
DECAY  12 0.000000 # ve : 0.0 
DECAY  13 0.000000 # mu- : 0.0 
DECAY  14 0.000000 # vm : 0.0 
DECAY  15 0.000000 # ta- : 0.0 
DECAY  16 0.000000 # vt : 0.0 
DECAY  21 0.000000 # g : 0.0 
DECAY  22 0.000000 # a : 0.0 
DECAY  10030 0.308725 # zph : (gz__exp__2*MZph*(5 + cmath.sqrt(1 - (4*MT__exp__2)/MZph__exp__2)))/(144.*cmath.pi) 
DECAY  10031 0.132629 # zpl : (5*gz__exp__2*MZpl)/(144.*cmath.pi) 
#===========================================================
# QUANTUM NUMBERS OF NEW STATE(S) (NON SM PDG CODE)
#===========================================================

Block QNUMBERS 10030  # zph 
        1 0  # 3 times electric charge
        2 3  # number of spin states (2S+1)
        3 1  # colour rep (1: singlet, 3: triplet, 8: octet)
        4 0  # Particle/Antiparticle distinction (0=own anti)
Block QNUMBERS 10031  # zpl 
        1 0  # 3 times electric charge
        2 3  # number of spin states (2S+1)
        3 1  # colour rep (1: singlet, 3: triplet, 8: octet)
        4 0  # Particle/Antiparticle distinction (0=own anti)
</slha>
## END BANNER##
<MGGenerationInfo>
#  Number of Events        :         3874
#  Integrated weight (pb)  :  0.85254E-03
#  Max wgt                 :  0.33459E-06
#  Average wgt             :  0.22007E-06
</MGGenerationInfo>
</header>
<init>
     2212     2212  0.40000000000E+04  0.40000000000E+04 0 0  247000  247000 2   1
  0.85365791800E-03  0.17648111297E-05  0.33459190000E-06   0
</init>
<event>
 5   0  0.3162695E-06  0.2799510E+04  0.7818609E-02  0.8303420E-01
        2   -1    0    0  501    0  0.00000000000E+00  0.00000000000E+00  0.18982409151E+04  0.18982409151E+04  0.25500000920E-02 0.  1.
       -2   -1    0    0    0  501  0.00000000000E+00  0.00000000000E+00 -0.10321736744E+04  0.10321736744E+04  0.25500000920E-02 0. -1.
    10030    2    1    2    0    0  0.00000000000E+00  0.00000000000E+00  0.86606724074E+03  0.29304145895E+04  0.27995101716E+04 0.  0.
        1    1    3    3  502    0 -0.60112951174E+03 -0.12236229376E+04  0.10085514060E+03  0.13670338484E+04  0.50400001928E-02 0. -1.
       -1    1    3    3    0  502  0.60112951174E+03  0.12236229376E+04  0.76521210014E+03  0.15633807411E+04  0.50400001928E-02 0.  1.
</event>
<event>
 5   0  0.3162695E-06  0.2799502E+04  0.7818609E-02  0.8303423E-01
       -2   -1    0    0    0  501  0.00000000000E+00  0.00000000000E+00  0.96769520153E+03  0.96769520154E+03  0.25500000920E-02 0. -1.
        2   -1    0    0  501    0  0.00000000000E+00  0.00000000000E+00 -0.20247112094E+04  0.20247112094E+04  0.25500000920E-02 0.  1.
    10030    2    1    2    0    0  0.00000000000E+00  0.00000000000E+00 -0.10570160079E+04  0.29924064109E+04  0.27995023285E+04 0.  0.
        1    1    3    3  502    0  0.79491280148E+03 -0.10984727458E+04 -0.89998123493E+03  0.16274197241E+04  0.50400001928E-02 0.  1.
       -1    1    3    3    0  502 -0.79491280148E+03  0.10984727458E+04 -0.15703477293E+03  0.13649866868E+04  0.50400001928E-02 0. -1.
</event>
<event>
 5   0  0.3167616E-06  0.2802715E+04  0.7818609E-02  0.8302426E-01
       -2   -1    0    0    0  501  0.00000000000E+00  0.00000000000E+00  0.98975770267E+03  0.98975770267E+03  0.25500000920E-02 0. -1.
        2   -1    0    0  501    0  0.00000000000E+00  0.00000000000E+00 -0.19841247402E+04  0.19841247402E+04  0.25500000920E-02 0.  1.
    10030    2    1    2    0    0  0.00000000000E+00  0.00000000000E+00 -0.99436703755E+03  0.29738824429E+04  0.28027149300E+04 0.  0.
        3    1    3    3  502    0 -0.85256207856E+03  0.45418038354E+02  0.68193339271E+03  0.10926838785E+04  0.10100000352E+00 0. -1.
       -3    1    3    3    0  502  0.85256207856E+03 -0.45418038354E+02 -0.16763004303E+04  0.18811985644E+04  0.10100000352E+00 0.  1.
</event>
<event>
 5   0  0.3162695E-06  0.2792515E+04  0.7818609E-02  0.8305596E-01
        2   -1    0    0  501    0  0.00000000000E+00  0.00000000000E+00  0.17192242318E+04  0.17192242318E+04  0.25500000920E-02 0. -1.
       -2   -1    0    0    0  501  0.00000000000E+00  0.00000000000E+00 -0.11339618221E+04  0.11339618221E+04  0.25500000920E-02 0.  1.
    10030    2    1    2    0    0  0.00000000000E+00  0.00000000000E+00  0.58526240963E+03  0.28531860539E+04  0.27925147394E+04 0.  0.
        1    1    3    3  502    0  0.67743323780E+03 -0.80129049019E+03  0.12338139397E+04  0.16196539998E+04  0.50400001928E-02 0. -1.
       -1    1    3    3    0  502 -0.67743323780E+03  0.80129049019E+03 -0.64855153004E+03  0.12335320541E+04  0.50400001928E-02 0.  1.
</event>
<event>
 5   0  0.3167616E-06  0.2797528E+04  0.7818609E-02  0.8304036E-01
        2   -1    0    0  501    0  0.00000000000E+00  0.00000000000E+00  0.22711890163E+04  0.22711890163E+04  0.25500000920E-02 0.  1.
       -2   -1    0    0    0  501  0.00000000000E+00  0.00000000000E+00 -0.86146114766E+03  0.86146114767E+03  0.25500000920E-02 0. -1.
    10030    2    1    2    0    0  0.00000000000E+00  0.00000000000E+00  0.14097278686E+04  0.31326501639E+04  0.27975282637E+04 0.  0.
        3    1    3    3  502    0 -0.12969407727E+04  0.48619040225E+03  0.92345186689E+03  0.16646921144E+04  0.10100000352E+00 0.  1.
       -3    1    3    3    0  502  0.12969407727E+04 -0.48619040225E+03  0.48627600173E+03  0.14679580495E+04  0.10100000352E+00 0. -1.
</event>
<event>
 5   0  0.1235252E-06  0.2781835E+04  0.7818609E-02  0.8308930E-01
       -1   -1    0    0    0  501  0.00000000000E+00  0.00000000000E+00  0.10203157462E+04  0.10203157462E+04  0.50400001928E-02 0. -1.
        1   -1    0    0  501    0  0.00000000000E+00  0.00000000000E+00 -0.18961295130E+04  0.18961295130E+04  0.50400001928E-02 0.  1.
    10030    2    1    2    0    0  0.00000000000E+00  0.00000000000E+00 -0.87581376681E+03  0.29164452592E+04  0.27818345018E+04 0.  0.
        1    1    3    3  502    0  0.33080086770E+03  0.13319914561E+04 -0.67471372088E+03  0.15293361496E+04  0.50400001928E-02 0.  1.
       -1    1    3    3    0  502 -0.33080086770E+03 -0.13319914561E+04 -0.20110004593E+03  0.13871091096E+04  0.50400001928E-02 0. -1.
</event>
<event>
 5   0  0.1263513E-06  0.2794961E+04  0.7818609E-02  0.8304835E-01
        1   -1    0    0  501    0  0.00000000000E+00  0.00000000000E+00  0.29791366845E+04  0.29791366845E+04  0.50400001928E-02 0.  1.
       -1   -1    0    0    0  501  0.00000000000E+00  0.00000000000E+00 -0.65554265599E+03  0.65554265601E+03  0.50400001928E-02 0. -1.
    10030    2    1    2    0    0  0.00000000000E+00  0.00000000000E+00  0.23235940285E+04  0.36346793405E+04  0.27949605899E+04 0.  0.
        3    1    3    3  502    0  0.12203490115E+04 -0.19745670996E+03  0.20092913649E+04  0.23591296407E+04  0.10100000352E+00 0.  1.
       -3    1    3    3    0  502 -0.12203490115E+04  0.19745670996E+03  0.31430266361E+03  0.12755496998E+04  0.10100000352E+00 0. -1.
</event>
<event>
 5   0  0.3162695E-06  0.2795964E+04  0.7818609E-02  0.8304522E-01
        2   -1    0    0  501    0  0.00000000000E+00  0.00000000000E+00  0.14872373115E+04  0.14872373115E+04  0.25500000920E-02 0.  1.
       -2   -1    0    0    0  501  0.00000000000E+00  0.00000000000E+00 -0.13140835312E+04  0.13140835312E+04  0.25500000920E-02 0. -1.
    10030    2    1    2    0    0  0.00000000000E+00  0.00000000000E+00  0.17315378034E+03  0.28013208427E+04  0.27959642759E+04 0.  0.
        1    1    3    3  502    0  0.90702800056E+03 -0.92992955394E+03 -0.43102225717E+03  0.13686668533E+04  0.50400001928E-02 0. -1.
       -1    1    3    3    0  502 -0.90702800056E+03  0.92992955394E+03  0.60417603751E+03  0.14326539894E+04  0.50400001928E-02 0.  1.
</event>
<event>
 5   0  0.1246044E-06  0.2790267E+04  0.7818609E-02  0.8306296E-01
       -1   -1    0    0    0  501  0.00000000000E+00  0.00000000000E+00  0.11624996875E+04  0.11624996875E+04  0.50400001928E-02 0.  1.
        1   -1    0    0  501    0  0.00000000000E+00  0.00000000000E+00 -0.16743209132E+04  0.16743209132E+04  0.50400001928E-02 0. -1.
    10030    2    1    2    0    0  0.00000000000E+00  0.00000000000E+00 -0.51182122578E+03  0.28368206007E+04  0.27902670398E+04 0.  0.
        2    1    3    3  502    0  0.57198943230E+02 -0.29583288364E+03  0.11290241162E+04  0.11685393743E+04  0.25500000920E-02 0.  1.
       -2    1    3    3    0  502 -0.57198943230E+02  0.29583288364E+03 -0.16408453420E+04  0.16682812265E+04  0.25500000920E-02 0. -1.
</event>
<event>
 5   0  0.3162695E-06  0.2804332E+04  0.7818609E-02  0.8301925E-01
        2   -1    0    0  501    0  0.00000000000E+00  0.00000000000E+00  0.16624582365E+04  0.16624582365E+04  0.25500000920E-02 0.  1.
       -2   -1    0    0    0  501  0.00000000000E+00  0.00000000000E+00 -0.11826276252E+04  0.11826276252E+04  0.25500000920E-02 0. -1.
    10030    2    1    2    0    0  0.00000000000E+00  0.00000000000E+00  0.47983061132E+03  0.28450858618E+04  0.28043316753E+04 0.  0.
        1    1    3    3  502    0  0.12899642259E+04 -0.22298757301E+03  0.74954792835E+03  0.15084937052E+04  0.50400001928E-02 0. -1.
       -1    1    3    3    0  502 -0.12899642259E+04  0.22298757301E+03 -0.26971731702E+03  0.13365921565E+04  0.50400001928E-02 0.  1.
</event>
<event>
 5   0  0.1246044E-06  0.2799935E+04  0.7818609E-02  0.8303289E-01
       -1   -1    0    0    0  501  0.00000000000E+00  0.00000000000E+00  0.28472154938E+04  0.28472154938E+04  0.50400001928E-02 0.  1.
        1   -1    0    0  501    0  0.00000000000E+00  0.00000000000E+00 -0.68835986733E+03  0.68835986735E+03  0.50400001928E-02 0. -1.
    10030    2    1    2    0    0  0.00000000000E+00  0.00000000000E+00  0.21588556265E+04  0.35355753612E+04  0.27999349133E+04 0.  0.
        2    1    3    3  502    0  0.60457202964E+03 -0.94050748883E+03  0.21433126053E+04  0.24174057582E+04  0.25500000920E-02 0.  1.
       -2    1    3    3    0  502 -0.60457202964E+03  0.94050748883E+03  0.15543021201E+02  0.11181696030E+04  0.25500000920E-02 0. -1.
</event>
<event>
 5   0  0.3226364E-06  0.2805283E+04  0.7818609E-02  0.8301630E-01
       -2   -1    0    0    0  501  0.00000000000E+00  0.00000000000E+00  0.14659814077E+04  0.14659814077E+04  0.25500000920E-02 0.  1.
        2   -1    0    0  501    0  0.00000000000E+00  0.00000000000E+00 -0.13420387197E+04  0.13420387197E+04  0.25500000920E-02 0. -1.
    10030    2    1    2    0    0  0.00000000000E+00  0.00000000000E+00  0.12394268805E+03  0.28080201274E+04  0.28052834519E+04 0.  0.
        5    1    3    3  502    0  0.39099628727E+03 -0.21227998566E+03  0.13934723199E+04  0.14627809423E+04  0.46999998093E+01 0.  1.
       -5    1    3    3    0  502 -0.39099628727E+03  0.21227998566E+03 -0.12695296318E+04  0.13452391851E+04  0.46999998093E+01 0. -1.
</event>
<event>
 5   0  0.1243055E-06  0.2798033E+04  0.7818609E-02  0.8303879E-01
       -1   -1    0    0    0  501  0.00000000000E+00  0.00000000000E+00  0.15797528101E+04  0.15797528101E+04  0.50400001928E-02 0. -1.
        1   -1    0    0  501    0  0.00000000000E+00  0.00000000000E+00 -0.12389577972E+04  0.12389577972E+04  0.50400001928E-02 0.  1.
    10030    2    1    2    0    0  0.00000000000E+00  0.00000000000E+00  0.34079501294E+03  0.28187106073E+04  0.27980329245E+04 0.  0.
        5    1    3    3  502    0  0.15592298565E+03  0.11972747107E+04  0.88233530707E+03  0.14954318421E+04  0.46999998093E+01 0. -1.
       -5    1    3    3    0  502 -0.15592298565E+03 -0.11972747107E+04 -0.54154029413E+03  0.13232787652E+04  0.46999998093E+01 0.  1.
</event>
<event>
 5   0  0.1235252E-06  0.2791093E+04  0.7818609E-02  0.8306039E-01
       -1   -1    0    0    0  501  0.00000000000E+00  0.00000000000E+00  0.11269495766E+04  0.11269495766E+04  0.50400001928E-02 0.  1.
        1   -1    0    0  501    0  0.00000000000E+00  0.00000000000E+00 -0.17281605201E+04  0.17281605201E+04  0.50400001928E-02 0. -1.
    10030    2    1    2    0    0  0.00000000000E+00  0.00000000000E+00 -0.60121094345E+03  0.28551100967E+04  0.27910928085E+04 0.  0.
        1    1    3    3  502    0 -0.23165050516E+03  0.41631284392E+03 -0.16423966591E+04  0.17101009111E+04  0.50400001928E-02 0. -1.
       -1    1    3    3    0  502  0.23165050516E+03 -0.41631284392E+03  0.10411857156E+04  0.11450091855E+04  0.50400001928E-02 0.  1.
</event>
<event>
 5   0  0.1263513E-06  0.2797361E+04  0.7818609E-02  0.8304088E-01
        1   -1    0    0  501    0  0.00000000000E+00  0.00000000000E+00  0.16852977458E+04  0.16852977458E+04  0.50400001928E-02 0. -1.
       -1   -1    0    0    0  501  0.00000000000E+00  0.00000000000E+00 -0.11608077363E+04  0.11608077363E+04  0.50400001928E-02 0.  1.
    10030    2    1    2    0    0  0.00000000000E+00  0.00000000000E+00  0.52449000955E+03  0.28461054821E+04  0.27973606570E+04 0.  0.
        3    1    3    3  502    0  0.92757704041E+03 -0.70977631589E+03 -0.52066033039E+03  0.12787762800E+04  0.10100000352E+00 0.  1.
       -3    1    3    3    0  502 -0.92757704041E+03  0.70977631589E+03  0.10451503399E+04  0.15673292021E+04  0.10100000352E+00 0. -1.
</event>
<event>
 5   0  0.1263513E-06  0.2796547E+04  0.7818609E-02  0.8304341E-01
       -1   -1    0    0    0  501  0.00000000000E+00  0.00000000000E+00  0.14339017869E+04  0.14339017869E+04  0.50400001928E-02 0. -1.
        1   -1    0    0  501    0  0.00000000000E+00  0.00000000000E+00 -0.13635308441E+04  0.13635308441E+04  0.50400001928E-02 0.  1.
    10030    2    1    2    0    0  0.00000000000E+00  0.00000000000E+00  0.70370942783E+02  0.27974326310E+04  0.27965473812E+04 0.  0.
        3    1    3    3  502    0  0.12885035275E+04 -0.52859961713E+03  0.15976568332E+03  0.14018501987E+04  0.10100000352E+00 0.  1.
       -3    1    3    3    0  502 -0.12885035275E+04  0.52859961713E+03 -0.89394740537E+02  0.13955824324E+04  0.10100000352E+00 0. -1.
</event>
<event>
 5   0  0.3162695E-06  0.2801401E+04  0.7818609E-02  0.8302834E-01
        2   -1    0    0  501    0  0.00000000000E+00  0.00000000000E+00  0.20758737956E+04  0.20758737956E+04  0.25500000920E-02 0.  1.
       -2   -1    0    0    0  501  0.00000000000E+00  0.00000000000E+00 -0.94512566311E+03  0.94512566311E+03  0.25500000920E-02 0. -1.
    10030    2    1    2    0    0  0.00000000000E+00  0.00000000000E+00  0.11307481325E+04  0.30209994587E+04  0.28014007908E+04 0.  0.
        1    1    3    3  502    0  0.75339337639E+03  0.22119401449E+03  0.18162276433E+04  0.19786892691E+04  0.50400001928E-02 0.  1.
       -1    1    3    3    0  502 -0.75339337639E+03 -0.22119401449E+03 -0.68547951075E+03  0.10423101896E+04  0.50400001928E-02 0. -1.
</event>
<event>
 5   0  0.1220265E-06  0.2765988E+04  0.7818609E-02  0.8313906E-01
        1   -1    0    0  501    0  0.00000000000E+00  0.00000000000E+00  0.20336701472E+04  0.20336701472E+04  0.50400001928E-02 0.  1.
       -1   -1    0    0    0  501  0.00000000000E+00  0.00000000000E+00 -0.94050309024E+03  0.94050309026E+03  0.50400001928E-02 0. -1.
    10030    2    1    2    0    0  0.00000000000E+00  0.00000000000E+00  0.10931670569E+04  0.29741732374E+04  0.27659884728E+04 0.  0.
        4    1    3    3  502    0  0.64870654597E+03  0.36485324244E+03 -0.70679721179E+03  0.10264024468E+04  0.12699999809E+01 0. -1.
       -4    1    3    3    0  502 -0.64870654597E+03 -0.36485324244E+03  0.17999642687E+04  0.19477707906E+04  0.12699999809E+01 0.  1.
</event>
<event>
 5   0  0.1235252E-06  0.2802539E+04  0.7818609E-02  0.8302480E-01
       -1   -1    0    0    0  501  0.00000000000E+00  0.00000000000E+00  0.10029161920E+04  0.10029161920E+04  0.50400001928E-02 0.  1.
        1   -1    0    0  501    0  0.00000000000E+00  0.00000000000E+00 -0.19578470781E+04  0.19578470781E+04  0.50400001928E-02 0. -1.
    10030    2    1    2    0    0  0.00000000000E+00  0.00000000000E+00 -0.95493088610E+03  0.29607632702E+04  0.28025392316E+04 0.  0.
        1    1    3    3  502    0 -0.12613268383E+04  0.61015827611E+03 -0.45862548146E+03  0.14743052083E+04  0.50400001928E-02 0. -1.
       -1    1    3    3    0  502  0.12613268383E+04 -0.61015827611E+03 -0.49630540464E+03  0.14864580619E+04  0.50400001928E-02 0.  1.
</event>
<event>
 5   0  0.3345919E-06  0.2795899E+04  0.7818609E-02  0.8304543E-01
        2   -1    0    0  501    0  0.00000000000E+00  0.00000000000E+00  0.13425049369E+04  0.13425049369E+04  0.25500000920E-02 0. -1.
       -2   -1    0    0    0  501  0.00000000000E+00  0.00000000000E+00 -0.14556836935E+04  0.14556836935E+04  0.25500000920E-02 0.  1.
    10030    2    1    2    0    0  0.00000000000E+00  0.00000000000E+00 -0.11317875661E+03  0.27981886304E+04  0.27958988144E+04 0.  0.
        2    1    3    3  502    0  0.69209474867E+03  0.12054273959E+04 -0.20574900823E+03  0.14051273972E+04  0.25500000920E-02 0.  1.
       -2    1    3    3    0  502 -0.69209474867E+03 -0.12054273959E+04  0.92570251612E+02  0.13930612332E+04  0.25500000920E-02 0. -1.
</event>
<event>
 5   0  0.1263513E-06  0.2804487E+04  0.7818609E-02  0.8301877E-01
       -1   -1    0    0    0  501  0.00000000000E+00  0.00000000000E+00  0.15732770606E+04  0.15732770606E+04  0.50400001928E-02 0. -1.
        1   -1    0    0  501    0  0.00000000000E+00  0.00000000000E+00 -0.12498028966E+04  0.12498028966E+04  0.50400001928E-02 0.  1.
    10030    2    1    2    0    0  0.00000000000E+00  0.00000000000E+00  0.32347416396E+03  0.28230799572E+04  0.28044865679E+04 0.  0.
        3    1    3    3  502    0 -0.77247278511E+03  0.91334233858E+03  0.89828327331E+03  0.14959349185E+04  0.10100000352E+00 0.  1.
       -3    1    3    3    0  502  0.77247278511E+03 -0.91334233858E+03 -0.57480910935E+03  0.13271450386E+04  0.10100000352E+00 0. -1.
</event>
<event>
 5   0  0.3167616E-06  0.2801634E+04  0.7818609E-02  0.8302761E-01
        2   -1    0    0  501    0  0.00000000000E+00  0.00000000000E+00  0.13673222263E+04  0.13673222263E+04  0.25500000920E-02 0. -1.
       -2   -1    0    0    0  501  0.00000000000E+00  0.00000000000E+00 -0.14351319994E+04  0.14351319994E+04  0.25500000920E-02 0.  1.
    10030    2    1    2    0    0  0.00000000000E+00  0.00000000000E+00 -0.67809773111E+02  0.28024542257E+04  0.28016337238E+04 0.  0.
        3    1    3    3  502    0 -0.57334365221E+03 -0.10617864687E+04  0.67776283592E+03  0.13840071967E+04  0.10100000352E+00 0. -1.
       -3    1    3    3    0  502  0.57334365221E+03  0.10617864687E+04 -0.74557260903E+03  0.14184470290E+04  0.10100000352E+00 0.  1.
</event>
<event>
 5   0  0.1235252E-06  0.2805489E+04  0.7818609E-02  0.8301566E-01
        1   -1    0    0  501    0  0.00000000000E+00  0.00000000000E+00  0.17401364935E+04  0.17401364935E+04  0.50400001928E-02 0. -1.
       -1   -1    0    0    0  501  0.00000000000E+00  0.00000000000E+00 -0.11307689412E+04  0.11307689413E+04  0.50400001928E-02 0.  1.
    10030    2    1    2    0    0  0.00000000000E+00  0.00000000000E+00  0.60936755225E+03  0.28709054348E+04  0.28054891198E+04 0.  0.
        1    1    3    3  502    0  0.55486244240E+03  0.81638105532E+03  0.13245886928E+04  0.16519338857E+04  0.50400001928E-02 0. -1.
       -1    1    3    3    0  502 -0.55486244240E+03 -0.81638105532E+03 -0.71522114059E+03  0.12189715491E+04  0.50400001928E-02 0.  1.
</event>
<event>
 5   0  0.3345919E-06  0.2799245E+04  0.7818609E-02  0.8303503E-01
       -2   -1    0    0    0  501  0.00000000000E+00  0.00000000000E+00  0.65333797853E+03  0.65333797853E+03  0.25500000920E-02 0. -1.
        2   -1    0    0  501    0  0.00000000000E+00  0.00000000000E+00 -0.29983612523E+04  0.29983612523E+04  0.25500000920E-02 0.  1.
    10030    2    1    2    0    0  0.00000000000E+00  0.00000000000E+00 -0.23450232738E+04  0.36516992309E+04  0.27992450979E+04 0.  0.
        2    1    3    3  502    0  0.85386163879E+03  0.30534060855E+03  0.21828542187E+03  0.93271705829E+03  0.25500000920E-02 0. -1.
       -2    1    3    3    0  502 -0.85386163879E+03 -0.30534060855E+03 -0.25633086957E+04  0.27189821726E+04  0.25500000920E-02 0.  1.
</event>
<event>
 5   0  0.1246044E-06  0.2801991E+04  0.7818609E-02  0.8302651E-01
       -1   -1    0    0    0  501  0.00000000000E+00  0.00000000000E+00  0.18131684766E+04  0.18131684766E+04  0.50400001928E-02 0. -1.
        1   -1    0    0  501    0  0.00000000000E+00  0.00000000000E+00 -0.10825183917E+04  0.10825183917E+04  0.50400001928E-02 0.  1.
    10030    2    1    2    0    0  0.00000000000E+00  0.00000000000E+00  0.73065008495E+03  0.28956868683E+04  0.28019908802E+04 0.  0.
        2    1    3    3  502    0  0.10437097843E+04  0.12928895113E+03 -0.59123013976E+03  0.12064820035E+04  0.25500000920E-02 0.  1.
       -2    1    3    3    0  502 -0.10437097843E+04 -0.12928895113E+03  0.13218802247E+04  0.16892048648E+04  0.25500000920E-02 0. -1.
</event>
<event>
 5   0  0.3167616E-06  0.2793240E+04  0.7818609E-02  0.8305370E-01
       -2   -1    0    0    0  501  0.00000000000E+00  0.00000000000E+00  0.12726957363E+04  0.12726957363E+04  0.25500000920E-02 0. -1.
        2   -1    0    0  501    0  0.00000000000E+00  0.00000000000E+00 -0.15326105957E+04  0.15326105957E+04  0.25500000920E-02 0.  1.
    10030    2    1    2    0    0  0.00000000000E+00  0.00000000000E+00 -0.25991485942E+03  0.28053063320E+04  0.27932396750E+04 0.  0.
        3    1    3    3  502    0 -0.11069922715E+04 -0.85130055197E+03 -0.15010503526E+03  0.14045198648E+04  0.10100000352E+00 0.  1.
       -3    1    3    3    0  502  0.11069922715E+04  0.85130055197E+03 -0.10980982416E+03  0.14007864672E+04  0.10100000352E+00 0. -1.
</event>
<event>
 5   0  0.3226364E-06  0.2804150E+04  0.7818609E-02  0.8301981E-01
       -2   -1    0    0    0  501  0.00000000000E+00  0.00000000000E+00  0.90790285630E+03  0.90790285631E+03  0.25500000920E-02 0. -1.
        2   -1    0    0  501    0  0.00000000000E+00  0.00000000000E+00 -0.21652256742E+04  0.21652256742E+04  0.25500000920E-02 0.  1.
    10030    2    1    2    0    0  0.00000000000E+00  0.00000000000E+00 -0.12573228179E+04  0.30731285305E+04  0.28041501915E+04 0.  0.
        5    1    3    3  502    0  0.11580446216E+04 -0.43885074257E+03 -0.13490872090E+04  0.18313152944E+04  0.46999998093E+01 0.  1.
       -5    1    3    3    0  502 -0.11580446216E+04  0.43885074257E+03  0.91764391087E+02  0.12418132361E+04  0.46999998093E+01 0. -1.
</event>
<event>
 5   0  0.1246044E-06  0.2803521E+04  0.7818609E-02  0.8302176E-01
        1   -1    0    0  501    0  0.00000000000E+00  0.00000000000E+00  0.73300714885E+03  0.73300714886E+03  0.50400001928E-02 0.  1.
       -1   -1    0    0    0  501  0.00000000000E+00  0.00000000000E+00 -0.26806455743E+04  0.26806455743E+04  0.50400001928E-02 0. -1.
    10030    2    1    2    0    0  0.00000000000E+00  0.00000000000E+00 -0.19476384254E+04  0.34136527231E+04  0.28035209074E+04 0.  0.
        2    1    3    3  502    0 -0.61306547315E+03 -0.11659195314E+04 -0.15574120746E+04  0.20397916556E+04  0.25500000920E-02 0. -1.
       -2    1    3    3    0  502  0.61306547315E+03  0.11659195314E+04 -0.39022635082E+03  0.13738610675E+04  0.25500000920E-02 0.  1.
</event>
<event>
 5   0  0.3167616E-06  0.2798517E+04  0.7818609E-02  0.8303729E-01
       -2   -1    0    0    0  501  0.00000000000E+00  0.00000000000E+00  0.11009674922E+04  0.11009674922E+04  0.25500000920E-02 0.  1.
        2   -1    0    0  501    0  0.00000000000E+00  0.00000000000E+00 -0.17783671280E+04  0.17783671280E+04  0.25500000920E-02 0. -1.
    10030    2    1    2    0    0  0.00000000000E+00  0.00000000000E+00 -0.67739963577E+03  0.28793346202E+04  0.27985170338E+04 0.  0.
        3    1    3    3  502    0  0.32817800498E+03 -0.95140909142E+03  0.66150806635E+03  0.12043558420E+04  0.10100000352E+00 0.  1.
       -3    1    3    3    0  502 -0.32817800498E+03  0.95140909142E+03 -0.13389077021E+04  0.16749787781E+04  0.10100000352E+00 0. -1.
</event>
<event>
 5   0  0.3162695E-06  0.2755292E+04  0.7818609E-02  0.8317284E-01
       -2   -1    0    0    0  501  0.00000000000E+00  0.00000000000E+00  0.10174533027E+04  0.10174533027E+04  0.25500000920E-02 0. -1.
        2   -1    0    0  501    0  0.00000000000E+00  0.00000000000E+00 -0.18653515424E+04  0.18653515424E+04  0.25500000920E-02 0.  1.
    10030    2    1    2    0    0  0.00000000000E+00  0.00000000000E+00 -0.84789823975E+03  0.28828048451E+04  0.27552916996E+04 0.  0.
        1    1    3    3  502    0 -0.10053380533E+04  0.66123429940E+03 -0.11257933538E+04  0.16478307181E+04  0.50400001928E-02 0.  1.
       -1    1    3    3    0  502  0.10053380533E+04 -0.66123429940E+03  0.27789511403E+03  0.12349741270E+04  0.50400001928E-02 0. -1.
</event>
<event>
 5   0  0.1243055E-06  0.2795454E+04  0.7818609E-02  0.8304681E-01
       -1   -1    0    0    0  501  0.00000000000E+00  0.00000000000E+00  0.14705783960E+04  0.14705783960E+04  0.50400001928E-02 0. -1.
        1   -1    0    0  501    0  0.00000000000E+00  0.00000000000E+00 -0.13284845517E+04  0.13284845517E+04  0.50400001928E-02 0.  1.
    10030    2    1    2    0    0  0.00000000000E+00  0.00000000000E+00  0.14209384430E+03  0.27990629478E+04  0.27954539390E+04 0.  0.
        5    1    3    3  502    0  0.10851912561E+04 -0.31013534680E+03  0.89660794110E+03  0.14414409061E+04  0.46999998093E+01 0. -1.
       -5    1    3    3    0  502 -0.10851912561E+04  0.31013534680E+03 -0.75451409680E+03  0.13576220417E+04  0.46999998093E+01 0.  1.
</event>
<event>
 5   0  0.3167616E-06  0.2798657E+04  0.7818609E-02  0.8303685E-01
        2   -1    0    0  501    0  0.00000000000E+00  0.00000000000E+00  0.95328757335E+03  0.95328757335E+03  0.25500000920E-02 0.  1.
       -2   -1    0    0    0  501  0.00000000000E+00  0.00000000000E+00 -0.20540711352E+04  0.20540711352E+04  0.25500000920E-02 0. -1.
    10030    2    1    2    0    0  0.00000000000E+00  0.00000000000E+00 -0.11007835619E+04  0.30073587086E+04  0.27986571694E+04 0.  0.
        3    1    3    3  502    0 -0.93356794589E+03 -0.65559587312E+03 -0.14212363946E+04  0.18224346238E+04  0.10100000352E+00 0. -1.
       -3    1    3    3    0  502  0.93356794589E+03  0.65559587312E+03  0.32045283275E+03  0.11849240848E+04  0.10100000352E+00 0.  1.
</event>
<event>
 5   0  0.1220265E-06  0.2798084E+04  0.7818609E-02  0.8303863E-01
        1   -1    0    0  501    0  0.00000000000E+00  0.00000000000E+00  0.17092384855E+04  0.17092384855E+04  0.50400001928E-02 0. -1.
       -1   -1    0    0    0  501  0.00000000000E+00  0.00000000000E+00 -0.11451406581E+04  0.11451406581E+04  0.50400001928E-02 0.  1.
    10030    2    1    2    0    0  0.00000000000E+00  0.00000000000E+00  0.56409782744E+03  0.28543791436E+04  0.27980839759E+04 0.  0.
        4    1    3    3  502    0 -0.26061360055E+03  0.68817111262E+02  0.16824989177E+04  0.17039540677E+04  0.12699999809E+01 0. -1.
       -4    1    3    3    0  502  0.26061360055E+03 -0.68817111262E+02 -0.11184010903E+04  0.11504250759E+04  0.12699999809E+01 0.  1.
</event>
<event>
 5   0  0.1235252E-06  0.2818930E+04  0.7818609E-02  0.8297415E-01
       -1   -1    0    0    0  501  0.00000000000E+00  0.00000000000E+00  0.13781779743E+04  0.13781779744E+04  0.50400001928E-02 0.  1.
        1   -1    0    0  501    0  0.00000000000E+00  0.00000000000E+00 -0.14414619111E+04  0.14414619111E+04  0.50400001928E-02 0. -1.
    10030    2    1    2    0    0  0.00000000000E+00  0.00000000000E+00 -0.63283936756E+02  0.28196398855E+04  0.28189296244E+04 0.  0.
        1    1    3    3  502    0 -0.40706831813E+03 -0.88654630271E+03  0.98592556283E+03  0.13869816790E+04  0.50400001928E-02 0.  1.
       -1    1    3    3    0  502  0.40706831813E+03  0.88654630271E+03 -0.10492094996E+04  0.14326582065E+04  0.50400001928E-02 0. -1.
</event>
<event>
 5   0  0.1263513E-06  0.2808595E+04  0.7818609E-02  0.8300605E-01
        1   -1    0    0  501    0  0.00000000000E+00  0.00000000000E+00  0.19711698461E+04  0.19711698461E+04  0.50400001928E-02 0. -1.
       -1   -1    0    0    0  501  0.00000000000E+00  0.00000000000E+00 -0.10004473077E+04  0.10004473077E+04  0.50400001928E-02 0.  1.
    10030    2    1    2    0    0  0.00000000000E+00  0.00000000000E+00  0.97072253844E+03  0.29716171538E+04  0.28085950691E+04 0.  0.
        3    1    3    3  502    0 -0.32044829122E+02  0.13420154890E+04  0.49094032743E+02  0.13432954545E+04  0.10100000352E+00 0.  1.
       -3    1    3    3    0  502  0.32044829122E+02 -0.13420154890E+04  0.92162850570E+03  0.16283216993E+04  0.10100000352E+00 0. -1.
</event>
<event>
 5   0  0.3212679E-06  0.2801306E+04  0.7818609E-02  0.8302863E-01
        2   -1    0    0  501    0  0.00000000000E+00  0.00000000000E+00  0.19578885750E+04  0.19578885750E+04  0.25500000920E-02 0. -1.
       -2   -1    0    0    0  501  0.00000000000E+00  0.00000000000E+00 -0.10020125716E+04  0.10020125716E+04  0.25500000920E-02 0.  1.
    10030    2    1    2    0    0  0.00000000000E+00  0.00000000000E+00  0.95587600341E+03  0.29599011467E+04  0.28013060997E+04 0.  0.
        4    1    3    3  502    0  0.12408684004E+04 -0.42386693172E+03  0.99816359950E+03  0.16479531993E+04  0.12699999809E+01 0. -1.
       -4    1    3    3    0  502 -0.12408684004E+04  0.42386693172E+03 -0.42287596092E+02  0.13119479474E+04  0.12699999809E+01 0.  1.
</event>
<event>
 5   0  0.3212679E-06  0.2807905E+04  0.7818609E-02  0.8300818E-01
        2   -1    0    0  501    0  0.00000000000E+00  0.00000000000E+00  0.17023405536E+04  0.17023405536E+04  0.25500000920E-02 0.  1.
       -2   -1    0    0    0  501  0.00000000000E+00  0.00000000000E+00 -0.11578665946E+04  0.11578665946E+04  0.25500000920E-02 0. -1.
    10030    2    1    2    0    0  0.00000000000E+00  0.00000000000E+00  0.54447395900E+03  0.28602071482E+04  0.28079054540E+04 0.  0.
        4    1    3    3  502    0 -0.28399214359E+03 -0.12566160589E+04 -0.29614039917E+03  0.13219062773E+04  0.12699999809E+01 0. -1.
       -4    1    3    3    0  502  0.28399214359E+03  0.12566160589E+04  0.84061435816E+03  0.15383008708E+04  0.12699999809E+01 0.  1.
</event>
<event>
 5   0  0.1246044E-06  0.2777976E+04  0.7818609E-02  0.8310139E-01
       -1   -1    0    0    0  501  0.00000000000E+00  0.00000000000E+00  0.22169448720E+04  0.22169448720E+04  0.50400001928E-02 0. -1.
        1   -1    0    0  501    0  0.00000000000E+00  0.00000000000E+00 -0.87024597950E+03  0.87024597952E+03  0.50400001928E-02 0.  1.
    10030    2    1    2    0    0  0.00000000000E+00  0.00000000000E+00  0.13466988925E+04  0.30871908516E+04  0.27779757823E+04 0.  0.
        2    1    3    3  502    0 -0.93522449492E+03 -0.45797413582E+03 -0.34815025247E+03  0.10979953385E+04  0.25500000920E-02 0.  1.
       -2    1    3    3    0  502  0.93522449492E+03  0.45797413582E+03  0.16948491450E+04  0.19891955131E+04  0.25500000920E-02 0. -1.
</event>
<event>
 5   0  0.1243055E-06  0.2790731E+04  0.7818609E-02  0.8306152E-01
        1   -1    0    0  501    0  0.00000000000E+00  0.00000000000E+00  0.86443989733E+03  0.86443989734E+03  0.50400001928E-02 0.  1.
       -1   -1    0    0    0  501  0.00000000000E+00  0.00000000000E+00 -0.22523780653E+04  0.22523780653E+04  0.50400001928E-02 0. -1.
    10030    2    1    2    0    0  0.00000000000E+00  0.00000000000E+00 -0.13879381680E+04  0.31168179626E+04  0.27907314192E+04 0.  0.
        5    1    3    3  502    0  0.49552082939E+03 -0.36957002226E+03 -0.20910988906E+04  0.21805594590E+04  0.46999998093E+01 0. -1.
       -5    1    3    3    0  502 -0.49552082939E+03  0.36957002226E+03  0.70316072269E+03  0.93625850365E+03  0.46999998093E+01 0.  1.
</event>
<event>
 5   0  0.1243055E-06  0.2801802E+04  0.7818609E-02  0.8302709E-01
        1   -1    0    0  501    0  0.00000000000E+00  0.00000000000E+00  0.16548999988E+04  0.16548999988E+04  0.50400001928E-02 0. -1.
       -1   -1    0    0    0  501  0.00000000000E+00  0.00000000000E+00 -0.11858865521E+04  0.11858865521E+04  0.50400001928E-02 0.  1.
    10030    2    1    2    0    0  0.00000000000E+00  0.00000000000E+00  0.46901344674E+03  0.28407865509E+04  0.28018020299E+04 0.  0.
        5    1    3    3  502    0  0.74612261206E+03  0.70736958669E+03  0.11992878710E+04  0.15796785027E+04  0.46999998093E+01 0. -1.
       -5    1    3    3    0  502 -0.74612261206E+03 -0.70736958669E+03 -0.73027442428E+03  0.12611080482E+04  0.46999998093E+01 0.  1.
</event>
<event>
 5   0  0.3345919E-06  0.2805192E+04  0.7818609E-02  0.8301658E-01
        2   -1    0    0  501    0  0.00000000000E+00  0.00000000000E+00  0.19392347485E+04  0.19392347485E+04  0.25500000920E-02 0. -1.
       -2   -1    0    0    0  501  0.00000000000E+00  0.00000000000E+00 -0.10144594533E+04  0.10144594533E+04  0.25500000920E-02 0.  1.
    10030    2    1    2    0    0  0.00000000000E+00  0.00000000000E+00  0.92477529525E+03  0.29536942018E+04  0.28051916318E+04 0.  0.
        2    1    3    3  502    0  0.14278566241E+01  0.43171587481E+03 -0.94276038093E+03  0.10369077930E+04  0.25500000920E-02 0.  1.
       -2    1    3    3    0  502 -0.14278566241E+01 -0.43171587481E+03  0.18675356762E+04  0.19167864088E+04  0.25500000920E-02 0. -1.
</event>
<event>
 5   0  0.3167616E-06  0.2797058E+04  0.7818609E-02  0.8304182E-01
       -2   -1    0    0    0  501  0.00000000000E+00  0.00000000000E+00  0.10525174716E+04  0.10525174716E+04  0.25500000920E-02 0. -1.
        2   -1    0    0  501    0  0.00000000000E+00  0.00000000000E+00 -0.18582900100E+04  0.18582900100E+04  0.25500000920E-02 0.  1.
    10030    2    1    2    0    0  0.00000000000E+00  0.00000000000E+00 -0.80577253836E+03  0.29108074816E+04  0.27970575274E+04 0.  0.
        3    1    3    3  502    0  0.11369175895E+04 -0.79953104869E+03 -0.24149487819E+03  0.14107272201E+04  0.10100000352E+00 0.  1.
       -3    1    3    3    0  502 -0.11369175895E+04  0.79953104869E+03 -0.56427766017E+03  0.15000802615E+04  0.10100000352E+00 0. -1.
</event>
<event>
 5   0  0.3162695E-06  0.2814510E+04  0.7818609E-02  0.8298778E-01
        2   -1    0    0  501    0  0.00000000000E+00  0.00000000000E+00  0.23542049976E+04  0.23542049976E+04  0.25500000920E-02 0. -1.
       -2   -1    0    0    0  501  0.00000000000E+00  0.00000000000E+00 -0.84120403597E+03  0.84120403598E+03  0.25500000920E-02 0.  1.
    10030    2    1    2    0    0  0.00000000000E+00  0.00000000000E+00  0.15130009616E+04  0.31954090335E+04  0.28145100785E+04 0.  0.
        1    1    3    3  502    0  0.63686828845E+03  0.93130346368E+03 -0.19842233140E+03  0.11455561007E+04  0.50400001928E-02 0.  1.
       -1    1    3    3    0  502 -0.63686828845E+03 -0.93130346368E+03  0.17114232930E+04  0.20498529328E+04  0.50400001928E-02 0. -1.
</event>
<event>
 5   0  0.3345919E-06  0.2813224E+04  0.7818609E-02  0.8299174E-01
        2   -1    0    0  501    0  0.00000000000E+00  0.00000000000E+00  0.17890596665E+04  0.17890596665E+04  0.25500000920E-02 0.  1.
       -2   -1    0    0    0  501  0.00000000000E+00  0.00000000000E+00 -0.11059205519E+04  0.11059205519E+04  0.25500000920E-02 0. -1.
    10030    2    1    2    0    0  0.00000000000E+00  0.00000000000E+00  0.68313911459E+03  0.28949802183E+04  0.28132243804E+04 0.  0.
        2    1    3    3  502    0 -0.24223336015E+03  0.11739083049E+04 -0.41590631145E+03  0.12687457464E+04  0.25500000920E-02 0. -1.
       -2    1    3    3    0  502  0.24223336015E+03 -0.11739083049E+04  0.10990454260E+04  0.16262344719E+04  0.25500000920E-02 0.  1.
</event>
<event>
 5   0  0.3167616E-06  0.2798157E+04  0.7818609E-02  0.8303841E-01
       -2   -1    0    0    0  501  0.00000000000E+00  0.00000000000E+00  0.13184150036E+04  0.13184150036E+04  0.25500000920E-02 0.  1.
        2   -1    0    0  501    0  0.00000000000E+00  0.00000000000E+00 -0.14846775918E+04  0.14846775918E+04  0.25500000920E-02 0. -1.
    10030    2    1    2    0    0  0.00000000000E+00  0.00000000000E+00 -0.16626258817E+03  0.28030925953E+04  0.27981574026E+04 0.  0.
        3    1    3    3  502    0  0.13361913564E+03  0.13720666149E+04 -0.32229980559E+03  0.14157323348E+04  0.10100000352E+00 0. -1.
       -3    1    3    3    0  502 -0.13361913564E+03 -0.13720666149E+04  0.15603721742E+03  0.13873602605E+04  0.10100000352E+00 0.  1.
</event>
<event>
 5   0  0.1243055E-06  0.2796859E+04  0.7818609E-02  0.8304244E-01
       -1   -1    0    0    0  501  0.00000000000E+00  0.00000000000E+00  0.84522014618E+03  0.84522014619E+03  0.50400001928E-02 0. -1.
        1   -1    0    0  501    0  0.00000000000E+00  0.00000000000E+00 -0.23137233770E+04  0.23137233770E+04  0.50400001928E-02 0.  1.
    10030    2    1    2    0    0  0.00000000000E+00  0.00000000000E+00 -0.14685032308E+04  0.31589435232E+04  0.27968593894E+04 0.  0.
        5    1    3    3  502    0  0.10420320627E+04 -0.48886529857E+03 -0.16312764741E+04  0.19964731715E+04  0.46999998093E+01 0.  1.
       -5    1    3    3    0  502 -0.10420320627E+04  0.48886529857E+03  0.16277324322E+03  0.11624703517E+04  0.46999998093E+01 0. -1.
</event>
<event>
 5   0  0.3226364E-06  0.2774553E+04  0.7818609E-02  0.8311212E-01
       -2   -1    0    0    0  501  0.00000000000E+00  0.00000000000E+00  0.28288727486E+04  0.28288727486E+04  0.25500000920E-02 0.  1.
        2   -1    0    0  501    0  0.00000000000E+00  0.00000000000E+00 -0.68031913611E+03  0.68031913612E+03  0.25500000920E-02 0. -1.
    10030    2    1    2    0    0  0.00000000000E+00  0.00000000000E+00  0.21485536125E+04  0.35091918847E+04  0.27745531276E+04 0.  0.
        5    1    3    3  502    0 -0.54997493447E+03  0.36551559572E+03 -0.46877231437E+03  0.80984174503E+03  0.46999998093E+01 0. -1.
       -5    1    3    3    0  502  0.54997493447E+03 -0.36551559572E+03  0.26173259268E+04  0.26993501397E+04  0.46999998093E+01 0.  1.
</event>
<event>
 5   0  0.1243055E-06  0.2794318E+04  0.7818609E-02  0.8305034E-01
        1   -1    0    0  501    0  0.00000000000E+00  0.00000000000E+00  0.17461447633E+04  0.17461447633E+04  0.50400001928E-02 0. -1.
       -1   -1    0    0    0  501  0.00000000000E+00  0.00000000000E+00 -0.11179221048E+04  0.11179221048E+04  0.50400001928E-02 0.  1.
    10030    2    1    2    0    0  0.00000000000E+00  0.00000000000E+00  0.62822265848E+03  0.28640668681E+04  0.27943183992E+04 0.  0.
        5    1    3    3  502    0 -0.40745958172E+03  0.36470903219E+03 -0.10036693368E+04  0.11429830342E+04  0.46999998093E+01 0.  1.
       -5    1    3    3    0  502  0.40745958172E+03 -0.36470903219E+03  0.16318919953E+04  0.17210838338E+04  0.46999998093E+01 0. -1.
</event>
<event>
 5   0  0.1263513E-06  0.2799445E+04  0.7818609E-02  0.8303441E-01
       -1   -1    0    0    0  501  0.00000000000E+00  0.00000000000E+00  0.78148386675E+03  0.78148386677E+03  0.50400001928E-02 0.  1.
        1   -1    0    0  501    0  0.00000000000E+00  0.00000000000E+00 -0.25070558581E+04  0.25070558581E+04  0.50400001928E-02 0. -1.
    10030    2    1    2    0    0  0.00000000000E+00  0.00000000000E+00 -0.17255719914E+04  0.32885397249E+04  0.27994454495E+04 0.  0.
        3    1    3    3  502    0 -0.61223364822E+03  0.72843451217E+03  0.34309764454E+03  0.10115151420E+04  0.10100000352E+00 0.  1.
       -3    1    3    3    0  502  0.61223364822E+03 -0.72843451217E+03 -0.20686696359E+04  0.22770245829E+04  0.10100000352E+00 0. -1.
</event>
<event>
 5   0  0.3167616E-06  0.2801096E+04  0.7818609E-02  0.8302928E-01
       -2   -1    0    0    0  501  0.00000000000E+00  0.00000000000E+00  0.10882975090E+04  0.10882975090E+04  0.25500000920E-02 0. -1.
        2   -1    0    0  501    0  0.00000000000E+00  0.00000000000E+00 -0.18023885865E+04  0.18023885865E+04  0.25500000920E-02 0.  1.
    10030    2    1    2    0    0  0.00000000000E+00  0.00000000000E+00 -0.71409107747E+03  0.28906860955E+04  0.28010962204E+04 0.  0.
        3    1    3    3  502    0  0.82414848524E+03  0.10588091106E+04  0.57341333021E+02  0.13429763576E+04  0.10100000352E+00 0. -1.
       -3    1    3    3    0  502 -0.82414848524E+03 -0.10588091106E+04 -0.77143241049E+03  0.15477097378E+04  0.10100000352E+00 0.  1.
</event>
<event>
 5   0  0.1235252E-06  0.2805992E+04  0.7818609E-02  0.8301411E-01
        1   -1    0    0  501    0  0.00000000000E+00  0.00000000000E+00  0.16929893572E+04  0.16929893572E+04  0.50400001928E-02 0. -1.
       -1   -1    0    0    0  501  0.00000000000E+00  0.00000000000E+00 -0.11626754921E+04  0.11626754921E+04  0.50400001928E-02 0.  1.
    10030    2    1    2    0    0  0.00000000000E+00  0.00000000000E+00  0.53031386512E+03  0.28556648493E+04  0.28059916137E+04 0.  0.
        1    1    3    3  502    0  0.85119968704E+03 -0.87471819992E+03 -0.43899057713E+03  0.12970680643E+04  0.50400001928E-02 0.  1.
       -1    1    3    3    0  502 -0.85119968704E+03  0.87471819992E+03  0.96930444225E+03  0.15585967850E+04  0.50400001928E-02 0. -1.
</event>
<event>
 5   0  0.1263513E-06  0.2806811E+04  0.7818609E-02  0.8301157E-01
       -1   -1    0    0    0  501  0.00000000000E+00  0.00000000000E+00  0.10680747784E+04  0.10680747784E+04  0.50400001928E-02 0. -1.
        1   -1    0    0  501    0  0.00000000000E+00  0.00000000000E+00 -0.18440156783E+04  0.18440156783E+04  0.50400001928E-02 0.  1.
    10030    2    1    2    0    0  0.00000000000E+00  0.00000000000E+00 -0.77594089995E+03  0.29120904567E+04  0.28068107432E+04 0.  0.
        3    1    3    3  502    0 -0.20675235073E+03  0.14819762657E+03  0.10439559743E+04  0.10745013530E+04  0.10100000352E+00 0. -1.
       -3    1    3    3    0  502  0.20675235073E+03 -0.14819762657E+03 -0.18198968743E+04  0.18375891038E+04  0.10100000352E+00 0.  1.
</event>
<event>
 5   0  0.1220265E-06  0.2895242E+04  0.7818609E-02  0.8274295E-01
       -1   -1    0    0    0  501  0.00000000000E+00  0.00000000000E+00  0.13558815169E+04  0.13558815169E+04  0.50400001928E-02 0. -1.
        1   -1    0    0  501    0  0.00000000000E+00  0.00000000000E+00 -0.15455674163E+04  0.15455674163E+04  0.50400001928E-02 0.  1.
    10030    2    1    2    0    0  0.00000000000E+00  0.00000000000E+00 -0.18968589936E+03  0.29014489332E+04  0.28952418157E+04 0.  0.
        4    1    3    3  502    0 -0.37082036683E+03  0.13670187871E+04  0.20472361301E+03  0.14311399231E+04  0.12699999809E+01 0. -1.
       -4    1    3    3    0  502  0.37082036683E+03 -0.13670187871E+04 -0.39440951237E+03  0.14703090101E+04  0.12699999809E+01 0.  1.
</event>
<event>
 5   0  0.1243055E-06  0.2801687E+04  0.7818609E-02  0.8302745E-01
        1   -1    0    0  501    0  0.00000000000E+00  0.00000000000E+00  0.14457823159E+04  0.14457823160E+04  0.50400001928E-02 0. -1.
       -1   -1    0    0    0  501  0.00000000000E+00  0.00000000000E+00 -0.13573016373E+04  0.13573016373E+04  0.50400001928E-02 0.  1.
    10030    2    1    2    0    0  0.00000000000E+00  0.00000000000E+00  0.88480678680E+02  0.28030839532E+04  0.28016871378E+04 0.  0.
        5    1    3    3  502    0  0.11818943051E+04 -0.46423314887E+03  0.63610441533E+03  0.14202244478E+04  0.46999998093E+01 0.  1.
       -5    1    3    3    0  502 -0.11818943051E+04  0.46423314887E+03 -0.54762373665E+03  0.13828595054E+04  0.46999998093E+01 0. -1.
</event>
<event>
 5   0  0.3212679E-06  0.2877590E+04  0.7818609E-02  0.8279576E-01
        2   -1    0    0  501    0  0.00000000000E+00  0.00000000000E+00  0.26564192599E+04  0.26564192599E+04  0.25500000920E-02 0. -1.
       -2   -1    0    0    0  501  0.00000000000E+00  0.00000000000E+00 -0.77929382851E+03  0.77929382852E+03  0.25500000920E-02 0.  1.
    10030    2    1    2    0    0  0.00000000000E+00  0.00000000000E+00  0.18771254313E+04  0.34357130884E+04  0.28775900578E+04 0.  0.
        4    1    3    3  502    0 -0.10458272616E+04 -0.39004159151E+03  0.20225281797E+04  0.23100885167E+04  0.12699999809E+01 0. -1.
       -4    1    3    3    0  502  0.10458272616E+04  0.39004159151E+03 -0.14540274838E+03  0.11256245717E+04  0.12699999809E+01 0.  1.
</event>
<event>
 5   0  0.3162695E-06  0.2797586E+04  0.7818609E-02  0.8304018E-01
        2   -1    0    0  501    0  0.00000000000E+00  0.00000000000E+00  0.18530008673E+04  0.18530008673E+04  0.25500000920E-02 0.  1.
       -2   -1    0    0    0  501  0.00000000000E+00  0.00000000000E+00 -0.10559204229E+04  0.10559204229E+04  0.25500000920E-02 0. -1.
    10030    2    1    2    0    0  0.00000000000E+00  0.00000000000E+00  0.79708044440E+03  0.29089212902E+04  0.27975857158E+04 0.  0.
        1    1    3    3  502    0 -0.12956218261E+04 -0.52270366257E+03  0.47032707564E+03  0.14741311316E+04  0.50400001928E-02 0.  1.
       -1    1    3    3    0  502  0.12956218261E+04  0.52270366257E+03  0.32675336876E+03  0.14347901586E+04  0.50400001928E-02 0. -1.
</event>
<event>
 5   0  0.1220265E-06  0.2812212E+04  0.7818609E-02  0.8299487E-01
       -1   -1    0    0    0  501  0.00000000000E+00  0.00000000000E+00  0.77662259008E+03  0.77662259009E+03  0.50400001928E-02 0. -1.
        1   -1    0    0  501    0  0.00000000000E+00  0.00000000000E+00 -0.25458103729E+04  0.25458103729E+04  0.50400001928E-02 0.  1.
    10030    2    1    2    0    0  0.00000000000E+00  0.00000000000E+00 -0.17691877828E+04  0.33224329630E+04  0.28122118311E+04 0.  0.
        4    1    3    3  502    0 -0.30699128581E+03 -0.65066793111E+03 -0.23118870871E+04  0.24212467703E+04  0.12699999809E+01 0.  1.
       -4    1    3    3    0  502  0.30699128581E+03  0.65066793111E+03  0.54269930430E+03  0.90118619271E+03  0.12699999809E+01 0. -1.
</event>
<event>
 5   0  0.3345919E-06  0.2814500E+04  0.7818609E-02  0.8298781E-01
        2   -1    0    0  501    0  0.00000000000E+00  0.00000000000E+00  0.16877181781E+04  0.16877181781E+04  0.25500000920E-02 0. -1.
       -2   -1    0    0    0  501  0.00000000000E+00  0.00000000000E+00 -0.11733903212E+04  0.11733903212E+04  0.25500000920E-02 0.  1.
    10030    2    1    2    0    0  0.00000000000E+00  0.00000000000E+00  0.51432785683E+03  0.28611084993E+04  0.28144997247E+04 0.  0.
        2    1    3    3  502    0 -0.10499268394E+04  0.38097873898E+03 -0.61308585643E+03  0.12741135880E+04  0.25500000920E-02 0.  1.
       -2    1    3    3    0  502  0.10499268394E+04 -0.38097873898E+03  0.11274137133E+04  0.15869949113E+04  0.25500000920E-02 0. -1.
</event>
<event>
 5   0  0.1243055E-06  0.2811024E+04  0.7818609E-02  0.8299854E-01
       -1   -1    0    0    0  501  0.00000000000E+00  0.00000000000E+00  0.20321326415E+04  0.20321326415E+04  0.50400001928E-02 0.  1.
        1   -1    0    0  501    0  0.00000000000E+00  0.00000000000E+00 -0.97211356567E+03  0.97211356569E+03  0.50400001928E-02 0. -1.
    10030    2    1    2    0    0  0.00000000000E+00  0.00000000000E+00  0.10600190758E+04  0.30042462072E+04  0.28110238050E+04 0.  0.
        5    1    3    3  502    0 -0.10162794687E+04  0.71313956281E+03  0.12341198261E+04  0.17505615755E+04  0.46999998093E+01 0.  1.
       -5    1    3    3    0  502  0.10162794687E+04 -0.71313956281E+03 -0.17410075029E+03  0.12536846317E+04  0.46999998093E+01 0. -1.
</event>
<event>
 5   0  0.3345919E-06  0.2800967E+04  0.7818609E-02  0.8302968E-01
        2   -1    0    0  501    0  0.00000000000E+00  0.00000000000E+00  0.18922628277E+04  0.18922628277E+04  0.25500000920E-02 0.  1.
       -2   -1    0    0    0  501  0.00000000000E+00  0.00000000000E+00 -0.10365122831E+04  0.10365122831E+04  0.25500000920E-02 0. -1.
    10030    2    1    2    0    0  0.00000000000E+00  0.00000000000E+00  0.85575054458E+03  0.29287751107E+04  0.28009667357E+04 0.  0.
        2    1    3    3  502    0 -0.12036850278E+04 -0.41410327513E+03 -0.18273554484E+03  0.12859749018E+04  0.25500000920E-02 0.  1.
       -2    1    3    3    0  502  0.12036850278E+04  0.41410327513E+03  0.10384860894E+04  0.16428002090E+04  0.25500000920E-02 0. -1.
</event>
<event>
 5   0  0.1220265E-06  0.2660488E+04  0.7818609E-02  0.8347940E-01
        1   -1    0    0  501    0  0.00000000000E+00  0.00000000000E+00  0.15946669797E+04  0.15946669797E+04  0.50400001928E-02 0.  1.
       -1   -1    0    0    0  501  0.00000000000E+00  0.00000000000E+00 -0.11096672704E+04  0.11096672704E+04  0.50400001928E-02 0. -1.
    10030    2    1    2    0    0  0.00000000000E+00  0.00000000000E+00  0.48499970929E+03  0.27043342501E+04  0.26604884924E+04 0.  0.
        4    1    3    3  502    0  0.11243148342E+04  0.27699997946E+03 -0.42306994635E+03  0.12328027529E+04  0.12699999809E+01 0. -1.
       -4    1    3    3    0  502 -0.11243148342E+04 -0.27699997946E+03  0.90806965564E+03  0.14715314973E+04  0.12699999809E+01 0.  1.
</event>
<event>
 5   0  0.1220265E-06  0.2636988E+04  0.7818609E-02  0.8355745E-01
        1   -1    0    0  501    0  0.00000000000E+00  0.00000000000E+00  0.15694102282E+04  0.15694102282E+04  0.50400001928E-02 0.  1.
       -1   -1    0    0    0  501  0.00000000000E+00  0.00000000000E+00 -0.11076939920E+04  0.11076939920E+04  0.50400001928E-02 0. -1.
    10030    2    1    2    0    0  0.00000000000E+00  0.00000000000E+00  0.46171623625E+03  0.26771042202E+04  0.26369878883E+04 0.  0.
        4    1    3    3  502    0  0.44401315249E+03  0.95084914385E+03 -0.57951006568E+03  0.11987890987E+04  0.12699999809E+01 0. -1.
       -4    1    3    3    0  502 -0.44401315249E+03 -0.95084914385E+03  0.10412263019E+04  0.14783151216E+04  0.12699999809E+01 0.  1.
</event>
<event>
 5   0  0.1220265E-06  0.2821796E+04  0.7818609E-02  0.8296533E-01
        1   -1    0    0  501    0  0.00000000000E+00  0.00000000000E+00  0.19680618852E+04  0.19680618852E+04  0.50400001928E-02 0.  1.
       -1   -1    0    0    0  501  0.00000000000E+00  0.00000000000E+00 -0.10114686031E+04  0.10114686031E+04  0.50400001928E-02 0. -1.
    10030    2    1    2    0    0  0.00000000000E+00  0.00000000000E+00  0.95659328204E+03  0.29795304883E+04  0.28217957445E+04 0.  0.
        4    1    3    3  502    0 -0.50571052848E+03  0.35821176673E+03  0.18166549772E+04  0.19194519342E+04  0.12699999809E+01 0.  1.
       -4    1    3    3    0  502  0.50571052848E+03 -0.35821176673E+03 -0.86006169521E+03  0.10600785541E+04  0.12699999809E+01 0. -1.
</event>
<event>
 5   0  0.3212679E-06  0.2759902E+04  0.7818609E-02  0.8315826E-01
       -2   -1    0    0    0  501  0.00000000000E+00  0.00000000000E+00  0.14254279963E+04  0.14254279963E+04  0.25500000920E-02 0.  1.
        2   -1    0    0  501    0  0.00000000000E+00  0.00000000000E+00 -0.13359246670E+04  0.13359246670E+04  0.25500000920E-02 0. -1.
    10030    2    1    2    0    0  0.00000000000E+00  0.00000000000E+00  0.89503329290E+02  0.27613526633E+04  0.27599017528E+04 0.  0.
        4    1    3    3  502    0  0.85147484814E+03 -0.74378730965E+03 -0.74688728592E+03  0.13550170515E+04  0.12699999809E+01 0. -1.
       -4    1    3    3    0  502 -0.85147484814E+03  0.74378730965E+03  0.83639061521E+03  0.14063356118E+04  0.12699999809E+01 0.  1.
</event>
<event>
 5   0  0.1065675E-06  0.2802207E+04  0.7818609E-02  0.8302584E-01
        3   -1    0    0  501    0  0.00000000000E+00  0.00000000000E+00  0.18097524941E+04  0.18097524970E+04  0.10100000352E+00 0.  1.
       -3   -1    0    0    0  501  0.00000000000E+00  0.00000000000E+00 -0.10847287615E+04  0.10847287662E+04  0.10100000352E+00 0. -1.
    10030    2    1    2    0    0  0.00000000000E+00  0.00000000000E+00  0.72502373259E+03  0.28944812632E+04  0.28022066965E+04 0.  0.
        5    1    3    3  502    0 -0.15421196811E+03 -0.68336213599E+03 -0.89082907945E+03  0.11332977009E+04  0.46999998093E+01 0. -1.
       -5    1    3    3    0  502  0.15421196811E+03  0.68336213599E+03  0.16158528120E+04  0.17611835623E+04  0.46999998093E+01 0.  1.
</event>
<event>
 5   0  0.3226364E-06  0.2832787E+04  0.7818609E-02  0.8293161E-01
       -2   -1    0    0    0  501  0.00000000000E+00  0.00000000000E+00  0.11031675765E+04  0.11031675765E+04  0.25500000920E-02 0. -1.
        2   -1    0    0  501    0  0.00000000000E+00  0.00000000000E+00 -0.18185548995E+04  0.18185548995E+04  0.25500000920E-02 0.  1.
    10030    2    1    2    0    0  0.00000000000E+00  0.00000000000E+00 -0.71538732298E+03  0.29217224761E+04  0.28327871797E+04 0.  0.
        5    1    3    3  502    0 -0.11142026194E+04 -0.22063022711E+03  0.51505393717E+03  0.12471679207E+04  0.46999998093E+01 0. -1.
       -5    1    3    3    0  502  0.11142026194E+04  0.22063022711E+03 -0.12304412601E+04  0.16745545554E+04  0.46999998093E+01 0.  1.
</event>
<event>
 5   0  0.3226364E-06  0.2799582E+04  0.7818609E-02  0.8303398E-01
       -2   -1    0    0    0  501  0.00000000000E+00  0.00000000000E+00  0.10500741287E+04  0.10500741287E+04  0.25500000920E-02 0.  1.
        2   -1    0    0  501    0  0.00000000000E+00  0.00000000000E+00 -0.18659782971E+04  0.18659782971E+04  0.25500000920E-02 0. -1.
    10030    2    1    2    0    0  0.00000000000E+00  0.00000000000E+00 -0.81590416839E+03  0.29160524258E+04  0.27995824935E+04 0.  0.
        5    1    3    3  502    0 -0.63232741366E+03  0.19505877256E+03  0.87685853079E+03  0.10985394193E+04  0.46999998093E+01 0.  1.
       -5    1    3    3    0  502  0.63232741366E+03 -0.19505877256E+03 -0.16927626992E+04  0.18175130064E+04  0.46999998093E+01 0. -1.
</event>
<event>
 5   0  0.3212679E-06  0.2767358E+04  0.7818609E-02  0.8313475E-01
        2   -1    0    0  501    0  0.00000000000E+00  0.00000000000E+00  0.20547175835E+04  0.20547175835E+04  0.25500000920E-02 0.  1.
       -2   -1    0    0    0  501  0.00000000000E+00  0.00000000000E+00 -0.93179129255E+03  0.93179129255E+03  0.25500000920E-02 0. -1.
    10030    2    1    2    0    0  0.00000000000E+00  0.00000000000E+00  0.11229262909E+04  0.29865088760E+04  0.27673582731E+04 0.  0.
        4    1    3    3  502    0 -0.19200228512E+03 -0.12950555029E+04  0.78191817469E+02  0.13115445880E+04  0.12699999809E+01 0. -1.
       -4    1    3    3    0  502  0.19200228512E+03  0.12950555029E+04  0.10447344735E+04  0.16749642880E+04  0.12699999809E+01 0.  1.
</event>
<event>
 5   0  0.1220265E-06  0.2787572E+04  0.7818609E-02  0.8307137E-01
       -1   -1    0    0    0  501  0.00000000000E+00  0.00000000000E+00  0.89606314426E+03  0.89606314428E+03  0.50400001928E-02 0. -1.
        1   -1    0    0  501    0  0.00000000000E+00  0.00000000000E+00 -0.21679708299E+04  0.21679708299E+04  0.50400001928E-02 0.  1.
    10030    2    1    2    0    0  0.00000000000E+00  0.00000000000E+00 -0.12719076856E+04  0.30640339742E+04  0.27875715299E+04 0.  0.
        4    1    3    3  502    0 -0.10656007046E+04 -0.87461638922E+03 -0.41021156979E+03  0.14383093669E+04  0.12699999809E+01 0. -1.
       -4    1    3    3    0  502  0.10656007046E+04  0.87461638922E+03 -0.86169611582E+03  0.16257246073E+04  0.12699999809E+01 0.  1.
</event>
<event>
 5   0  0.1246044E-06  0.2887305E+04  0.7818609E-02  0.8276665E-01
       -1   -1    0    0    0  501  0.00000000000E+00  0.00000000000E+00  0.10367097258E+04  0.10367097259E+04  0.50400001928E-02 0.  1.
        1   -1    0    0  501    0  0.00000000000E+00  0.00000000000E+00 -0.20103332386E+04  0.20103332386E+04  0.50400001928E-02 0. -1.
    10030    2    1    2    0    0  0.00000000000E+00  0.00000000000E+00 -0.97362351273E+03  0.30470429644E+04  0.28873046397E+04 0.  0.
        2    1    3    3  502    0  0.87130019318E+03 -0.48763727332E+03 -0.15871755039E+04  0.18751213873E+04  0.25500000920E-02 0. -1.
       -2    1    3    3    0  502 -0.87130019318E+03  0.48763727332E+03  0.61355199119E+03  0.11719215771E+04  0.25500000920E-02 0.  1.
</event>
<event>
 5   0  0.3345919E-06  0.2798489E+04  0.7818609E-02  0.8303738E-01
       -2   -1    0    0    0  501  0.00000000000E+00  0.00000000000E+00  0.21335724808E+04  0.21335724808E+04  0.25500000920E-02 0. -1.
        2   -1    0    0  501    0  0.00000000000E+00  0.00000000000E+00 -0.91765574047E+03  0.91765574047E+03  0.25500000920E-02 0.  1.
    10030    2    1    2    0    0  0.00000000000E+00  0.00000000000E+00  0.12159167403E+04  0.30512282213E+04  0.27984889027E+04 0.  0.
        2    1    3    3  502    0 -0.65254310163E+03 -0.63005065389E+02  0.19557644249E+04  0.20627158368E+04  0.25500000920E-02 0. -1.
       -2    1    3    3    0  502  0.65254310163E+03  0.63005065389E+02 -0.73984768460E+03  0.98851238442E+03  0.25500000920E-02 0.  1.
</event>
<event>
 5   0  0.1246044E-06  0.2796745E+04  0.7818609E-02  0.8304280E-01
       -1   -1    0    0    0  501  0.00000000000E+00  0.00000000000E+00  0.12738191003E+04  0.12738191003E+04  0.50400001928E-02 0.  1.
        1   -1    0    0  501    0  0.00000000000E+00  0.00000000000E+00 -0.15351044867E+04  0.15351044867E+04  0.50400001928E-02 0. -1.
    10030    2    1    2    0    0  0.00000000000E+00  0.00000000000E+00 -0.26128538643E+03  0.28089235869E+04  0.27967448336E+04 0.  0.
        2    1    3    3  502    0  0.13659782880E+04  0.95235523429E+02  0.15428074186E+03  0.13779582851E+04  0.25500000920E-02 0. -1.
       -2    1    3    3    0  502 -0.13659782880E+04 -0.95235523429E+02 -0.41556612829E+03  0.14309653019E+04  0.25500000920E-02 0.  1.
</event>
<event>
 5   0  0.3167616E-06  0.2794004E+04  0.7818609E-02  0.8305132E-01
       -2   -1    0    0    0  501  0.00000000000E+00  0.00000000000E+00  0.88363456314E+03  0.88363456314E+03  0.25500000920E-02 0.  1.
        2   -1    0    0  501    0  0.00000000000E+00  0.00000000000E+00 -0.22086213103E+04  0.22086213103E+04  0.25500000920E-02 0. -1.
    10030    2    1    2    0    0  0.00000000000E+00  0.00000000000E+00 -0.13249867472E+04  0.30922558735E+04  0.27940036698E+04 0.  0.
        3    1    3    3  502    0 -0.12694416979E+04 -0.15540589158E+03 -0.40366634887E+02  0.12795556615E+04  0.10100000352E+00 0.  1.
       -3    1    3    3    0  502  0.12694416979E+04  0.15540589158E+03 -0.12846201123E+04  0.18127002120E+04  0.10100000352E+00 0. -1.
</event>
<event>
 5   0  0.3226364E-06  0.2809859E+04  0.7818609E-02  0.8300214E-01
       -2   -1    0    0    0  501  0.00000000000E+00  0.00000000000E+00  0.78847126675E+03  0.78847126675E+03  0.25500000920E-02 0.  1.
        2   -1    0    0  501    0  0.00000000000E+00  0.00000000000E+00 -0.25033591210E+04  0.25033591210E+04  0.25500000920E-02 0. -1.
    10030    2    1    2    0    0  0.00000000000E+00  0.00000000000E+00 -0.17148878542E+04  0.32918303877E+04  0.28098588842E+04 0.  0.
        5    1    3    3  502    0  0.52851732355E+03 -0.12803150873E+04 -0.58202910258E+03  0.15024371036E+04  0.46999998093E+01 0.  1.
       -5    1    3    3    0  502 -0.52851732355E+03  0.12803150873E+04 -0.11328587516E+04  0.17893932841E+04  0.46999998093E+01 0. -1.
</event>
<event>
 5   0  0.1243055E-06  0.2801788E+04  0.7818609E-02  0.8302713E-01
       -1   -1    0    0    0  501  0.00000000000E+00  0.00000000000E+00  0.11351114452E+04  0.11351114452E+04  0.50400001928E-02 0. -1.
        1   -1    0    0  501    0  0.00000000000E+00  0.00000000000E+00 -0.17289088535E+04  0.17289088535E+04  0.50400001928E-02 0.  1.
    10030    2    1    2    0    0  0.00000000000E+00  0.00000000000E+00 -0.59379740829E+03  0.28640202987E+04  0.28017881628E+04 0.  0.
        5    1    3    3  502    0  0.10937456235E+04  0.76955716237E+03 -0.72327787256E+03  0.15204113542E+04  0.46999998093E+01 0.  1.
       -5    1    3    3    0  502 -0.10937456235E+04 -0.76955716237E+03  0.12948046427E+03  0.13436089445E+04  0.46999998093E+01 0. -1.
</event>
<event>
 5   0  0.1263513E-06  0.2798241E+04  0.7818609E-02  0.8303815E-01
       -1   -1    0    0    0  501  0.00000000000E+00  0.00000000000E+00  0.91193908555E+03  0.91193908557E+03  0.50400001928E-02 0. -1.
        1   -1    0    0  501    0  0.00000000000E+00  0.00000000000E+00 -0.21465672065E+04  0.21465672065E+04  0.50400001928E-02 0.  1.
    10030    2    1    2    0    0  0.00000000000E+00  0.00000000000E+00 -0.12346281209E+04  0.30585062920E+04  0.27982412586E+04 0.  0.
        3    1    3    3  502    0  0.10066084104E+03 -0.10916511255E+04 -0.15674812037E+04  0.19128073920E+04  0.10100000352E+00 0.  1.
       -3    1    3    3    0  502 -0.10066084104E+03  0.10916511255E+04  0.33285308277E+03  0.11456989001E+04  0.10100000352E+00 0. -1.
</event>
<event>
 5   0  0.3167616E-06  0.2808189E+04  0.7818609E-02  0.8300730E-01
        2   -1    0    0  501    0  0.00000000000E+00  0.00000000000E+00  0.12858916450E+04  0.12858916450E+04  0.25500000920E-02 0. -1.
       -2   -1    0    0    0  501  0.00000000000E+00  0.00000000000E+00 -0.15331633382E+04  0.15331633382E+04  0.25500000920E-02 0.  1.
    10030    2    1    2    0    0  0.00000000000E+00  0.00000000000E+00 -0.24727169323E+03  0.28190549832E+04  0.28081894003E+04 0.  0.
        3    1    3    3  502    0  0.25059944201E+03 -0.81876966890E+03 -0.12407299208E+04  0.15075127189E+04  0.10100000352E+00 0.  1.
       -3    1    3    3    0  502 -0.25059944201E+03  0.81876966890E+03  0.99345822754E+03  0.13115422643E+04  0.10100000352E+00 0. -1.
</event>
<event>
 5   0  0.3162695E-06  0.2791401E+04  0.7818609E-02  0.8305943E-01
        2   -1    0    0  501    0  0.00000000000E+00  0.00000000000E+00  0.17697053302E+04  0.17697053302E+04  0.25500000920E-02 0.  1.
       -2   -1    0    0    0  501  0.00000000000E+00  0.00000000000E+00 -0.11007370408E+04  0.11007370408E+04  0.25500000920E-02 0. -1.
    10030    2    1    2    0    0  0.00000000000E+00  0.00000000000E+00  0.66896828944E+03  0.28704423710E+04  0.27914012311E+04 0.  0.
        1    1    3    3  502    0  0.35521567710E+03 -0.50304566069E+03 -0.95347780718E+03  0.11350564051E+04  0.50400001928E-02 0. -1.
       -1    1    3    3    0  502 -0.35521567710E+03  0.50304566069E+03  0.16224460966E+04  0.17353859658E+04  0.50400001928E-02 0.  1.
</event>
<event>
 5   0  0.3162695E-06  0.2812514E+04  0.7818609E-02  0.8299394E-01
        2   -1    0    0  501    0  0.00000000000E+00  0.00000000000E+00  0.25516526728E+04  0.25516526728E+04  0.25500000920E-02 0. -1.
       -2   -1    0    0    0  501  0.00000000000E+00  0.00000000000E+00 -0.77501083622E+03  0.77501083622E+03  0.25500000920E-02 0.  1.
    10030    2    1    2    0    0  0.00000000000E+00  0.00000000000E+00  0.17766418366E+04  0.33266635090E+04  0.28125138021E+04 0.  0.
        1    1    3    3  502    0  0.11246610869E+04  0.64239174759E+03  0.15362025258E+04  0.20093401699E+04  0.50400001928E-02 0. -1.
       -1    1    3    3    0  502 -0.11246610869E+04 -0.64239174759E+03  0.24043931076E+03  0.13173233392E+04  0.50400001928E-02 0.  1.
</event>
<event>
 5   0  0.3345919E-06  0.2784245E+04  0.7818609E-02  0.8308176E-01
       -2   -1    0    0    0  501  0.00000000000E+00  0.00000000000E+00  0.15413352771E+04  0.15413352771E+04  0.25500000920E-02 0. -1.
        2   -1    0    0  501    0  0.00000000000E+00  0.00000000000E+00 -0.12573543814E+04  0.12573543814E+04  0.25500000920E-02 0.  1.
    10030    2    1    2    0    0  0.00000000000E+00  0.00000000000E+00  0.28398089570E+03  0.27986896585E+04  0.27842447190E+04 0.  0.
        2    1    3    3  502    0  0.99974902480E+03 -0.48329387710E+03  0.98594962069E+03  0.14849807200E+04  0.25500000920E-02 0. -1.
       -2    1    3    3    0  502 -0.99974902480E+03  0.48329387710E+03 -0.70196872500E+03  0.13137089385E+04  0.25500000920E-02 0.  1.
</event>
<event>
 5   0  0.1235252E-06  0.2799278E+04  0.7818609E-02  0.8303493E-01
       -1   -1    0    0    0  501  0.00000000000E+00  0.00000000000E+00  0.63493217613E+03  0.63493217615E+03  0.50400001928E-02 0.  1.
        1   -1    0    0  501    0  0.00000000000E+00  0.00000000000E+00 -0.30853523043E+04  0.30853523043E+04  0.50400001928E-02 0. -1.
    10030    2    1    2    0    0  0.00000000000E+00  0.00000000000E+00 -0.24504201282E+04  0.37202844804E+04  0.27992780875E+04 0.  0.
        1    1    3    3  502    0  0.38704103802E+02  0.13897693168E+04 -0.10107780429E+04  0.17189034334E+04  0.50400001928E-02 0.  1.
       -1    1    3    3    0  502 -0.38704103802E+02 -0.13897693168E+04 -0.14396420853E+04  0.20013810470E+04  0.50400001928E-02 0. -1.
</event>
<event>
 5   0  0.3162695E-06  0.2808217E+04  0.7818609E-02  0.8300722E-01
       -2   -1    0    0    0  501  0.00000000000E+00  0.00000000000E+00  0.10937281665E+04  0.10937281665E+04  0.25500000920E-02 0.  1.
        2   -1    0    0  501    0  0.00000000000E+00  0.00000000000E+00 -0.18025688123E+04  0.18025688123E+04  0.25500000920E-02 0. -1.
    10030    2    1    2    0    0  0.00000000000E+00  0.00000000000E+00 -0.70884064575E+03  0.28962969788E+04  0.28082167168E+04 0.  0.
        1    1    3    3  502    0 -0.95098563539E+03  0.31440051757E+03  0.66046551962E+03  0.11997650048E+04  0.50400001928E-02 0.  1.
       -1    1    3    3    0  502  0.95098563539E+03 -0.31440051757E+03 -0.13693061654E+04  0.16965319740E+04  0.50400001928E-02 0. -1.
</event>
<event>
 5   0  0.3212679E-06  0.2799949E+04  0.7818609E-02  0.8303284E-01
        2   -1    0    0  501    0  0.00000000000E+00  0.00000000000E+00  0.17916087645E+04  0.17916087645E+04  0.25500000920E-02 0.  1.
       -2   -1    0    0    0  501  0.00000000000E+00  0.00000000000E+00 -0.10939491780E+04  0.10939491780E+04  0.25500000920E-02 0. -1.
    10030    2    1    2    0    0  0.00000000000E+00  0.00000000000E+00  0.69765958645E+03  0.28855579425E+04  0.27999492390E+04 0.  0.
        4    1    3    3  502    0 -0.11219013523E+03  0.64811415251E+03  0.16224508088E+04  0.17507103761E+04  0.12699999809E+01 0.  1.
       -4    1    3    3    0  502  0.11219013523E+03 -0.64811415251E+03 -0.92479122233E+03  0.11348475664E+04  0.12699999809E+01 0. -1.
</event>
<event>
 5   0  0.3167616E-06  0.2799442E+04  0.7818609E-02  0.8303442E-01
       -2   -1    0    0    0  501  0.00000000000E+00  0.00000000000E+00  0.14886922813E+04  0.14886922813E+04  0.25500000920E-02 0.  1.
        2   -1    0    0  501    0  0.00000000000E+00  0.00000000000E+00 -0.13160668611E+04  0.13160668611E+04  0.25500000920E-02 0. -1.
    10030    2    1    2    0    0  0.00000000000E+00  0.00000000000E+00  0.17262542019E+03  0.28047591424E+04  0.27994417857E+04 0.  0.
        3    1    3    3  502    0 -0.95700039806E+03 -0.10200267398E+04  0.32226322665E+02  0.13990506988E+04  0.10100000352E+00 0. -1.
       -3    1    3    3    0  502  0.95700039806E+03  0.10200267398E+04  0.14039909753E+03  0.14057084436E+04  0.10100000352E+00 0.  1.
</event>
<event>
 5   0  0.1243055E-06  0.2807220E+04  0.7818609E-02  0.8301030E-01
       -1   -1    0    0    0  501  0.00000000000E+00  0.00000000000E+00  0.98833791488E+03  0.98833791489E+03  0.50400001928E-02 0.  1.
        1   -1    0    0  501    0  0.00000000000E+00  0.00000000000E+00 -0.19933681812E+04  0.19933681812E+04  0.50400001928E-02 0. -1.
    10030    2    1    2    0    0  0.00000000000E+00  0.00000000000E+00 -0.10050302663E+04  0.29817060961E+04  0.28072202278E+04 0.  0.
        5    1    3    3  502    0  0.58483630155E+03 -0.11367265469E+04  0.11309438027E+03  0.12833523175E+04  0.46999998093E+01 0.  1.
       -5    1    3    3    0  502 -0.58483630155E+03  0.11367265469E+04 -0.11181246466E+04  0.16983537786E+04  0.46999998093E+01 0. -1.
</event>
<event>
 5   0  0.1246044E-06  0.2808245E+04  0.7818609E-02  0.8300713E-01
       -1   -1    0    0    0  501  0.00000000000E+00  0.00000000000E+00  0.11928035179E+04  0.11928035179E+04  0.50400001928E-02 0. -1.
        1   -1    0    0  501    0  0.00000000000E+00  0.00000000000E+00 -0.16528787888E+04  0.16528787888E+04  0.50400001928E-02 0.  1.
    10030    2    1    2    0    0  0.00000000000E+00  0.00000000000E+00 -0.46007527090E+03  0.28456823066E+04  0.28082447428E+04 0.  0.
        2    1    3    3  502    0 -0.45900743103E+03 -0.44971748506E+03 -0.14951305308E+04  0.16273748622E+04  0.25500000920E-02 0.  1.
       -2    1    3    3    0  502  0.45900743103E+03  0.44971748506E+03  0.10350552599E+04  0.12183074444E+04  0.25500000920E-02 0. -1.
</event>
<event>
 5   0  0.3162695E-06  0.2798646E+04  0.7818609E-02  0.8303689E-01
       -2   -1    0    0    0  501  0.00000000000E+00  0.00000000000E+00  0.99313368913E+03  0.99313368914E+03  0.25500000920E-02 0. -1.
        2   -1    0    0  501    0  0.00000000000E+00  0.00000000000E+00 -0.19716432287E+04  0.19716432287E+04  0.25500000920E-02 0.  1.
    10030    2    1    2    0    0  0.00000000000E+00  0.00000000000E+00 -0.97850953958E+03  0.29647769179E+04  0.27986463252E+04 0.  0.
        1    1    3    3  502    0  0.39934272412E+03  0.60288599381E+03  0.77983995511E+03  0.10635302010E+04  0.50400001928E-02 0. -1.
       -1    1    3    3    0  502 -0.39934272412E+03 -0.60288599381E+03 -0.17583494947E+04  0.19012467168E+04  0.50400001928E-02 0.  1.
</event>
<event>
 5   0  0.3212679E-06  0.2805600E+04  0.7818609E-02  0.8301532E-01
        2   -1    0    0  501    0  0.00000000000E+00  0.00000000000E+00  0.25457546593E+04  0.25457546593E+04  0.25500000920E-02 0. -1.
       -2   -1    0    0    0  501  0.00000000000E+00  0.00000000000E+00 -0.77299184816E+03  0.77299184816E+03  0.25500000920E-02 0.  1.
    10030    2    1    2    0    0  0.00000000000E+00  0.00000000000E+00  0.17727628111E+04  0.33187465074E+04  0.28055998282E+04 0.  0.
        4    1    3    3  502    0 -0.13373159056E+04  0.38815709575E+03  0.10870085921E+04  0.17665415519E+04  0.12699999809E+01 0.  1.
       -4    1    3    3    0  502  0.13373159056E+04 -0.38815709575E+03  0.68575421899E+03  0.15522049556E+04  0.12699999809E+01 0. -1.
</event>
<event>
 5   0  0.3167616E-06  0.2940516E+04  0.7818609E-02  0.8260924E-01
       -2   -1    0    0    0  501  0.00000000000E+00  0.00000000000E+00  0.17193329425E+04  0.17193329425E+04  0.25500000920E-02 0. -1.
        2   -1    0    0  501    0  0.00000000000E+00  0.00000000000E+00 -0.12572659839E+04  0.12572659839E+04  0.25500000920E-02 0.  1.
    10030    2    1    2    0    0  0.00000000000E+00  0.00000000000E+00  0.46206695864E+03  0.29765989264E+04  0.29405161612E+04 0.  0.
        3    1    3    3  502    0 -0.69880163439E+03  0.12302556972E+04 -0.17362933947E+03  0.14254823613E+04  0.10100000352E+00 0.  1.
       -3    1    3    3    0  502  0.69880163439E+03 -0.12302556972E+04  0.63569629811E+03  0.15511165651E+04  0.10100000352E+00 0. -1.
</event>
<event>
 5   0  0.1263513E-06  0.2816444E+04  0.7818609E-02  0.8298181E-01
       -1   -1    0    0    0  501  0.00000000000E+00  0.00000000000E+00  0.14502924755E+04  0.14502924755E+04  0.50400001928E-02 0. -1.
        1   -1    0    0  501    0  0.00000000000E+00  0.00000000000E+00 -0.13673721601E+04  0.13673721601E+04  0.50400001928E-02 0.  1.
    10030    2    1    2    0    0  0.00000000000E+00  0.00000000000E+00  0.82920315399E+02  0.28176646356E+04  0.28164442512E+04 0.  0.
        3    1    3    3  502    0  0.95647789532E+03  0.84572214403E+03  0.63585027452E+03  0.14263244690E+04  0.10100000352E+00 0.  1.
       -3    1    3    3    0  502 -0.95647789532E+03 -0.84572214403E+03 -0.55292995912E+03  0.13913401665E+04  0.10100000352E+00 0. -1.
</event>
<event>
 5   0  0.3345919E-06  0.2808207E+04  0.7818609E-02  0.8300725E-01
        2   -1    0    0  501    0  0.00000000000E+00  0.00000000000E+00  0.12148443149E+04  0.12148443149E+04  0.25500000920E-02 0. -1.
       -2   -1    0    0    0  501  0.00000000000E+00  0.00000000000E+00 -0.16228473403E+04  0.16228473403E+04  0.25500000920E-02 0.  1.
    10030    2    1    2    0    0  0.00000000000E+00  0.00000000000E+00 -0.40800302539E+03  0.28376916552E+04  0.28082071614E+04 0.  0.
        2    1    3    3  502    0  0.65272545260E+03  0.11105866978E+04 -0.76848418385E+03  0.15000070902E+04  0.25500000920E-02 0.  1.
       -2    1    3    3    0  502 -0.65272545260E+03 -0.11105866978E+04  0.36048115846E+03  0.13376845650E+04  0.25500000920E-02 0. -1.
</event>
<event>
 5   0  0.1235252E-06  0.2796712E+04  0.7818609E-02  0.8304290E-01
        1   -1    0    0  501    0  0.00000000000E+00  0.00000000000E+00  0.15375871677E+04  0.15375871678E+04  0.50400001928E-02 0.  1.
       -1   -1    0    0    0  501  0.00000000000E+00  0.00000000000E+00 -0.12717320614E+04  0.12717320614E+04  0.50400001928E-02 0. -1.
    10030    2    1    2    0    0  0.00000000000E+00  0.00000000000E+00  0.26585510636E+03  0.28093192291E+04  0.27967115678E+04 0.  0.
        1    1    3    3  502    0  0.27066070473E+03 -0.13483125538E+04 -0.12158183514E+03  0.13805745552E+04  0.50400001928E-02 0.  1.
       -1    1    3    3    0  502 -0.27066070473E+03  0.13483125538E+04  0.38743694151E+03  0.14287446740E+04  0.50400001928E-02 0. -1.
</event>
<event>
 5   0  0.1246044E-06  0.2788461E+04  0.7818609E-02  0.8306860E-01
       -1   -1    0    0    0  501  0.00000000000E+00  0.00000000000E+00  0.14440932103E+04  0.14440932103E+04  0.50400001928E-02 0.  1.
        1   -1    0    0  501    0  0.00000000000E+00  0.00000000000E+00 -0.13460892114E+04  0.13460892114E+04  0.50400001928E-02 0. -1.
    10030    2    1    2    0    0  0.00000000000E+00  0.00000000000E+00  0.98003998927E+02  0.27901824217E+04  0.27884607157E+04 0.  0.
        2    1    3    3  502    0  0.10515384585E+04 -0.80181891593E+03 -0.39312100241E+03  0.13795618240E+04  0.25500000920E-02 0. -1.
       -2    1    3    3    0  502 -0.10515384585E+04  0.80181891593E+03  0.49112500134E+03  0.14106205977E+04  0.25500000920E-02 0.  1.
</event>
<event>
 5   0  0.3226364E-06  0.2814344E+04  0.7818609E-02  0.8298829E-01
        2   -1    0    0  501    0  0.00000000000E+00  0.00000000000E+00  0.11258422606E+04  0.11258422606E+04  0.25500000920E-02 0. -1.
       -2   -1    0    0    0  501  0.00000000000E+00  0.00000000000E+00 -0.17588009317E+04  0.17588009317E+04  0.25500000920E-02 0.  1.
    10030    2    1    2    0    0  0.00000000000E+00  0.00000000000E+00 -0.63295867107E+03  0.28846431923E+04  0.28143435590E+04 0.  0.
        5    1    3    3  502    0 -0.45065531286E+03 -0.51145726583E+03  0.94529926116E+03  0.11654576478E+04  0.46999998093E+01 0. -1.
       -5    1    3    3    0  502  0.45065531286E+03  0.51145726583E+03 -0.15782579322E+04  0.17191855445E+04  0.46999998093E+01 0.  1.
</event>
<event>
 5   0  0.1235252E-06  0.2823115E+04  0.7818609E-02  0.8296128E-01
       -1   -1    0    0    0  501  0.00000000000E+00  0.00000000000E+00  0.58583828830E+03  0.58583828832E+03  0.50400001928E-02 0.  1.
        1   -1    0    0  501    0  0.00000000000E+00  0.00000000000E+00 -0.34011011543E+04  0.34011011543E+04  0.50400001928E-02 0. -1.
    10030    2    1    2    0    0  0.00000000000E+00  0.00000000000E+00 -0.28152628660E+04  0.39869394426E+04  0.28231154979E+04 0.  0.
        1    1    3    3  502    0  0.79141163899E+03  0.19471929753E+03 -0.30352418568E+04  0.31427601112E+04  0.50400001928E-02 0. -1.
       -1    1    3    3    0  502 -0.79141163899E+03 -0.19471929753E+03  0.21997899083E+03  0.84417933142E+03  0.50400001928E-02 0.  1.
</event>
<event>
 5   0  0.3212679E-06  0.2800335E+04  0.7818609E-02  0.8303164E-01
        2   -1    0    0  501    0  0.00000000000E+00  0.00000000000E+00  0.21016816005E+04  0.21016816005E+04  0.25500000920E-02 0.  1.
       -2   -1    0    0    0  501  0.00000000000E+00  0.00000000000E+00 -0.93280964602E+03  0.93280964602E+03  0.25500000920E-02 0. -1.
    10030    2    1    2    0    0  0.00000000000E+00  0.00000000000E+00  0.11688719545E+04  0.30344912466E+04  0.28003348870E+04 0.  0.
        4    1    3    3  502    0  0.66972241650E+03  0.57308563836E+00 -0.74798980036E+03  0.10040013934E+04  0.12699999809E+01 0. -1.
       -4    1    3    3    0  502 -0.66972241650E+03 -0.57308563836E+00  0.19168617549E+04  0.20304898532E+04  0.12699999809E+01 0.  1.
</event>
<event>
 5   0  0.1065675E-06  0.2797680E+04  0.7818609E-02  0.8303989E-01
        3   -1    0    0  501    0  0.00000000000E+00  0.00000000000E+00  0.19309843221E+04  0.19309843247E+04  0.10100000352E+00 0.  1.
       -3   -1    0    0    0  501  0.00000000000E+00  0.00000000000E+00 -0.10133448811E+04  0.10133448861E+04  0.10100000352E+00 0. -1.
    10030    2    1    2    0    0  0.00000000000E+00  0.00000000000E+00  0.91763944101E+03  0.29443292108E+04  0.27976798169E+04 0.  0.
        5    1    3    3  502    0 -0.13226339682E+04  0.38367967521E+03  0.20068684043E+03  0.13917140529E+04  0.46999998093E+01 0.  1.
       -5    1    3    3    0  502  0.13226339682E+04 -0.38367967521E+03  0.71695260058E+03  0.15526151579E+04  0.46999998093E+01 0. -1.
</event>
<event>
 5   0  0.3167616E-06  0.2801508E+04  0.7818609E-02  0.8302800E-01
       -2   -1    0    0    0  501  0.00000000000E+00  0.00000000000E+00  0.18063776761E+04  0.18063776761E+04  0.25500000920E-02 0.  1.
        2   -1    0    0  501    0  0.00000000000E+00  0.00000000000E+00 -0.10862137725E+04  0.10862137725E+04  0.25500000920E-02 0. -1.
    10030    2    1    2    0    0  0.00000000000E+00  0.00000000000E+00  0.72016390361E+03  0.28925914485E+04  0.28015083866E+04 0.  0.
        3    1    3    3  502    0 -0.72186356984E+03 -0.11392486918E+04  0.75071788987E+03  0.15435517340E+04  0.10100000352E+00 0.  1.
       -3    1    3    3    0  502  0.72186356984E+03  0.11392486918E+04 -0.30553986256E+02  0.13490397145E+04  0.10100000352E+00 0. -1.
</event>
<event>
 5   0  0.3167616E-06  0.2805405E+04  0.7818609E-02  0.8301592E-01
       -2   -1    0    0    0  501  0.00000000000E+00  0.00000000000E+00  0.91595508433E+03  0.91595508433E+03  0.25500000920E-02 0.  1.
        2   -1    0    0  501    0  0.00000000000E+00  0.00000000000E+00 -0.21481125125E+04  0.21481125125E+04  0.25500000920E-02 0. -1.
    10030    2    1    2    0    0  0.00000000000E+00  0.00000000000E+00 -0.12321574281E+04  0.30640675968E+04  0.28054051953E+04 0.  0.
        3    1    3    3  502    0 -0.45170803357E+03 -0.11867459824E+04 -0.12669871503E+04  0.17937844418E+04  0.10100000352E+00 0. -1.
       -3    1    3    3    0  502  0.45170803357E+03  0.11867459824E+04  0.34829722151E+02  0.12702831551E+04  0.10100000352E+00 0.  1.
</event>
<event>
 5   0  0.1263513E-06  0.2801082E+04  0.7818609E-02  0.8302932E-01
       -1   -1    0    0    0  501  0.00000000000E+00  0.00000000000E+00  0.12943065686E+04  0.12943065686E+04  0.50400001928E-02 0.  1.
        1   -1    0    0  501    0  0.00000000000E+00  0.00000000000E+00 -0.15154954215E+04  0.15154954215E+04  0.50400001928E-02 0. -1.
    10030    2    1    2    0    0  0.00000000000E+00  0.00000000000E+00 -0.22118885284E+03  0.28098019901E+04  0.28010824185E+04 0.  0.
        3    1    3    3  502    0 -0.71086016259E+03  0.69723449701E+03  0.87738654275E+03  0.13271266971E+04  0.10100000352E+00 0.  1.
       -3    1    3    3    0  502  0.71086016259E+03 -0.69723449701E+03 -0.10985753956E+04  0.14826752930E+04  0.10100000352E+00 0. -1.
</event>
<event>
 5   0  0.3345919E-06  0.2800657E+04  0.7818609E-02  0.8303064E-01
       -2   -1    0    0    0  501  0.00000000000E+00  0.00000000000E+00  0.10735562691E+04  0.10735562691E+04  0.25500000920E-02 0. -1.
        2   -1    0    0  501    0  0.00000000000E+00  0.00000000000E+00 -0.18265644635E+04  0.18265644635E+04  0.25500000920E-02 0.  1.
    10030    2    1    2    0    0  0.00000000000E+00  0.00000000000E+00 -0.75300819438E+03  0.29001207326E+04  0.28006568734E+04 0.  0.
        2    1    3    3  502    0  0.12786981706E+04  0.20286292821E+03  0.17601575585E+03  0.13066001399E+04  0.25500000920E-02 0. -1.
       -2    1    3    3    0  502 -0.12786981706E+04 -0.20286292821E+03 -0.92902395023E+03  0.15935205927E+04  0.25500000920E-02 0.  1.
</event>
<event>
 5   0  0.3212679E-06  0.2732941E+04  0.7818609E-02  0.8324395E-01
       -2   -1    0    0    0  501  0.00000000000E+00  0.00000000000E+00  0.14578161301E+04  0.14578161301E+04  0.25500000920E-02 0. -1.
        2   -1    0    0  501    0  0.00000000000E+00  0.00000000000E+00 -0.12808483150E+04  0.12808483150E+04  0.25500000920E-02 0.  1.
    10030    2    1    2    0    0  0.00000000000E+00  0.00000000000E+00  0.17696781512E+03  0.27386644452E+04  0.27329407852E+04 0.  0.
        4    1    3    3  502    0 -0.41573381605E+03  0.19185269060E+03  0.13786575469E+04  0.14527010378E+04  0.12699999809E+01 0. -1.
       -4    1    3    3    0  502  0.41573381605E+03 -0.19185269060E+03 -0.12016897318E+04  0.12859634074E+04  0.12699999809E+01 0.  1.
</event>
<event>
 5   0  0.3212679E-06  0.2806837E+04  0.7818609E-02  0.8301149E-01
       -2   -1    0    0    0  501  0.00000000000E+00  0.00000000000E+00  0.19782407823E+04  0.19782407823E+04  0.25500000920E-02 0.  1.
        2   -1    0    0  501    0  0.00000000000E+00  0.00000000000E+00 -0.99562386299E+03  0.99562386299E+03  0.25500000920E-02 0. -1.
    10030    2    1    2    0    0  0.00000000000E+00  0.00000000000E+00  0.98261691934E+03  0.29738646453E+04  0.28068371735E+04 0.  0.
        4    1    3    3  502    0 -0.32132766038E+03 -0.76472826123E+03  0.16907163432E+04  0.18832376762E+04  0.12699999809E+01 0.  1.
       -4    1    3    3    0  502  0.32132766038E+03  0.76472826123E+03 -0.70809942387E+03  0.10906269691E+04  0.12699999809E+01 0. -1.
</event>
<event>
 5   0  0.1220265E-06  0.2796029E+04  0.7818609E-02  0.8304502E-01
        1   -1    0    0  501    0  0.00000000000E+00  0.00000000000E+00  0.10154454289E+04  0.10154454289E+04  0.50400001928E-02 0.  1.
       -1   -1    0    0    0  501  0.00000000000E+00  0.00000000000E+00 -0.19247169420E+04  0.19247169420E+04  0.50400001928E-02 0. -1.
    10030    2    1    2    0    0  0.00000000000E+00  0.00000000000E+00 -0.90927151310E+03  0.29401623710E+04  0.27960293423E+04 0.  0.
        4    1    3    3  502    0  0.12967664457E+04 -0.50294565407E+03 -0.30634919169E+03  0.14242222389E+04  0.12699999809E+01 0.  1.
       -4    1    3    3    0  502 -0.12967664457E+04  0.50294565407E+03 -0.60292232141E+03  0.15159401321E+04  0.12699999809E+01 0. -1.
</event>
<event>
 5   0  0.1243055E-06  0.2797888E+04  0.7818609E-02  0.8303924E-01
       -1   -1    0    0    0  501  0.00000000000E+00  0.00000000000E+00  0.12182887916E+04  0.12182887916E+04  0.50400001928E-02 0.  1.
        1   -1    0    0  501    0  0.00000000000E+00  0.00000000000E+00 -0.16063880656E+04  0.16063880656E+04  0.50400001928E-02 0. -1.
    10030    2    1    2    0    0  0.00000000000E+00  0.00000000000E+00 -0.38809927399E+03  0.28246768573E+04  0.27978881860E+04 0.  0.
        5    1    3    3  502    0 -0.24447980983E+03  0.87993094179E+02  0.11937057980E+04  0.12216663964E+04  0.46999998093E+01 0.  1.
       -5    1    3    3    0  502  0.24447980983E+03 -0.87993094179E+02 -0.15818050719E+04  0.16030104609E+04  0.46999998093E+01 0. -1.
</event>
<event>
 5   0  0.1235252E-06  0.2787669E+04  0.7818609E-02  0.8307107E-01
       -1   -1    0    0    0  501  0.00000000000E+00  0.00000000000E+00  0.83498332302E+03  0.83498332304E+03  0.50400001928E-02 0. -1.
        1   -1    0    0  501    0  0.00000000000E+00  0.00000000000E+00 -0.23267233076E+04  0.23267233076E+04  0.50400001928E-02 0.  1.
    10030    2    1    2    0    0  0.00000000000E+00  0.00000000000E+00 -0.14917399846E+04  0.31617066307E+04  0.27876693916E+04 0.  0.
        1    1    3    3  502    0  0.10031677423E+04  0.95544969788E+03 -0.91990411113E+03  0.16629651885E+04  0.50400001928E-02 0. -1.
       -1    1    3    3    0  502 -0.10031677423E+04 -0.95544969788E+03 -0.57183587346E+03  0.14987414422E+04  0.50400001928E-02 0.  1.
</event>
<event>
 5   0  0.1220265E-06  0.2792524E+04  0.7818609E-02  0.8305593E-01
        1   -1    0    0  501    0  0.00000000000E+00  0.00000000000E+00  0.25671428108E+04  0.25671428108E+04  0.50400001928E-02 0. -1.
       -1   -1    0    0    0  501  0.00000000000E+00  0.00000000000E+00 -0.75942309478E+03  0.75942309479E+03  0.50400001928E-02 0.  1.
    10030    2    1    2    0    0  0.00000000000E+00  0.00000000000E+00  0.18077197160E+04  0.33265659056E+04  0.27925239753E+04 0.  0.
        4    1    3    3  502    0 -0.31383565156E+03  0.20651098144E+03  0.25058034890E+04  0.25338098468E+04  0.12699999809E+01 0. -1.
       -4    1    3    3    0  502  0.31383565156E+03 -0.20651098144E+03 -0.69808377299E+03  0.79275605873E+03  0.12699999809E+01 0.  1.
</event>
<event>
 5   0  0.1235252E-06  0.2759422E+04  0.7818609E-02  0.8315978E-01
       -1   -1    0    0    0  501  0.00000000000E+00  0.00000000000E+00  0.96167249996E+03  0.96167249997E+03  0.50400001928E-02 0. -1.
        1   -1    0    0  501    0  0.00000000000E+00  0.00000000000E+00 -0.19794710915E+04  0.19794710915E+04  0.50400001928E-02 0.  1.
    10030    2    1    2    0    0  0.00000000000E+00  0.00000000000E+00 -0.10177985916E+04  0.29411435915E+04  0.27594223404E+04 0.  0.
        1    1    3    3  502    0  0.69735955898E+02  0.18931115903E+03 -0.19636646543E+04  0.19740011887E+04  0.50400001928E-02 0.  1.
       -1    1    3    3    0  502 -0.69735955898E+02 -0.18931115903E+03  0.94586606277E+03  0.96714240275E+03  0.50400001928E-02 0. -1.
</event>
<event>
 5   0  0.3345919E-06  0.2868522E+04  0.7818609E-02  0.8282305E-01
       -2   -1    0    0    0  501  0.00000000000E+00  0.00000000000E+00  0.87550608036E+03  0.87550608037E+03  0.25500000920E-02 0.  1.
        2   -1    0    0  501    0  0.00000000000E+00  0.00000000000E+00 -0.23496172114E+04  0.23496172114E+04  0.25500000920E-02 0. -1.
    10030    2    1    2    0    0  0.00000000000E+00  0.00000000000E+00 -0.14741111311E+04  0.32251232918E+04  0.28685216786E+04 0.  0.
        2    1    3    3  502    0 -0.12207227380E+02 -0.13310326820E+04 -0.13651201939E+03  0.13380704572E+04  0.25500000920E-02 0.  1.
       -2    1    3    3    0  502  0.12207227380E+02  0.13310326820E+04 -0.13375991117E+04  0.18870528346E+04  0.25500000920E-02 0. -1.
</event>
<event>
 5   0  0.1220265E-06  0.2879793E+04  0.7818609E-02  0.8278915E-01
       -1   -1    0    0    0  501  0.00000000000E+00  0.00000000000E+00  0.10640307326E+04  0.10640307326E+04  0.50400001928E-02 0.  1.
        1   -1    0    0  501    0  0.00000000000E+00  0.00000000000E+00 -0.19485363464E+04  0.19485363464E+04  0.50400001928E-02 0. -1.
    10030    2    1    2    0    0  0.00000000000E+00  0.00000000000E+00 -0.88450561379E+03  0.30125670791E+04  0.28797934344E+04 0.  0.
        4    1    3    3  502    0  0.15089891202E+03  0.13141172284E+03  0.10494145945E+04  0.10683221080E+04  0.12699999809E+01 0.  1.
       -4    1    3    3    0  502 -0.15089891202E+03 -0.13141172284E+03 -0.19339202083E+04  0.19442449710E+04  0.12699999809E+01 0. -1.
</event>
<event>
 5   0  0.3212679E-06  0.2803200E+04  0.7818609E-02  0.8302275E-01
       -2   -1    0    0    0  501  0.00000000000E+00  0.00000000000E+00  0.14185361273E+04  0.14185361273E+04  0.25500000920E-02 0. -1.
        2   -1    0    0  501    0  0.00000000000E+00  0.00000000000E+00 -0.13848664398E+04  0.13848664398E+04  0.25500000920E-02 0.  1.
    10030    2    1    2    0    0  0.00000000000E+00  0.00000000000E+00  0.33669687556E+02  0.28034025671E+04  0.28032003684E+04 0.  0.
        4    1    3    3  502    0  0.10785941779E+03  0.41606858032E+03  0.13509980664E+04  0.14177249754E+04  0.12699999809E+01 0. -1.
       -4    1    3    3    0  502 -0.10785941779E+03 -0.41606858032E+03 -0.13173283788E+04  0.13856775917E+04  0.12699999809E+01 0.  1.
</event>
<event>
 5   0  0.1235252E-06  0.2793954E+04  0.7818609E-02  0.8305148E-01
       -1   -1    0    0    0  501  0.00000000000E+00  0.00000000000E+00  0.16646384083E+04  0.16646384084E+04  0.50400001928E-02 0.  1.
        1   -1    0    0  501    0  0.00000000000E+00  0.00000000000E+00 -0.11723533787E+04  0.11723533787E+04  0.50400001928E-02 0. -1.
    10030    2    1    2    0    0  0.00000000000E+00  0.00000000000E+00  0.49228502968E+03  0.28369917870E+04  0.27939538023E+04 0.  0.
        1    1    3    3  502    0  0.45833416653E+03  0.50399339633E+03  0.14845461622E+04  0.16333881534E+04  0.50400001928E-02 0.  1.
       -1    1    3    3    0  502 -0.45833416653E+03 -0.50399339633E+03 -0.99226113254E+03  0.12036036337E+04  0.50400001928E-02 0. -1.
</event>
<event>
 5   0  0.1263513E-06  0.2811397E+04  0.7818609E-02  0.8299739E-01
        1   -1    0    0  501    0  0.00000000000E+00  0.00000000000E+00  0.26736328935E+04  0.26736328935E+04  0.50400001928E-02 0.  1.
       -1   -1    0    0    0  501  0.00000000000E+00  0.00000000000E+00 -0.73906484591E+03  0.73906484593E+03  0.50400001928E-02 0. -1.
    10030    2    1    2    0    0  0.00000000000E+00  0.00000000000E+00  0.19345680476E+04  0.34126977394E+04  0.28113968645E+04 0.  0.
        3    1    3    3  502    0  0.56257731048E+03  0.10652346880E+04  0.87937345139E+02  0.12078705053E+04  0.10100000352E+00 0. -1.
       -3    1    3    3    0  502 -0.56257731048E+03 -0.10652346880E+04  0.18466307024E+04  0.22048272341E+04  0.10100000352E+00 0.  1.
</event>
<event>
 5   0  0.3345919E-06  0.2793472E+04  0.7818609E-02  0.8305298E-01
       -2   -1    0    0    0  501  0.00000000000E+00  0.00000000000E+00  0.12307905157E+04  0.12307905157E+04  0.25500000920E-02 0.  1.
        2   -1    0    0  501    0  0.00000000000E+00  0.00000000000E+00 -0.15850558961E+04  0.15850558961E+04  0.25500000920E-02 0. -1.
    10030    2    1    2    0    0  0.00000000000E+00  0.00000000000E+00 -0.35426538034E+03  0.28158464118E+04  0.27934722220E+04 0.  0.
        2    1    3    3  502    0  0.13564367994E+03 -0.49497943838E+03 -0.14865629331E+04  0.15726643655E+04  0.25500000920E-02 0. -1.
       -2    1    3    3    0  502 -0.13564367994E+03  0.49497943838E+03  0.11322975528E+04  0.12431820463E+04  0.25500000920E-02 0.  1.
</event>
<event>
 5   0  0.3167616E-06  0.2785222E+04  0.7818609E-02  0.8307871E-01
       -2   -1    0    0    0  501  0.00000000000E+00  0.00000000000E+00  0.81808598280E+03  0.81808598280E+03  0.25500000920E-02 0. -1.
        2   -1    0    0  501    0  0.00000000000E+00  0.00000000000E+00 -0.23706131466E+04  0.23706131466E+04  0.25500000920E-02 0.  1.
    10030    2    1    2    0    0  0.00000000000E+00  0.00000000000E+00 -0.15525271638E+04  0.31886991294E+04  0.27852219918E+04 0.  0.
        3    1    3    3  502    0 -0.10666075344E+04 -0.10687454819E+03  0.24150116398E+03  0.10988160100E+04  0.10100000352E+00 0. -1.
       -3    1    3    3    0  502  0.10666075344E+04  0.10687454819E+03 -0.17940283278E+04  0.20898831194E+04  0.10100000352E+00 0.  1.
</event>
<event>
 5   0  0.3226364E-06  0.2799204E+04  0.7818609E-02  0.8303516E-01
       -2   -1    0    0    0  501  0.00000000000E+00  0.00000000000E+00  0.10222665240E+04  0.10222665240E+04  0.25500000920E-02 0.  1.
        2   -1    0    0  501    0  0.00000000000E+00  0.00000000000E+00 -0.19162181479E+04  0.19162181479E+04  0.25500000920E-02 0. -1.
    10030    2    1    2    0    0  0.00000000000E+00  0.00000000000E+00 -0.89395162396E+03  0.29384846719E+04  0.27992039334E+04 0.  0.
        5    1    3    3  502    0 -0.47525913258E+03  0.79902006365E+03  0.65129269826E+03  0.11351249156E+04  0.46999998093E+01 0.  1.
       -5    1    3    3    0  502  0.47525913258E+03 -0.79902006365E+03 -0.15452443222E+04  0.18033597563E+04  0.46999998093E+01 0. -1.
</event>
<event>
 5   0  0.1220265E-06  0.2651167E+04  0.7818609E-02  0.8351026E-01
        1   -1    0    0  501    0  0.00000000000E+00  0.00000000000E+00  0.12301070912E+04  0.12301070912E+04  0.50400001928E-02 0. -1.
       -1   -1    0    0    0  501  0.00000000000E+00  0.00000000000E+00 -0.14284703609E+04  0.14284703610E+04  0.50400001928E-02 0.  1.
    10030    2    1    2    0    0  0.00000000000E+00  0.00000000000E+00 -0.19836326977E+03  0.26585774521E+04  0.26511669284E+04 0.  0.
        4    1    3    3  502    0 -0.72446468114E+03 -0.54218270480E+03 -0.10705784989E+04  0.14017671329E+04  0.12699999809E+01 0.  1.
       -4    1    3    3    0  502  0.72446468114E+03  0.54218270480E+03  0.87221522918E+03  0.12568103192E+04  0.12699999809E+01 0. -1.
</event>
<event>
 5   0  0.1235252E-06  0.2805314E+04  0.7818609E-02  0.8301620E-01
       -1   -1    0    0    0  501  0.00000000000E+00  0.00000000000E+00  0.10865716705E+04  0.10865716705E+04  0.50400001928E-02 0.  1.
        1   -1    0    0  501    0  0.00000000000E+00  0.00000000000E+00 -0.18106922631E+04  0.18106922631E+04  0.50400001928E-02 0. -1.
    10030    2    1    2    0    0  0.00000000000E+00  0.00000000000E+00 -0.72412059258E+03  0.28972639336E+04  0.28053141836E+04 0.  0.
        1    1    3    3  502    0  0.51952685216E+03  0.75453708940E+03  0.73492805381E+03  0.11744588599E+04  0.50400001928E-02 0.  1.
       -1    1    3    3    0  502 -0.51952685216E+03 -0.75453708940E+03 -0.14590486464E+04  0.17228050737E+04  0.50400001928E-02 0. -1.
</event>
<event>
 5   0  0.1243055E-06  0.2797147E+04  0.7818609E-02  0.8304155E-01
       -1   -1    0    0    0  501  0.00000000000E+00  0.00000000000E+00  0.12953816493E+04  0.12953816493E+04  0.50400001928E-02 0. -1.
        1   -1    0    0  501    0  0.00000000000E+00  0.00000000000E+00 -0.15099859426E+04  0.15099859426E+04  0.50400001928E-02 0.  1.
    10030    2    1    2    0    0  0.00000000000E+00  0.00000000000E+00 -0.21460429329E+03  0.28053675920E+04  0.27971471758E+04 0.  0.
        5    1    3    3  502    0 -0.12908693221E+04 -0.39917448559E+03  0.25473254531E+03  0.13749889586E+04  0.46999998093E+01 0.  1.
       -5    1    3    3    0  502  0.12908693221E+04  0.39917448559E+03 -0.46933683861E+03  0.14303786334E+04  0.46999998093E+01 0. -1.
</event>
<event>
 5   0  0.3167616E-06  0.2813074E+04  0.7818609E-02  0.8299221E-01
        2   -1    0    0  501    0  0.00000000000E+00  0.00000000000E+00  0.22446017692E+04  0.22446017692E+04  0.25500000920E-02 0. -1.
       -2   -1    0    0    0  501  0.00000000000E+00  0.00000000000E+00 -0.88137968809E+03  0.88137968809E+03  0.25500000920E-02 0.  1.
    10030    2    1    2    0    0  0.00000000000E+00  0.00000000000E+00  0.13632220812E+04  0.31259814573E+04  0.28130740532E+04 0.  0.
        3    1    3    3  502    0 -0.71138046595E+03  0.67210765719E+03  0.18042071999E+04  0.20525482944E+04  0.10100000352E+00 0. -1.
       -3    1    3    3    0  502  0.71138046595E+03 -0.67210765719E+03 -0.44098511877E+03  0.10734331630E+04  0.10100000352E+00 0.  1.
</event>
<event>
 5   0  0.3345919E-06  0.2790912E+04  0.7818609E-02  0.8306095E-01
        2   -1    0    0  501    0  0.00000000000E+00  0.00000000000E+00  0.10780451513E+04  0.10780451513E+04  0.25500000920E-02 0. -1.
       -2   -1    0    0    0  501  0.00000000000E+00  0.00000000000E+00 -0.18063224006E+04  0.18063224006E+04  0.25500000920E-02 0.  1.
    10030    2    1    2    0    0  0.00000000000E+00  0.00000000000E+00 -0.72827724931E+03  0.28843675520E+04  0.27909117548E+04 0.  0.
        2    1    3    3  502    0 -0.18750049665E+03 -0.57161528641E+03  0.93714948741E+03  0.11136200580E+04  0.25500000920E-02 0. -1.
       -2    1    3    3    0  502  0.18750049665E+03  0.57161528641E+03 -0.16654267367E+04  0.17707474939E+04  0.25500000920E-02 0.  1.
</event>
<event>
 5   0  0.1246044E-06  0.2798536E+04  0.7818609E-02  0.8303723E-01
        1   -1    0    0  501    0  0.00000000000E+00  0.00000000000E+00  0.11923424329E+04  0.11923424329E+04  0.50400001928E-02 0.  1.
       -1   -1    0    0    0  501  0.00000000000E+00  0.00000000000E+00 -0.16421041016E+04  0.16421041016E+04  0.50400001928E-02 0. -1.
    10030    2    1    2    0    0  0.00000000000E+00  0.00000000000E+00 -0.44976166873E+03  0.28344465345E+04  0.27985356167E+04 0.  0.
        2    1    3    3  502    0  0.84562452699E+03  0.10287083388E+04  0.21031732666E+03  0.13481672986E+04  0.25500000920E-02 0. -1.
       -2    1    3    3    0  502 -0.84562452699E+03 -0.10287083388E+04 -0.66007899539E+03  0.14862792359E+04  0.25500000920E-02 0.  1.
</event>
<event>
 5   0  0.1246044E-06  0.2829182E+04  0.7818609E-02  0.8294266E-01
       -1   -1    0    0    0  501  0.00000000000E+00  0.00000000000E+00  0.17826242521E+04  0.17826242521E+04  0.50400001928E-02 0. -1.
        1   -1    0    0  501    0  0.00000000000E+00  0.00000000000E+00 -0.11225400295E+04  0.11225400295E+04  0.50400001928E-02 0.  1.
    10030    2    1    2    0    0  0.00000000000E+00  0.00000000000E+00  0.66008422260E+03  0.29051642816E+04  0.28291815640E+04 0.  0.
        2    1    3    3  502    0  0.39092795308E+03  0.81470871552E+03  0.14476152773E+04  0.17065066500E+04  0.25500000920E-02 0. -1.
       -2    1    3    3    0  502 -0.39092795308E+03 -0.81470871552E+03 -0.78753105468E+03  0.11986576316E+04  0.25500000920E-02 0.  1.
</event>
<event>
 5   0  0.3162695E-06  0.2798779E+04  0.7818609E-02  0.8303647E-01
       -2   -1    0    0    0  501  0.00000000000E+00  0.00000000000E+00  0.98659502530E+03  0.98659502530E+03  0.25500000920E-02 0.  1.
        2   -1    0    0  501    0  0.00000000000E+00  0.00000000000E+00 -0.19848989431E+04  0.19848989431E+04  0.25500000920E-02 0. -1.
    10030    2    1    2    0    0  0.00000000000E+00  0.00000000000E+00 -0.99830391777E+03  0.29714939684E+04  0.27987793217E+04 0.  0.
        1    1    3    3  502    0 -0.43704741711E+03 -0.29535194077E+03  0.87700214160E+03  0.10234138802E+04  0.50400001928E-02 0.  1.
       -1    1    3    3    0  502  0.43704741711E+03  0.29535194077E+03 -0.18753060594E+04  0.19480800882E+04  0.50400001928E-02 0. -1.
</event>
<event>
 5   0  0.1263513E-06  0.2798063E+04  0.7818609E-02  0.8303870E-01
        1   -1    0    0  501    0  0.00000000000E+00  0.00000000000E+00  0.10121236637E+04  0.10121236638E+04  0.50400001928E-02 0.  1.
       -1   -1    0    0    0  501  0.00000000000E+00  0.00000000000E+00 -0.19338444984E+04  0.19338444984E+04  0.50400001928E-02 0. -1.
    10030    2    1    2    0    0  0.00000000000E+00  0.00000000000E+00 -0.92172083467E+03  0.29459681622E+04  0.27980634581E+04 0.  0.
        3    1    3    3  502    0 -0.94255371521E+03  0.10134388932E+04 -0.24554129048E+03  0.14056160328E+04  0.10100000352E+00 0.  1.
       -3    1    3    3    0  502  0.94255371521E+03 -0.10134388932E+04 -0.67617954419E+03  0.15403521294E+04  0.10100000352E+00 0. -1.
</event>
<event>
 5   0  0.3162695E-06  0.2795315E+04  0.7818609E-02  0.8304724E-01
       -2   -1    0    0    0  501  0.00000000000E+00  0.00000000000E+00  0.19748022696E+04  0.19748022696E+04  0.25500000920E-02 0. -1.
        2   -1    0    0  501    0  0.00000000000E+00  0.00000000000E+00 -0.98918620339E+03  0.98918620339E+03  0.25500000920E-02 0.  1.
    10030    2    1    2    0    0  0.00000000000E+00  0.00000000000E+00  0.98561606626E+03  0.29639884730E+04  0.27953154810E+04 0.  0.
        1    1    3    3  502    0  0.30297075120E+03  0.59732154093E+02  0.19381772947E+04  0.19626233546E+04  0.50400001928E-02 0. -1.
       -1    1    3    3    0  502 -0.30297075120E+03 -0.59732154093E+02 -0.95256122848E+03  0.10013651184E+04  0.50400001928E-02 0.  1.
</event>
<event>
 5   0  0.1246044E-06  0.2797397E+04  0.7818609E-02  0.8304077E-01
       -1   -1    0    0    0  501  0.00000000000E+00  0.00000000000E+00  0.17248964791E+04  0.17248964791E+04  0.50400001928E-02 0.  1.
        1   -1    0    0  501    0  0.00000000000E+00  0.00000000000E+00 -0.11341883020E+04  0.11341883020E+04  0.50400001928E-02 0. -1.
    10030    2    1    2    0    0  0.00000000000E+00  0.00000000000E+00  0.59070817708E+03  0.28590847812E+04  0.27973969392E+04 0.  0.
        2    1    3    3  502    0 -0.94475753388E+02 -0.34301888696E+03 -0.10871650887E+04  0.11439036476E+04  0.25500000920E-02 0. -1.
       -2    1    3    3    0  502  0.94475753388E+02  0.34301888696E+03  0.16778732658E+04  0.17151811336E+04  0.25500000920E-02 0.  1.
</event>
<event>
 5   0  0.1220265E-06  0.2805977E+04  0.7818609E-02  0.8301415E-01
        1   -1    0    0  501    0  0.00000000000E+00  0.00000000000E+00  0.25747002433E+04  0.25747002433E+04  0.50400001928E-02 0.  1.
       -1   -1    0    0    0  501  0.00000000000E+00  0.00000000000E+00 -0.76450715254E+03  0.76450715255E+03  0.50400001928E-02 0. -1.
    10030    2    1    2    0    0  0.00000000000E+00  0.00000000000E+00  0.18101930908E+04  0.33392073959E+04  0.28059770147E+04 0.  0.
        4    1    3    3  502    0  0.83590952648E+03  0.83249813494E+03  0.14719598357E+01  0.11797464392E+04  0.12699999809E+01 0. -1.
       -4    1    3    3    0  502 -0.83590952648E+03 -0.83249813494E+03  0.18087211309E+04  0.21594609567E+04  0.12699999809E+01 0.  1.
</event>
<event>
 5   0  0.3212679E-06  0.2792065E+04  0.7818609E-02  0.8305736E-01
        2   -1    0    0  501    0  0.00000000000E+00  0.00000000000E+00  0.15201895598E+04  0.15201895598E+04  0.25500000920E-02 0.  1.
       -2   -1    0    0    0  501  0.00000000000E+00  0.00000000000E+00 -0.12820151827E+04  0.12820151827E+04  0.25500000920E-02 0. -1.
    10030    2    1    2    0    0  0.00000000000E+00  0.00000000000E+00  0.23817437708E+03  0.28022047425E+04  0.27920645381E+04 0.  0.
        4    1    3    3  502    0  0.68148852556E+03  0.11668517855E+04  0.47098113932E+03  0.14310117213E+04  0.12699999809E+01 0.  1.
       -4    1    3    3    0  502 -0.68148852556E+03 -0.11668517855E+04 -0.23280676224E+03  0.13711930212E+04  0.12699999809E+01 0. -1.
</event>
<event>
 5   0  0.3345919E-06  0.2792710E+04  0.7818609E-02  0.8305535E-01
       -2   -1    0    0    0  501  0.00000000000E+00  0.00000000000E+00  0.76264184331E+03  0.76264184332E+03  0.25500000920E-02 0.  1.
        2   -1    0    0  501    0  0.00000000000E+00  0.00000000000E+00 -0.25566486775E+04  0.25566486775E+04  0.25500000920E-02 0. -1.
    10030    2    1    2    0    0  0.00000000000E+00  0.00000000000E+00 -0.17940068342E+04  0.33192905208E+04  0.27927099814E+04 0.  0.
        2    1    3    3  502    0  0.66531260764E+03 -0.75863920155E+03  0.25020374588E+03  0.10396038758E+04  0.25500000920E-02 0.  1.
       -2    1    3    3    0  502 -0.66531260764E+03  0.75863920155E+03 -0.20442105801E+04  0.22796866451E+04  0.25500000920E-02 0. -1.
</event>
<event>
 5   0  0.1243055E-06  0.2946946E+04  0.7818609E-02  0.8259045E-01
        1   -1    0    0  501    0  0.00000000000E+00  0.00000000000E+00  0.16465152295E+04  0.16465152295E+04  0.50400001928E-02 0. -1.
       -1   -1    0    0    0  501  0.00000000000E+00  0.00000000000E+00 -0.13186165410E+04  0.13186165410E+04  0.50400001928E-02 0.  1.
    10030    2    1    2    0    0  0.00000000000E+00  0.00000000000E+00  0.32789868847E+03  0.29651317705E+04  0.29469456843E+04 0.  0.
        5    1    3    3  502    0  0.77080667307E+03 -0.11418431911E+04 -0.36191475635E+03  0.14244132761E+04  0.46999998093E+01 0.  1.
       -5    1    3    3    0  502 -0.77080667307E+03  0.11418431911E+04  0.68981344482E+03  0.15407184944E+04  0.46999998093E+01 0. -1.
</event>
<event>
 5   0  0.3226364E-06  0.2801686E+04  0.7818609E-02  0.8302745E-01
       -2   -1    0    0    0  501  0.00000000000E+00  0.00000000000E+00  0.13920959520E+04  0.13920959520E+04  0.25500000920E-02 0.  1.
        2   -1    0    0  501    0  0.00000000000E+00  0.00000000000E+00 -0.14096450149E+04  0.14096450149E+04  0.25500000920E-02 0. -1.
    10030    2    1    2    0    0  0.00000000000E+00  0.00000000000E+00 -0.17549062901E+02  0.28017409668E+04  0.28016860059E+04 0.  0.
        5    1    3    3  502    0 -0.28793246855E+02  0.57409005739E+03 -0.12862699764E+04  0.14088722395E+04  0.46999998093E+01 0. -1.
       -5    1    3    3    0  502  0.28793246855E+02 -0.57409005739E+03  0.12687209135E+04  0.13928687273E+04  0.46999998093E+01 0.  1.
</event>
<event>
 5   0  0.3345919E-06  0.2793679E+04  0.7818609E-02  0.8305233E-01
       -2   -1    0    0    0  501  0.00000000000E+00  0.00000000000E+00  0.15730495879E+04  0.15730495879E+04  0.25500000920E-02 0. -1.
        2   -1    0    0  501    0  0.00000000000E+00  0.00000000000E+00 -0.12403685218E+04  0.12403685218E+04  0.25500000920E-02 0.  1.
    10030    2    1    2    0    0  0.00000000000E+00  0.00000000000E+00  0.33268106603E+03  0.28134181097E+04  0.27936794319E+04 0.  0.
        2    1    3    3  502    0 -0.30692948372E+03  0.11935898463E+04  0.82848035037E+03  0.14850057643E+04  0.25500000920E-02 0. -1.
       -2    1    3    3    0  502  0.30692948372E+03 -0.11935898463E+04 -0.49579928434E+03  0.13284123454E+04  0.25500000920E-02 0.  1.
</event>
<event>
 5   0  0.1065675E-06  0.2793978E+04  0.7818609E-02  0.8305140E-01
        4   -1    0    0  501    0  0.00000000000E+00  0.00000000000E+00  0.15469613182E+04  0.15469618395E+04  0.12699999809E+01 0. -1.
       -4   -1    0    0    0  501  0.00000000000E+00  0.00000000000E+00 -0.12615550478E+04  0.12615556871E+04  0.12699999809E+01 0.  1.
    10030    2    1    2    0    0  0.00000000000E+00  0.00000000000E+00  0.28540627042E+03  0.28085175266E+04  0.27939781599E+04 0.  0.
        5    1    3    3  502    0  0.12986252668E+04  0.46363844036E+03  0.36785131782E+03  0.14271386999E+04  0.46999998093E+01 0. -1.
       -5    1    3    3    0  502 -0.12986252668E+04 -0.46363844036E+03 -0.82445047405E+02  0.13813788266E+04  0.46999998093E+01 0.  1.
</event>
<event>
 5   0  0.1263513E-06  0.2797968E+04  0.7818609E-02  0.8303899E-01
        1   -1    0    0  501    0  0.00000000000E+00  0.00000000000E+00  0.88237185085E+03  0.88237185086E+03  0.50400001928E-02 0. -1.
       -1   -1    0    0    0  501  0.00000000000E+00  0.00000000000E+00 -0.22180635536E+04  0.22180635536E+04  0.50400001928E-02 0.  1.
    10030    2    1    2    0    0  0.00000000000E+00  0.00000000000E+00 -0.13356917028E+04  0.31004354045E+04  0.27979684367E+04 0.  0.
        3    1    3    3  502    0  0.64299660027E+03  0.10592716327E+04  0.51700743937E+02  0.12402314288E+04  0.10100000352E+00 0. -1.
       -3    1    3    3    0  502 -0.64299660027E+03 -0.10592716327E+04 -0.13873924467E+04  0.18602039757E+04  0.10100000352E+00 0.  1.
</event>
<event>
 5   0  0.3162695E-06  0.2791171E+04  0.7818609E-02  0.8306015E-01
       -2   -1    0    0    0  501  0.00000000000E+00  0.00000000000E+00  0.13757167197E+04  0.13757167197E+04  0.25500000920E-02 0.  1.
        2   -1    0    0  501    0  0.00000000000E+00  0.00000000000E+00 -0.14157414071E+04  0.14157414071E+04  0.25500000920E-02 0. -1.
    10030    2    1    2    0    0  0.00000000000E+00  0.00000000000E+00 -0.40024687453E+02  0.27914581268E+04  0.27911711696E+04 0.  0.
        1    1    3    3  502    0  0.47648060374E+03 -0.81365208877E+02 -0.13293471021E+04  0.14145026620E+04  0.50400001928E-02 0. -1.
       -1    1    3    3    0  502 -0.47648060374E+03  0.81365208877E+02  0.12893224147E+04  0.13769554648E+04  0.50400001928E-02 0.  1.
</event>
<event>
 5   0  0.1263513E-06  0.2853285E+04  0.7818609E-02  0.8286914E-01
        1   -1    0    0  501    0  0.00000000000E+00  0.00000000000E+00  0.14333073391E+04  0.14333073391E+04  0.50400001928E-02 0.  1.
       -1   -1    0    0    0  501  0.00000000000E+00  0.00000000000E+00 -0.14200086491E+04  0.14200086491E+04  0.50400001928E-02 0. -1.
    10030    2    1    2    0    0  0.00000000000E+00  0.00000000000E+00  0.13298690053E+02  0.28533159882E+04  0.28532849969E+04 0.  0.
        3    1    3    3  502    0  0.12004687729E+04  0.54209875456E+03  0.55466302883E+03  0.14292121676E+04  0.10100000352E+00 0.  1.
       -3    1    3    3    0  502 -0.12004687729E+04 -0.54209875456E+03 -0.54136433878E+03  0.14241038206E+04  0.10100000352E+00 0. -1.
</event>
<event>
 5   0  0.3345919E-06  0.2799805E+04  0.7818609E-02  0.8303329E-01
       -2   -1    0    0    0  501  0.00000000000E+00  0.00000000000E+00  0.10950754464E+04  0.10950754464E+04  0.25500000920E-02 0. -1.
        2   -1    0    0  501    0  0.00000000000E+00  0.00000000000E+00 -0.17895814170E+04  0.17895814170E+04  0.25500000920E-02 0.  1.
    10030    2    1    2    0    0  0.00000000000E+00  0.00000000000E+00 -0.69450597058E+03  0.28846568635E+04  0.27998047569E+04 0.  0.
        2    1    3    3  502    0  0.78670395116E+03 -0.45585635894E+03 -0.14439456075E+04  0.17063666207E+04  0.25500000920E-02 0.  1.
       -2    1    3    3    0  502 -0.78670395116E+03  0.45585635894E+03  0.74943963694E+03  0.11782902428E+04  0.25500000920E-02 0. -1.
</event>
<event>
 5   0  0.3167616E-06  0.2782682E+04  0.7818609E-02  0.8308665E-01
        2   -1    0    0  501    0  0.00000000000E+00  0.00000000000E+00  0.23338130385E+04  0.23338130385E+04  0.25500000920E-02 0.  1.
       -2   -1    0    0    0  501  0.00000000000E+00  0.00000000000E+00 -0.82947054656E+03  0.82947054657E+03  0.25500000920E-02 0. -1.
    10030    2    1    2    0    0  0.00000000000E+00  0.00000000000E+00  0.15043424919E+04  0.31632835850E+04  0.27826815676E+04 0.  0.
        3    1    3    3  502    0 -0.54810078916E+03  0.11747055318E+04  0.13267564444E+04  0.18548935911E+04  0.10100000352E+00 0. -1.
       -3    1    3    3    0  502  0.54810078916E+03 -0.11747055318E+04  0.17758604755E+03  0.13083899939E+04  0.10100000352E+00 0.  1.
</event>
<event>
 5   0  0.3162695E-06  0.2784934E+04  0.7818609E-02  0.8307961E-01
       -2   -1    0    0    0  501  0.00000000000E+00  0.00000000000E+00  0.15432839062E+04  0.15432839062E+04  0.25500000920E-02 0. -1.
        2   -1    0    0  501    0  0.00000000000E+00  0.00000000000E+00 -0.12563890247E+04  0.12563890247E+04  0.25500000920E-02 0.  1.
    10030    2    1    2    0    0  0.00000000000E+00  0.00000000000E+00  0.28689488146E+03  0.27996729309E+04  0.27849344422E+04 0.  0.
        1    1    3    3  502    0  0.10336669095E+04  0.24346813233E+03 -0.76199719705E+03  0.13070515444E+04  0.50400001928E-02 0.  1.
       -1    1    3    3    0  502 -0.10336669095E+04 -0.24346813233E+03  0.10488920785E+04  0.14926213866E+04  0.50400001928E-02 0. -1.
</event>
<event>
 5   0  0.3226364E-06  0.2795339E+04  0.7818609E-02  0.8304717E-01
        2   -1    0    0  501    0  0.00000000000E+00  0.00000000000E+00  0.20841685358E+04  0.20841685358E+04  0.25500000920E-02 0.  1.
       -2   -1    0    0    0  501  0.00000000000E+00  0.00000000000E+00 -0.93729494715E+03  0.93729494716E+03  0.25500000920E-02 0. -1.
    10030    2    1    2    0    0  0.00000000000E+00  0.00000000000E+00  0.11468735887E+04  0.30214634830E+04  0.27953394339E+04 0.  0.
        5    1    3    3  502    0 -0.53259337231E+03 -0.20200755197E+03 -0.80613015225E+03  0.98708189308E+03  0.46999998093E+01 0. -1.
       -5    1    3    3    0  502  0.53259337231E+03  0.20200755197E+03  0.19530037409E+04  0.20343815899E+04  0.46999998093E+01 0.  1.
</event>
<event>
 5   0  0.1220265E-06  0.2765831E+04  0.7818609E-02  0.8313956E-01
       -1   -1    0    0    0  501  0.00000000000E+00  0.00000000000E+00  0.11726038768E+04  0.11726038768E+04  0.50400001928E-02 0.  1.
        1   -1    0    0  501    0  0.00000000000E+00  0.00000000000E+00 -0.16309469724E+04  0.16309469724E+04  0.50400001928E-02 0. -1.
    10030    2    1    2    0    0  0.00000000000E+00  0.00000000000E+00 -0.45834309555E+03  0.28035508492E+04  0.27658306114E+04 0.  0.
        4    1    3    3  502    0 -0.12464010896E+02  0.45459206368E+03 -0.15529857403E+04  0.16182013528E+04  0.12699999809E+01 0. -1.
       -4    1    3    3    0  502  0.12464010896E+02 -0.45459206368E+03  0.10946426447E+04  0.11853494963E+04  0.12699999809E+01 0.  1.
</event>
<event>
 5   0  0.1243055E-06  0.2802061E+04  0.7818609E-02  0.8302629E-01
       -1   -1    0    0    0  501  0.00000000000E+00  0.00000000000E+00  0.17953251998E+04  0.17953251998E+04  0.50400001928E-02 0. -1.
        1   -1    0    0  501    0  0.00000000000E+00  0.00000000000E+00 -0.10933316807E+04  0.10933316807E+04  0.50400001928E-02 0.  1.
    10030    2    1    2    0    0  0.00000000000E+00  0.00000000000E+00  0.70199351915E+03  0.28886568805E+04  0.28020606118E+04 0.  0.
        5    1    3    3  502    0 -0.89854660027E+03  0.56995365821E+03  0.12905522026E+04  0.16726566423E+04  0.46999998093E+01 0. -1.
       -5    1    3    3    0  502  0.89854660027E+03 -0.56995365821E+03 -0.58855868348E+03  0.12160002382E+04  0.46999998093E+01 0.  1.
</event>
<event>
 5   0  0.3212679E-06  0.2807323E+04  0.7818609E-02  0.8300999E-01
       -2   -1    0    0    0  501  0.00000000000E+00  0.00000000000E+00  0.91859942483E+03  0.91859942484E+03  0.25500000920E-02 0.  1.
        2   -1    0    0  501    0  0.00000000000E+00  0.00000000000E+00 -0.21448581481E+04  0.21448581481E+04  0.25500000920E-02 0. -1.
    10030    2    1    2    0    0  0.00000000000E+00  0.00000000000E+00 -0.12262587232E+04  0.30634575729E+04  0.28073228964E+04 0.  0.
        4    1    3    3  502    0  0.14104712748E+03 -0.12986503160E+04 -0.11736869026E+04  0.17561120391E+04  0.12699999809E+01 0. -1.
       -4    1    3    3    0  502 -0.14104712748E+03  0.12986503160E+04 -0.52571820582E+02  0.13073455338E+04  0.12699999809E+01 0.  1.
</event>
<event>
 5   0  0.1220265E-06  0.2776976E+04  0.7818609E-02  0.8310452E-01
        1   -1    0    0  501    0  0.00000000000E+00  0.00000000000E+00  0.25429047054E+04  0.25429047054E+04  0.50400001928E-02 0.  1.
       -1   -1    0    0    0  501  0.00000000000E+00  0.00000000000E+00 -0.75814848135E+03  0.75814848136E+03  0.50400001928E-02 0. -1.
    10030    2    1    2    0    0  0.00000000000E+00  0.00000000000E+00  0.17847562240E+04  0.33010531868E+04  0.27769762985E+04 0.  0.
        4    1    3    3  502    0 -0.39116825233E+03  0.13239578150E+04  0.10687775481E+04  0.17458991831E+04  0.12699999809E+01 0.  1.
       -4    1    3    3    0  502  0.39116825233E+03 -0.13239578150E+04  0.71597867598E+03  0.15551540036E+04  0.12699999809E+01 0. -1.
</event>
<event>
 5   0  0.1263513E-06  0.2806755E+04  0.7818609E-02  0.8301174E-01
        1   -1    0    0  501    0  0.00000000000E+00  0.00000000000E+00  0.20421570894E+04  0.20421570894E+04  0.50400001928E-02 0. -1.
       -1   -1    0    0    0  501  0.00000000000E+00  0.00000000000E+00 -0.96440611856E+03  0.96440611857E+03  0.50400001928E-02 0.  1.
    10030    2    1    2    0    0  0.00000000000E+00  0.00000000000E+00  0.10777509708E+04  0.30065632080E+04  0.28067552740E+04 0.  0.
        3    1    3    3  502    0  0.95706143866E+03  0.75754725891E+03 -0.20297501890E+03  0.12373533510E+04  0.10100000352E+00 0.  1.
       -3    1    3    3    0  502 -0.95706143866E+03 -0.75754725891E+03  0.12807259897E+04  0.17692098569E+04  0.10100000352E+00 0. -1.
</event>
<event>
 5   0  0.3162695E-06  0.2821372E+04  0.7818609E-02  0.8296664E-01
        2   -1    0    0  501    0  0.00000000000E+00  0.00000000000E+00  0.12654122046E+04  0.12654122046E+04  0.25500000920E-02 0.  1.
       -2   -1    0    0    0  501  0.00000000000E+00  0.00000000000E+00 -0.15726373152E+04  0.15726373152E+04  0.25500000920E-02 0. -1.
    10030    2    1    2    0    0  0.00000000000E+00  0.00000000000E+00 -0.30722511056E+03  0.28380495198E+04  0.28213716183E+04 0.  0.
        1    1    3    3  502    0  0.19640680450E+03  0.11711666285E+04 -0.91957785986E+03  0.15019421910E+04  0.50400001928E-02 0. -1.
       -1    1    3    3    0  502 -0.19640680450E+03 -0.11711666285E+04  0.61235274929E+03  0.13361073289E+04  0.50400001928E-02 0.  1.
</event>
<event>
 5   0  0.1243055E-06  0.2807682E+04  0.7818609E-02  0.8300887E-01
        1   -1    0    0  501    0  0.00000000000E+00  0.00000000000E+00  0.22173121895E+04  0.22173121895E+04  0.50400001928E-02 0.  1.
       -1   -1    0    0    0  501  0.00000000000E+00  0.00000000000E+00 -0.88881004887E+03  0.88881004888E+03  0.50400001928E-02 0. -1.
    10030    2    1    2    0    0  0.00000000000E+00  0.00000000000E+00  0.13285021406E+04  0.31061222384E+04  0.28076818591E+04 0.  0.
        5    1    3    3  502    0 -0.86583955412E+03  0.28367959746E+03 -0.51725615588E+03  0.10477252828E+04  0.46999998093E+01 0. -1.
       -5    1    3    3    0  502  0.86583955412E+03 -0.28367959746E+03  0.18457582965E+04  0.20583969555E+04  0.46999998093E+01 0.  1.
</event>
<event>
 5   0  0.3212679E-06  0.2985273E+04  0.7818609E-02  0.8247949E-01
       -2   -1    0    0    0  501  0.00000000000E+00  0.00000000000E+00  0.87523031209E+03  0.87523031209E+03  0.25500000920E-02 0. -1.
        2   -1    0    0  501    0  0.00000000000E+00  0.00000000000E+00 -0.25455745021E+04  0.25455745021E+04  0.25500000920E-02 0.  1.
    10030    2    1    2    0    0  0.00000000000E+00  0.00000000000E+00 -0.16703441900E+04  0.34208048142E+04  0.29852731640E+04 0.  0.
        4    1    3    3  502    0  0.89087933206E+03 -0.49338727466E+03  0.41530445023E+03  0.10998074315E+04  0.12699999809E+01 0. -1.
       -4    1    3    3    0  502 -0.89087933206E+03  0.49338727466E+03 -0.20856486402E+04  0.23209973827E+04  0.12699999809E+01 0.  1.
</event>
<event>
 5   0  0.3162695E-06  0.2795831E+04  0.7818609E-02  0.8304564E-01
        2   -1    0    0  501    0  0.00000000000E+00  0.00000000000E+00  0.56466894671E+03  0.56466894671E+03  0.25500000920E-02 0.  1.
       -2   -1    0    0    0  501  0.00000000000E+00  0.00000000000E+00 -0.34607315273E+04  0.34607315273E+04  0.25500000920E-02 0. -1.
    10030    2    1    2    0    0  0.00000000000E+00  0.00000000000E+00 -0.28960625806E+04  0.40254004740E+04  0.27958309150E+04 0.  0.
        1    1    3    3  502    0  0.12319457575E+04 -0.65545484467E+03 -0.15672489719E+04  0.20984710488E+04  0.50400001928E-02 0. -1.
       -1    1    3    3    0  502 -0.12319457575E+04  0.65545484467E+03 -0.13288136087E+04  0.19269294252E+04  0.50400001928E-02 0.  1.
</event>
<event>
 5   0  0.3167616E-06  0.2802491E+04  0.7818609E-02  0.8302495E-01
        2   -1    0    0  501    0  0.00000000000E+00  0.00000000000E+00  0.12905124706E+04  0.12905124707E+04  0.25500000920E-02 0.  1.
       -2   -1    0    0    0  501  0.00000000000E+00  0.00000000000E+00 -0.15214802800E+04  0.15214802800E+04  0.25500000920E-02 0. -1.
    10030    2    1    2    0    0  0.00000000000E+00  0.00000000000E+00 -0.23096780938E+03  0.28119927507E+04  0.28024912312E+04 0.  0.
        3    1    3    3  502    0  0.99413817131E+03  0.51553790369E+03 -0.96059789475E+03  0.14754112509E+04  0.10100000352E+00 0. -1.
       -3    1    3    3    0  502 -0.99413817131E+03 -0.51553790369E+03  0.72963008536E+03  0.13365814997E+04  0.10100000352E+00 0.  1.
</event>
<event>
 5   0  0.3345919E-06  0.2794185E+04  0.7818609E-02  0.8305076E-01
       -2   -1    0    0    0  501  0.00000000000E+00  0.00000000000E+00  0.83387863919E+03  0.83387863919E+03  0.25500000920E-02 0.  1.
        2   -1    0    0  501    0  0.00000000000E+00  0.00000000000E+00 -0.23407088690E+04  0.23407088690E+04  0.25500000920E-02 0. -1.
    10030    2    1    2    0    0  0.00000000000E+00  0.00000000000E+00 -0.15068302298E+04  0.31745875082E+04  0.27941847658E+04 0.  0.
        2    1    3    3  502    0  0.52082792163E+02  0.35709781772E+02 -0.23390865619E+04  0.23399388347E+04  0.25500000920E-02 0. -1.
       -2    1    3    3    0  502 -0.52082792163E+02 -0.35709781772E+02  0.83225633215E+03  0.83464867350E+03  0.25500000920E-02 0.  1.
</event>
<event>
 5   0  0.3162695E-06  0.2779468E+04  0.7818609E-02  0.8309671E-01
        2   -1    0    0  501    0  0.00000000000E+00  0.00000000000E+00  0.20553754557E+04  0.20553754557E+04  0.25500000920E-02 0. -1.
       -2   -1    0    0    0  501  0.00000000000E+00  0.00000000000E+00 -0.93966313303E+03  0.93966313304E+03  0.25500000920E-02 0.  1.
    10030    2    1    2    0    0  0.00000000000E+00  0.00000000000E+00  0.11157123227E+04  0.29950385887E+04  0.27794679637E+04 0.  0.
        1    1    3    3  502    0 -0.54151910910E+03  0.12536409887E+04  0.83573640149E+03  0.16010352922E+04  0.50400001928E-02 0. -1.
       -1    1    3    3    0  502  0.54151910910E+03 -0.12536409887E+04  0.27997592117E+03  0.13940032965E+04  0.50400001928E-02 0.  1.
</event>
<event>
 5   0  0.3226364E-06  0.2799159E+04  0.7818609E-02  0.8303530E-01
        2   -1    0    0  501    0  0.00000000000E+00  0.00000000000E+00  0.16426672353E+04  0.16426672353E+04  0.25500000920E-02 0. -1.
       -2   -1    0    0    0  501  0.00000000000E+00  0.00000000000E+00 -0.11924646122E+04  0.11924646122E+04  0.25500000920E-02 0.  1.
    10030    2    1    2    0    0  0.00000000000E+00  0.00000000000E+00  0.45020262309E+03  0.28351318474E+04  0.27991588362E+04 0.  0.
        5    1    3    3  502    0  0.94315521406E+03  0.20074344835E+03 -0.80231185203E+03  0.12544186254E+04  0.46999998093E+01 0.  1.
       -5    1    3    3    0  502 -0.94315521406E+03 -0.20074344835E+03  0.12525144751E+04  0.15807132220E+04  0.46999998093E+01 0. -1.
</event>
<event>
 5   0  0.3345919E-06  0.2818824E+04  0.7818609E-02  0.8297448E-01
        2   -1    0    0  501    0  0.00000000000E+00  0.00000000000E+00  0.18020228925E+04  0.18020228925E+04  0.25500000920E-02 0.  1.
       -2   -1    0    0    0  501  0.00000000000E+00  0.00000000000E+00 -0.11023401424E+04  0.11023401425E+04  0.25500000920E-02 0. -1.
    10030    2    1    2    0    0  0.00000000000E+00  0.00000000000E+00  0.69968275003E+03  0.29043630349E+04  0.28188239902E+04 0.  0.
        2    1    3    3  502    0 -0.13350817663E+04 -0.37042253183E+03  0.83569284021E+02  0.13880345818E+04  0.25500000920E-02 0. -1.
       -2    1    3    3    0  502  0.13350817663E+04  0.37042253183E+03  0.61611346601E+03  0.15163284532E+04  0.25500000920E-02 0.  1.
</event>
<event>
 5   0  0.1263513E-06  0.2816529E+04  0.7818609E-02  0.8298155E-01
       -1   -1    0    0    0  501  0.00000000000E+00  0.00000000000E+00  0.17031729167E+04  0.17031729167E+04  0.50400001928E-02 0. -1.
        1   -1    0    0  501    0  0.00000000000E+00  0.00000000000E+00 -0.11644199095E+04  0.11644199095E+04  0.50400001928E-02 0.  1.
    10030    2    1    2    0    0  0.00000000000E+00  0.00000000000E+00  0.53875300716E+03  0.28675928263E+04  0.28165286816E+04 0.  0.
        3    1    3    3  502    0 -0.22130760530E+02  0.77508949965E+03  0.14662555075E+04  0.16586617276E+04  0.10100000352E+00 0. -1.
       -3    1    3    3    0  502  0.22130760530E+02 -0.77508949965E+03 -0.92750250034E+03  0.12089310987E+04  0.10100000352E+00 0.  1.
</event>
<event>
 5   0  0.1235252E-06  0.2797233E+04  0.7818609E-02  0.8304128E-01
       -1   -1    0    0    0  501  0.00000000000E+00  0.00000000000E+00  0.10112299304E+04  0.10112299304E+04  0.50400001928E-02 0.  1.
        1   -1    0    0  501    0  0.00000000000E+00  0.00000000000E+00 -0.19344047524E+04  0.19344047524E+04  0.50400001928E-02 0. -1.
    10030    2    1    2    0    0  0.00000000000E+00  0.00000000000E+00 -0.92317482198E+03  0.29456346828E+04  0.27972329063E+04 0.  0.
        1    1    3    3  502    0  0.27706993773E+03  0.11505012880E+04 -0.12465938106E+04  0.17188417882E+04  0.50400001928E-02 0. -1.
       -1    1    3    3    0  502 -0.27706993773E+03 -0.11505012880E+04  0.32341898864E+03  0.12267928946E+04  0.50400001928E-02 0.  1.
</event>
<event>
 5   0  0.3212679E-06  0.2798314E+04  0.7818609E-02  0.8303792E-01
       -2   -1    0    0    0  501  0.00000000000E+00  0.00000000000E+00  0.12106998389E+04  0.12106998389E+04  0.25500000920E-02 0. -1.
        2   -1    0    0  501    0  0.00000000000E+00  0.00000000000E+00 -0.16169496157E+04  0.16169496157E+04  0.25500000920E-02 0.  1.
    10030    2    1    2    0    0  0.00000000000E+00  0.00000000000E+00 -0.40624977685E+03  0.28276494546E+04  0.27983142349E+04 0.  0.
        4    1    3    3  502    0  0.12849097789E+04 -0.55185018240E+03 -0.15673872777E+03  0.14071604050E+04  0.12699999809E+01 0.  1.
       -4    1    3    3    0  502 -0.12849097789E+04  0.55185018240E+03 -0.24951104908E+03  0.14204890496E+04  0.12699999809E+01 0. -1.
</event>
<event>
 5   0  0.3226364E-06  0.2799651E+04  0.7818609E-02  0.8303377E-01
        2   -1    0    0  501    0  0.00000000000E+00  0.00000000000E+00  0.14057480195E+04  0.14057480195E+04  0.25500000920E-02 0.  1.
       -2   -1    0    0    0  501  0.00000000000E+00  0.00000000000E+00 -0.13939275234E+04  0.13939275234E+04  0.25500000920E-02 0. -1.
    10030    2    1    2    0    0  0.00000000000E+00  0.00000000000E+00  0.11820496074E+02  0.27996755429E+04  0.27996505892E+04 0.  0.
        5    1    3    3  502    0 -0.72924377266E+03 -0.76560439419E+03  0.92327451522E+03  0.14037109705E+04  0.46999998093E+01 0.  1.
       -5    1    3    3    0  502  0.72924377266E+03  0.76560439419E+03 -0.91145401915E+03  0.13959645724E+04  0.46999998093E+01 0. -1.
</event>
<event>
 5   0  0.3226364E-06  0.2781433E+04  0.7818609E-02  0.8309056E-01
        2   -1    0    0  501    0  0.00000000000E+00  0.00000000000E+00  0.19222679824E+04  0.19222679824E+04  0.25500000920E-02 0.  1.
       -2   -1    0    0    0  501  0.00000000000E+00  0.00000000000E+00 -0.10061509715E+04  0.10061509715E+04  0.25500000920E-02 0. -1.
    10030    2    1    2    0    0  0.00000000000E+00  0.00000000000E+00  0.91611701095E+03  0.29284189539E+04  0.27814325790E+04 0.  0.
        5    1    3    3  502    0  0.67552400729E+03 -0.12093454786E+04  0.32816732693E+03  0.14235747453E+04  0.46999998093E+01 0. -1.
       -5    1    3    3    0  502 -0.67552400729E+03  0.12093454786E+04  0.58794968402E+03  0.15048442086E+04  0.46999998093E+01 0.  1.
</event>
<event>
 5   0  0.1220265E-06  0.2798130E+04  0.7818609E-02  0.8303849E-01
        1   -1    0    0  501    0  0.00000000000E+00  0.00000000000E+00  0.19488079872E+04  0.19488079872E+04  0.50400001928E-02 0. -1.
       -1   -1    0    0    0  501  0.00000000000E+00  0.00000000000E+00 -0.10043998089E+04  0.10043998089E+04  0.50400001928E-02 0.  1.
    10030    2    1    2    0    0  0.00000000000E+00  0.00000000000E+00  0.94440817833E+03  0.29532077962E+04  0.27981296396E+04 0.  0.
        4    1    3    3  502    0 -0.77935577751E+03  0.35392723368E+03  0.16402091615E+04  0.18501209747E+04  0.12699999809E+01 0. -1.
       -4    1    3    3    0  502  0.77935577751E+03 -0.35392723368E+03 -0.69580098314E+03  0.11030868215E+04  0.12699999809E+01 0.  1.
</event>
<event>
 5   0  0.1065675E-06  0.2792329E+04  0.7818609E-02  0.8305654E-01
       -3   -1    0    0    0  501  0.00000000000E+00  0.00000000000E+00  0.13634900768E+04  0.13634900806E+04  0.10100000352E+00 0. -1.
        3   -1    0    0  501    0  0.00000000000E+00  0.00000000000E+00 -0.14296220282E+04  0.14296220317E+04  0.10100000352E+00 0.  1.
    10030    2    1    2    0    0  0.00000000000E+00  0.00000000000E+00 -0.66131951338E+02  0.27931121123E+04  0.27923291061E+04 0.  0.
        2    1    3    3  502    0 -0.12551108035E+04 -0.59576915039E+03  0.10492722812E+03  0.13932888189E+04  0.25500000920E-02 0. -1.
       -2    1    3    3    0  502  0.12551108035E+04  0.59576915039E+03 -0.17105917945E+03  0.13998232934E+04  0.25500000920E-02 0.  1.
</event>
<event>
 5   0  0.3162695E-06  0.2797526E+04  0.7818609E-02  0.8304037E-01
        2   -1    0    0  501    0  0.00000000000E+00  0.00000000000E+00  0.23414100818E+04  0.23414100818E+04  0.25500000920E-02 0.  1.
       -2   -1    0    0    0  501  0.00000000000E+00  0.00000000000E+00 -0.83562361706E+03  0.83562361707E+03  0.25500000920E-02 0. -1.
    10030    2    1    2    0    0  0.00000000000E+00  0.00000000000E+00  0.15057864647E+04  0.31770336989E+04  0.27975257365E+04 0.  0.
        1    1    3    3  502    0  0.34593086523E+03  0.74565364463E+03  0.20381806754E+04  0.21976915131E+04  0.50400001928E-02 0.  1.
       -1    1    3    3    0  502 -0.34593086523E+03 -0.74565364463E+03 -0.53239421064E+03  0.97934218576E+03  0.50400001928E-02 0. -1.
</event>
<event>
 5   0  0.3212679E-06  0.2808923E+04  0.7818609E-02  0.8300503E-01
        2   -1    0    0  501    0  0.00000000000E+00  0.00000000000E+00  0.15950570969E+04  0.15950570969E+04  0.25500000920E-02 0.  1.
       -2   -1    0    0    0  501  0.00000000000E+00  0.00000000000E+00 -0.12366405767E+04  0.12366405767E+04  0.25500000920E-02 0. -1.
    10030    2    1    2    0    0  0.00000000000E+00  0.00000000000E+00  0.35841652021E+03  0.28316976736E+04  0.28089231589E+04 0.  0.
        4    1    3    3  502    0 -0.20126908919E+03  0.80087192329E+03 -0.96605097665E+03  0.12708899190E+04  0.12699999809E+01 0. -1.
       -4    1    3    3    0  502  0.20126908919E+03 -0.80087192329E+03  0.13244674969E+04  0.15608077546E+04  0.12699999809E+01 0.  1.
</event>
<event>
 5   0  0.3212679E-06  0.2792891E+04  0.7818609E-02  0.8305479E-01
       -2   -1    0    0    0  501  0.00000000000E+00  0.00000000000E+00  0.10937214083E+04  0.10937214083E+04  0.25500000920E-02 0. -1.
        2   -1    0    0  501    0  0.00000000000E+00  0.00000000000E+00 -0.17829592740E+04  0.17829592740E+04  0.25500000920E-02 0.  1.
    10030    2    1    2    0    0  0.00000000000E+00  0.00000000000E+00 -0.68923786565E+03  0.28766806823E+04  0.27928914967E+04 0.  0.
        4    1    3    3  502    0 -0.76346777191E+03  0.67417488951E+03 -0.13286144579E+04  0.16741005977E+04  0.12699999809E+01 0.  1.
       -4    1    3    3    0  502  0.76346777191E+03 -0.67417488951E+03  0.63937659226E+03  0.12025800847E+04  0.12699999809E+01 0. -1.
</event>
<event>
 5   0  0.3345919E-06  0.2700724E+04  0.7818609E-02  0.8334770E-01
       -2   -1    0    0    0  501  0.00000000000E+00  0.00000000000E+00  0.12789846427E+04  0.12789846427E+04  0.25500000920E-02 0. -1.
        2   -1    0    0  501    0  0.00000000000E+00  0.00000000000E+00 -0.14257227506E+04  0.14257227506E+04  0.25500000920E-02 0.  1.
    10030    2    1    2    0    0  0.00000000000E+00  0.00000000000E+00 -0.14673810783E+03  0.27047073933E+04  0.27007239791E+04 0.  0.
        2    1    3    3  502    0 -0.52825462170E+03 -0.12017439670E+04  0.24369860151E+03  0.13351518700E+04  0.25500000920E-02 0. -1.
       -2    1    3    3    0  502  0.52825462170E+03  0.12017439670E+04 -0.39043670934E+03  0.13695555233E+04  0.25500000920E-02 0.  1.
</event>
<event>
 5   0  0.1246044E-06  0.2801785E+04  0.7818609E-02  0.8302715E-01
       -1   -1    0    0    0  501  0.00000000000E+00  0.00000000000E+00  0.81488096821E+03  0.81488096823E+03  0.50400001928E-02 0. -1.
        1   -1    0    0  501    0  0.00000000000E+00  0.00000000000E+00 -0.24083263350E+04  0.24083263350E+04  0.50400001928E-02 0.  1.
    10030    2    1    2    0    0  0.00000000000E+00  0.00000000000E+00 -0.15934453668E+04  0.32232073032E+04  0.28017846424E+04 0.  0.
        2    1    3    3  502    0  0.45263791844E+03 -0.11965656647E+04 -0.14003092679E+03  0.12869573169E+04  0.25500000920E-02 0. -1.
       -2    1    3    3    0  502 -0.45263791844E+03  0.11965656647E+04 -0.14534144400E+04  0.19362499863E+04  0.25500000920E-02 0.  1.
</event>
<event>
 5   0  0.1263513E-06  0.2804210E+04  0.7818609E-02  0.8301962E-01
        1   -1    0    0  501    0  0.00000000000E+00  0.00000000000E+00  0.21012110012E+04  0.21012110012E+04  0.50400001928E-02 0. -1.
       -1   -1    0    0    0  501  0.00000000000E+00  0.00000000000E+00 -0.93560269762E+03  0.93560269764E+03  0.50400001928E-02 0.  1.
    10030    2    1    2    0    0  0.00000000000E+00  0.00000000000E+00  0.11656083036E+04  0.30368136989E+04  0.28042101783E+04 0.  0.
        3    1    3    3  502    0  0.13553093636E+04  0.11073037998E+03  0.95287138635E+03  0.16604483061E+04  0.10100000352E+00 0. -1.
       -3    1    3    3    0  502 -0.13553093636E+04 -0.11073037998E+03  0.21273691727E+03  0.13763653928E+04  0.10100000352E+00 0.  1.
</event>
<event>
 5   0  0.3226364E-06  0.2801573E+04  0.7818609E-02  0.8302780E-01
        2   -1    0    0  501    0  0.00000000000E+00  0.00000000000E+00  0.18347146132E+04  0.18347146132E+04  0.25500000920E-02 0. -1.
       -2   -1    0    0    0  501  0.00000000000E+00  0.00000000000E+00 -0.10694867350E+04  0.10694867350E+04  0.25500000920E-02 0.  1.
    10030    2    1    2    0    0  0.00000000000E+00  0.00000000000E+00  0.76522787815E+03  0.29042013482E+04  0.28015730876E+04 0.  0.
        5    1    3    3  502    0 -0.12714419725E+04  0.46255712861E+03  0.64762516931E+01  0.13529921723E+04  0.46999998093E+01 0.  1.
       -5    1    3    3    0  502  0.12714419725E+04 -0.46255712861E+03  0.75875162646E+03  0.15512091758E+04  0.46999998093E+01 0. -1.
</event>
<event>
 5   0  0.3162695E-06  0.2817745E+04  0.7818609E-02  0.8297780E-01
        2   -1    0    0  501    0  0.00000000000E+00  0.00000000000E+00  0.10310943030E+04  0.10310943030E+04  0.25500000920E-02 0. -1.
       -2   -1    0    0    0  501  0.00000000000E+00  0.00000000000E+00 -0.19250638234E+04  0.19250638234E+04  0.25500000920E-02 0.  1.
    10030    2    1    2    0    0  0.00000000000E+00  0.00000000000E+00 -0.89396952041E+03  0.29561581263E+04  0.28177454400E+04 0.  0.
        1    1    3    3  502    0 -0.10013407743E+04  0.96193914199E+03 -0.19670361012E+03  0.14023917318E+04  0.50400001928E-02 0. -1.
       -1    1    3    3    0  502  0.10013407743E+04 -0.96193914199E+03 -0.69726591029E+03  0.15537663945E+04  0.50400001928E-02 0.  1.
</event>
<event>
 5   0  0.1220265E-06  0.2809472E+04  0.7818609E-02  0.8300334E-01
        1   -1    0    0  501    0  0.00000000000E+00  0.00000000000E+00  0.19036109535E+04  0.19036109535E+04  0.50400001928E-02 0.  1.
       -1   -1    0    0    0  501  0.00000000000E+00  0.00000000000E+00 -0.10365999142E+04  0.10365999142E+04  0.50400001928E-02 0. -1.
    10030    2    1    2    0    0  0.00000000000E+00  0.00000000000E+00  0.86701103930E+03  0.29402108678E+04  0.28094718017E+04 0.  0.
        4    1    3    3  502    0  0.79538455269E+03  0.87885013168E+03  0.12224203041E+04  0.17027410706E+04  0.12699999809E+01 0.  1.
       -4    1    3    3    0  502 -0.79538455269E+03 -0.87885013168E+03 -0.35540926481E+03  0.12374697972E+04  0.12699999809E+01 0. -1.
</event>
<event>
 5   0  0.1263513E-06  0.2809232E+04  0.7818609E-02  0.8300408E-01
        1   -1    0    0  501    0  0.00000000000E+00  0.00000000000E+00  0.23944987781E+04  0.23944987781E+04  0.50400001928E-02 0. -1.
       -1   -1    0    0    0  501  0.00000000000E+00  0.00000000000E+00 -0.82394972923E+03  0.82394972924E+03  0.50400001928E-02 0.  1.
    10030    2    1    2    0    0  0.00000000000E+00  0.00000000000E+00  0.15705490488E+04  0.32184485073E+04  0.28092323648E+04 0.  0.
        3    1    3    3  502    0  0.22782095533E+03 -0.94684749822E+03 -0.37435690632E+03  0.10433435082E+04  0.10100000352E+00 0.  1.
       -3    1    3    3    0  502 -0.22782095533E+03  0.94684749822E+03  0.19449059552E+04  0.21751049991E+04  0.10100000352E+00 0. -1.
</event>
<event>
 5   0  0.3226364E-06  0.2801527E+04  0.7818609E-02  0.8302795E-01
        2   -1    0    0  501    0  0.00000000000E+00  0.00000000000E+00  0.17418548651E+04  0.17418548651E+04  0.25500000920E-02 0.  1.
       -2   -1    0    0    0  501  0.00000000000E+00  0.00000000000E+00 -0.11264645476E+04  0.11264645476E+04  0.25500000920E-02 0. -1.
    10030    2    1    2    0    0  0.00000000000E+00  0.00000000000E+00  0.61539031749E+03  0.28683194127E+04  0.28015265500E+04 0.  0.
        5    1    3    3  502    0  0.31885946183E+03  0.26151760037E+03 -0.10628967903E+04  0.11401028412E+04  0.46999998093E+01 0. -1.
       -5    1    3    3    0  502 -0.31885946183E+03 -0.26151760037E+03  0.16782871078E+04  0.17282165715E+04  0.46999998093E+01 0.  1.
</event>
<event>
 5   0  0.1065675E-06  0.2786787E+04  0.7818609E-02  0.8307382E-01
       -4   -1    0    0    0  501  0.00000000000E+00  0.00000000000E+00  0.12357498860E+04  0.12357505386E+04  0.12699999809E+01 0.  1.
        4   -1    0    0  501    0  0.00000000000E+00  0.00000000000E+00 -0.15711461252E+04  0.15711466384E+04  0.12699999809E+01 0. -1.
    10030    2    1    2    0    0  0.00000000000E+00  0.00000000000E+00 -0.33539623918E+03  0.28068971770E+04  0.27867868819E+04 0.  0.
        2    1    3    3  502    0 -0.18063762021E+03  0.31714792505E+03 -0.15221447374E+04  0.15652914610E+04  0.25500000920E-02 0. -1.
       -2    1    3    3    0  502  0.18063762021E+03 -0.31714792505E+03  0.11867484982E+04  0.12416057161E+04  0.25500000920E-02 0.  1.
</event>
<event>
 5   0  0.3345919E-06  0.2800115E+04  0.7818609E-02  0.8303233E-01
        2   -1    0    0  501    0  0.00000000000E+00  0.00000000000E+00  0.21915729244E+04  0.21915729244E+04  0.25500000920E-02 0.  1.
       -2   -1    0    0    0  501  0.00000000000E+00  0.00000000000E+00 -0.89440833028E+03  0.89440833029E+03  0.25500000920E-02 0. -1.
    10030    2    1    2    0    0  0.00000000000E+00  0.00000000000E+00  0.12971645941E+04  0.30859812547E+04  0.28001150548E+04 0.  0.
        2    1    3    3  502    0 -0.14049624205E+03 -0.69318682605E+03  0.19802045080E+04  0.21027261028E+04  0.25500000920E-02 0.  1.
       -2    1    3    3    0  502  0.14049624205E+03  0.69318682605E+03 -0.68303991386E+03  0.98325515192E+03  0.25500000920E-02 0. -1.
</event>
<event>
 5   0  0.3212679E-06  0.2800155E+04  0.7818609E-02  0.8303220E-01
        2   -1    0    0  501    0  0.00000000000E+00  0.00000000000E+00  0.95176241405E+03  0.95176241406E+03  0.25500000920E-02 0.  1.
       -2   -1    0    0    0  501  0.00000000000E+00  0.00000000000E+00 -0.20595661884E+04  0.20595661884E+04  0.25500000920E-02 0. -1.
    10030    2    1    2    0    0  0.00000000000E+00  0.00000000000E+00 -0.11078037743E+04  0.30113286025E+04  0.28001554867E+04 0.  0.
        4    1    3    3  502    0  0.32590028827E+03 -0.73066838022E+03 -0.17895196808E+04  0.19602218192E+04  0.12699999809E+01 0. -1.
       -4    1    3    3    0  502 -0.32590028827E+03  0.73066838022E+03  0.68171590644E+03  0.10511067832E+04  0.12699999809E+01 0.  1.
</event>
<event>
 5   0  0.1235252E-06  0.2808267E+04  0.7818609E-02  0.8300706E-01
       -1   -1    0    0    0  501  0.00000000000E+00  0.00000000000E+00  0.11904377477E+04  0.11904377477E+04  0.50400001928E-02 0. -1.
        1   -1    0    0  501    0  0.00000000000E+00  0.00000000000E+00 -0.16561897168E+04  0.16561897168E+04  0.50400001928E-02 0.  1.
    10030    2    1    2    0    0  0.00000000000E+00  0.00000000000E+00 -0.46575196910E+03  0.28466274644E+04  0.28082669076E+04 0.  0.
        1    1    3    3  502    0  0.11607113341E+03 -0.36072256405E+03  0.11376272005E+04  0.11990783642E+04  0.50400001928E-02 0. -1.
       -1    1    3    3    0  502 -0.11607113341E+03  0.36072256405E+03 -0.16033791696E+04  0.16475491002E+04  0.50400001928E-02 0.  1.
</event>
<event>
 5   0  0.1235252E-06  0.2800930E+04  0.7818609E-02  0.8302980E-01
        1   -1    0    0  501    0  0.00000000000E+00  0.00000000000E+00  0.13230553188E+04  0.13230553188E+04  0.50400001928E-02 0. -1.
       -1   -1    0    0    0  501  0.00000000000E+00  0.00000000000E+00 -0.14824034849E+04  0.14824034849E+04  0.50400001928E-02 0.  1.
    10030    2    1    2    0    0  0.00000000000E+00  0.00000000000E+00 -0.15934816611E+03  0.28054588037E+04  0.28009297137E+04 0.  0.
        1    1    3    3  502    0  0.76641680226E+03 -0.85686379305E+03  0.72142639105E+03  0.13572274357E+04  0.50400001928E-02 0. -1.
       -1    1    3    3    0  502 -0.76641680226E+03  0.85686379305E+03 -0.88077455716E+03  0.14482313680E+04  0.50400001928E-02 0.  1.
</event>
<event>
 5   0  0.1243055E-06  0.2781520E+04  0.7818609E-02  0.8309029E-01
        1   -1    0    0  501    0  0.00000000000E+00  0.00000000000E+00  0.12874603320E+04  0.12874603320E+04  0.50400001928E-02 0. -1.
       -1   -1    0    0    0  501  0.00000000000E+00  0.00000000000E+00 -0.15023483193E+04  0.15023483193E+04  0.50400001928E-02 0.  1.
    10030    2    1    2    0    0  0.00000000000E+00  0.00000000000E+00 -0.21488798734E+03  0.27898086513E+04  0.27815203511E+04 0.  0.
        5    1    3    3  502    0  0.11266628453E+04 -0.53166791955E+03  0.51258235830E+03  0.13471461345E+04  0.46999998093E+01 0. -1.
       -5    1    3    3    0  502 -0.11266628453E+04  0.53166791955E+03 -0.72747034564E+03  0.14426625168E+04  0.46999998093E+01 0.  1.
</event>
<event>
 5   0  0.3162695E-06  0.2790874E+04  0.7818609E-02  0.8306107E-01
        2   -1    0    0  501    0  0.00000000000E+00  0.00000000000E+00  0.13051665875E+04  0.13051665875E+04  0.25500000920E-02 0.  1.
       -2   -1    0    0    0  501  0.00000000000E+00  0.00000000000E+00 -0.14919512472E+04  0.14919512472E+04  0.25500000920E-02 0. -1.
    10030    2    1    2    0    0  0.00000000000E+00  0.00000000000E+00 -0.18678465967E+03  0.27971178347E+04  0.27908743562E+04 0.  0.
        1    1    3    3  502    0  0.49500546788E+03  0.32902904789E+02 -0.14005846026E+04  0.14858500070E+04  0.50400001928E-02 0. -1.
       -1    1    3    3    0  502 -0.49500546788E+03 -0.32902904789E+02  0.12137999429E+04  0.13112678277E+04  0.50400001928E-02 0.  1.
</event>
<event>
 5   0  0.3212679E-06  0.2800319E+04  0.7818609E-02  0.8303169E-01
        2   -1    0    0  501    0  0.00000000000E+00  0.00000000000E+00  0.19350503290E+04  0.19350503290E+04  0.25500000920E-02 0.  1.
       -2   -1    0    0    0  501  0.00000000000E+00  0.00000000000E+00 -0.10131241107E+04  0.10131241107E+04  0.25500000920E-02 0. -1.
    10030    2    1    2    0    0  0.00000000000E+00  0.00000000000E+00  0.92192621827E+03  0.29481744397E+04  0.28003186560E+04 0.  0.
        4    1    3    3  502    0  0.12429879309E+04 -0.47394654418E+03  0.92083317856E+03  0.16178935931E+04  0.12699999809E+01 0.  1.
       -4    1    3    3    0  502 -0.12429879309E+04  0.47394654418E+03  0.10930397185E+01  0.13302808466E+04  0.12699999809E+01 0. -1.
</event>
<event>
 5   0  0.1220265E-06  0.2792046E+04  0.7818609E-02  0.8305742E-01
        1   -1    0    0  501    0  0.00000000000E+00  0.00000000000E+00  0.76354344843E+03  0.76354344845E+03  0.50400001928E-02 0.  1.
       -1   -1    0    0    0  501  0.00000000000E+00  0.00000000000E+00 -0.25524158190E+04  0.25524158190E+04  0.50400001928E-02 0. -1.
    10030    2    1    2    0    0  0.00000000000E+00  0.00000000000E+00 -0.17888723706E+04  0.33159592675E+04  0.27920461145E+04 0.  0.
        4    1    3    3  502    0  0.10396670181E+04  0.68545666662E+03 -0.16438019069E+04  0.20622426318E+04  0.12699999809E+01 0. -1.
       -4    1    3    3    0  502 -0.10396670181E+04 -0.68545666662E+03 -0.14507046370E+03  0.12537166357E+04  0.12699999809E+01 0.  1.
</event>
<event>
 5   0  0.1243055E-06  0.2815656E+04  0.7818609E-02  0.8298424E-01
        1   -1    0    0  501    0  0.00000000000E+00  0.00000000000E+00  0.94196155066E+03  0.94196155067E+03  0.50400001928E-02 0.  1.
       -1   -1    0    0    0  501  0.00000000000E+00  0.00000000000E+00 -0.21040980648E+04  0.21040980648E+04  0.50400001928E-02 0. -1.
    10030    2    1    2    0    0  0.00000000000E+00  0.00000000000E+00 -0.11621365142E+04  0.30460596155E+04  0.28156558567E+04 0.  0.
        5    1    3    3  502    0  0.44165976758E+03  0.12004061448E+04  0.55208578345E+02  0.12802766654E+04  0.46999998093E+01 0. -1.
       -5    1    3    3    0  502 -0.44165976758E+03 -0.12004061448E+04 -0.12173450925E+04  0.17657829501E+04  0.46999998093E+01 0.  1.
</event>
<event>
 5   0  0.3162695E-06  0.2805710E+04  0.7818609E-02  0.8301498E-01
        2   -1    0    0  501    0  0.00000000000E+00  0.00000000000E+00  0.19165793033E+04  0.19165793033E+04  0.25500000920E-02 0.  1.
       -2   -1    0    0    0  501  0.00000000000E+00  0.00000000000E+00 -0.10268306829E+04  0.10268306829E+04  0.25500000920E-02 0. -1.
    10030    2    1    2    0    0  0.00000000000E+00  0.00000000000E+00  0.88974862042E+03  0.29434099862E+04  0.28057102023E+04 0.  0.
        1    1    3    3  502    0 -0.26846084965E+02 -0.48730832162E+03 -0.93489804998E+03  0.10546205367E+04  0.50400001928E-02 0. -1.
       -1    1    3    3    0  502  0.26846084965E+02  0.48730832162E+03  0.18246466704E+04  0.18887894495E+04  0.50400001928E-02 0.  1.
</event>
<event>
 5   0  0.1263513E-06  0.2789148E+04  0.7818609E-02  0.8306645E-01
        1   -1    0    0  501    0  0.00000000000E+00  0.00000000000E+00  0.17164689847E+04  0.17164689847E+04  0.50400001928E-02 0. -1.
       -1   -1    0    0    0  501  0.00000000000E+00  0.00000000000E+00 -0.11330447628E+04  0.11330447628E+04  0.50400001928E-02 0.  1.
    10030    2    1    2    0    0  0.00000000000E+00  0.00000000000E+00  0.58342422189E+03  0.28495137476E+04  0.27891476789E+04 0.  0.
        3    1    3    3  502    0  0.61661830574E+03 -0.12497283186E+04  0.34574513906E+03  0.14358198762E+04  0.10100000352E+00 0. -1.
       -3    1    3    3    0  502 -0.61661830574E+03  0.12497283186E+04  0.23767908283E+03  0.14136938714E+04  0.10100000352E+00 0.  1.
</event>
<event>
 5   0  0.3345919E-06  0.2812288E+04  0.7818609E-02  0.8299464E-01
        2   -1    0    0  501    0  0.00000000000E+00  0.00000000000E+00  0.14984233957E+04  0.14984233957E+04  0.25500000920E-02 0. -1.
       -2   -1    0    0    0  501  0.00000000000E+00  0.00000000000E+00 -0.13195473681E+04  0.13195473681E+04  0.25500000920E-02 0.  1.
    10030    2    1    2    0    0  0.00000000000E+00  0.00000000000E+00  0.17887602761E+03  0.28179707638E+04  0.28122877862E+04 0.  0.
        2    1    3    3  502    0  0.11413907905E+04 -0.82121609763E+03  0.80945486181E+02  0.14084463026E+04  0.25500000920E-02 0.  1.
       -2    1    3    3    0  502 -0.11413907905E+04  0.82121609763E+03  0.97930541429E+02  0.14095244612E+04  0.25500000920E-02 0. -1.
</event>
<event>
 5   0  0.3345919E-06  0.2802064E+04  0.7818609E-02  0.8302628E-01
        2   -1    0    0  501    0  0.00000000000E+00  0.00000000000E+00  0.88825628771E+03  0.88825628771E+03  0.25500000920E-02 0. -1.
       -2   -1    0    0    0  501  0.00000000000E+00  0.00000000000E+00 -0.22098252409E+04  0.22098252409E+04  0.25500000920E-02 0.  1.
    10030    2    1    2    0    0  0.00000000000E+00  0.00000000000E+00 -0.13215689532E+04  0.30980815286E+04  0.28020643569E+04 0.  0.
        2    1    3    3  502    0  0.13942647989E+04  0.13455860625E+02 -0.50944557759E+03  0.14844831378E+04  0.25500000920E-02 0.  1.
       -2    1    3    3    0  502 -0.13942647989E+04 -0.13455860625E+02 -0.81212337563E+03  0.16135983909E+04  0.25500000920E-02 0. -1.
</event>
<event>
 5   0  0.3212679E-06  0.2800215E+04  0.7818609E-02  0.8303202E-01
        2   -1    0    0  501    0  0.00000000000E+00  0.00000000000E+00  0.12864030940E+04  0.12864030940E+04  0.25500000920E-02 0. -1.
       -2   -1    0    0    0  501  0.00000000000E+00  0.00000000000E+00 -0.15238618733E+04  0.15238618733E+04  0.25500000920E-02 0.  1.
    10030    2    1    2    0    0  0.00000000000E+00  0.00000000000E+00 -0.23745877928E+03  0.28102649673E+04  0.28002147265E+04 0.  0.
        4    1    3    3  502    0  0.40495132890E+03 -0.93372795533E+02  0.12230789747E+04  0.12917537881E+04  0.12699999809E+01 0. -1.
       -4    1    3    3    0  502 -0.40495132890E+03  0.93372795533E+02 -0.14605377540E+04  0.15185111792E+04  0.12699999809E+01 0.  1.
</event>
<event>
 5   0  0.3226364E-06  0.2797386E+04  0.7818609E-02  0.8304080E-01
       -2   -1    0    0    0  501  0.00000000000E+00  0.00000000000E+00  0.18418187967E+04  0.18418187967E+04  0.25500000920E-02 0.  1.
        2   -1    0    0  501    0  0.00000000000E+00  0.00000000000E+00 -0.10621792988E+04  0.10621792988E+04  0.25500000920E-02 0. -1.
    10030    2    1    2    0    0  0.00000000000E+00  0.00000000000E+00  0.77963949791E+03  0.29039980956E+04  0.27973857783E+04 0.  0.
        5    1    3    3  502    0  0.65411760292E+03 -0.88463193556E+02  0.16699521910E+04  0.17956775839E+04  0.46999998093E+01 0.  1.
       -5    1    3    3    0  502 -0.65411760292E+03  0.88463193556E+02 -0.89031269311E+03  0.11083205117E+04  0.46999998093E+01 0. -1.
</event>
<event>
 5   0  0.3162695E-06  0.2801376E+04  0.7818609E-02  0.8302841E-01
       -2   -1    0    0    0  501  0.00000000000E+00  0.00000000000E+00  0.97075520846E+03  0.97075520846E+03  0.25500000920E-02 0. -1.
        2   -1    0    0  501    0  0.00000000000E+00  0.00000000000E+00 -0.20210313323E+04  0.20210313323E+04  0.25500000920E-02 0.  1.
    10030    2    1    2    0    0  0.00000000000E+00  0.00000000000E+00 -0.10502761239E+04  0.29917865408E+04  0.28013758708E+04 0.  0.
        1    1    3    3  502    0 -0.10029945482E+04  0.77095658837E+03 -0.11673023450E+04  0.17213270722E+04  0.50400001928E-02 0.  1.
       -1    1    3    3    0  502  0.10029945482E+04 -0.77095658837E+03  0.11702622115E+03  0.12704594686E+04  0.50400001928E-02 0. -1.
</event>
<event>
 5   0  0.3226364E-06  0.2767539E+04  0.7818609E-02  0.8313418E-01
       -2   -1    0    0    0  501  0.00000000000E+00  0.00000000000E+00  0.12475952394E+04  0.12475952394E+04  0.25500000920E-02 0. -1.
        2   -1    0    0  501    0  0.00000000000E+00  0.00000000000E+00 -0.15348073735E+04  0.15348073735E+04  0.25500000920E-02 0.  1.
    10030    2    1    2    0    0  0.00000000000E+00  0.00000000000E+00 -0.28721213412E+03  0.27824026129E+04  0.27675392481E+04 0.  0.
        5    1    3    3  502    0  0.10069127042E+04 -0.69470475889E+03  0.50663511260E+03  0.13240804821E+04  0.46999998093E+01 0. -1.
       -5    1    3    3    0  502 -0.10069127042E+04  0.69470475889E+03 -0.79384724672E+03  0.14583221307E+04  0.46999998093E+01 0.  1.
</event>
<event>
 5   0  0.1220265E-06  0.2812273E+04  0.7818609E-02  0.8299468E-01
        1   -1    0    0  501    0  0.00000000000E+00  0.00000000000E+00  0.10498509451E+04  0.10498509451E+04  0.50400001928E-02 0.  1.
       -1   -1    0    0    0  501  0.00000000000E+00  0.00000000000E+00 -0.18833337563E+04  0.18833337563E+04  0.50400001928E-02 0. -1.
    10030    2    1    2    0    0  0.00000000000E+00  0.00000000000E+00 -0.83348281118E+03  0.29331847014E+04  0.28122729056E+04 0.  0.
        4    1    3    3  502    0  0.90932515635E+03  0.37811453920E+03 -0.14635748527E+04  0.17640566338E+04  0.12699999809E+01 0. -1.
       -4    1    3    3    0  502 -0.90932515635E+03 -0.37811453920E+03  0.63009204153E+03  0.11691280676E+04  0.12699999809E+01 0.  1.
</event>
<event>
 5   0  0.1243055E-06  0.2799420E+04  0.7818609E-02  0.8303448E-01
        1   -1    0    0  501    0  0.00000000000E+00  0.00000000000E+00  0.14615817751E+04  0.14615817751E+04  0.50400001928E-02 0. -1.
       -1   -1    0    0    0  501  0.00000000000E+00  0.00000000000E+00 -0.13404572360E+04  0.13404572360E+04  0.50400001928E-02 0.  1.
    10030    2    1    2    0    0  0.00000000000E+00  0.00000000000E+00  0.12112453904E+03  0.28020390111E+04  0.27994198445E+04 0.  0.
        5    1    3    3  502    0 -0.11030291201E+04 -0.49373013255E+03 -0.64630175603E+03  0.13704636928E+04  0.46999998093E+01 0.  1.
       -5    1    3    3    0  502  0.11030291201E+04  0.49373013255E+03  0.76742629507E+03  0.14315753183E+04  0.46999998093E+01 0. -1.
</event>
<event>
 5   0  0.3212679E-06  0.2802836E+04  0.7818609E-02  0.8302389E-01
        2   -1    0    0  501    0  0.00000000000E+00  0.00000000000E+00  0.20878598151E+04  0.20878598151E+04  0.25500000920E-02 0. -1.
       -2   -1    0    0    0  501  0.00000000000E+00  0.00000000000E+00 -0.94066265369E+03  0.94066265369E+03  0.25500000920E-02 0.  1.
    10030    2    1    2    0    0  0.00000000000E+00  0.00000000000E+00  0.11471971614E+04  0.30285224688E+04  0.28028355316E+04 0.  0.
        4    1    3    3  502    0  0.10162479046E+04  0.96210239598E+03  0.49296161713E+03  0.14837161430E+04  0.12699999809E+01 0.  1.
       -4    1    3    3    0  502 -0.10162479046E+04 -0.96210239598E+03  0.65423554431E+03  0.15448063259E+04  0.12699999809E+01 0. -1.
</event>
<event>
 5   0  0.3345919E-06  0.2788495E+04  0.7818609E-02  0.8306849E-01
       -2   -1    0    0    0  501  0.00000000000E+00  0.00000000000E+00  0.12765679735E+04  0.12765679735E+04  0.25500000920E-02 0.  1.
        2   -1    0    0  501    0  0.00000000000E+00  0.00000000000E+00 -0.15227749223E+04  0.15227749223E+04  0.25500000920E-02 0. -1.
    10030    2    1    2    0    0  0.00000000000E+00  0.00000000000E+00 -0.24620694881E+03  0.27993428959E+04  0.27884947171E+04 0.  0.
        2    1    3    3  502    0 -0.70272841300E+03 -0.33597693031E+03 -0.12839836004E+04  0.15017728212E+04  0.25500000920E-02 0. -1.
       -2    1    3    3    0  502  0.70272841300E+03  0.33597693031E+03  0.10377766516E+04  0.12975700747E+04  0.25500000920E-02 0.  1.
</event>
<event>
 5   0  0.1243055E-06  0.2806172E+04  0.7818609E-02  0.8301355E-01
        1   -1    0    0  501    0  0.00000000000E+00  0.00000000000E+00  0.56604744374E+03  0.56604744377E+03  0.50400001928E-02 0.  1.
       -1   -1    0    0    0  501  0.00000000000E+00  0.00000000000E+00 -0.34778899036E+04  0.34778899037E+04  0.50400001928E-02 0. -1.
    10030    2    1    2    0    0  0.00000000000E+00  0.00000000000E+00 -0.29118424599E+04  0.40439373474E+04  0.28061722610E+04 0.  0.
        5    1    3    3  502    0 -0.27948483936E+03  0.27968184540E+03 -0.33959337113E+04  0.34188772385E+04  0.46999998093E+01 0. -1.
       -5    1    3    3    0  502  0.27948483936E+03 -0.27968184540E+03  0.48409125142E+03  0.62506010893E+03  0.46999998093E+01 0.  1.
</event>
<event>
 5   0  0.1220265E-06  0.2772014E+04  0.7818609E-02  0.8312010E-01
       -1   -1    0    0    0  501  0.00000000000E+00  0.00000000000E+00  0.13654953425E+04  0.13654953425E+04  0.50400001928E-02 0. -1.
        1   -1    0    0  501    0  0.00000000000E+00  0.00000000000E+00 -0.14068269504E+04  0.14068269504E+04  0.50400001928E-02 0.  1.
    10030    2    1    2    0    0  0.00000000000E+00  0.00000000000E+00 -0.41331607908E+02  0.27723222929E+04  0.27720141763E+04 0.  0.
        4    1    3    3  502    0 -0.10676558565E+04  0.67391252616E+03  0.55120796292E+03  0.13776352754E+04  0.12699999809E+01 0. -1.
       -4    1    3    3    0  502  0.10676558565E+04 -0.67391252616E+03 -0.59253957083E+03  0.13946870175E+04  0.12699999809E+01 0.  1.
</event>
<event>
 5   0  0.3226364E-06  0.2803746E+04  0.7818609E-02  0.8302106E-01
        2   -1    0    0  501    0  0.00000000000E+00  0.00000000000E+00  0.17916383869E+04  0.17916383869E+04  0.25500000920E-02 0. -1.
       -2   -1    0    0    0  501  0.00000000000E+00  0.00000000000E+00 -0.10968999668E+04  0.10968999668E+04  0.25500000920E-02 0.  1.
    10030    2    1    2    0    0  0.00000000000E+00  0.00000000000E+00  0.69473842006E+03  0.28885383537E+04  0.28037461277E+04 0.  0.
        5    1    3    3  502    0  0.21640119784E+03 -0.10456139441E+04 -0.58844489472E+03  0.12191913233E+04  0.46999998093E+01 0.  1.
       -5    1    3    3    0  502 -0.21640119784E+03  0.10456139441E+04  0.12831833148E+04  0.16693470304E+04  0.46999998093E+01 0. -1.
</event>
<event>
 5   0  0.1246044E-06  0.2806754E+04  0.7818609E-02  0.8301175E-01
       -1   -1    0    0    0  501  0.00000000000E+00  0.00000000000E+00  0.17563474312E+04  0.17563474312E+04  0.50400001928E-02 0.  1.
        1   -1    0    0  501    0  0.00000000000E+00  0.00000000000E+00 -0.11213425090E+04  0.11213425090E+04  0.50400001928E-02 0. -1.
    10030    2    1    2    0    0  0.00000000000E+00  0.00000000000E+00  0.63500492225E+03  0.28776899402E+04  0.28067540222E+04 0.  0.
        2    1    3    3  502    0 -0.13821556190E+04  0.25114037199E+02  0.56544518415E+03  0.14935572056E+04  0.25500000920E-02 0.  1.
       -2    1    3    3    0  502  0.13821556190E+04 -0.25114037199E+02  0.69559738100E+02  0.13841327347E+04  0.25500000920E-02 0. -1.
</event>
<event>
 5   0  0.1263513E-06  0.2788446E+04  0.7818609E-02  0.8306864E-01
       -1   -1    0    0    0  501  0.00000000000E+00  0.00000000000E+00  0.77656150843E+03  0.77656150845E+03  0.50400001928E-02 0. -1.
        1   -1    0    0  501    0  0.00000000000E+00  0.00000000000E+00 -0.25031601782E+04  0.25031601782E+04  0.50400001928E-02 0.  1.
    10030    2    1    2    0    0  0.00000000000E+00  0.00000000000E+00 -0.17265986698E+04  0.32797216867E+04  0.27884460503E+04 0.  0.
        3    1    3    3  502    0 -0.45309729286E+03  0.55770298418E+03 -0.22685929458E+04  0.23796730320E+04  0.10100000352E+00 0.  1.
       -3    1    3    3    0  502  0.45309729286E+03 -0.55770298418E+03  0.54199427600E+03  0.90004865467E+03  0.10100000352E+00 0. -1.
</event>
<event>
 5   0  0.1235252E-06  0.2794766E+04  0.7818609E-02  0.8304895E-01
        1   -1    0    0  501    0  0.00000000000E+00  0.00000000000E+00  0.11798177171E+04  0.11798177171E+04  0.50400001928E-02 0.  1.
       -1   -1    0    0    0  501  0.00000000000E+00  0.00000000000E+00 -0.16550680616E+04  0.16550680616E+04  0.50400001928E-02 0. -1.
    10030    2    1    2    0    0  0.00000000000E+00  0.00000000000E+00 -0.47525034444E+03  0.28348857787E+04  0.27947655516E+04 0.  0.
        1    1    3    3  502    0 -0.75235535217E+03 -0.67205242483E+03  0.74320234448E+03  0.12530134726E+04  0.50400001928E-02 0.  1.
       -1    1    3    3    0  502  0.75235535217E+03  0.67205242483E+03 -0.12184526889E+04  0.15818723061E+04  0.50400001928E-02 0. -1.
</event>
<event>
 5   0  0.3162695E-06  0.2807889E+04  0.7818609E-02  0.8300823E-01
        2   -1    0    0  501    0  0.00000000000E+00  0.00000000000E+00  0.10988123714E+04  0.10988123714E+04  0.25500000920E-02 0.  1.
       -2   -1    0    0    0  501  0.00000000000E+00  0.00000000000E+00 -0.17938101900E+04  0.17938101900E+04  0.25500000920E-02 0. -1.
    10030    2    1    2    0    0  0.00000000000E+00  0.00000000000E+00 -0.69499781856E+03  0.28926225614E+04  0.28078894769E+04 0.  0.
        1    1    3    3  502    0  0.28310178819E+03  0.80250423538E+03 -0.14978430219E+04  0.17226994481E+04  0.50400001928E-02 0. -1.
       -1    1    3    3    0  502 -0.28310178819E+03 -0.80250423538E+03  0.80284520336E+03  0.11699231132E+04  0.50400001928E-02 0.  1.
</event>
<event>
 5   0  0.3167616E-06  0.2799684E+04  0.7818609E-02  0.8303366E-01
       -2   -1    0    0    0  501  0.00000000000E+00  0.00000000000E+00  0.15674615130E+04  0.15674615130E+04  0.25500000920E-02 0. -1.
        2   -1    0    0  501    0  0.00000000000E+00  0.00000000000E+00 -0.12501471474E+04  0.12501471474E+04  0.25500000920E-02 0.  1.
    10030    2    1    2    0    0  0.00000000000E+00  0.00000000000E+00  0.31731436557E+03  0.28176086604E+04  0.27996839387E+04 0.  0.
        3    1    3    3  502    0 -0.12419900832E+04 -0.15860246568E+03  0.78865497858E+03  0.14797536262E+04  0.10100000352E+00 0. -1.
       -3    1    3    3    0  502  0.12419900832E+04  0.15860246568E+03 -0.47134061301E+03  0.13378550342E+04  0.10100000352E+00 0.  1.
</event>
<event>
 5   0  0.3226364E-06  0.2941428E+04  0.7818609E-02  0.8260657E-01
       -2   -1    0    0    0  501  0.00000000000E+00  0.00000000000E+00  0.16836837450E+04  0.16836837450E+04  0.25500000920E-02 0.  1.
        2   -1    0    0  501    0  0.00000000000E+00  0.00000000000E+00 -0.12846825634E+04  0.12846825634E+04  0.25500000920E-02 0. -1.
    10030    2    1    2    0    0  0.00000000000E+00  0.00000000000E+00  0.39900118160E+03  0.29683663083E+04  0.29414276462E+04 0.  0.
        5    1    3    3  502    0  0.22232959144E+03 -0.46985045584E+03 -0.11888853728E+04  0.12975594082E+04  0.46999998093E+01 0. -1.
       -5    1    3    3    0  502 -0.22232959144E+03  0.46985045584E+03  0.15878865544E+04  0.16708069002E+04  0.46999998093E+01 0.  1.
</event>
<event>
 5   0  0.3212679E-06  0.2798096E+04  0.7818609E-02  0.8303860E-01
        2   -1    0    0  501    0  0.00000000000E+00  0.00000000000E+00  0.18941712909E+04  0.18941712909E+04  0.25500000920E-02 0.  1.
       -2   -1    0    0    0  501  0.00000000000E+00  0.00000000000E+00 -0.10333462583E+04  0.10333462583E+04  0.25500000920E-02 0. -1.
    10030    2    1    2    0    0  0.00000000000E+00  0.00000000000E+00  0.86082503258E+03  0.29275175491E+04  0.27980956495E+04 0.  0.
        4    1    3    3  502    0 -0.90702235054E+02  0.11060673112E+04  0.13217084372E+04  0.17258408381E+04  0.12699999809E+01 0.  1.
       -4    1    3    3    0  502  0.90702235054E+02 -0.11060673112E+04 -0.46088340466E+03  0.12016767111E+04  0.12699999809E+01 0. -1.
</event>
<event>
 5   0  0.3162695E-06  0.2786436E+04  0.7818609E-02  0.8307492E-01
       -2   -1    0    0    0  501  0.00000000000E+00  0.00000000000E+00  0.11524970766E+04  0.11524970766E+04  0.25500000920E-02 0.  1.
        2   -1    0    0  501    0  0.00000000000E+00  0.00000000000E+00 -0.16842185868E+04  0.16842185868E+04  0.25500000920E-02 0. -1.
    10030    2    1    2    0    0  0.00000000000E+00  0.00000000000E+00 -0.53172151024E+03  0.28367156634E+04  0.27864364322E+04 0.  0.
        1    1    3    3  502    0 -0.52355403656E+03  0.12401208117E+04  0.99854617304E+02  0.13498071720E+04  0.50400001928E-02 0.  1.
       -1    1    3    3    0  502  0.52355403656E+03 -0.12401208117E+04 -0.63157612754E+03  0.14869084914E+04  0.50400001928E-02 0. -1.
</event>
<event>
 5   0  0.1246044E-06  0.2720281E+04  0.7818609E-02  0.8328454E-01
        1   -1    0    0  501    0  0.00000000000E+00  0.00000000000E+00  0.12315957222E+04  0.12315957223E+04  0.50400001928E-02 0.  1.
       -1   -1    0    0    0  501  0.00000000000E+00  0.00000000000E+00 -0.15021022435E+04  0.15021022435E+04  0.50400001928E-02 0. -1.
    10030    2    1    2    0    0  0.00000000000E+00  0.00000000000E+00 -0.27050652121E+03  0.27336979657E+04  0.27202813806E+04 0.  0.
        2    1    3    3  502    0  0.87490078279E+01  0.86412598316E+03 -0.11907632277E+04  0.14712944384E+04  0.25500000920E-02 0. -1.
       -2    1    3    3    0  502 -0.87490078279E+01 -0.86412598316E+03  0.92025670652E+03  0.12624035273E+04  0.25500000920E-02 0.  1.
</event>
<event>
 5   0  0.1263513E-06  0.2796794E+04  0.7818609E-02  0.8304264E-01
       -1   -1    0    0    0  501  0.00000000000E+00  0.00000000000E+00  0.10972043464E+04  0.10972043464E+04  0.50400001928E-02 0. -1.
        1   -1    0    0  501    0  0.00000000000E+00  0.00000000000E+00 -0.17822696230E+04  0.17822696230E+04  0.50400001928E-02 0.  1.
    10030    2    1    2    0    0  0.00000000000E+00  0.00000000000E+00 -0.68506527658E+03  0.28794739694E+04  0.27967938621E+04 0.  0.
        3    1    3    3  502    0  0.17222084692E+03  0.27950901722E+03  0.10569637953E+04  0.11067781104E+04  0.10100000352E+00 0. -1.
       -3    1    3    3    0  502 -0.17222084692E+03 -0.27950901722E+03 -0.17420290719E+04  0.17726958590E+04  0.10100000352E+00 0.  1.
</event>
<event>
 5   0  0.3167616E-06  0.2796946E+04  0.7818609E-02  0.8304217E-01
        2   -1    0    0  501    0  0.00000000000E+00  0.00000000000E+00  0.16470289188E+04  0.16470289188E+04  0.25500000920E-02 0.  1.
       -2   -1    0    0    0  501  0.00000000000E+00  0.00000000000E+00 -0.11874269759E+04  0.11874269759E+04  0.25500000920E-02 0. -1.
    10030    2    1    2    0    0  0.00000000000E+00  0.00000000000E+00  0.45960194292E+03  0.28344558948E+04  0.27969458832E+04 0.  0.
        3    1    3    3  502    0  0.10775462119E+04  0.27295349557E+03  0.10897787009E+04  0.15566717948E+04  0.10100000352E+00 0.  1.
       -3    1    3    3    0  502 -0.10775462119E+04 -0.27295349557E+03 -0.63017675799E+03  0.12777841000E+04  0.10100000352E+00 0. -1.
</event>
<event>
 5   0  0.3167616E-06  0.2779990E+04  0.7818609E-02  0.8309508E-01
        2   -1    0    0  501    0  0.00000000000E+00  0.00000000000E+00  0.16960111622E+04  0.16960111622E+04  0.25500000920E-02 0. -1.
       -2   -1    0    0    0  501  0.00000000000E+00  0.00000000000E+00 -0.11391938801E+04  0.11391938801E+04  0.25500000920E-02 0.  1.
    10030    2    1    2    0    0  0.00000000000E+00  0.00000000000E+00  0.55681728205E+03  0.28352050423E+04  0.27799895946E+04 0.  0.
        3    1    3    3  502    0 -0.66610056452E+03  0.10807284101E+04 -0.29889226689E+03  0.13042240820E+04  0.10100000352E+00 0.  1.
       -3    1    3    3    0  502  0.66610056452E+03 -0.10807284101E+04  0.85570954895E+03  0.15309809603E+04  0.10100000352E+00 0. -1.
</event>
<event>
 5   0  0.1220265E-06  0.2819109E+04  0.7818609E-02  0.8297360E-01
       -1   -1    0    0    0  501  0.00000000000E+00  0.00000000000E+00  0.83658541191E+03  0.83658541192E+03  0.50400001928E-02 0.  1.
        1   -1    0    0  501    0  0.00000000000E+00  0.00000000000E+00 -0.23749450769E+04  0.23749450769E+04  0.50400001928E-02 0. -1.
    10030    2    1    2    0    0  0.00000000000E+00  0.00000000000E+00 -0.15383596650E+04  0.32115304888E+04  0.28191093668E+04 0.  0.
        4    1    3    3  502    0 -0.35931804521E+02 -0.76817488173E+02 -0.23720354977E+04  0.23735513554E+04  0.12699999809E+01 0. -1.
       -4    1    3    3    0  502  0.35931804521E+02  0.76817488173E+02  0.83367583277E+03  0.83797913346E+03  0.12699999809E+01 0.  1.
</event>
<event>
 5   0  0.1235252E-06  0.2801019E+04  0.7818609E-02  0.8302952E-01
       -1   -1    0    0    0  501  0.00000000000E+00  0.00000000000E+00  0.12492437677E+04  0.12492437678E+04  0.50400001928E-02 0.  1.
        1   -1    0    0  501    0  0.00000000000E+00  0.00000000000E+00 -0.15700908227E+04  0.15700908227E+04  0.50400001928E-02 0. -1.
    10030    2    1    2    0    0  0.00000000000E+00  0.00000000000E+00 -0.32084705496E+03  0.28193345905E+04  0.28010185113E+04 0.  0.
        1    1    3    3  502    0 -0.56973088154E+03 -0.78089272569E+03  0.85963291559E+03  0.12935824195E+04  0.50400001928E-02 0.  1.
       -1    1    3    3    0  502  0.56973088154E+03  0.78089272569E+03 -0.11804799705E+04  0.15257521710E+04  0.50400001928E-02 0. -1.
</event>
<event>
 5   0  0.3226364E-06  0.2809568E+04  0.7818609E-02  0.8300304E-01
        2   -1    0    0  501    0  0.00000000000E+00  0.00000000000E+00  0.14538103027E+04  0.14538103027E+04  0.25500000920E-02 0. -1.
       -2   -1    0    0    0  501  0.00000000000E+00  0.00000000000E+00 -0.13574108927E+04  0.13574108927E+04  0.25500000920E-02 0.  1.
    10030    2    1    2    0    0  0.00000000000E+00  0.00000000000E+00  0.96399409974E+02  0.28112211954E+04  0.28095678962E+04 0.  0.
        5    1    3    3  502    0  0.53886972697E+03  0.11445936685E+04 -0.56283190136E+03  0.13846577512E+04  0.46999998093E+01 0.  1.
       -5    1    3    3    0  502 -0.53886972697E+03 -0.11445936685E+04  0.65923131133E+03  0.14265634443E+04  0.46999998093E+01 0. -1.
</event>
<event>
 5   0  0.1220265E-06  0.2798801E+04  0.7818609E-02  0.8303641E-01
        1   -1    0    0  501    0  0.00000000000E+00  0.00000000000E+00  0.19901741999E+04  0.19901741999E+04  0.50400001928E-02 0. -1.
       -1   -1    0    0    0  501  0.00000000000E+00  0.00000000000E+00 -0.98399518947E+03  0.98399518949E+03  0.50400001928E-02 0.  1.
    10030    2    1    2    0    0  0.00000000000E+00  0.00000000000E+00  0.10061790104E+04  0.29741693893E+04  0.27988010568E+04 0.  0.
        4    1    3    3  502    0 -0.14328972051E+03 -0.90199349877E+03  0.16298060979E+04  0.18682595499E+04  0.12699999809E+01 0. -1.
       -4    1    3    3    0  502  0.14328972051E+03  0.90199349877E+03 -0.62362708757E+03  0.11059098395E+04  0.12699999809E+01 0.  1.
</event>
<event>
 5   0  0.1235252E-06  0.2804413E+04  0.7818609E-02  0.8301900E-01
        1   -1    0    0  501    0  0.00000000000E+00  0.00000000000E+00  0.13436504341E+04  0.13436504341E+04  0.50400001928E-02 0. -1.
       -1   -1    0    0    0  501  0.00000000000E+00  0.00000000000E+00 -0.14633141958E+04  0.14633141958E+04  0.50400001928E-02 0.  1.
    10030    2    1    2    0    0  0.00000000000E+00  0.00000000000E+00 -0.11966376164E+03  0.28069646299E+04  0.28044127759E+04 0.  0.
        1    1    3    3  502    0 -0.49673984138E+03  0.68347506776E+02  0.12508484729E+04  0.13476066763E+04  0.50400001928E-02 0. -1.
       -1    1    3    3    0  502  0.49673984138E+03 -0.68347506776E+02 -0.13705122346E+04  0.14593579536E+04  0.50400001928E-02 0.  1.
</event>
<event>
 5   0  0.3212679E-06  0.2787292E+04  0.7818609E-02  0.8307225E-01
       -2   -1    0    0    0  501  0.00000000000E+00  0.00000000000E+00  0.10909280143E+04  0.10909280143E+04  0.25500000920E-02 0. -1.
        2   -1    0    0  501    0  0.00000000000E+00  0.00000000000E+00 -0.17803643756E+04  0.17803643756E+04  0.25500000920E-02 0.  1.
    10030    2    1    2    0    0  0.00000000000E+00  0.00000000000E+00 -0.68943636126E+03  0.28712923899E+04  0.27872921433E+04 0.  0.
        4    1    3    3  502    0  0.33235678247E+03  0.77956922924E+03 -0.14844325517E+04  0.17093071191E+04  0.12699999809E+01 0.  1.
       -4    1    3    3    0  502 -0.33235678247E+03 -0.77956922924E+03  0.79499619039E+03  0.11619852708E+04  0.12699999809E+01 0. -1.
</event>
<event>
 5   0  0.1263513E-06  0.2802094E+04  0.7818609E-02  0.8302619E-01
       -1   -1    0    0    0  501  0.00000000000E+00  0.00000000000E+00  0.13008484113E+04  0.13008484113E+04  0.50400001928E-02 0. -1.
        1   -1    0    0  501    0  0.00000000000E+00  0.00000000000E+00 -0.15089634304E+04  0.15089634304E+04  0.50400001928E-02 0.  1.
    10030    2    1    2    0    0  0.00000000000E+00  0.00000000000E+00 -0.20811501908E+03  0.28098118417E+04  0.28020939893E+04 0.  0.
        3    1    3    3  502    0  0.92795421215E+03  0.31148620470E+03 -0.11092205544E+04  0.14793555773E+04  0.10100000352E+00 0.  1.
       -3    1    3    3    0  502 -0.92795421215E+03 -0.31148620470E+03  0.90110553534E+03  0.13304562644E+04  0.10100000352E+00 0. -1.
</event>
<event>
 5   0  0.1263513E-06  0.2807015E+04  0.7818609E-02  0.8301094E-01
        1   -1    0    0  501    0  0.00000000000E+00  0.00000000000E+00  0.24654296680E+04  0.24654296680E+04  0.50400001928E-02 0.  1.
       -1   -1    0    0    0  501  0.00000000000E+00  0.00000000000E+00 -0.79898153669E+03  0.79898153670E+03  0.50400001928E-02 0. -1.
    10030    2    1    2    0    0  0.00000000000E+00  0.00000000000E+00  0.16664481313E+04  0.32644112047E+04  0.28070146311E+04 0.  0.
        3    1    3    3  502    0 -0.13082164087E+04  0.46974280654E+03  0.60728784407E+03  0.15168674998E+04  0.10100000352E+00 0.  1.
       -3    1    3    3    0  502  0.13082164087E+04 -0.46974280654E+03  0.10591602872E+04  0.17475437049E+04  0.10100000352E+00 0. -1.
</event>
<event>
 5   0  0.1235252E-06  0.2784976E+04  0.7818609E-02  0.8307948E-01
       -1   -1    0    0    0  501  0.00000000000E+00  0.00000000000E+00  0.12743649246E+04  0.12743649246E+04  0.50400001928E-02 0.  1.
        1   -1    0    0  501    0  0.00000000000E+00  0.00000000000E+00 -0.15215603799E+04  0.15215603799E+04  0.50400001928E-02 0. -1.
    10030    2    1    2    0    0  0.00000000000E+00  0.00000000000E+00 -0.24719545529E+03  0.27959253045E+04  0.27849762504E+04 0.  0.
        1    1    3    3  502    0 -0.13544619634E+04 -0.72158135775E+02 -0.43987465762E+03  0.14259255666E+04  0.50400001928E-02 0. -1.
       -1    1    3    3    0  502  0.13544619634E+04  0.72158135775E+02  0.19267920233E+03  0.13699997380E+04  0.50400001928E-02 0.  1.
</event>
<event>
 5   0  0.1243055E-06  0.2792661E+04  0.7818609E-02  0.8305550E-01
       -1   -1    0    0    0  501  0.00000000000E+00  0.00000000000E+00  0.11652512685E+04  0.11652512685E+04  0.50400001928E-02 0. -1.
        1   -1    0    0  501    0  0.00000000000E+00  0.00000000000E+00 -0.16732348770E+04  0.16732348770E+04  0.50400001928E-02 0.  1.
    10030    2    1    2    0    0  0.00000000000E+00  0.00000000000E+00 -0.50798360852E+03  0.28384861456E+04  0.27926611416E+04 0.  0.
        5    1    3    3  502    0  0.37622854509E+03  0.13437978584E+04 -0.20444386072E+03  0.14103758309E+04  0.46999998093E+01 0. -1.
       -5    1    3    3    0  502 -0.37622854509E+03 -0.13437978584E+04 -0.30353974780E+03  0.14281103146E+04  0.46999998093E+01 0.  1.
</event>
<event>
 5   0  0.1243055E-06  0.2790872E+04  0.7818609E-02  0.8306108E-01
        1   -1    0    0  501    0  0.00000000000E+00  0.00000000000E+00  0.13854020264E+04  0.13854020264E+04  0.50400001928E-02 0. -1.
       -1   -1    0    0    0  501  0.00000000000E+00  0.00000000000E+00 -0.14055428715E+04  0.14055428715E+04  0.50400001928E-02 0.  1.
    10030    2    1    2    0    0  0.00000000000E+00  0.00000000000E+00 -0.20140845105E+02  0.27909448979E+04  0.27908722238E+04 0.  0.
        5    1    3    3  502    0 -0.61845440245E+03 -0.84964429102E+03 -0.92815673586E+03  0.14020978160E+04  0.46999998093E+01 0.  1.
       -5    1    3    3    0  502  0.61845440245E+03  0.84964429102E+03  0.90801589076E+03  0.13888470819E+04  0.46999998093E+01 0. -1.
</event>
<event>
 5   0  0.1246044E-06  0.2807886E+04  0.7818609E-02  0.8300824E-01
        1   -1    0    0  501    0  0.00000000000E+00  0.00000000000E+00  0.13657059615E+04  0.13657059615E+04  0.50400001928E-02 0.  1.
       -1   -1    0    0    0  501  0.00000000000E+00  0.00000000000E+00 -0.14432505088E+04  0.14432505088E+04  0.50400001928E-02 0. -1.
    10030    2    1    2    0    0  0.00000000000E+00  0.00000000000E+00 -0.77544547331E+02  0.28089564703E+04  0.28078859121E+04 0.  0.
        2    1    3    3  502    0 -0.10485213858E+04  0.46423399085E+03  0.77156466838E+03  0.13821079307E+04  0.25500000920E-02 0.  1.
       -2    1    3    3    0  502  0.10485213858E+04 -0.46423399085E+03 -0.84910921571E+03  0.14268485396E+04  0.25500000920E-02 0. -1.
</event>
<event>
 5   0  0.1246044E-06  0.2778500E+04  0.7818609E-02  0.8309974E-01
       -1   -1    0    0    0  501  0.00000000000E+00  0.00000000000E+00  0.10877356064E+04  0.10877356064E+04  0.50400001928E-02 0. -1.
        1   -1    0    0  501    0  0.00000000000E+00  0.00000000000E+00 -0.17743427792E+04  0.17743427792E+04  0.50400001928E-02 0.  1.
    10030    2    1    2    0    0  0.00000000000E+00  0.00000000000E+00 -0.68660717279E+03  0.28620783857E+04  0.27785001846E+04 0.  0.
        2    1    3    3  502    0 -0.32513083396E+03 -0.47472317082E+03  0.95922623743E+03  0.11185647602E+04  0.25500000920E-02 0. -1.
       -2    1    3    3    0  502  0.32513083396E+03  0.47472317082E+03 -0.16458334102E+04  0.17435136255E+04  0.25500000920E-02 0.  1.
</event>
<event>
 5   0  0.1246044E-06  0.2745702E+04  0.7818609E-02  0.8320327E-01
       -1   -1    0    0    0  501  0.00000000000E+00  0.00000000000E+00  0.16538131899E+04  0.16538131899E+04  0.50400001928E-02 0.  1.
        1   -1    0    0  501    0  0.00000000000E+00  0.00000000000E+00 -0.11396210584E+04  0.11396210584E+04  0.50400001928E-02 0. -1.
    10030    2    1    2    0    0  0.00000000000E+00  0.00000000000E+00  0.51419213143E+03  0.27934342483E+04  0.27457023421E+04 0.  0.
        2    1    3    3  502    0 -0.15729773607E+03 -0.11168080883E+04  0.10534664944E+04  0.15433063658E+04  0.25500000920E-02 0.  1.
       -2    1    3    3    0  502  0.15729773607E+03  0.11168080883E+04 -0.53927436301E+03  0.12501278825E+04  0.25500000920E-02 0. -1.
</event>
<event>
 5   0  0.3226364E-06  0.2798712E+04  0.7818609E-02  0.8303668E-01
       -2   -1    0    0    0  501  0.00000000000E+00  0.00000000000E+00  0.10270011970E+04  0.10270011970E+04  0.25500000920E-02 0. -1.
        2   -1    0    0  501    0  0.00000000000E+00  0.00000000000E+00 -0.19067133793E+04  0.19067133793E+04  0.25500000920E-02 0.  1.
    10030    2    1    2    0    0  0.00000000000E+00  0.00000000000E+00 -0.87971218225E+03  0.29337145763E+04  0.27987117914E+04 0.  0.
        5    1    3    3  502    0  0.10700646715E+04 -0.31821891017E+03  0.44456886682E+03  0.12016510489E+04  0.46999998093E+01 0. -1.
       -5    1    3    3    0  502 -0.10700646715E+04  0.31821891017E+03 -0.13242810491E+04  0.17320635274E+04  0.46999998093E+01 0.  1.
</event>
<event>
 5   0  0.1235252E-06  0.2806724E+04  0.7818609E-02  0.8301184E-01
        1   -1    0    0  501    0  0.00000000000E+00  0.00000000000E+00  0.17522703132E+04  0.17522703132E+04  0.50400001928E-02 0. -1.
       -1   -1    0    0    0  501  0.00000000000E+00  0.00000000000E+00 -0.11239272970E+04  0.11239272970E+04  0.50400001928E-02 0.  1.
    10030    2    1    2    0    0  0.00000000000E+00  0.00000000000E+00  0.62834301617E+03  0.28761976103E+04  0.28067236678E+04 0.  0.
        1    1    3    3  502    0  0.79010395721E+03  0.77889752119E+03 -0.56644756552E+03  0.12457160416E+04  0.50400001928E-02 0. -1.
       -1    1    3    3    0  502 -0.79010395721E+03 -0.77889752119E+03  0.11947905817E+04  0.16304815687E+04  0.50400001928E-02 0.  1.
</event>
<event>
 5   0  0.3226364E-06  0.2787508E+04  0.7818609E-02  0.8307157E-01
       -2   -1    0    0    0  501  0.00000000000E+00  0.00000000000E+00  0.73784242974E+03  0.73784242974E+03  0.25500000920E-02 0.  1.
        2   -1    0    0  501    0  0.00000000000E+00  0.00000000000E+00 -0.26327433970E+04  0.26327433970E+04  0.25500000920E-02 0. -1.
    10030    2    1    2    0    0  0.00000000000E+00  0.00000000000E+00 -0.18949009673E+04  0.33705858268E+04  0.27875076932E+04 0.  0.
        5    1    3    3  502    0 -0.59805305157E+03  0.98105942837E+02  0.57016607433E+03  0.83210796825E+03  0.46999998093E+01 0.  1.
       -5    1    3    3    0  502  0.59805305157E+03 -0.98105942837E+02 -0.24650670416E+04  0.25384778585E+04  0.46999998093E+01 0. -1.
</event>
<event>
 5   0  0.1220265E-06  0.2794127E+04  0.7818609E-02  0.8305094E-01
       -1   -1    0    0    0  501  0.00000000000E+00  0.00000000000E+00  0.79147379076E+03  0.79147379077E+03  0.50400001928E-02 0. -1.
        1   -1    0    0  501    0  0.00000000000E+00  0.00000000000E+00 -0.24660155817E+04  0.24660155817E+04  0.50400001928E-02 0.  1.
    10030    2    1    2    0    0  0.00000000000E+00  0.00000000000E+00 -0.16745417909E+04  0.32574893725E+04  0.27941271986E+04 0.  0.
        4    1    3    3  502    0 -0.11796811435E+04  0.52025872540E+03 -0.14645161358E+04  0.19511857591E+04  0.12699999809E+01 0.  1.
       -4    1    3    3    0  502  0.11796811435E+04 -0.52025872540E+03 -0.21002565516E+03  0.13063036134E+04  0.12699999809E+01 0. -1.
</event>
<event>
 5   0  0.3212679E-06  0.2804866E+04  0.7818609E-02  0.8301759E-01
        2   -1    0    0  501    0  0.00000000000E+00  0.00000000000E+00  0.18333256347E+04  0.18333256347E+04  0.25500000920E-02 0. -1.
       -2   -1    0    0    0  501  0.00000000000E+00  0.00000000000E+00 -0.10728142942E+04  0.10728142942E+04  0.25500000920E-02 0.  1.
    10030    2    1    2    0    0  0.00000000000E+00  0.00000000000E+00  0.76051134055E+03  0.29061399289E+04  0.28048657343E+04 0.  0.
        4    1    3    3  502    0 -0.90723729876E+03 -0.10342430166E+04  0.66225602590E+03  0.15268669852E+04  0.12699999809E+01 0.  1.
       -4    1    3    3    0  502  0.90723729876E+03  0.10342430166E+04  0.98255314649E+02  0.13792729437E+04  0.12699999809E+01 0. -1.
</event>
<event>
 5   0  0.3162695E-06  0.2859176E+04  0.7818609E-02  0.8285128E-01
       -2   -1    0    0    0  501  0.00000000000E+00  0.00000000000E+00  0.11212596527E+04  0.11212596527E+04  0.25500000920E-02 0. -1.
        2   -1    0    0  501    0  0.00000000000E+00  0.00000000000E+00 -0.18227019425E+04  0.18227019425E+04  0.25500000920E-02 0.  1.
    10030    2    1    2    0    0  0.00000000000E+00  0.00000000000E+00 -0.70144228977E+03  0.29439615952E+04  0.28591762080E+04 0.  0.
        1    1    3    3  502    0  0.72282136619E+03 -0.72557816994E+02 -0.16184866371E+04  0.17740446327E+04  0.50400001928E-02 0.  1.
       -1    1    3    3    0  502 -0.72282136619E+03  0.72557816994E+02  0.91704434733E+03  0.11699169625E+04  0.50400001928E-02 0. -1.
</event>
<event>
 5   0  0.1263513E-06  0.2811195E+04  0.7818609E-02  0.8299801E-01
        1   -1    0    0  501    0  0.00000000000E+00  0.00000000000E+00  0.18501682250E+04  0.18501682250E+04  0.50400001928E-02 0.  1.
       -1   -1    0    0    0  501  0.00000000000E+00  0.00000000000E+00 -0.10678513559E+04  0.10678513559E+04  0.50400001928E-02 0. -1.
    10030    2    1    2    0    0  0.00000000000E+00  0.00000000000E+00  0.78231686910E+03  0.29180195809E+04  0.28111952246E+04 0.  0.
        3    1    3    3  502    0  0.14733268922E+03 -0.60685715144E+03 -0.91594735053E+03  0.11085766021E+04  0.10100000352E+00 0. -1.
       -3    1    3    3    0  502 -0.14733268922E+03  0.60685715144E+03  0.16982642196E+04  0.18094429788E+04  0.10100000352E+00 0.  1.
</event>
<event>
 5   0  0.3167616E-06  0.2794621E+04  0.7818609E-02  0.8304940E-01
        2   -1    0    0  501    0  0.00000000000E+00  0.00000000000E+00  0.14910756813E+04  0.14910756813E+04  0.25500000920E-02 0. -1.
       -2   -1    0    0    0  501  0.00000000000E+00  0.00000000000E+00 -0.13094414166E+04  0.13094414166E+04  0.25500000920E-02 0.  1.
    10030    2    1    2    0    0  0.00000000000E+00  0.00000000000E+00  0.18163426464E+03  0.28005170979E+04  0.27946207273E+04 0.  0.
        3    1    3    3  502    0  0.32709967545E+03 -0.13476415821E+04  0.26248008138E+03  0.14113921619E+04  0.10100000352E+00 0. -1.
       -3    1    3    3    0  502 -0.32709967545E+03  0.13476415821E+04 -0.80845816746E+02  0.13891249360E+04  0.10100000352E+00 0.  1.
</event>
<event>
 5   0  0.1220265E-06  0.2898546E+04  0.7818609E-02  0.8273310E-01
       -1   -1    0    0    0  501  0.00000000000E+00  0.00000000000E+00  0.11249579492E+04  0.11249579492E+04  0.50400001928E-02 0. -1.
        1   -1    0    0  501    0  0.00000000000E+00  0.00000000000E+00 -0.18670854849E+04  0.18670854849E+04  0.50400001928E-02 0.  1.
    10030    2    1    2    0    0  0.00000000000E+00  0.00000000000E+00 -0.74212753576E+03  0.29920434341E+04  0.28985462964E+04 0.  0.
        4    1    3    3  502    0  0.25355980521E+03 -0.11936754757E+03 -0.18388476126E+04  0.18600815416E+04  0.12699999809E+01 0.  1.
       -4    1    3    3    0  502 -0.25355980521E+03  0.11936754757E+03  0.10967200768E+04  0.11319618925E+04  0.12699999809E+01 0. -1.
</event>
<event>
 5   0  0.3345919E-06  0.2802065E+04  0.7818609E-02  0.8302628E-01
        2   -1    0    0  501    0  0.00000000000E+00  0.00000000000E+00  0.16172042063E+04  0.16172042063E+04  0.25500000920E-02 0.  1.
       -2   -1    0    0    0  501  0.00000000000E+00  0.00000000000E+00 -0.12137561051E+04  0.12137561051E+04  0.25500000920E-02 0. -1.
    10030    2    1    2    0    0  0.00000000000E+00  0.00000000000E+00  0.40344810118E+03  0.28309603114E+04  0.28020645807E+04 0.  0.
        2    1    3    3  502    0  0.46231669227E+03  0.94973078022E+03  0.11316319785E+04  0.15480039450E+04  0.25500000920E-02 0.  1.
       -2    1    3    3    0  502 -0.46231669227E+03 -0.94973078022E+03 -0.72818387737E+03  0.12829563664E+04  0.25500000920E-02 0. -1.
</event>
<event>
 5   0  0.1220265E-06  0.2795090E+04  0.7818609E-02  0.8304794E-01
       -1   -1    0    0    0  501  0.00000000000E+00  0.00000000000E+00  0.10185410466E+04  0.10185410466E+04  0.50400001928E-02 0. -1.
        1   -1    0    0  501    0  0.00000000000E+00  0.00000000000E+00 -0.19175785231E+04  0.19175785231E+04  0.50400001928E-02 0.  1.
    10030    2    1    2    0    0  0.00000000000E+00  0.00000000000E+00 -0.89903747647E+03  0.29361195697E+04  0.27950902926E+04 0.  0.
        4    1    3    3  502    0  0.12553351818E+04  0.58083953030E+03 -0.23971700746E+03  0.14038186618E+04  0.12699999809E+01 0.  1.
       -4    1    3    3    0  502 -0.12553351818E+04 -0.58083953030E+03 -0.65932046901E+03  0.15323009079E+04  0.12699999809E+01 0. -1.
</event>
<event>
 5   0  0.1220265E-06  0.2788229E+04  0.7818609E-02  0.8306932E-01
       -1   -1    0    0    0  501  0.00000000000E+00  0.00000000000E+00  0.12233563731E+04  0.12233563731E+04  0.50400001928E-02 0.  1.
        1   -1    0    0  501    0  0.00000000000E+00  0.00000000000E+00 -0.15887070856E+04  0.15887070856E+04  0.50400001928E-02 0. -1.
    10030    2    1    2    0    0  0.00000000000E+00  0.00000000000E+00 -0.36535071252E+03  0.28120634586E+04  0.27882287841E+04 0.  0.
        4    1    3    3  502    0  0.52620984098E+03 -0.78900090611E+03 -0.12132390778E+04  0.15399252902E+04  0.12699999809E+01 0. -1.
       -4    1    3    3    0  502 -0.52620984098E+03  0.78900090611E+03  0.84788836532E+03  0.12721381684E+04  0.12699999809E+01 0.  1.
</event>
<event>
 5   0  0.1246044E-06  0.2804540E+04  0.7818609E-02  0.8301860E-01
        1   -1    0    0  501    0  0.00000000000E+00  0.00000000000E+00  0.26411187801E+04  0.26411187801E+04  0.50400001928E-02 0.  1.
       -1   -1    0    0    0  501  0.00000000000E+00  0.00000000000E+00 -0.74451824791E+03  0.74451824793E+03  0.50400001928E-02 0. -1.
    10030    2    1    2    0    0  0.00000000000E+00  0.00000000000E+00  0.18966005321E+04  0.33856370280E+04  0.28045399813E+04 0.  0.
        2    1    3    3  502    0 -0.11950757205E+04 -0.62944593097E+03  0.14031322538E+04  0.19476109158E+04  0.25500000920E-02 0. -1.
       -2    1    3    3    0  502  0.11950757205E+04  0.62944593097E+03  0.49346827839E+03  0.14380261122E+04  0.25500000920E-02 0.  1.
</event>
<event>
 5   0  0.3345919E-06  0.2812733E+04  0.7818609E-02  0.8299326E-01
        2   -1    0    0  501    0  0.00000000000E+00  0.00000000000E+00  0.17502059772E+04  0.17502059772E+04  0.25500000920E-02 0.  1.
       -2   -1    0    0    0  501  0.00000000000E+00  0.00000000000E+00 -0.11300761496E+04  0.11300761496E+04  0.25500000920E-02 0. -1.
    10030    2    1    2    0    0  0.00000000000E+00  0.00000000000E+00  0.62012982761E+03  0.28802821268E+04  0.28127325018E+04 0.  0.
        2    1    3    3  502    0 -0.31920133896E+03  0.13569018232E+04  0.11905379568E+03  0.13990160324E+04  0.25500000920E-02 0. -1.
       -2    1    3    3    0  502  0.31920133896E+03 -0.13569018232E+04  0.50107603194E+03  0.14812660944E+04  0.25500000920E-02 0.  1.
</event>
<event>
 5   0  0.3162695E-06  0.2798956E+04  0.7818609E-02  0.8303592E-01
       -2   -1    0    0    0  501  0.00000000000E+00  0.00000000000E+00  0.11776117974E+04  0.11776117974E+04  0.25500000920E-02 0. -1.
        2   -1    0    0  501    0  0.00000000000E+00  0.00000000000E+00 -0.16631449789E+04  0.16631449789E+04  0.25500000920E-02 0.  1.
    10030    2    1    2    0    0  0.00000000000E+00  0.00000000000E+00 -0.48553318155E+03  0.28407567763E+04  0.27989563397E+04 0.  0.
        1    1    3    3  502    0  0.13035859487E+04  0.30265941920E+03  0.17273726822E+03  0.13493617801E+04  0.50400001928E-02 0. -1.
       -1    1    3    3    0  502 -0.13035859487E+04 -0.30265941920E+03 -0.65827044977E+03  0.14913949962E+04  0.50400001928E-02 0.  1.
</event>
<event>
 5   0  0.1065675E-06  0.2794017E+04  0.7818609E-02  0.8305128E-01
        4   -1    0    0  501    0  0.00000000000E+00  0.00000000000E+00  0.17182322320E+04  0.17182327013E+04  0.12699999809E+01 0. -1.
       -4   -1    0    0    0  501  0.00000000000E+00  0.00000000000E+00 -0.11358367120E+04  0.11358374220E+04  0.12699999809E+01 0.  1.
    10030    2    1    2    0    0  0.00000000000E+00  0.00000000000E+00  0.58239551997E+03  0.28540701233E+04  0.27940171308E+04 0.  0.
        1    1    3    3  502    0  0.54316663058E+02  0.89677544260E+03 -0.80159800353E+03  0.12040414667E+04  0.50400001928E-02 0.  1.
       -1    1    3    3    0  502 -0.54316663058E+02 -0.89677544260E+03  0.13839935235E+04  0.16500286566E+04  0.50400001928E-02 0. -1.
</event>
<event>
 5   0  0.3162695E-06  0.2798167E+04  0.7818609E-02  0.8303838E-01
        2   -1    0    0  501    0  0.00000000000E+00  0.00000000000E+00  0.25188364625E+04  0.25188364625E+04  0.25500000920E-02 0. -1.
       -2   -1    0    0    0  501  0.00000000000E+00  0.00000000000E+00 -0.77711880902E+03  0.77711880903E+03  0.25500000920E-02 0.  1.
    10030    2    1    2    0    0  0.00000000000E+00  0.00000000000E+00  0.17417176535E+04  0.32959552715E+04  0.27981673945E+04 0.  0.
        1    1    3    3  502    0 -0.68581377757E+03 -0.98259522385E+03  0.20157829138E+02  0.11984324134E+04  0.50400001928E-02 0.  1.
       -1    1    3    3    0  502  0.68581377757E+03  0.98259522385E+03  0.17215598243E+04  0.20975228581E+04  0.50400001928E-02 0. -1.
</event>
<event>
 5   0  0.1235252E-06  0.2787332E+04  0.7818609E-02  0.8307212E-01
        1   -1    0    0  501    0  0.00000000000E+00  0.00000000000E+00  0.76616527101E+03  0.76616527103E+03  0.50400001928E-02 0.  1.
       -1   -1    0    0    0  501  0.00000000000E+00  0.00000000000E+00 -0.25350989681E+04  0.25350989681E+04  0.50400001928E-02 0. -1.
    10030    2    1    2    0    0  0.00000000000E+00  0.00000000000E+00 -0.17689336971E+04  0.33012642392E+04  0.27873319056E+04 0.  0.
        1    1    3    3  502    0  0.14078181781E+03 -0.96104836686E+03  0.29924602221E+03  0.10163570561E+04  0.50400001928E-02 0.  1.
       -1    1    3    3    0  502 -0.14078181781E+03  0.96104836686E+03 -0.20681797193E+04  0.22849071830E+04  0.50400001928E-02 0. -1.
</event>
<event>
 5   0  0.3226364E-06  0.2785195E+04  0.7818609E-02  0.8307880E-01
        2   -1    0    0  501    0  0.00000000000E+00  0.00000000000E+00  0.19565712713E+04  0.19565712714E+04  0.25500000920E-02 0. -1.
       -2   -1    0    0    0  501  0.00000000000E+00  0.00000000000E+00 -0.99118687615E+03  0.99118687616E+03  0.25500000920E-02 0.  1.
    10030    2    1    2    0    0  0.00000000000E+00  0.00000000000E+00  0.96538439520E+03  0.29477581475E+04  0.27851949780E+04 0.  0.
        5    1    3    3  502    0  0.16171671749E+03 -0.11686579249E+04  0.12657349633E+04  0.17303238799E+04  0.46999998093E+01 0. -1.
       -5    1    3    3    0  502 -0.16171671749E+03  0.11686579249E+04 -0.30035056808E+03  0.12174342676E+04  0.46999998093E+01 0.  1.
</event>
<event>
 5   0  0.3212679E-06  0.2781580E+04  0.7818609E-02  0.8309010E-01
        2   -1    0    0  501    0  0.00000000000E+00  0.00000000000E+00  0.13025057262E+04  0.13025057262E+04  0.25500000920E-02 0. -1.
       -2   -1    0    0    0  501  0.00000000000E+00  0.00000000000E+00 -0.14850578241E+04  0.14850578241E+04  0.25500000920E-02 0.  1.
    10030    2    1    2    0    0  0.00000000000E+00  0.00000000000E+00 -0.18255209796E+03  0.27875635503E+04  0.27815796373E+04 0.  0.
        4    1    3    3  502    0  0.11863620218E+02  0.31543694985E+03 -0.14486837371E+04  0.14826757562E+04  0.12699999809E+01 0.  1.
       -4    1    3    3    0  502 -0.11863620218E+02 -0.31543694985E+03  0.12661316391E+04  0.13048877942E+04  0.12699999809E+01 0. -1.
</event>
<event>
 5   0  0.3212679E-06  0.2805920E+04  0.7818609E-02  0.8301433E-01
       -2   -1    0    0    0  501  0.00000000000E+00  0.00000000000E+00  0.13702508573E+04  0.13702508573E+04  0.25500000920E-02 0.  1.
        2   -1    0    0  501    0  0.00000000000E+00  0.00000000000E+00 -0.14364497050E+04  0.14364497050E+04  0.25500000920E-02 0. -1.
    10030    2    1    2    0    0  0.00000000000E+00  0.00000000000E+00 -0.66198847725E+02  0.28067005623E+04  0.28059197706E+04 0.  0.
        4    1    3    3  502    0 -0.82371897455E+02 -0.16389198514E+03  0.13582042662E+04  0.13705349882E+04  0.12699999809E+01 0.  1.
       -4    1    3    3    0  502  0.82371897455E+02  0.16389198514E+03 -0.14244031139E+04  0.14361655741E+04  0.12699999809E+01 0. -1.
</event>
<event>
 5   0  0.1246044E-06  0.2796503E+04  0.7818609E-02  0.8304355E-01
       -1   -1    0    0    0  501  0.00000000000E+00  0.00000000000E+00  0.18814622939E+04  0.18814622940E+04  0.50400001928E-02 0.  1.
        1   -1    0    0  501    0  0.00000000000E+00  0.00000000000E+00 -0.10391422172E+04  0.10391422172E+04  0.50400001928E-02 0. -1.
    10030    2    1    2    0    0  0.00000000000E+00  0.00000000000E+00  0.84232007676E+03  0.29206045112E+04  0.27965027443E+04 0.  0.
        2    1    3    3  502    0 -0.20295921230E+02 -0.10281962678E+04  0.14105705575E+04  0.17456542576E+04  0.25500000920E-02 0.  1.
       -2    1    3    3    0  502  0.20295921230E+02  0.10281962678E+04 -0.56825048073E+03  0.11749502535E+04  0.25500000920E-02 0. -1.
</event>
<event>
 5   0  0.1263513E-06  0.2793657E+04  0.7818609E-02  0.8305240E-01
       -1   -1    0    0    0  501  0.00000000000E+00  0.00000000000E+00  0.10748475577E+04  0.10748475577E+04  0.50400001928E-02 0.  1.
        1   -1    0    0  501    0  0.00000000000E+00  0.00000000000E+00 -0.18152618098E+04  0.18152618099E+04  0.50400001928E-02 0. -1.
    10030    2    1    2    0    0  0.00000000000E+00  0.00000000000E+00 -0.74041425219E+03  0.28901093675E+04  0.27936569030E+04 0.  0.
        3    1    3    3  502    0  0.11126621289E+03  0.30448046670E+03 -0.17758076256E+04  0.18051540815E+04  0.10100000352E+00 0. -1.
       -3    1    3    3    0  502 -0.11126621289E+03 -0.30448046670E+03  0.10353933734E+04  0.10849552860E+04  0.10100000352E+00 0.  1.
</event>
<event>
 5   0  0.1243055E-06  0.2800788E+04  0.7818609E-02  0.8303024E-01
        1   -1    0    0  501    0  0.00000000000E+00  0.00000000000E+00  0.19319847870E+04  0.19319847870E+04  0.50400001928E-02 0.  1.
       -1   -1    0    0    0  501  0.00000000000E+00  0.00000000000E+00 -0.10150714936E+04  0.10150714936E+04  0.50400001928E-02 0. -1.
    10030    2    1    2    0    0  0.00000000000E+00  0.00000000000E+00  0.91691329336E+03  0.29470562806E+04  0.28007875202E+04 0.  0.
        5    1    3    3  502    0 -0.11107956228E+04  0.84579381633E+03  0.57298242697E+03  0.15091603782E+04  0.46999998093E+01 0. -1.
       -5    1    3    3    0  502  0.11107956228E+04 -0.84579381633E+03  0.34393086639E+03  0.14378959024E+04  0.46999998093E+01 0.  1.
</event>
<event>
 5   0  0.3212679E-06  0.2737705E+04  0.7818609E-02  0.8322874E-01
       -2   -1    0    0    0  501  0.00000000000E+00  0.00000000000E+00  0.19521772995E+04  0.19521772995E+04  0.25500000920E-02 0.  1.
        2   -1    0    0  501    0  0.00000000000E+00  0.00000000000E+00 -0.95982956708E+03  0.95982956708E+03  0.25500000920E-02 0. -1.
    10030    2    1    2    0    0  0.00000000000E+00  0.00000000000E+00  0.99234773241E+03  0.29120068666E+04  0.27377052378E+04 0.  0.
        4    1    3    3  502    0 -0.65928865727E+03  0.11862007529E+04  0.68651416415E+03  0.15208672100E+04  0.12699999809E+01 0.  1.
       -4    1    3    3    0  502  0.65928865727E+03 -0.11862007529E+04  0.30583356826E+03  0.13911396566E+04  0.12699999809E+01 0. -1.
</event>
<event>
 5   0  0.3226364E-06  0.2791818E+04  0.7818609E-02  0.8305813E-01
       -2   -1    0    0    0  501  0.00000000000E+00  0.00000000000E+00  0.77225559334E+03  0.77225559334E+03  0.25500000920E-02 0.  1.
        2   -1    0    0  501    0  0.00000000000E+00  0.00000000000E+00 -0.25232077757E+04  0.25232077757E+04  0.25500000920E-02 0. -1.
    10030    2    1    2    0    0  0.00000000000E+00  0.00000000000E+00 -0.17509521824E+04  0.32954633691E+04  0.27918175571E+04 0.  0.
        5    1    3    3  502    0  0.29853833885E+03  0.92628121004E+03  0.30576073882E+03  0.10201145716E+04  0.46999998093E+01 0.  1.
       -5    1    3    3    0  502 -0.29853833885E+03 -0.92628121004E+03 -0.20567129212E+04  0.22753487975E+04  0.46999998093E+01 0. -1.
</event>
<event>
 5   0  0.3162695E-06  0.2800112E+04  0.7818609E-02  0.8303234E-01
        2   -1    0    0  501    0  0.00000000000E+00  0.00000000000E+00  0.10570767807E+04  0.10570767807E+04  0.25500000920E-02 0.  1.
       -2   -1    0    0    0  501  0.00000000000E+00  0.00000000000E+00 -0.18543183319E+04  0.18543183319E+04  0.25500000920E-02 0. -1.
    10030    2    1    2    0    0  0.00000000000E+00  0.00000000000E+00 -0.79724155128E+03  0.29113951126E+04  0.28001120354E+04 0.  0.
        1    1    3    3  502    0 -0.43413889575E+03 -0.43667632837E+02 -0.17818194791E+04  0.18344656168E+04  0.50400001928E-02 0. -1.
       -1    1    3    3    0  502  0.43413889575E+03  0.43667632837E+02  0.98457792784E+03  0.10769294958E+04  0.50400001928E-02 0.  1.
</event>
<event>
 5   0  0.3162695E-06  0.2795810E+04  0.7818609E-02  0.8304570E-01
       -2   -1    0    0    0  501  0.00000000000E+00  0.00000000000E+00  0.10813544771E+04  0.10813544771E+04  0.25500000920E-02 0. -1.
        2   -1    0    0  501    0  0.00000000000E+00  0.00000000000E+00 -0.18071211202E+04  0.18071211202E+04  0.25500000920E-02 0.  1.
    10030    2    1    2    0    0  0.00000000000E+00  0.00000000000E+00 -0.72576664315E+03  0.28884755973E+04  0.27958100894E+04 0.  0.
        1    1    3    3  502    0  0.13146344280E+04  0.45880364883E+03 -0.23478155145E+03  0.14120505814E+04  0.50400001928E-02 0.  1.
       -1    1    3    3    0  502 -0.13146344280E+04 -0.45880364883E+03 -0.49098509170E+03  0.14764250160E+04  0.50400001928E-02 0. -1.
</event>
<event>
 5   0  0.1065675E-06  0.2803398E+04  0.7818609E-02  0.8302214E-01
       -3   -1    0    0    0  501  0.00000000000E+00  0.00000000000E+00  0.21652321991E+04  0.21652322015E+04  0.10100000352E+00 0.  1.
        3   -1    0    0  501    0  0.00000000000E+00  0.00000000000E+00 -0.90741337578E+03  0.90741338140E+03  0.10100000352E+00 0. -1.
    10030    2    1    2    0    0  0.00000000000E+00  0.00000000000E+00  0.12578188233E+04  0.30726455829E+04  0.28033984172E+04 0.  0.
        3    1    3    3  502    0  0.33113696814E+03 -0.10904099659E+04  0.15234545849E+04  0.19025139863E+04  0.10100000352E+00 0.  1.
       -3    1    3    3    0  502 -0.33113696814E+03  0.10904099659E+04 -0.26563576162E+03  0.11701315966E+04  0.10100000352E+00 0. -1.
</event>
<event>
 5   0  0.1065675E-06  0.2807282E+04  0.7818609E-02  0.8301011E-01
        3   -1    0    0  501    0  0.00000000000E+00  0.00000000000E+00  0.15989127397E+04  0.15989127429E+04  0.10100000352E+00 0.  1.
       -3   -1    0    0    0  501  0.00000000000E+00  0.00000000000E+00 -0.12322177579E+04  0.12322177621E+04  0.10100000352E+00 0. -1.
    10030    2    1    2    0    0  0.00000000000E+00  0.00000000000E+00  0.36669498178E+03  0.28311305049E+04  0.28072824451E+04 0.  0.
        3    1    3    3  502    0  0.91395572575E+03  0.36960987309E+03 -0.82428098200E+03  0.12850547360E+04  0.10100000352E+00 0. -1.
       -3    1    3    3    0  502 -0.91395572575E+03 -0.36960987309E+03  0.11909759638E+04  0.15460757690E+04  0.10100000352E+00 0.  1.
</event>
<event>
 5   0  0.3212679E-06  0.2807042E+04  0.7818609E-02  0.8301086E-01
       -2   -1    0    0    0  501  0.00000000000E+00  0.00000000000E+00  0.11347432988E+04  0.11347432988E+04  0.25500000920E-02 0. -1.
        2   -1    0    0  501    0  0.00000000000E+00  0.00000000000E+00 -0.17359613586E+04  0.17359613586E+04  0.25500000920E-02 0.  1.
    10030    2    1    2    0    0  0.00000000000E+00  0.00000000000E+00 -0.60121805983E+03  0.28707046574E+04  0.28070415164E+04 0.  0.
        4    1    3    3  502    0 -0.53944728781E+03 -0.13392060726E+03  0.10173910826E+04  0.11593206344E+04  0.12699999809E+01 0. -1.
       -4    1    3    3    0  502  0.53944728781E+03  0.13392060726E+03 -0.16186091425E+04  0.17113840231E+04  0.12699999809E+01 0.  1.
</event>
<event>
 5   0  0.1220265E-06  0.2808367E+04  0.7818609E-02  0.8300676E-01
        1   -1    0    0  501    0  0.00000000000E+00  0.00000000000E+00  0.15932762332E+04  0.15932762332E+04  0.50400001928E-02 0. -1.
       -1   -1    0    0    0  501  0.00000000000E+00  0.00000000000E+00 -0.12375322919E+04  0.12375322919E+04  0.50400001928E-02 0.  1.
    10030    2    1    2    0    0  0.00000000000E+00  0.00000000000E+00  0.35574394137E+03  0.28308085251E+04  0.28083666345E+04 0.  0.
        4    1    3    3  502    0 -0.17539183816E+03 -0.89485557194E+03 -0.89846258041E+03  0.12801427314E+04  0.12699999809E+01 0.  1.
       -4    1    3    3    0  502  0.17539183816E+03  0.89485557194E+03  0.12542065218E+04  0.15506657937E+04  0.12699999809E+01 0. -1.
</event>
<event>
 5   0  0.3212679E-06  0.2744947E+04  0.7818609E-02  0.8320567E-01
        2   -1    0    0  501    0  0.00000000000E+00  0.00000000000E+00  0.17057212206E+04  0.17057212206E+04  0.25500000920E-02 0.  1.
       -2   -1    0    0    0  501  0.00000000000E+00  0.00000000000E+00 -0.11043323424E+04  0.11043323424E+04  0.25500000920E-02 0. -1.
    10030    2    1    2    0    0  0.00000000000E+00  0.00000000000E+00  0.60138887826E+03  0.28100535630E+04  0.27449467106E+04 0.  0.
        4    1    3    3  502    0  0.86055724503E+03 -0.10441422368E+04  0.65262003398E+02  0.13546411055E+04  0.12699999809E+01 0. -1.
       -4    1    3    3    0  502 -0.86055724503E+03  0.10441422368E+04  0.53612687486E+03  0.14554124575E+04  0.12699999809E+01 0.  1.
</event>
<event>
 5   0  0.1263513E-06  0.2795351E+04  0.7818609E-02  0.8304713E-01
       -1   -1    0    0    0  501  0.00000000000E+00  0.00000000000E+00  0.22158574761E+04  0.22158574761E+04  0.50400001928E-02 0. -1.
        1   -1    0    0  501    0  0.00000000000E+00  0.00000000000E+00 -0.88159861370E+03  0.88159861372E+03  0.50400001928E-02 0.  1.
    10030    2    1    2    0    0  0.00000000000E+00  0.00000000000E+00  0.13342588624E+04  0.30974560898E+04  0.27953510542E+04 0.  0.
        3    1    3    3  502    0 -0.29044444631E+03  0.76198606245E+02 -0.84543540783E+03  0.89717626083E+03  0.10100000352E+00 0.  1.
       -3    1    3    3    0  502  0.29044444631E+03 -0.76198606245E+02  0.21796942702E+04  0.22002798290E+04  0.10100000352E+00 0. -1.
</event>
<event>
 5   0  0.1220265E-06  0.2795810E+04  0.7818609E-02  0.8304570E-01
        1   -1    0    0  501    0  0.00000000000E+00  0.00000000000E+00  0.19326979108E+04  0.19326979108E+04  0.50400001928E-02 0.  1.
       -1   -1    0    0    0  501  0.00000000000E+00  0.00000000000E+00 -0.10110936017E+04  0.10110936017E+04  0.50400001928E-02 0. -1.
    10030    2    1    2    0    0  0.00000000000E+00  0.00000000000E+00  0.92160430905E+03  0.29437915125E+04  0.27958100734E+04 0.  0.
        4    1    3    3  502    0 -0.50151006924E+03  0.11112517972E+04  0.11809198506E+04  0.16973409241E+04  0.12699999809E+01 0.  1.
       -4    1    3    3    0  502  0.50151006924E+03 -0.11112517972E+04 -0.25931554158E+03  0.12464505884E+04  0.12699999809E+01 0. -1.
</event>
<event>
 5   0  0.1246044E-06  0.2799974E+04  0.7818609E-02  0.8303277E-01
        1   -1    0    0  501    0  0.00000000000E+00  0.00000000000E+00  0.20970126302E+04  0.20970126302E+04  0.50400001928E-02 0. -1.
       -1   -1    0    0    0  501  0.00000000000E+00  0.00000000000E+00 -0.93464540607E+03  0.93464540609E+03  0.50400001928E-02 0.  1.
    10030    2    1    2    0    0  0.00000000000E+00  0.00000000000E+00  0.11623672241E+04  0.30316580363E+04  0.27999737294E+04 0.  0.
        2    1    3    3  502    0 -0.88866127007E+03  0.10800459789E+04  0.51492304097E+03  0.14904240697E+04  0.25500000920E-02 0. -1.
       -2    1    3    3    0  502  0.88866127007E+03 -0.10800459789E+04  0.64744418314E+03  0.15412339666E+04  0.25500000920E-02 0.  1.
</event>
<event>
 5   0  0.3162695E-06  0.2799386E+04  0.7818609E-02  0.8303459E-01
       -2   -1    0    0    0  501  0.00000000000E+00  0.00000000000E+00  0.11291192004E+04  0.11291192004E+04  0.25500000920E-02 0. -1.
        2   -1    0    0  501    0  0.00000000000E+00  0.00000000000E+00 -0.17351046931E+04  0.17351046931E+04  0.25500000920E-02 0.  1.
    10030    2    1    2    0    0  0.00000000000E+00  0.00000000000E+00 -0.60598549275E+03  0.28642238935E+04  0.27993856638E+04 0.  0.
        1    1    3    3  502    0  0.84136918972E+03  0.64950627111E+03  0.62880333805E+03  0.12349713145E+04  0.50400001928E-02 0. -1.
       -1    1    3    3    0  502 -0.84136918972E+03 -0.64950627111E+03 -0.12347888308E+04  0.16292525790E+04  0.50400001928E-02 0.  1.
</event>
<event>
 5   0  0.1263513E-06  0.2799907E+04  0.7818609E-02  0.8303297E-01
       -1   -1    0    0    0  501  0.00000000000E+00  0.00000000000E+00  0.74692203981E+03  0.74692203983E+03  0.50400001928E-02 0. -1.
        1   -1    0    0  501    0  0.00000000000E+00  0.00000000000E+00 -0.26239272763E+04  0.26239272763E+04  0.50400001928E-02 0.  1.
    10030    2    1    2    0    0  0.00000000000E+00  0.00000000000E+00 -0.18770052365E+04  0.33708493162E+04  0.27999065081E+04 0.  0.
        3    1    3    3  502    0  0.39832679103E+03 -0.34768936020E+03 -0.24991019517E+04  0.25544202275E+04  0.10100000352E+00 0.  1.
       -3    1    3    3    0  502 -0.39832679103E+03  0.34768936020E+03  0.62209671513E+03  0.81642908867E+03  0.10100000352E+00 0. -1.
</event>
<event>
 5   0  0.3162695E-06  0.2804027E+04  0.7818609E-02  0.8302019E-01
       -2   -1    0    0    0  501  0.00000000000E+00  0.00000000000E+00  0.82033650019E+03  0.82033650020E+03  0.25500000920E-02 0. -1.
        2   -1    0    0  501    0  0.00000000000E+00  0.00000000000E+00 -0.23961406465E+04  0.23961406465E+04  0.25500000920E-02 0.  1.
    10030    2    1    2    0    0  0.00000000000E+00  0.00000000000E+00 -0.15758041463E+04  0.32164771467E+04  0.28040268415E+04 0.  0.
        1    1    3    3  502    0 -0.10306774350E+04 -0.58827325257E+03 -0.16442201744E+04  0.20277626529E+04  0.50400001928E-02 0.  1.
       -1    1    3    3    0  502  0.10306774350E+04  0.58827325257E+03  0.68416028120E+02  0.11887144937E+04  0.50400001928E-02 0. -1.
</event>
<event>
 5   0  0.3345919E-06  0.2819744E+04  0.7818609E-02  0.8297165E-01
        2   -1    0    0  501    0  0.00000000000E+00  0.00000000000E+00  0.17404757869E+04  0.17404757869E+04  0.25500000920E-02 0. -1.
       -2   -1    0    0    0  501  0.00000000000E+00  0.00000000000E+00 -0.11420667343E+04  0.11420667343E+04  0.25500000920E-02 0.  1.
    10030    2    1    2    0    0  0.00000000000E+00  0.00000000000E+00  0.59840905256E+03  0.28825425212E+04  0.28197443133E+04 0.  0.
        2    1    3    3  502    0  0.45936243225E+03  0.49328777792E+03 -0.96667596207E+03  0.11784774464E+04  0.25500000920E-02 0.  1.
       -2    1    3    3    0  502 -0.45936243225E+03 -0.49328777792E+03  0.15650850146E+04  0.17040650748E+04  0.25500000920E-02 0. -1.
</event>
<event>
 5   0  0.3212679E-06  0.2806348E+04  0.7818609E-02  0.8301300E-01
        2   -1    0    0  501    0  0.00000000000E+00  0.00000000000E+00  0.15478359931E+04  0.15478359931E+04  0.25500000920E-02 0. -1.
       -2   -1    0    0    0  501  0.00000000000E+00  0.00000000000E+00 -0.12720323324E+04  0.12720323324E+04  0.25500000920E-02 0.  1.
    10030    2    1    2    0    0  0.00000000000E+00  0.00000000000E+00  0.27580366068E+03  0.28198683255E+04  0.28063481099E+04 0.  0.
        4    1    3    3  502    0  0.13640150764E+04  0.29927623176E+03  0.27564773281E+03  0.14234067153E+04  0.12699999809E+01 0.  1.
       -4    1    3    3    0  502 -0.13640150764E+04 -0.29927623176E+03  0.15592787016E+00  0.13964616102E+04  0.12699999809E+01 0. -1.
</event>
<event>
 5   0  0.1220265E-06  0.2802724E+04  0.7818609E-02  0.8302423E-01
       -1   -1    0    0    0  501  0.00000000000E+00  0.00000000000E+00  0.12656783462E+04  0.12656783462E+04  0.50400001928E-02 0. -1.
        1   -1    0    0  501    0  0.00000000000E+00  0.00000000000E+00 -0.15515910506E+04  0.15515910506E+04  0.50400001928E-02 0.  1.
    10030    2    1    2    0    0  0.00000000000E+00  0.00000000000E+00 -0.28591270442E+03  0.28172693967E+04  0.28027238143E+04 0.  0.
        4    1    3    3  502    0 -0.21617098038E+02  0.11020888997E+04 -0.10127483951E+04  0.14969061983E+04  0.12699999809E+01 0.  1.
       -4    1    3    3    0  502  0.21617098038E+02 -0.11020888997E+04  0.72683569064E+03  0.13203631985E+04  0.12699999809E+01 0. -1.
</event>
<event>
 5   0  0.1235252E-06  0.2794412E+04  0.7818609E-02  0.8305005E-01
        1   -1    0    0  501    0  0.00000000000E+00  0.00000000000E+00  0.84391766612E+03  0.84391766614E+03  0.50400001928E-02 0. -1.
       -1   -1    0    0    0  501  0.00000000000E+00  0.00000000000E+00 -0.23132410870E+04  0.23132410870E+04  0.50400001928E-02 0.  1.
    10030    2    1    2    0    0  0.00000000000E+00  0.00000000000E+00 -0.14693234208E+04  0.31571587531E+04  0.27944122955E+04 0.  0.
        1    1    3    3  502    0 -0.82040871122E+03 -0.81196021464E+03  0.15483438533E+03  0.11646130390E+04  0.50400001928E-02 0. -1.
       -1    1    3    3    0  502  0.82040871122E+03  0.81196021464E+03 -0.16241578062E+04  0.19925457141E+04  0.50400001928E-02 0.  1.
</event>
<event>
 5   0  0.3212679E-06  0.2786168E+04  0.7818609E-02  0.8307576E-01
        2   -1    0    0  501    0  0.00000000000E+00  0.00000000000E+00  0.17022985043E+04  0.17022985043E+04  0.25500000920E-02 0. -1.
       -2   -1    0    0    0  501  0.00000000000E+00  0.00000000000E+00 -0.11400364872E+04  0.11400364872E+04  0.25500000920E-02 0.  1.
    10030    2    1    2    0    0  0.00000000000E+00  0.00000000000E+00  0.56226201708E+03  0.28423349915E+04  0.27861675520E+04 0.  0.
        4    1    3    3  502    0  0.64733442409E+03 -0.58893078200E+03 -0.82460105377E+03  0.12024349601E+04  0.12699999809E+01 0.  1.
       -4    1    3    3    0  502 -0.64733442409E+03  0.58893078200E+03  0.13868630708E+04  0.16399000313E+04  0.12699999809E+01 0. -1.
</event>
<event>
 5   0  0.3226364E-06  0.2800490E+04  0.7818609E-02  0.8303116E-01
       -2   -1    0    0    0  501  0.00000000000E+00  0.00000000000E+00  0.12436813110E+04  0.12436813110E+04  0.25500000920E-02 0. -1.
        2   -1    0    0  501    0  0.00000000000E+00  0.00000000000E+00 -0.15765175164E+04  0.15765175165E+04  0.25500000920E-02 0.  1.
    10030    2    1    2    0    0  0.00000000000E+00  0.00000000000E+00 -0.33283620545E+03  0.28201988275E+04  0.28004895084E+04 0.  0.
        5    1    3    3  502    0  0.95767298216E+03 -0.95676533190E+03 -0.52688396513E+03  0.14526411270E+04  0.46999998093E+01 0.  1.
       -5    1    3    3    0  502 -0.95767298216E+03  0.95676533190E+03  0.19404775969E+03  0.13675577005E+04  0.46999998093E+01 0. -1.
</event>
<event>
 5   0  0.1246044E-06  0.2722801E+04  0.7818609E-02  0.8327645E-01
        1   -1    0    0  501    0  0.00000000000E+00  0.00000000000E+00  0.20256838766E+04  0.20256838766E+04  0.50400001928E-02 0. -1.
       -1   -1    0    0    0  501  0.00000000000E+00  0.00000000000E+00 -0.91495584119E+03  0.91495584120E+03  0.50400001928E-02 0.  1.
    10030    2    1    2    0    0  0.00000000000E+00  0.00000000000E+00  0.11107280354E+04  0.29406397178E+04  0.27228009809E+04 0.  0.
        2    1    3    3  502    0  0.10003223748E+04  0.31683704560E+03 -0.38143138724E+03  0.11164768113E+04  0.25500000920E-02 0.  1.
       -2    1    3    3    0  502 -0.10003223748E+04 -0.31683704560E+03  0.14921594227E+04  0.18241629066E+04  0.25500000920E-02 0. -1.
</event>
<event>
 5   0  0.1263513E-06  0.2798698E+04  0.7818609E-02  0.8303673E-01
       -1   -1    0    0    0  501  0.00000000000E+00  0.00000000000E+00  0.10378869015E+04  0.10378869015E+04  0.50400001928E-02 0.  1.
        1   -1    0    0  501    0  0.00000000000E+00  0.00000000000E+00 -0.18866960007E+04  0.18866960007E+04  0.50400001928E-02 0. -1.
    10030    2    1    2    0    0  0.00000000000E+00  0.00000000000E+00 -0.84880909919E+03  0.29245829023E+04  0.27986976016E+04 0.  0.
        3    1    3    3  502    0 -0.39518373388E+03  0.10092602416E+04  0.50050640092E+03  0.11938522046E+04  0.10100000352E+00 0.  1.
       -3    1    3    3    0  502  0.39518373388E+03 -0.10092602416E+04 -0.13493155001E+04  0.17307306977E+04  0.10100000352E+00 0. -1.
</event>
<event>
 5   0  0.3345919E-06  0.2799813E+04  0.7818609E-02  0.8303327E-01
        2   -1    0    0  501    0  0.00000000000E+00  0.00000000000E+00  0.12504009879E+04  0.12504009879E+04  0.25500000920E-02 0.  1.
       -2   -1    0    0    0  501  0.00000000000E+00  0.00000000000E+00 -0.15672872574E+04  0.15672872575E+04  0.25500000920E-02 0. -1.
    10030    2    1    2    0    0  0.00000000000E+00  0.00000000000E+00 -0.31688626955E+03  0.28176882454E+04  0.27998125188E+04 0.  0.
        2    1    3    3  502    0 -0.22885531808E+03  0.34965984309E+03 -0.15030501047E+04  0.15600629409E+04  0.25500000920E-02 0. -1.
       -2    1    3    3    0  502  0.22885531808E+03 -0.34965984309E+03  0.11861638351E+04  0.12576253044E+04  0.25500000920E-02 0.  1.
</event>
<event>
 5   0  0.3212679E-06  0.2780725E+04  0.7818609E-02  0.8309277E-01
        2   -1    0    0  501    0  0.00000000000E+00  0.00000000000E+00  0.15606229118E+04  0.15606229119E+04  0.25500000920E-02 0.  1.
       -2   -1    0    0    0  501  0.00000000000E+00  0.00000000000E+00 -0.12386773637E+04  0.12386773637E+04  0.25500000920E-02 0. -1.
    10030    2    1    2    0    0  0.00000000000E+00  0.00000000000E+00  0.32194554817E+03  0.27993002755E+04  0.27807252825E+04 0.  0.
        4    1    3    3  502    0  0.32065620982E+03  0.13374894059E+04 -0.43876929866E+02  0.13760905180E+04  0.12699999809E+01 0. -1.
       -4    1    3    3    0  502 -0.32065620982E+03 -0.13374894059E+04  0.36582247804E+03  0.14232097576E+04  0.12699999809E+01 0.  1.
</event>
<event>
 5   0  0.1235252E-06  0.2822102E+04  0.7818609E-02  0.8296439E-01
       -1   -1    0    0    0  501  0.00000000000E+00  0.00000000000E+00  0.10043889045E+04  0.10043889045E+04  0.50400001928E-02 0.  1.
        1   -1    0    0  501    0  0.00000000000E+00  0.00000000000E+00 -0.19823644530E+04  0.19823644530E+04  0.50400001928E-02 0. -1.
    10030    2    1    2    0    0  0.00000000000E+00  0.00000000000E+00 -0.97797554849E+03  0.29867533574E+04  0.28221019550E+04 0.  0.
        1    1    3    3  502    0 -0.11989845330E+04 -0.84093938560E+02 -0.12713242777E+04  0.17495431175E+04  0.50400001928E-02 0. -1.
       -1    1    3    3    0  502  0.11989845330E+04  0.84093938560E+02  0.29334872917E+03  0.12372102400E+04  0.50400001928E-02 0.  1.
</event>
<event>
 5   0  0.1235252E-06  0.2777371E+04  0.7818609E-02  0.8310328E-01
        1   -1    0    0  501    0  0.00000000000E+00  0.00000000000E+00  0.19220527283E+04  0.19220527283E+04  0.50400001928E-02 0.  1.
       -1   -1    0    0    0  501  0.00000000000E+00  0.00000000000E+00 -0.10033268252E+04  0.10033268252E+04  0.50400001928E-02 0. -1.
    10030    2    1    2    0    0  0.00000000000E+00  0.00000000000E+00  0.91872590307E+03  0.29253795536E+04  0.27773707436E+04 0.  0.
        1    1    3    3  502    0 -0.13716290318E+04 -0.17305468749E+03  0.59723120164E+03  0.15059877934E+04  0.50400001928E-02 0.  1.
       -1    1    3    3    0  502  0.13716290318E+04  0.17305468749E+03  0.32149470143E+03  0.14193917601E+04  0.50400001928E-02 0. -1.
</event>
<event>
 5   0  0.3167616E-06  0.2796901E+04  0.7818609E-02  0.8304231E-01
       -2   -1    0    0    0  501  0.00000000000E+00  0.00000000000E+00  0.87715082188E+03  0.87715082189E+03  0.25500000920E-02 0. -1.
        2   -1    0    0  501    0  0.00000000000E+00  0.00000000000E+00 -0.22295645991E+04  0.22295645991E+04  0.25500000920E-02 0.  1.
    10030    2    1    2    0    0  0.00000000000E+00  0.00000000000E+00 -0.13524137772E+04  0.31067154210E+04  0.27969014430E+04 0.  0.
        3    1    3    3  502    0  0.55376182503E+03 -0.29647686735E+03  0.71164007714E+03  0.94920087512E+03  0.10100000352E+00 0. -1.
       -3    1    3    3    0  502 -0.55376182503E+03  0.29647686735E+03 -0.20640538543E+04  0.21575145458E+04  0.10100000352E+00 0.  1.
</event>
<event>
 5   0  0.1220265E-06  0.2803301E+04  0.7818609E-02  0.8302244E-01
        1   -1    0    0  501    0  0.00000000000E+00  0.00000000000E+00  0.24656538918E+04  0.24656538919E+04  0.50400001928E-02 0.  1.
       -1   -1    0    0    0  501  0.00000000000E+00  0.00000000000E+00 -0.79679626029E+03  0.79679626031E+03  0.50400001928E-02 0. -1.
    10030    2    1    2    0    0  0.00000000000E+00  0.00000000000E+00  0.16688576316E+04  0.32624501522E+04  0.28033007689E+04 0.  0.
        4    1    3    3  502    0  0.78092204081E+03 -0.25617745306E+03 -0.48694877336E+03  0.95529411286E+03  0.12699999809E+01 0. -1.
       -4    1    3    3    0  502 -0.78092204081E+03  0.25617745306E+03  0.21558064049E+04  0.23071560393E+04  0.12699999809E+01 0.  1.
</event>
<event>
 5   0  0.1263513E-06  0.2806636E+04  0.7818609E-02  0.8301211E-01
       -1   -1    0    0    0  501  0.00000000000E+00  0.00000000000E+00  0.80604462520E+03  0.80604462522E+03  0.50400001928E-02 0. -1.
        1   -1    0    0  501    0  0.00000000000E+00  0.00000000000E+00 -0.24431660093E+04  0.24431660093E+04  0.50400001928E-02 0.  1.
    10030    2    1    2    0    0  0.00000000000E+00  0.00000000000E+00 -0.16371213841E+04  0.32492106345E+04  0.28066355875E+04 0.  0.
        3    1    3    3  502    0  0.49444562271E+02  0.10066609562E+04  0.31188540386E+03  0.10550277536E+04  0.10100000352E+00 0. -1.
       -3    1    3    3    0  502 -0.49444562271E+02 -0.10066609562E+04 -0.19490067880E+04  0.21941828810E+04  0.10100000352E+00 0.  1.
</event>
<event>
 5   0  0.1235252E-06  0.2800512E+04  0.7818609E-02  0.8303110E-01
       -1   -1    0    0    0  501  0.00000000000E+00  0.00000000000E+00  0.74902577869E+03  0.74902577870E+03  0.50400001928E-02 0. -1.
        1   -1    0    0  501    0  0.00000000000E+00  0.00000000000E+00 -0.26176889588E+04  0.26176889588E+04  0.50400001928E-02 0.  1.
    10030    2    1    2    0    0  0.00000000000E+00  0.00000000000E+00 -0.18686631801E+04  0.33667147375E+04  0.28005117466E+04 0.  0.
        1    1    3    3  502    0 -0.48496251290E+03 -0.13017097506E+04 -0.72239467346E+03  0.15657237872E+04  0.50400001928E-02 0. -1.
       -1    1    3    3    0  502  0.48496251290E+03  0.13017097506E+04 -0.11462685067E+04  0.18009909503E+04  0.50400001928E-02 0.  1.
</event>
<event>
 5   0  0.1263513E-06  0.2824790E+04  0.7818609E-02  0.8295613E-01
        1   -1    0    0  501    0  0.00000000000E+00  0.00000000000E+00  0.16911858110E+04  0.16911858110E+04  0.50400001928E-02 0. -1.
       -1   -1    0    0    0  501  0.00000000000E+00  0.00000000000E+00 -0.11795624107E+04  0.11795624107E+04  0.50400001928E-02 0.  1.
    10030    2    1    2    0    0  0.00000000000E+00  0.00000000000E+00  0.51162340034E+03  0.28707482217E+04  0.28247896999E+04 0.  0.
        3    1    3    3  502    0 -0.36449235352E+03  0.14504555571E+03  0.16347089465E+04  0.16811205307E+04  0.10100000352E+00 0. -1.
       -3    1    3    3    0  502  0.36449235352E+03 -0.14504555571E+03 -0.11230855461E+04  0.11896276910E+04  0.10100000352E+00 0.  1.
</event>
<event>
 5   0  0.3226364E-06  0.2793431E+04  0.7818609E-02  0.8305311E-01
        2   -1    0    0  501    0  0.00000000000E+00  0.00000000000E+00  0.16341629509E+04  0.16341629509E+04  0.25500000920E-02 0.  1.
       -2   -1    0    0    0  501  0.00000000000E+00  0.00000000000E+00 -0.11937699816E+04  0.11937699816E+04  0.25500000920E-02 0. -1.
    10030    2    1    2    0    0  0.00000000000E+00  0.00000000000E+00  0.44039296933E+03  0.28279329325E+04  0.27934313493E+04 0.  0.
        5    1    3    3  502    0 -0.88183145706E+03 -0.47977146356E+03  0.12032644480E+04  0.15670592834E+04  0.46999998093E+01 0.  1.
       -5    1    3    3    0  502  0.88183145706E+03  0.47977146356E+03 -0.76287147868E+03  0.12608736491E+04  0.46999998093E+01 0. -1.
</event>
<event>
 5   0  0.1220265E-06  0.2792339E+04  0.7818609E-02  0.8305651E-01
       -1   -1    0    0    0  501  0.00000000000E+00  0.00000000000E+00  0.79219771294E+03  0.79219771296E+03  0.50400001928E-02 0.  1.
        1   -1    0    0  501    0  0.00000000000E+00  0.00000000000E+00 -0.24606091394E+04  0.24606091394E+04  0.50400001928E-02 0. -1.
    10030    2    1    2    0    0  0.00000000000E+00  0.00000000000E+00 -0.16684114265E+04  0.32528068524E+04  0.27923387565E+04 0.  0.
        4    1    3    3  502    0 -0.68569036354E+03 -0.55758544650E+03  0.42486891067E+03  0.98060593969E+03  0.12699999809E+01 0.  1.
       -4    1    3    3    0  502  0.68569036354E+03  0.55758544650E+03 -0.20932803371E+04  0.22722009127E+04  0.12699999809E+01 0. -1.
</event>
<event>
 5   0  0.1235252E-06  0.2815703E+04  0.7818609E-02  0.8298410E-01
        1   -1    0    0  501    0  0.00000000000E+00  0.00000000000E+00  0.15041892083E+04  0.15041892084E+04  0.50400001928E-02 0. -1.
       -1   -1    0    0    0  501  0.00000000000E+00  0.00000000000E+00 -0.13176843102E+04  0.13176843102E+04  0.50400001928E-02 0.  1.
    10030    2    1    2    0    0  0.00000000000E+00  0.00000000000E+00  0.18650489814E+03  0.28218735186E+04  0.28157034783E+04 0.  0.
        1    1    3    3  502    0 -0.69509403884E+03  0.10741896894E+04 -0.49540788652E+03  0.13720306796E+04  0.50400001928E-02 0.  1.
       -1    1    3    3    0  502  0.69509403884E+03 -0.10741896894E+04  0.68191278466E+03  0.14498428390E+04  0.50400001928E-02 0. -1.
</event>
<event>
 5   0  0.1263513E-06  0.2816741E+04  0.7818609E-02  0.8298090E-01
       -1   -1    0    0    0  501  0.00000000000E+00  0.00000000000E+00  0.96296822511E+03  0.96296822513E+03  0.50400001928E-02 0. -1.
        1   -1    0    0  501    0  0.00000000000E+00  0.00000000000E+00 -0.20597850213E+04  0.20597850213E+04  0.50400001928E-02 0.  1.
    10030    2    1    2    0    0  0.00000000000E+00  0.00000000000E+00 -0.10968167962E+04  0.30227532464E+04  0.28167410432E+04 0.  0.
        3    1    3    3  502    0 -0.10820435960E+04  0.78640477610E+03 -0.10213894884E+04  0.16829994987E+04  0.10100000352E+00 0.  1.
       -3    1    3    3    0  502  0.10820435960E+04 -0.78640477610E+03 -0.75427307812E+02  0.13397537477E+04  0.10100000352E+00 0. -1.
</event>
<event>
 5   0  0.3226364E-06  0.2800222E+04  0.7818609E-02  0.8303199E-01
        2   -1    0    0  501    0  0.00000000000E+00  0.00000000000E+00  0.21979819678E+04  0.21979819678E+04  0.25500000920E-02 0. -1.
       -2   -1    0    0    0  501  0.00000000000E+00  0.00000000000E+00 -0.89186874340E+03  0.89186874341E+03  0.25500000920E-02 0.  1.
    10030    2    1    2    0    0  0.00000000000E+00  0.00000000000E+00  0.13061132244E+04  0.30898507112E+04  0.28002224309E+04 0.  0.
        5    1    3    3  502    0  0.10238834145E+04  0.50763859338E+03 -0.23946458091E+03  0.11676470201E+04  0.46999998093E+01 0.  1.
       -5    1    3    3    0  502 -0.10238834145E+04 -0.50763859338E+03  0.15455778053E+04  0.19222036911E+04  0.46999998093E+01 0. -1.
</event>
<event>
 5   0  0.3212679E-06  0.2797318E+04  0.7818609E-02  0.8304102E-01
       -2   -1    0    0    0  501  0.00000000000E+00  0.00000000000E+00  0.10172993876E+04  0.10172993876E+04  0.25500000920E-02 0.  1.
        2   -1    0    0  501    0  0.00000000000E+00  0.00000000000E+00 -0.19229804959E+04  0.19229804959E+04  0.25500000920E-02 0. -1.
    10030    2    1    2    0    0  0.00000000000E+00  0.00000000000E+00 -0.90568110830E+03  0.29402798836E+04  0.27973179161E+04 0.  0.
        4    1    3    3  502    0 -0.69819851931E+03  0.95598408531E+03  0.33011656435E+03  0.12289692033E+04  0.12699999809E+01 0.  1.
       -4    1    3    3    0  502  0.69819851931E+03 -0.95598408531E+03 -0.12357976726E+04  0.17113106803E+04  0.12699999809E+01 0. -1.
</event>
<event>
 5   0  0.1243055E-06  0.2797478E+04  0.7818609E-02  0.8304052E-01
        1   -1    0    0  501    0  0.00000000000E+00  0.00000000000E+00  0.11342241112E+04  0.11342241112E+04  0.50400001928E-02 0.  1.
       -1   -1    0    0    0  501  0.00000000000E+00  0.00000000000E+00 -0.17249414616E+04  0.17249414616E+04  0.50400001928E-02 0. -1.
    10030    2    1    2    0    0  0.00000000000E+00  0.00000000000E+00 -0.59071735042E+03  0.28591655728E+04  0.27974775754E+04 0.  0.
        5    1    3    3  502    0 -0.10489296927E+04  0.52554566747E+03 -0.10737273058E+04  0.15903974869E+04  0.46999998093E+01 0. -1.
       -5    1    3    3    0  502  0.10489296927E+04 -0.52554566747E+03  0.48300995542E+03  0.12687680860E+04  0.46999998093E+01 0.  1.
</event>
<event>
 5   0  0.3212679E-06  0.2783112E+04  0.7818609E-02  0.8308531E-01
       -2   -1    0    0    0  501  0.00000000000E+00  0.00000000000E+00  0.17714427246E+04  0.17714427246E+04  0.25500000920E-02 0. -1.
        2   -1    0    0  501    0  0.00000000000E+00  0.00000000000E+00 -0.10931358326E+04  0.10931358326E+04  0.25500000920E-02 0.  1.
    10030    2    1    2    0    0  0.00000000000E+00  0.00000000000E+00  0.67830689194E+03  0.28645785572E+04  0.27831115807E+04 0.  0.
        4    1    3    3  502    0  0.13002137393E+04  0.49408881262E+03  0.38216644774E+03  0.14424743774E+04  0.12699999809E+01 0.  1.
       -4    1    3    3    0  502 -0.13002137393E+04 -0.49408881262E+03  0.29614044420E+03  0.14221041798E+04  0.12699999809E+01 0. -1.
</event>
<event>
 5   0  0.1243055E-06  0.2829365E+04  0.7818609E-02  0.8294209E-01
       -1   -1    0    0    0  501  0.00000000000E+00  0.00000000000E+00  0.11006999011E+04  0.11006999011E+04  0.50400001928E-02 0. -1.
        1   -1    0    0  501    0  0.00000000000E+00  0.00000000000E+00 -0.18182308840E+04  0.18182308840E+04  0.50400001928E-02 0.  1.
    10030    2    1    2    0    0  0.00000000000E+00  0.00000000000E+00 -0.71753098288E+03  0.29189307852E+04  0.28293649848E+04 0.  0.
        5    1    3    3  502    0  0.24545994406E+03  0.58384117313E+03  0.94626211262E+03  0.11386637675E+04  0.46999998093E+01 0. -1.
       -5    1    3    3    0  502 -0.24545994406E+03 -0.58384117313E+03 -0.16637930955E+04  0.17802670177E+04  0.46999998093E+01 0.  1.
</event>
<event>
 5   0  0.3345919E-06  0.2733507E+04  0.7818609E-02  0.8324214E-01
       -2   -1    0    0    0  501  0.00000000000E+00  0.00000000000E+00  0.14960020828E+04  0.14960020828E+04  0.25500000920E-02 0. -1.
        2   -1    0    0  501    0  0.00000000000E+00  0.00000000000E+00 -0.12486714507E+04  0.12486714507E+04  0.25500000920E-02 0.  1.
    10030    2    1    2    0    0  0.00000000000E+00  0.00000000000E+00  0.24733063206E+03  0.27446735335E+04  0.27335069717E+04 0.  0.
        2    1    3    3  502    0  0.95254177315E+03  0.62305446646E+03  0.88338184588E+03  0.14407970653E+04  0.25500000920E-02 0. -1.
       -2    1    3    3    0  502 -0.95254177315E+03 -0.62305446646E+03 -0.63605121382E+03  0.13038764682E+04  0.25500000920E-02 0.  1.
</event>
<event>
 5   0  0.3162695E-06  0.2832068E+04  0.7818609E-02  0.8293381E-01
       -2   -1    0    0    0  501  0.00000000000E+00  0.00000000000E+00  0.10069819267E+04  0.10069819267E+04  0.25500000920E-02 0.  1.
        2   -1    0    0  501    0  0.00000000000E+00  0.00000000000E+00 -0.19912494554E+04  0.19912494554E+04  0.25500000920E-02 0. -1.
    10030    2    1    2    0    0  0.00000000000E+00  0.00000000000E+00 -0.98426752871E+03  0.29982313822E+04  0.28320679464E+04 0.  0.
        1    1    3    3  502    0  0.11977683698E+04  0.82683745739E+01 -0.12917184643E+04  0.17616055247E+04  0.50400001928E-02 0. -1.
       -1    1    3    3    0  502 -0.11977683698E+04 -0.82683745739E+01  0.30745093558E+03  0.12366258575E+04  0.50400001928E-02 0.  1.
</event>
<event>
 5   0  0.1220265E-06  0.2794990E+04  0.7818609E-02  0.8304825E-01
        1   -1    0    0  501    0  0.00000000000E+00  0.00000000000E+00  0.25861977428E+04  0.25861977428E+04  0.50400001928E-02 0. -1.
       -1   -1    0    0    0  501  0.00000000000E+00  0.00000000000E+00 -0.75515975923E+03  0.75515975925E+03  0.50400001928E-02 0.  1.
    10030    2    1    2    0    0  0.00000000000E+00  0.00000000000E+00  0.18310379835E+04  0.33413575020E+04  0.27949901358E+04 0.  0.
        4    1    3    3  502    0  0.78526741527E+03  0.11272489545E+04  0.60919642511E+03  0.15028163614E+04  0.12699999809E+01 0. -1.
       -4    1    3    3    0  502 -0.78526741527E+03 -0.11272489545E+04  0.12218415584E+04  0.18385411406E+04  0.12699999809E+01 0.  1.
</event>
<event>
 5   0  0.3162695E-06  0.2842462E+04  0.7818609E-02  0.8290205E-01
        2   -1    0    0  501    0  0.00000000000E+00  0.00000000000E+00  0.94079586027E+03  0.94079586028E+03  0.25500000920E-02 0. -1.
       -2   -1    0    0    0  501  0.00000000000E+00  0.00000000000E+00 -0.21470098508E+04  0.21470098508E+04  0.25500000920E-02 0.  1.
    10030    2    1    2    0    0  0.00000000000E+00  0.00000000000E+00 -0.12062139906E+04  0.30878057111E+04  0.28424622985E+04 0.  0.
        1    1    3    3  502    0 -0.11423943810E+04  0.30430026459E+03 -0.14600111806E+04  0.18786421214E+04  0.50400001928E-02 0.  1.
       -1    1    3    3    0  502  0.11423943810E+04 -0.30430026459E+03  0.25379719006E+03  0.12091635897E+04  0.50400001928E-02 0. -1.
</event>
<event>
 5   0  0.1246044E-06  0.2800433E+04  0.7818609E-02  0.8303134E-01
       -1   -1    0    0    0  501  0.00000000000E+00  0.00000000000E+00  0.14601114353E+04  0.14601114353E+04  0.50400001928E-02 0.  1.
        1   -1    0    0  501    0  0.00000000000E+00  0.00000000000E+00 -0.13427787637E+04  0.13427787637E+04  0.50400001928E-02 0. -1.
    10030    2    1    2    0    0  0.00000000000E+00  0.00000000000E+00  0.11733267158E+03  0.28028901991E+04  0.28004332722E+04 0.  0.
        2    1    3    3  502    0 -0.73701978731E+03  0.51719057735E+03  0.11319514770E+04  0.14463742277E+04  0.25500000920E-02 0.  1.
       -2    1    3    3    0  502  0.73701978731E+03 -0.51719057735E+03 -0.10146188055E+04  0.13565159714E+04  0.25500000920E-02 0. -1.
</event>
<event>
 5   0  0.3212679E-06  0.2800663E+04  0.7818609E-02  0.8303063E-01
        2   -1    0    0  501    0  0.00000000000E+00  0.00000000000E+00  0.12086660508E+04  0.12086660508E+04  0.25500000920E-02 0.  1.
       -2   -1    0    0    0  501  0.00000000000E+00  0.00000000000E+00 -0.16223901875E+04  0.16223901875E+04  0.25500000920E-02 0. -1.
    10030    2    1    2    0    0  0.00000000000E+00  0.00000000000E+00 -0.41372413663E+03  0.28310562383E+04  0.28006627364E+04 0.  0.
        4    1    3    3  502    0 -0.10888170253E+04 -0.68828678049E+02  0.68054095375E+03  0.12858450545E+04  0.12699999809E+01 0.  1.
       -4    1    3    3    0  502  0.10888170253E+04  0.68828678049E+02 -0.10942650904E+04  0.15452111838E+04  0.12699999809E+01 0. -1.
</event>
<event>
 5   0  0.3167616E-06  0.2798579E+04  0.7818609E-02  0.8303710E-01
       -2   -1    0    0    0  501  0.00000000000E+00  0.00000000000E+00  0.97482675253E+03  0.97482675254E+03  0.25500000920E-02 0.  1.
        2   -1    0    0  501    0  0.00000000000E+00  0.00000000000E+00 -0.20085734856E+04  0.20085734856E+04  0.25500000920E-02 0. -1.
    10030    2    1    2    0    0  0.00000000000E+00  0.00000000000E+00 -0.10337467331E+04  0.29834002381E+04  0.27985790453E+04 0.  0.
        3    1    3    3  502    0  0.13619224857E+04  0.43288408362E+02 -0.17757003189E+03  0.13741316785E+04  0.10100000352E+00 0.  1.
       -3    1    3    3    0  502 -0.13619224857E+04 -0.43288408362E+02 -0.85617670117E+03  0.16092685597E+04  0.10100000352E+00 0. -1.
</event>
<event>
 5   0  0.1246044E-06  0.2798292E+04  0.7818609E-02  0.8303799E-01
       -1   -1    0    0    0  501  0.00000000000E+00  0.00000000000E+00  0.14983861727E+04  0.14983861727E+04  0.50400001928E-02 0. -1.
        1   -1    0    0  501    0  0.00000000000E+00  0.00000000000E+00 -0.13064786663E+04  0.13064786663E+04  0.50400001928E-02 0.  1.
    10030    2    1    2    0    0  0.00000000000E+00  0.00000000000E+00  0.19190750637E+03  0.28048648390E+04  0.27982920281E+04 0.  0.
        2    1    3    3  502    0 -0.27572871778E+03 -0.52153712145E+03 -0.11757193722E+04  0.13154251545E+04  0.25500000920E-02 0.  1.
       -2    1    3    3    0  502  0.27572871778E+03  0.52153712145E+03  0.13676268786E+04  0.14894396845E+04  0.25500000920E-02 0. -1.
</event>
<event>
 5   0  0.1220265E-06  0.2810693E+04  0.7818609E-02  0.8299956E-01
        1   -1    0    0  501    0  0.00000000000E+00  0.00000000000E+00  0.18147088689E+04  0.18147088689E+04  0.50400001928E-02 0.  1.
       -1   -1    0    0    0  501  0.00000000000E+00  0.00000000000E+00 -0.10883282190E+04  0.10883282190E+04  0.50400001928E-02 0. -1.
    10030    2    1    2    0    0  0.00000000000E+00  0.00000000000E+00  0.72638064986E+03  0.29030370879E+04  0.28106930613E+04 0.  0.
        4    1    3    3  502    0 -0.52470677594E+03  0.86511427117E+03  0.13705583845E+04  0.17035761800E+04  0.12699999809E+01 0.  1.
       -4    1    3    3    0  502  0.52470677594E+03 -0.86511427117E+03 -0.64417773460E+03  0.11994609079E+04  0.12699999809E+01 0. -1.
</event>
<event>
 5   0  0.1263513E-06  0.2791120E+04  0.7818609E-02  0.8306030E-01
       -1   -1    0    0    0  501  0.00000000000E+00  0.00000000000E+00  0.80212699683E+03  0.80212699685E+03  0.50400001928E-02 0.  1.
        1   -1    0    0  501    0  0.00000000000E+00  0.00000000000E+00 -0.24280294891E+04  0.24280294891E+04  0.50400001928E-02 0. -1.
    10030    2    1    2    0    0  0.00000000000E+00  0.00000000000E+00 -0.16259024923E+04  0.32301564860E+04  0.27911202069E+04 0.  0.
        3    1    3    3  502    0 -0.69236704718E+03 -0.70609293115E+03  0.32664816734E+03  0.10414597404E+04  0.10100000352E+00 0.  1.
       -3    1    3    3    0  502  0.69236704718E+03  0.70609293115E+03 -0.19525506596E+04  0.21886967456E+04  0.10100000352E+00 0. -1.
</event>
<event>
 5   0  0.1263513E-06  0.2788500E+04  0.7818609E-02  0.8306848E-01
       -1   -1    0    0    0  501  0.00000000000E+00  0.00000000000E+00  0.14469343717E+04  0.14469343717E+04  0.50400001928E-02 0. -1.
        1   -1    0    0  501    0  0.00000000000E+00  0.00000000000E+00 -0.13434839458E+04  0.13434839458E+04  0.50400001928E-02 0.  1.
    10030    2    1    2    0    0  0.00000000000E+00  0.00000000000E+00  0.10345042590E+03  0.27904183175E+04  0.27885000262E+04 0.  0.
        3    1    3    3  502    0  0.94266468586E+03 -0.78473447114E+03  0.71513541629E+03  0.14198040618E+04  0.10100000352E+00 0. -1.
       -3    1    3    3    0  502 -0.94266468586E+03  0.78473447114E+03 -0.61168499040E+03  0.13706142557E+04  0.10100000352E+00 0.  1.
</event>
<event>
 5   0  0.3167616E-06  0.2749850E+04  0.7818609E-02  0.8319009E-01
        2   -1    0    0  501    0  0.00000000000E+00  0.00000000000E+00  0.24650471732E+04  0.24650471732E+04  0.25500000920E-02 0. -1.
       -2   -1    0    0    0  501  0.00000000000E+00  0.00000000000E+00 -0.76688938077E+03  0.76688938077E+03  0.25500000920E-02 0.  1.
    10030    2    1    2    0    0  0.00000000000E+00  0.00000000000E+00  0.16981577924E+04  0.32319365540E+04  0.27498498143E+04 0.  0.
        3    1    3    3  502    0  0.61739358560E+03  0.58612693051E+03 -0.41987849470E+03  0.94921945762E+03  0.10100000352E+00 0.  1.
       -3    1    3    3    0  502 -0.61739358560E+03 -0.58612693051E+03  0.21180362871E+04  0.22827170964E+04  0.10100000352E+00 0. -1.
</event>
<event>
 5   0  0.3226364E-06  0.2793461E+04  0.7818609E-02  0.8305301E-01
        2   -1    0    0  501    0  0.00000000000E+00  0.00000000000E+00  0.23842171223E+04  0.23842171223E+04  0.25500000920E-02 0. -1.
       -2   -1    0    0    0  501  0.00000000000E+00  0.00000000000E+00 -0.81823782127E+03  0.81823782128E+03  0.25500000920E-02 0.  1.
    10030    2    1    2    0    0  0.00000000000E+00  0.00000000000E+00  0.15659793011E+04  0.32024549436E+04  0.27934613823E+04 0.  0.
        5    1    3    3  502    0 -0.37865008507E+03 -0.13187236086E+04  0.48310576757E+03  0.14545862351E+04  0.46999998093E+01 0.  1.
       -5    1    3    3    0  502  0.37865008507E+03  0.13187236086E+04  0.10828735335E+04  0.17478687085E+04  0.46999998093E+01 0. -1.
</event>
<event>
 5   0  0.3345919E-06  0.2813108E+04  0.7818609E-02  0.8299210E-01
        2   -1    0    0  501    0  0.00000000000E+00  0.00000000000E+00  0.17822180858E+04  0.17822180858E+04  0.25500000920E-02 0.  1.
       -2   -1    0    0    0  501  0.00000000000E+00  0.00000000000E+00 -0.11100741366E+04  0.11100741366E+04  0.25500000920E-02 0. -1.
    10030    2    1    2    0    0  0.00000000000E+00  0.00000000000E+00  0.67214394925E+03  0.28922922224E+04  0.28131080341E+04 0.  0.
        2    1    3    3  502    0  0.38411613527E+03 -0.15376817440E+03  0.17182353787E+04  0.17673490525E+04  0.25500000920E-02 0.  1.
       -2    1    3    3    0  502 -0.38411613527E+03  0.15376817440E+03 -0.10460914294E+04  0.11249431699E+04  0.25500000920E-02 0. -1.
</event>
<event>
 5   0  0.1263513E-06  0.2783290E+04  0.7818609E-02  0.8308475E-01
        1   -1    0    0  501    0  0.00000000000E+00  0.00000000000E+00  0.23184901929E+04  0.23184901929E+04  0.50400001928E-02 0. -1.
       -1   -1    0    0    0  501  0.00000000000E+00  0.00000000000E+00 -0.83531740095E+03  0.83531740096E+03  0.50400001928E-02 0.  1.
    10030    2    1    2    0    0  0.00000000000E+00  0.00000000000E+00  0.14831727919E+04  0.31538075938E+04  0.27832895660E+04 0.  0.
        3    1    3    3  502    0  0.69844297734E+03 -0.94390783010E+03  0.15879389867E+04  0.19749265353E+04  0.10100000352E+00 0. -1.
       -3    1    3    3    0  502 -0.69844297734E+03  0.94390783010E+03 -0.10476619476E+03  0.11788810585E+04  0.10100000352E+00 0.  1.
</event>
<event>
 5   0  0.3345919E-06  0.2744654E+04  0.7818609E-02  0.8320660E-01
       -2   -1    0    0    0  501  0.00000000000E+00  0.00000000000E+00  0.11883950960E+04  0.11883950960E+04  0.25500000920E-02 0. -1.
        2   -1    0    0  501    0  0.00000000000E+00  0.00000000000E+00 -0.15847271046E+04  0.15847271046E+04  0.25500000920E-02 0.  1.
    10030    2    1    2    0    0  0.00000000000E+00  0.00000000000E+00 -0.39633200862E+03  0.27731222006E+04  0.27446543823E+04 0.  0.
        2    1    3    3  502    0 -0.11949154221E+04 -0.33222847122E-01  0.48371094995E+03  0.12891078893E+04  0.25500000920E-02 0. -1.
       -2    1    3    3    0  502  0.11949154221E+04  0.33222847122E-01 -0.88004295857E+03  0.14840143113E+04  0.25500000920E-02 0.  1.
</event>
<event>
 5   0  0.1235252E-06  0.2793935E+04  0.7818609E-02  0.8305154E-01
       -1   -1    0    0    0  501  0.00000000000E+00  0.00000000000E+00  0.94748521660E+03  0.94748521662E+03  0.50400001928E-02 0.  1.
        1   -1    0    0  501    0  0.00000000000E+00  0.00000000000E+00 -0.20596826303E+04  0.20596826303E+04  0.50400001928E-02 0. -1.
    10030    2    1    2    0    0  0.00000000000E+00  0.00000000000E+00 -0.11121974137E+04  0.30071678469E+04  0.27939354632E+04 0.  0.
        1    1    3    3  502    0 -0.13645523010E+04 -0.21977601331E+03 -0.33759158073E+03  0.14227693255E+04  0.50400001928E-02 0. -1.
       -1    1    3    3    0  502  0.13645523010E+04  0.21977601331E+03 -0.77460583297E+03  0.15843985214E+04  0.50400001928E-02 0.  1.
</event>
<event>
 5   0  0.1243055E-06  0.2798204E+04  0.7818609E-02  0.8303826E-01
       -1   -1    0    0    0  501  0.00000000000E+00  0.00000000000E+00  0.13930479393E+04  0.13930479393E+04  0.50400001928E-02 0.  1.
        1   -1    0    0  501    0  0.00000000000E+00  0.00000000000E+00 -0.14051826145E+04  0.14051826145E+04  0.50400001928E-02 0. -1.
    10030    2    1    2    0    0  0.00000000000E+00  0.00000000000E+00 -0.12134675167E+02  0.27982305538E+04  0.27982042423E+04 0.  0.
        5    1    3    3  502    0 -0.89636210311E+03 -0.22830062612E+03 -0.10557811946E+04  0.14036674167E+04  0.46999998093E+01 0. -1.
       -5    1    3    3    0  502  0.89636210311E+03  0.22830062612E+03  0.10436465194E+04  0.13945631371E+04  0.46999998093E+01 0.  1.
</event>
<event>
 5   0  0.3212679E-06  0.2804974E+04  0.7818609E-02  0.8301726E-01
        2   -1    0    0  501    0  0.00000000000E+00  0.00000000000E+00  0.11976874773E+04  0.11976874773E+04  0.25500000920E-02 0.  1.
       -2   -1    0    0    0  501  0.00000000000E+00  0.00000000000E+00 -0.16423060988E+04  0.16423060988E+04  0.25500000920E-02 0. -1.
    10030    2    1    2    0    0  0.00000000000E+00  0.00000000000E+00 -0.44461862151E+03  0.28399935762E+04  0.28049737600E+04 0.  0.
        4    1    3    3  502    0  0.63680616733E+02 -0.83919647284E+03  0.91359852919E+03  0.12421633654E+04  0.12699999809E+01 0.  1.
       -4    1    3    3    0  502 -0.63680616733E+02  0.83919647284E+03 -0.13582171507E+04  0.15978302107E+04  0.12699999809E+01 0. -1.
</event>
<event>
 5   0  0.1263513E-06  0.2799429E+04  0.7818609E-02  0.8303446E-01
       -1   -1    0    0    0  501  0.00000000000E+00  0.00000000000E+00  0.88698546441E+03  0.88698546442E+03  0.50400001928E-02 0. -1.
        1   -1    0    0  501    0  0.00000000000E+00  0.00000000000E+00 -0.22088304479E+04  0.22088304479E+04  0.50400001928E-02 0.  1.
    10030    2    1    2    0    0  0.00000000000E+00  0.00000000000E+00 -0.13218449835E+04  0.30958159123E+04  0.27994288708E+04 0.  0.
        3    1    3    3  502    0 -0.12637443950E+04  0.17106713254E+03 -0.22873733513E+02  0.12754752359E+04  0.10100000352E+00 0. -1.
       -3    1    3    3    0  502  0.12637443950E+04 -0.17106713254E+03 -0.12989712500E+04  0.18203406764E+04  0.10100000352E+00 0.  1.
</event>
<event>
 5   0  0.1235252E-06  0.2781898E+04  0.7818609E-02  0.8308910E-01
        1   -1    0    0  501    0  0.00000000000E+00  0.00000000000E+00  0.14437523764E+04  0.14437523764E+04  0.50400001928E-02 0.  1.
       -1   -1    0    0    0  501  0.00000000000E+00  0.00000000000E+00 -0.13400766010E+04  0.13400766010E+04  0.50400001928E-02 0. -1.
    10030    2    1    2    0    0  0.00000000000E+00  0.00000000000E+00  0.10367577543E+03  0.27838289773E+04  0.27818977531E+04 0.  0.
        1    1    3    3  502    0  0.11169735087E+04 -0.62824810870E+03  0.59296578933E+03  0.14120672550E+04  0.50400001928E-02 0. -1.
       -1    1    3    3    0  502 -0.11169735087E+04  0.62824810870E+03 -0.48929001391E+03  0.13717617224E+04  0.50400001928E-02 0.  1.
</event>
<event>
 5   0  0.1246044E-06  0.2787672E+04  0.7818609E-02  0.8307106E-01
       -1   -1    0    0    0  501  0.00000000000E+00  0.00000000000E+00  0.12507565196E+04  0.12507565196E+04  0.50400001928E-02 0.  1.
        1   -1    0    0  501    0  0.00000000000E+00  0.00000000000E+00 -0.15532824661E+04  0.15532824661E+04  0.50400001928E-02 0. -1.
    10030    2    1    2    0    0  0.00000000000E+00  0.00000000000E+00 -0.30252594651E+03  0.28040389857E+04  0.27876715525E+04 0.  0.
        2    1    3    3  502    0  0.10563826520E+04  0.89329833528E+03 -0.32211888659E+03  0.14204530264E+04  0.25500000920E-02 0. -1.
       -2    1    3    3    0  502 -0.10563826520E+04 -0.89329833528E+03  0.19592940072E+02  0.13835859592E+04  0.25500000920E-02 0.  1.
</event>
<event>
 5   0  0.1220265E-06  0.2787457E+04  0.7818609E-02  0.8307173E-01
       -1   -1    0    0    0  501  0.00000000000E+00  0.00000000000E+00  0.13874525683E+04  0.13874525683E+04  0.50400001928E-02 0.  1.
        1   -1    0    0  501    0  0.00000000000E+00  0.00000000000E+00 -0.14000323345E+04  0.14000323345E+04  0.50400001928E-02 0. -1.
    10030    2    1    2    0    0  0.00000000000E+00  0.00000000000E+00 -0.12579766221E+02  0.27874849028E+04  0.27874565168E+04 0.  0.
        4    1    3    3  502    0  0.68058227974E+03  0.80593943406E+03 -0.91720323463E+03  0.13978533533E+04  0.12699999809E+01 0. -1.
       -4    1    3    3    0  502 -0.68058227974E+03 -0.80593943406E+03  0.90462346840E+03  0.13896315495E+04  0.12699999809E+01 0.  1.
</event>
<event>
 5   0  0.1065675E-06  0.2793263E+04  0.7818609E-02  0.8305363E-01
       -3   -1    0    0    0  501  0.00000000000E+00  0.00000000000E+00  0.79540277124E+03  0.79540277765E+03  0.10100000352E+00 0.  1.
        3   -1    0    0  501    0  0.00000000000E+00  0.00000000000E+00 -0.24523169733E+04  0.24523169753E+04  0.10100000352E+00 0. -1.
    10030    2    1    2    0    0  0.00000000000E+00  0.00000000000E+00 -0.16569142020E+04  0.32477197530E+04  0.27932631314E+04 0.  0.
        1    1    3    3  502    0 -0.82374069398E+03 -0.17681178031E+03  0.46666911266E+03  0.96311536033E+03  0.50400001928E-02 0.  1.
       -1    1    3    3    0  502  0.82374069398E+03  0.17681178031E+03 -0.21235833147E+04  0.22846043927E+04  0.50400001928E-02 0. -1.
</event>
<event>
 5   0  0.3162695E-06  0.2668310E+04  0.7818609E-02  0.8345361E-01
       -2   -1    0    0    0  501  0.00000000000E+00  0.00000000000E+00  0.71313200539E+03  0.71313200539E+03  0.25500000920E-02 0. -1.
        2   -1    0    0  501    0  0.00000000000E+00  0.00000000000E+00 -0.24959894162E+04  0.24959894162E+04  0.25500000920E-02 0.  1.
    10030    2    1    2    0    0  0.00000000000E+00  0.00000000000E+00 -0.17828574108E+04  0.32091214216E+04  0.26683102802E+04 0.  0.
        1    1    3    3  502    0 -0.26853357138E+03  0.11055131848E+04 -0.17296023230E+04  0.20702159009E+04  0.50400001928E-02 0.  1.
       -1    1    3    3    0  502  0.26853357138E+03 -0.11055131848E+04 -0.53255087794E+02  0.11389055207E+04  0.50400001928E-02 0. -1.
</event>
<event>
 5   0  0.1246044E-06  0.2801432E+04  0.7818609E-02  0.8302824E-01
        1   -1    0    0  501    0  0.00000000000E+00  0.00000000000E+00  0.10143219821E+04  0.10143219821E+04  0.50400001928E-02 0.  1.
       -1   -1    0    0    0  501  0.00000000000E+00  0.00000000000E+00 -0.19343020644E+04  0.19343020644E+04  0.50400001928E-02 0. -1.
    10030    2    1    2    0    0  0.00000000000E+00  0.00000000000E+00 -0.91998008229E+03  0.29486240466E+04  0.28014318511E+04 0.  0.
        2    1    3    3  502    0 -0.44289756847E+03  0.80896180860E+02  0.93608775532E+03  0.10387313098E+04  0.25500000920E-02 0.  1.
       -2    1    3    3    0  502  0.44289756847E+03 -0.80896180860E+02 -0.18560678376E+04  0.19098927368E+04  0.25500000920E-02 0. -1.
</event>
<event>
 5   0  0.3167616E-06  0.2800130E+04  0.7818609E-02  0.8303228E-01
       -2   -1    0    0    0  501  0.00000000000E+00  0.00000000000E+00  0.61700023891E+03  0.61700023891E+03  0.25500000920E-02 0. -1.
        2   -1    0    0  501    0  0.00000000000E+00  0.00000000000E+00 -0.31769541030E+04  0.31769541030E+04  0.25500000920E-02 0.  1.
    10030    2    1    2    0    0  0.00000000000E+00  0.00000000000E+00 -0.25599538641E+04  0.37939543419E+04  0.28001295974E+04 0.  0.
        3    1    3    3  502    0 -0.13656259673E+04  0.17410699673E+03 -0.93471418850E+03  0.16640126662E+04  0.10100000352E+00 0.  1.
       -3    1    3    3    0  502  0.13656259673E+04 -0.17410699673E+03 -0.16252396756E+04  0.21299416758E+04  0.10100000352E+00 0. -1.
</event>
<event>
 5   0  0.1220265E-06  0.2816926E+04  0.7818609E-02  0.8298033E-01
       -1   -1    0    0    0  501  0.00000000000E+00  0.00000000000E+00  0.20383907126E+04  0.20383907126E+04  0.50400001928E-02 0.  1.
        1   -1    0    0  501    0  0.00000000000E+00  0.00000000000E+00 -0.97320323035E+03  0.97320323036E+03  0.50400001928E-02 0. -1.
    10030    2    1    2    0    0  0.00000000000E+00  0.00000000000E+00  0.10651874823E+04  0.30115939430E+04  0.28169262868E+04 0.  0.
        4    1    3    3  502    0  0.73464479458E+02 -0.91339204204E+03 -0.61094276349E+03  0.11013331582E+04  0.12699999809E+01 0. -1.
       -4    1    3    3    0  502 -0.73464479458E+02  0.91339204204E+03  0.16761302457E+04  0.19102607848E+04  0.12699999809E+01 0.  1.
</event>
<event>
 5   0  0.3162695E-06  0.2798906E+04  0.7818609E-02  0.8303608E-01
        2   -1    0    0  501    0  0.00000000000E+00  0.00000000000E+00  0.11074005870E+04  0.11074005870E+04  0.25500000920E-02 0. -1.
       -2   -1    0    0    0  501  0.00000000000E+00  0.00000000000E+00 -0.17685273922E+04  0.17685273922E+04  0.25500000920E-02 0.  1.
    10030    2    1    2    0    0  0.00000000000E+00  0.00000000000E+00 -0.66112680522E+03  0.28759279792E+04  0.27989056949E+04 0.  0.
        1    1    3    3  502    0 -0.79014630976E+03 -0.91567318157E+03 -0.10539830663E+04  0.16042658353E+04  0.50400001928E-02 0.  1.
       -1    1    3    3    0  502  0.79014630976E+03  0.91567318157E+03  0.39285626112E+03  0.12716621439E+04  0.50400001928E-02 0. -1.
</event>
<event>
 5   0  0.1263513E-06  0.2819259E+04  0.7818609E-02  0.8297314E-01
        1   -1    0    0  501    0  0.00000000000E+00  0.00000000000E+00  0.22750255136E+04  0.22750255136E+04  0.50400001928E-02 0.  1.
       -1   -1    0    0    0  501  0.00000000000E+00  0.00000000000E+00 -0.87342136779E+03  0.87342136780E+03  0.50400001928E-02 0. -1.
    10030    2    1    2    0    0  0.00000000000E+00  0.00000000000E+00  0.14016041458E+04  0.31484468814E+04  0.28192594034E+04 0.  0.
        3    1    3    3  502    0  0.44049399747E+03  0.30818086398E+03 -0.75444251168E+03  0.92638756488E+03  0.10100000352E+00 0. -1.
       -3    1    3    3    0  502 -0.44049399747E+03 -0.30818086398E+03  0.21560466575E+04  0.22220593165E+04  0.10100000352E+00 0.  1.
</event>
<event>
 5   0  0.3212679E-06  0.2804506E+04  0.7818609E-02  0.8301871E-01
        2   -1    0    0  501    0  0.00000000000E+00  0.00000000000E+00  0.18557794290E+04  0.18557794290E+04  0.25500000920E-02 0.  1.
       -2   -1    0    0    0  501  0.00000000000E+00  0.00000000000E+00 -0.10595617644E+04  0.10595617644E+04  0.25500000920E-02 0. -1.
    10030    2    1    2    0    0  0.00000000000E+00  0.00000000000E+00  0.79621766465E+03  0.29153411934E+04  0.28045056078E+04 0.  0.
        4    1    3    3  502    0 -0.59046379669E+03  0.84854046744E+03 -0.58677469756E+03  0.11886860724E+04  0.12699999809E+01 0. -1.
       -4    1    3    3    0  502  0.59046379669E+03 -0.84854046744E+03  0.13829923622E+04  0.17266551210E+04  0.12699999809E+01 0.  1.
</event>
<event>
 5   0  0.3212679E-06  0.2799442E+04  0.7818609E-02  0.8303442E-01
        2   -1    0    0  501    0  0.00000000000E+00  0.00000000000E+00  0.12895066111E+04  0.12895066111E+04  0.25500000920E-02 0. -1.
       -2   -1    0    0    0  501  0.00000000000E+00  0.00000000000E+00 -0.15193556693E+04  0.15193556693E+04  0.25500000920E-02 0.  1.
    10030    2    1    2    0    0  0.00000000000E+00  0.00000000000E+00 -0.22984905824E+03  0.28088622804E+04  0.27994422160E+04 0.  0.
        4    1    3    3  502    0 -0.10737437315E+04 -0.76747330313E+03 -0.58262252856E+03  0.14427028438E+04  0.12699999809E+01 0.  1.
       -4    1    3    3    0  502  0.10737437315E+04  0.76747330313E+03  0.35277347032E+03  0.13661594366E+04  0.12699999809E+01 0. -1.
</event>
<event>
 5   0  0.3226364E-06  0.2800738E+04  0.7818609E-02  0.8303039E-01
        2   -1    0    0  501    0  0.00000000000E+00  0.00000000000E+00  0.11173149574E+04  0.11173149574E+04  0.25500000920E-02 0. -1.
       -2   -1    0    0    0  501  0.00000000000E+00  0.00000000000E+00 -0.17551302350E+04  0.17551302350E+04  0.25500000920E-02 0.  1.
    10030    2    1    2    0    0  0.00000000000E+00  0.00000000000E+00 -0.63781527760E+03  0.28724451924E+04  0.28007379483E+04 0.  0.
        5    1    3    3  502    0  0.36822160921E+03  0.18853151996E+03 -0.16910248719E+04  0.17408958886E+04  0.46999998093E+01 0.  1.
       -5    1    3    3    0  502 -0.36822160921E+03 -0.18853151996E+03  0.10532095943E+04  0.11315493038E+04  0.46999998093E+01 0. -1.
</event>
<event>
 5   0  0.3345919E-06  0.2794478E+04  0.7818609E-02  0.8304985E-01
       -2   -1    0    0    0  501  0.00000000000E+00  0.00000000000E+00  0.11792608786E+04  0.11792608786E+04  0.25500000920E-02 0.  1.
        2   -1    0    0  501    0  0.00000000000E+00  0.00000000000E+00 -0.16555090161E+04  0.16555090161E+04  0.25500000920E-02 0. -1.
    10030    2    1    2    0    0  0.00000000000E+00  0.00000000000E+00 -0.47624813748E+03  0.28347698948E+04  0.27944781387E+04 0.  0.
        2    1    3    3  502    0  0.72541613237E+02 -0.13791531216E+04 -0.23049679156E+02  0.13812519344E+04  0.25500000920E-02 0.  1.
       -2    1    3    3    0  502 -0.72541613237E+02  0.13791531216E+04 -0.45319845833E+03  0.14535179604E+04  0.25500000920E-02 0. -1.
</event>
<event>
 5   0  0.3167616E-06  0.2791455E+04  0.7818609E-02  0.8305926E-01
        2   -1    0    0  501    0  0.00000000000E+00  0.00000000000E+00  0.19799794502E+04  0.19799794502E+04  0.25500000920E-02 0.  1.
       -2   -1    0    0    0  501  0.00000000000E+00  0.00000000000E+00 -0.98387679849E+03  0.98387679849E+03  0.25500000920E-02 0. -1.
    10030    2    1    2    0    0  0.00000000000E+00  0.00000000000E+00  0.99610265171E+03  0.29638562487E+04  0.27914554215E+04 0.  0.
        3    1    3    3  502    0  0.39655753380E+02  0.13717539907E+04  0.22782502817E+03  0.13911095727E+04  0.10100000352E+00 0.  1.
       -3    1    3    3    0  502 -0.39655753380E+02 -0.13717539907E+04  0.76827762354E+03  0.15727466760E+04  0.10100000352E+00 0. -1.
</event>
<event>
 5   0  0.3167616E-06  0.2799847E+04  0.7818609E-02  0.8303316E-01
        2   -1    0    0  501    0  0.00000000000E+00  0.00000000000E+00  0.10926186357E+04  0.10926186357E+04  0.25500000920E-02 0. -1.
       -2   -1    0    0    0  501  0.00000000000E+00  0.00000000000E+00 -0.17936598763E+04  0.17936598763E+04  0.25500000920E-02 0.  1.
    10030    2    1    2    0    0  0.00000000000E+00  0.00000000000E+00 -0.70104124060E+03  0.28862785120E+04  0.27998472865E+04 0.  0.
        3    1    3    3  502    0 -0.73551393021E+03 -0.73966268258E+03  0.61195237657E+03  0.12093665064E+04  0.10100000352E+00 0.  1.
       -3    1    3    3    0  502  0.73551393021E+03  0.73966268258E+03 -0.13129936172E+04  0.16769120056E+04  0.10100000352E+00 0. -1.
</event>
<event>
 5   0  0.3212679E-06  0.2799759E+04  0.7818609E-02  0.8303343E-01
        2   -1    0    0  501    0  0.00000000000E+00  0.00000000000E+00  0.25499354012E+04  0.25499354012E+04  0.25500000920E-02 0. -1.
       -2   -1    0    0    0  501  0.00000000000E+00  0.00000000000E+00 -0.76851439431E+03  0.76851439432E+03  0.25500000920E-02 0.  1.
    10030    2    1    2    0    0  0.00000000000E+00  0.00000000000E+00  0.17814210068E+04  0.33184497955E+04  0.27997586041E+04 0.  0.
        4    1    3    3  502    0 -0.12000892584E+02 -0.70483492689E+03 -0.54278349757E+03  0.88969198812E+03  0.12699999809E+01 0.  1.
       -4    1    3    3    0  502  0.12000892584E+02  0.70483492689E+03  0.23242045044E+04  0.24287578074E+04  0.12699999809E+01 0. -1.
</event>
<event>
 5   0  0.1065675E-06  0.2800452E+04  0.7818609E-02  0.8303128E-01
       -4   -1    0    0    0  501  0.00000000000E+00  0.00000000000E+00  0.14710963726E+04  0.14710969208E+04  0.12699999809E+01 0. -1.
        4   -1    0    0  501    0  0.00000000000E+00  0.00000000000E+00 -0.13327688799E+04  0.13327694849E+04  0.12699999809E+01 0.  1.
    10030    2    1    2    0    0  0.00000000000E+00  0.00000000000E+00  0.13832749271E+03  0.28038664057E+04  0.28004521645E+04 0.  0.
        3    1    3    3  502    0  0.12549465187E+04  0.38661193613E+03  0.55583610649E+03  0.14259429657E+04  0.10100000352E+00 0. -1.
       -3    1    3    3    0  502 -0.12549465187E+04 -0.38661193613E+03 -0.41750861378E+03  0.13779234400E+04  0.10100000352E+00 0.  1.
</event>
<event>
 5   0  0.3167616E-06  0.2801834E+04  0.7818609E-02  0.8302699E-01
       -2   -1    0    0    0  501  0.00000000000E+00  0.00000000000E+00  0.11671444129E+04  0.11671444129E+04  0.25500000920E-02 0.  1.
        2   -1    0    0  501    0  0.00000000000E+00  0.00000000000E+00 -0.16815132842E+04  0.16815132842E+04  0.25500000920E-02 0. -1.
    10030    2    1    2    0    0  0.00000000000E+00  0.00000000000E+00 -0.51436887127E+03  0.28486576971E+04  0.28018342813E+04 0.  0.
        3    1    3    3  502    0 -0.44680678201E+03  0.13272853574E+04 -0.29307456571E+03  0.14308093624E+04  0.10100000352E+00 0. -1.
       -3    1    3    3    0  502  0.44680678201E+03 -0.13272853574E+04 -0.22129430556E+03  0.14178483347E+04  0.10100000352E+00 0.  1.
</event>
<event>
 5   0  0.1235252E-06  0.2813342E+04  0.7818609E-02  0.8299138E-01
       -1   -1    0    0    0  501  0.00000000000E+00  0.00000000000E+00  0.17566373907E+04  0.17566373907E+04  0.50400001928E-02 0. -1.
        1   -1    0    0  501    0  0.00000000000E+00  0.00000000000E+00 -0.11264267494E+04  0.11264267494E+04  0.50400001928E-02 0.  1.
    10030    2    1    2    0    0  0.00000000000E+00  0.00000000000E+00  0.63021064134E+03  0.28830641401E+04  0.28133420310E+04 0.  0.
        1    1    3    3  502    0  0.21910248273E+03 -0.70486394500E+03  0.15422303646E+04  0.17097700361E+04  0.50400001928E-02 0. -1.
       -1    1    3    3    0  502 -0.21910248273E+03  0.70486394500E+03 -0.91201972325E+03  0.11732941040E+04  0.50400001928E-02 0.  1.
</event>
<event>
 5   0  0.3162695E-06  0.2803051E+04  0.7818609E-02  0.8302322E-01
        2   -1    0    0  501    0  0.00000000000E+00  0.00000000000E+00  0.28789645319E+04  0.28789645319E+04  0.25500000920E-02 0. -1.
       -2   -1    0    0    0  501  0.00000000000E+00  0.00000000000E+00 -0.68228502602E+03  0.68228502603E+03  0.25500000920E-02 0.  1.
    10030    2    1    2    0    0  0.00000000000E+00  0.00000000000E+00  0.21966795059E+04  0.35612495580E+04  0.28030514734E+04 0.  0.
        1    1    3    3  502    0  0.13474137545E+04  0.18084916651E+03  0.66554404086E+03  0.15136641362E+04  0.50400001928E-02 0. -1.
       -1    1    3    3    0  502 -0.13474137545E+04 -0.18084916651E+03  0.15311354650E+04  0.20475854217E+04  0.50400001928E-02 0.  1.
</event>
<event>
 5   0  0.3345919E-06  0.2799576E+04  0.7818609E-02  0.8303400E-01
        2   -1    0    0  501    0  0.00000000000E+00  0.00000000000E+00  0.26273215852E+04  0.26273215852E+04  0.25500000920E-02 0. -1.
       -2   -1    0    0    0  501  0.00000000000E+00  0.00000000000E+00 -0.74578108527E+03  0.74578108528E+03  0.25500000920E-02 0.  1.
    10030    2    1    2    0    0  0.00000000000E+00  0.00000000000E+00  0.18815405000E+04  0.33731026705E+04  0.27995762131E+04 0.  0.
        2    1    3    3  502    0 -0.74653590981E+03  0.67643112884E+03 -0.23019918511E+03  0.10333763117E+04  0.25500000920E-02 0.  1.
       -2    1    3    3    0  502  0.74653590981E+03 -0.67643112884E+03  0.21117396851E+04  0.23397263588E+04  0.25500000920E-02 0. -1.
</event>
<event>
 5   0  0.1246044E-06  0.2805782E+04  0.7818609E-02  0.8301475E-01
        1   -1    0    0  501    0  0.00000000000E+00  0.00000000000E+00  0.27233087269E+04  0.27233087269E+04  0.50400001928E-02 0. -1.
       -1   -1    0    0    0  501  0.00000000000E+00  0.00000000000E+00 -0.72268831829E+03  0.72268831831E+03  0.50400001928E-02 0.  1.
    10030    2    1    2    0    0  0.00000000000E+00  0.00000000000E+00  0.20006204086E+04  0.34459970452E+04  0.28057821755E+04 0.  0.
        2    1    3    3  502    0  0.10026895979E+04  0.23349509049E+03  0.21707551333E+04  0.24025162301E+04  0.25500000920E-02 0. -1.
       -2    1    3    3    0  502 -0.10026895979E+04 -0.23349509049E+03 -0.17013472475E+03  0.10434808151E+04  0.25500000920E-02 0.  1.
</event>
<event>
 5   0  0.3226364E-06  0.2802694E+04  0.7818609E-02  0.8302432E-01
       -2   -1    0    0    0  501  0.00000000000E+00  0.00000000000E+00  0.80395939126E+03  0.80395939127E+03  0.25500000920E-02 0.  1.
        2   -1    0    0  501    0  0.00000000000E+00  0.00000000000E+00 -0.24426279258E+04  0.24426279258E+04  0.25500000920E-02 0. -1.
    10030    2    1    2    0    0  0.00000000000E+00  0.00000000000E+00 -0.16386685345E+04  0.32465873171E+04  0.28026941755E+04 0.  0.
        5    1    3    3  502    0  0.30035929926E+03  0.69690819570E+03  0.54532238657E+03  0.93450272187E+03  0.46999998093E+01 0.  1.
       -5    1    3    3    0  502 -0.30035929926E+03 -0.69690819570E+03 -0.21839909211E+04  0.23120845952E+04  0.46999998093E+01 0. -1.
</event>
<event>
 5   0  0.1263513E-06  0.2790063E+04  0.7818609E-02  0.8306360E-01
       -1   -1    0    0    0  501  0.00000000000E+00  0.00000000000E+00  0.11145770769E+04  0.11145770769E+04  0.50400001928E-02 0. -1.
        1   -1    0    0  501    0  0.00000000000E+00  0.00000000000E+00 -0.17460548051E+04  0.17460548051E+04  0.50400001928E-02 0.  1.
    10030    2    1    2    0    0  0.00000000000E+00  0.00000000000E+00 -0.63147772821E+03  0.28606318819E+04  0.27900628385E+04 0.  0.
        3    1    3    3  502    0 -0.41869488488E+03  0.12643542021E+04  0.10974623442E+03  0.13363911109E+04  0.10100000352E+00 0. -1.
       -3    1    3    3    0  502  0.41869488488E+03 -0.12643542021E+04 -0.74122396264E+03  0.15242407710E+04  0.10100000352E+00 0.  1.
</event>
<event>
 5   0  0.1263513E-06  0.2801708E+04  0.7818609E-02  0.8302738E-01
       -1   -1    0    0    0  501  0.00000000000E+00  0.00000000000E+00  0.12451479237E+04  0.12451479238E+04  0.50400001928E-02 0.  1.
        1   -1    0    0  501    0  0.00000000000E+00  0.00000000000E+00 -0.15760307413E+04  0.15760307413E+04  0.50400001928E-02 0. -1.
    10030    2    1    2    0    0  0.00000000000E+00  0.00000000000E+00 -0.33088281759E+03  0.28211786651E+04  0.28017076260E+04 0.  0.
        3    1    3    3  502    0  0.10079841227E+04  0.94927695787E+03 -0.37959918374E+03  0.14357068938E+04  0.10100000352E+00 0.  1.
       -3    1    3    3    0  502 -0.10079841227E+04 -0.94927695787E+03  0.48716366155E+02  0.13854717713E+04  0.10100000352E+00 0. -1.
</event>
<event>
 5   0  0.1220265E-06  0.2776219E+04  0.7818609E-02  0.8310690E-01
        1   -1    0    0  501    0  0.00000000000E+00  0.00000000000E+00  0.14691156100E+04  0.14691156101E+04  0.50400001928E-02 0.  1.
       -1   -1    0    0    0  501  0.00000000000E+00  0.00000000000E+00 -0.13115698553E+04  0.13115698553E+04  0.50400001928E-02 0. -1.
    10030    2    1    2    0    0  0.00000000000E+00  0.00000000000E+00  0.15754575478E+03  0.27806854653E+04  0.27762188300E+04 0.  0.
        4    1    3    3  502    0 -0.11576003697E+04 -0.66287401364E+03  0.46332490510E+03  0.14121303603E+04  0.12699999809E+01 0.  1.
       -4    1    3    3    0  502  0.11576003697E+04  0.66287401364E+03 -0.30577915032E+03  0.13685551050E+04  0.12699999809E+01 0. -1.
</event>
<event>
 5   0  0.3212679E-06  0.2800053E+04  0.7818609E-02  0.8303252E-01
        2   -1    0    0  501    0  0.00000000000E+00  0.00000000000E+00  0.10347727841E+04  0.10347727841E+04  0.25500000920E-02 0.  1.
       -2   -1    0    0    0  501  0.00000000000E+00  0.00000000000E+00 -0.18942078233E+04  0.18942078233E+04  0.25500000920E-02 0. -1.
    10030    2    1    2    0    0  0.00000000000E+00  0.00000000000E+00 -0.85943503922E+03  0.29289806074E+04  0.28000533588E+04 0.  0.
        4    1    3    3  502    0 -0.30083450912E+03  0.70265402372E+03  0.79725709293E+03  0.11044657369E+04  0.12699999809E+01 0.  1.
       -4    1    3    3    0  502  0.30083450912E+03 -0.70265402372E+03 -0.16566921321E+04  0.18245148705E+04  0.12699999809E+01 0. -1.
</event>
<event>
 5   0  0.3345919E-06  0.2712707E+04  0.7818609E-02  0.8330894E-01
       -2   -1    0    0    0  501  0.00000000000E+00  0.00000000000E+00  0.10413216982E+04  0.10413216982E+04  0.25500000920E-02 0. -1.
        2   -1    0    0  501    0  0.00000000000E+00  0.00000000000E+00 -0.17666919792E+04  0.17666919792E+04  0.25500000920E-02 0.  1.
    10030    2    1    2    0    0  0.00000000000E+00  0.00000000000E+00 -0.72537028095E+03  0.28080136774E+04  0.27127069079E+04 0.  0.
        2    1    3    3  502    0 -0.49167743875E+03  0.71494144081E+03  0.71644172325E+03  0.11252451779E+04  0.25500000920E-02 0. -1.
       -2    1    3    3    0  502  0.49167743875E+03 -0.71494144081E+03 -0.14418120042E+04  0.16827684995E+04  0.25500000920E-02 0.  1.
</event>
<event>
 5   0  0.3212679E-06  0.2800171E+04  0.7818609E-02  0.8303215E-01
        2   -1    0    0  501    0  0.00000000000E+00  0.00000000000E+00  0.23379310638E+04  0.23379310638E+04  0.25500000920E-02 0. -1.
       -2   -1    0    0    0  501  0.00000000000E+00  0.00000000000E+00 -0.83845036441E+03  0.83845036441E+03  0.25500000920E-02 0.  1.
    10030    2    1    2    0    0  0.00000000000E+00  0.00000000000E+00  0.14994806993E+04  0.31763814282E+04  0.28001708179E+04 0.  0.
        4    1    3    3  502    0 -0.12417570638E+03 -0.49756721151E+03  0.22275563578E+04  0.22858262568E+04  0.12699999809E+01 0. -1.
       -4    1    3    3    0  502  0.12417570638E+03  0.49756721151E+03 -0.72807565844E+03  0.89055517142E+03  0.12699999809E+01 0.  1.
</event>
<event>
 5   0  0.3162695E-06  0.2798583E+04  0.7818609E-02  0.8303709E-01
        2   -1    0    0  501    0  0.00000000000E+00  0.00000000000E+00  0.13019276091E+04  0.13019276091E+04  0.25500000920E-02 0. -1.
       -2   -1    0    0    0  501  0.00000000000E+00  0.00000000000E+00 -0.15039361826E+04  0.15039361826E+04  0.25500000920E-02 0.  1.
    10030    2    1    2    0    0  0.00000000000E+00  0.00000000000E+00 -0.20200857346E+03  0.28058637917E+04  0.27985825258E+04 0.  0.
        1    1    3    3  502    0  0.24594289162E+03  0.13654090437E+04  0.81640687144E+02  0.13897823443E+04  0.50400001928E-02 0. -1.
       -1    1    3    3    0  502 -0.24594289162E+03 -0.13654090437E+04 -0.28364926060E+03  0.14160814474E+04  0.50400001928E-02 0.  1.
</event>
<event>
 5   0  0.3167616E-06  0.2805079E+04  0.7818609E-02  0.8301693E-01
        2   -1    0    0  501    0  0.00000000000E+00  0.00000000000E+00  0.22994158398E+04  0.22994158399E+04  0.25500000920E-02 0.  1.
       -2   -1    0    0    0  501  0.00000000000E+00  0.00000000000E+00 -0.85548578050E+03  0.85548578050E+03  0.25500000920E-02 0. -1.
    10030    2    1    2    0    0  0.00000000000E+00  0.00000000000E+00  0.14439300594E+04  0.31549016204E+04  0.28050793603E+04 0.  0.
        3    1    3    3  502    0  0.75666833389E+03 -0.11448507145E+04  0.39621153574E+03  0.14283604998E+04  0.10100000352E+00 0. -1.
       -3    1    3    3    0  502 -0.75666833389E+03  0.11448507145E+04  0.10477185236E+04  0.17265411206E+04  0.10100000352E+00 0.  1.
</event>
<event>
 5   0  0.1235252E-06  0.2806915E+04  0.7818609E-02  0.8301125E-01
       -1   -1    0    0    0  501  0.00000000000E+00  0.00000000000E+00  0.12088516346E+04  0.12088516346E+04  0.50400001928E-02 0.  1.
        1   -1    0    0  501    0  0.00000000000E+00  0.00000000000E+00 -0.16293920803E+04  0.16293920803E+04  0.50400001928E-02 0. -1.
    10030    2    1    2    0    0  0.00000000000E+00  0.00000000000E+00 -0.42054044567E+03  0.28382437149E+04  0.28069152318E+04 0.  0.
        1    1    3    3  502    0  0.50328988131E+03  0.54359794555E+03  0.99504656246E+03  0.12405309720E+04  0.50400001928E-02 0.  1.
       -1    1    3    3    0  502 -0.50328988131E+03 -0.54359794555E+03 -0.14155870081E+04  0.15977127428E+04  0.50400001928E-02 0. -1.
</event>
<event>
 5   0  0.3345919E-06  0.2809185E+04  0.7818609E-02  0.8300422E-01
       -2   -1    0    0    0  501  0.00000000000E+00  0.00000000000E+00  0.16114660510E+04  0.16114660510E+04  0.25500000920E-02 0. -1.
        2   -1    0    0  501    0  0.00000000000E+00  0.00000000000E+00 -0.12242767900E+04  0.12242767900E+04  0.25500000920E-02 0.  1.
    10030    2    1    2    0    0  0.00000000000E+00  0.00000000000E+00  0.38718926097E+03  0.28357428410E+04  0.28091852799E+04 0.  0.
        2    1    3    3  502    0  0.76168048050E+03 -0.90874352100E+03  0.95364602654E+03  0.15216480162E+04  0.25500000920E-02 0. -1.
       -2    1    3    3    0  502 -0.76168048050E+03  0.90874352100E+03 -0.56645676557E+03  0.13140948248E+04  0.25500000920E-02 0.  1.
</event>
<event>
 5   0  0.1220265E-06  0.2819215E+04  0.7818609E-02  0.8297327E-01
       -1   -1    0    0    0  501  0.00000000000E+00  0.00000000000E+00  0.13930624766E+04  0.13930624766E+04  0.50400001928E-02 0.  1.
        1   -1    0    0  501    0  0.00000000000E+00  0.00000000000E+00 -0.14263495246E+04  0.14263495246E+04  0.50400001928E-02 0. -1.
    10030    2    1    2    0    0  0.00000000000E+00  0.00000000000E+00 -0.33287048038E+02  0.28194120012E+04  0.28192154946E+04 0.  0.
        4    1    3    3  502    0 -0.10016326157E+04 -0.67813391206E+03 -0.74047494093E+03  0.14182518290E+04  0.12699999809E+01 0. -1.
       -4    1    3    3    0  502  0.10016326157E+04  0.67813391206E+03  0.70718789289E+03  0.14011601722E+04  0.12699999809E+01 0.  1.
</event>
<event>
 5   0  0.3212679E-06  0.2808094E+04  0.7818609E-02  0.8300760E-01
       -2   -1    0    0    0  501  0.00000000000E+00  0.00000000000E+00  0.15430774438E+04  0.15430774438E+04  0.25500000920E-02 0.  1.
        2   -1    0    0  501    0  0.00000000000E+00  0.00000000000E+00 -0.12775431318E+04  0.12775431318E+04  0.25500000920E-02 0. -1.
    10030    2    1    2    0    0  0.00000000000E+00  0.00000000000E+00  0.26553431200E+03  0.28206205756E+04  0.28080940085E+04 0.  0.
        4    1    3    3  502    0  0.10428866265E+04 -0.40544415867E+03 -0.71916069708E+03  0.13301094702E+04  0.12699999809E+01 0. -1.
       -4    1    3    3    0  502 -0.10428866265E+04  0.40544415867E+03  0.98469500908E+03  0.14905111054E+04  0.12699999809E+01 0.  1.
</event>
<event>
 5   0  0.3212679E-06  0.2799652E+04  0.7818609E-02  0.8303376E-01
        2   -1    0    0  501    0  0.00000000000E+00  0.00000000000E+00  0.15739539130E+04  0.15739539130E+04  0.25500000920E-02 0. -1.
       -2   -1    0    0    0  501  0.00000000000E+00  0.00000000000E+00 -0.12449623825E+04  0.12449623825E+04  0.25500000920E-02 0.  1.
    10030    2    1    2    0    0  0.00000000000E+00  0.00000000000E+00  0.32899153047E+03  0.28189162955E+04  0.27996524166E+04 0.  0.
        4    1    3    3  502    0  0.80096904257E+02 -0.53996500251E+03  0.14623702401E+04  0.15609311484E+04  0.12699999809E+01 0. -1.
       -4    1    3    3    0  502 -0.80096904257E+02  0.53996500251E+03 -0.11333787096E+04  0.12579851471E+04  0.12699999809E+01 0.  1.
</event>
<event>
 5   0  0.1235252E-06  0.2794932E+04  0.7818609E-02  0.8304843E-01
        1   -1    0    0  501    0  0.00000000000E+00  0.00000000000E+00  0.13503382209E+04  0.13503382209E+04  0.50400001928E-02 0.  1.
       -1   -1    0    0    0  501  0.00000000000E+00  0.00000000000E+00 -0.14462388261E+04  0.14462388261E+04  0.50400001928E-02 0. -1.
    10030    2    1    2    0    0  0.00000000000E+00  0.00000000000E+00 -0.95900605230E+02  0.27965770470E+04  0.27949322449E+04 0.  0.
        1    1    3    3  502    0 -0.21780553670E+03  0.76903178903E+03 -0.11949505254E+04  0.14376216131E+04  0.50400001928E-02 0. -1.
       -1    1    3    3    0  502  0.21780553670E+03 -0.76903178903E+03  0.10990499201E+04  0.13589554339E+04  0.50400001928E-02 0.  1.
</event>
<event>
 5   0  0.1243055E-06  0.2789508E+04  0.7818609E-02  0.8306533E-01
       -1   -1    0    0    0  501  0.00000000000E+00  0.00000000000E+00  0.85331888334E+03  0.85331888335E+03  0.50400001928E-02 0.  1.
        1   -1    0    0  501    0  0.00000000000E+00  0.00000000000E+00 -0.22797326697E+04  0.22797326697E+04  0.50400001928E-02 0. -1.
    10030    2    1    2    0    0  0.00000000000E+00  0.00000000000E+00 -0.14264137864E+04  0.31330515531E+04  0.27895081545E+04 0.  0.
        5    1    3    3  502    0 -0.44221890816E+03 -0.12314118321E+04 -0.12558016785E+04  0.18135579971E+04  0.46999998093E+01 0. -1.
       -5    1    3    3    0  502  0.44221890816E+03  0.12314118321E+04 -0.17061210788E+03  0.13194935560E+04  0.46999998093E+01 0.  1.
</event>
<event>
 5   0  0.3167616E-06  0.2802542E+04  0.7818609E-02  0.8302480E-01
        2   -1    0    0  501    0  0.00000000000E+00  0.00000000000E+00  0.10191414840E+04  0.10191414840E+04  0.25500000920E-02 0.  1.
       -2   -1    0    0    0  501  0.00000000000E+00  0.00000000000E+00 -0.19266808594E+04  0.19266808595E+04  0.25500000920E-02 0. -1.
    10030    2    1    2    0    0  0.00000000000E+00  0.00000000000E+00 -0.90753937548E+03  0.29458223434E+04  0.28025419820E+04 0.  0.
        3    1    3    3  502    0  0.35728146127E+03  0.94663323026E+03  0.56522328669E+03  0.11589831272E+04  0.10100000352E+00 0.  1.
       -3    1    3    3    0  502 -0.35728146127E+03 -0.94663323026E+03 -0.14727626622E+04  0.17868392162E+04  0.10100000352E+00 0. -1.
</event>
<event>
 5   0  0.1243055E-06  0.2783566E+04  0.7818609E-02  0.8308389E-01
        1   -1    0    0  501    0  0.00000000000E+00  0.00000000000E+00  0.19562950175E+04  0.19562950175E+04  0.50400001928E-02 0. -1.
       -1   -1    0    0    0  501  0.00000000000E+00  0.00000000000E+00 -0.99016781326E+03  0.99016781327E+03  0.50400001928E-02 0.  1.
    10030    2    1    2    0    0  0.00000000000E+00  0.00000000000E+00  0.96612720427E+03  0.29464628308E+04  0.27835663165E+04 0.  0.
        5    1    3    3  502    0 -0.11406567038E+04  0.48123627890E+03 -0.19003594490E+03  0.12525261763E+04  0.46999998093E+01 0.  1.
       -5    1    3    3    0  502  0.11406567038E+04 -0.48123627890E+03  0.11561631492E+04  0.16939366545E+04  0.46999998093E+01 0. -1.
</event>
<event>
 5   0  0.1220265E-06  0.2812589E+04  0.7818609E-02  0.8299371E-01
       -1   -1    0    0    0  501  0.00000000000E+00  0.00000000000E+00  0.11019307146E+04  0.11019307146E+04  0.50400001928E-02 0. -1.
        1   -1    0    0  501    0  0.00000000000E+00  0.00000000000E+00 -0.17947267389E+04  0.17947267389E+04  0.50400001928E-02 0.  1.
    10030    2    1    2    0    0  0.00000000000E+00  0.00000000000E+00 -0.69279602433E+03  0.28966574535E+04  0.28125892113E+04 0.  0.
        4    1    3    3  502    0 -0.12869707506E+04  0.35543697002E+03  0.10842844764E+03  0.13395474959E+04  0.12699999809E+01 0.  1.
       -4    1    3    3    0  502  0.12869707506E+04 -0.35543697002E+03 -0.80122447197E+03  0.15571099576E+04  0.12699999809E+01 0. -1.
</event>
<event>
 5   0  0.3212679E-06  0.2807680E+04  0.7818609E-02  0.8300888E-01
        2   -1    0    0  501    0  0.00000000000E+00  0.00000000000E+00  0.22804806712E+04  0.22804806712E+04  0.25500000920E-02 0. -1.
       -2   -1    0    0    0  501  0.00000000000E+00  0.00000000000E+00 -0.86418903825E+03  0.86418903825E+03  0.25500000920E-02 0.  1.
    10030    2    1    2    0    0  0.00000000000E+00  0.00000000000E+00  0.14162916329E+04  0.31446697094E+04  0.28076797524E+04 0.  0.
        4    1    3    3  502    0  0.13008927614E+04 -0.24720990706E+03  0.12302863128E+04  0.18074957093E+04  0.12699999809E+01 0. -1.
       -4    1    3    3    0  502 -0.13008927614E+04  0.24720990706E+03  0.18600532016E+03  0.13371740002E+04  0.12699999809E+01 0.  1.
</event>
<event>
 5   0  0.3162695E-06  0.2799835E+04  0.7818609E-02  0.8303320E-01
        2   -1    0    0  501    0  0.00000000000E+00  0.00000000000E+00  0.18613949953E+04  0.18613949953E+04  0.25500000920E-02 0. -1.
       -2   -1    0    0    0  501  0.00000000000E+00  0.00000000000E+00 -0.10528495945E+04  0.10528495945E+04  0.25500000920E-02 0.  1.
    10030    2    1    2    0    0  0.00000000000E+00  0.00000000000E+00  0.80854540082E+03  0.29142445898E+04  0.27998349709E+04 0.  0.
        1    1    3    3  502    0 -0.41162516846E+01  0.97181557947E+03 -0.64453634997E+03  0.11661344564E+04  0.50400001928E-02 0.  1.
       -1    1    3    3    0  502  0.41162516846E+01 -0.97181557947E+03  0.14530817508E+04  0.17481101334E+04  0.50400001928E-02 0. -1.
</event>
<event>
 5   0  0.1246044E-06  0.2821672E+04  0.7818609E-02  0.8296572E-01
        1   -1    0    0  501    0  0.00000000000E+00  0.00000000000E+00  0.21684977654E+04  0.21684977654E+04  0.50400001928E-02 0.  1.
       -1   -1    0    0    0  501  0.00000000000E+00  0.00000000000E+00 -0.91789722225E+03  0.91789722226E+03  0.50400001928E-02 0. -1.
    10030    2    1    2    0    0  0.00000000000E+00  0.00000000000E+00  0.12506005432E+04  0.30863949877E+04  0.28216718983E+04 0.  0.
        2    1    3    3  502    0 -0.98905029669E+03 -0.88812632842E+03  0.10822491559E+03  0.13336796831E+04  0.25500000920E-02 0. -1.
       -2    1    3    3    0  502  0.98905029669E+03  0.88812632842E+03  0.11423756276E+04  0.17527153046E+04  0.25500000920E-02 0.  1.
</event>
<event>
 5   0  0.3345919E-06  0.2653817E+04  0.7818609E-02  0.8350147E-01
       -2   -1    0    0    0  501  0.00000000000E+00  0.00000000000E+00  0.76244153312E+03  0.76244153312E+03  0.25500000920E-02 0. -1.
        2   -1    0    0  501    0  0.00000000000E+00  0.00000000000E+00 -0.23092731759E+04  0.23092731759E+04  0.25500000920E-02 0.  1.
    10030    2    1    2    0    0  0.00000000000E+00  0.00000000000E+00 -0.15468316428E+04  0.30717147090E+04  0.26538167085E+04 0.  0.
        2    1    3    3  502    0 -0.41629674768E+03  0.61896708417E+03  0.49677960086E+03  0.89622162731E+03  0.25500000920E-02 0. -1.
       -2    1    3    3    0  502  0.41629674768E+03 -0.61896708417E+03 -0.20436112437E+04  0.21754930817E+04  0.25500000920E-02 0.  1.
</event>
<event>
 5   0  0.3162695E-06  0.2794796E+04  0.7818609E-02  0.8304886E-01
        2   -1    0    0  501    0  0.00000000000E+00  0.00000000000E+00  0.17820828357E+04  0.17820828357E+04  0.25500000920E-02 0.  1.
       -2   -1    0    0    0  501  0.00000000000E+00  0.00000000000E+00 -0.10957524884E+04  0.10957524884E+04  0.25500000920E-02 0. -1.
    10030    2    1    2    0    0  0.00000000000E+00  0.00000000000E+00  0.68633034734E+03  0.28778353241E+04  0.27947963802E+04 0.  0.
        1    1    3    3  502    0 -0.14656829050E+03 -0.27959236503E+03 -0.10585552206E+04  0.11046236053E+04  0.50400001928E-02 0. -1.
       -1    1    3    3    0  502  0.14656829050E+03  0.27959236503E+03  0.17448855679E+04  0.17732117188E+04  0.50400001928E-02 0.  1.
</event>
<event>
 5   0  0.3167616E-06  0.2797758E+04  0.7818609E-02  0.8303965E-01
        2   -1    0    0  501    0  0.00000000000E+00  0.00000000000E+00  0.17064197675E+04  0.17064197675E+04  0.25500000920E-02 0.  1.
       -2   -1    0    0    0  501  0.00000000000E+00  0.00000000000E+00 -0.11467648558E+04  0.11467648559E+04  0.25500000920E-02 0. -1.
    10030    2    1    2    0    0  0.00000000000E+00  0.00000000000E+00  0.55965491168E+03  0.28531846234E+04  0.27977578299E+04 0.  0.
        3    1    3    3  502    0  0.83001029899E+03 -0.11242020499E+04  0.21440942704E+03  0.14137605023E+04  0.10100000352E+00 0.  1.
       -3    1    3    3    0  502 -0.83001029899E+03  0.11242020499E+04  0.34524548465E+03  0.14394241210E+04  0.10100000352E+00 0. -1.
</event>
<event>
 5   0  0.3345919E-06  0.2838922E+04  0.7818609E-02  0.8291286E-01
       -2   -1    0    0    0  501  0.00000000000E+00  0.00000000000E+00  0.10641673307E+04  0.10641673307E+04  0.25500000920E-02 0.  1.
        2   -1    0    0  501    0  0.00000000000E+00  0.00000000000E+00 -0.18933759659E+04  0.18933759659E+04  0.25500000920E-02 0. -1.
    10030    2    1    2    0    0  0.00000000000E+00  0.00000000000E+00 -0.82920863519E+03  0.29575432966E+04  0.28389215189E+04 0.  0.
        2    1    3    3  502    0 -0.10526201213E+03 -0.12341938816E+04  0.30758144378E+03  0.12762918840E+04  0.25500000920E-02 0.  1.
       -2    1    3    3    0  502  0.10526201213E+03  0.12341938816E+04 -0.11367900790E+04  0.16812514126E+04  0.25500000920E-02 0. -1.
</event>
<event>
 5   0  0.1243055E-06  0.2807692E+04  0.7818609E-02  0.8300884E-01
        1   -1    0    0  501    0  0.00000000000E+00  0.00000000000E+00  0.14781038967E+04  0.14781038968E+04  0.50400001928E-02 0.  1.
       -1   -1    0    0    0  501  0.00000000000E+00  0.00000000000E+00 -0.13333189077E+04  0.13333189077E+04  0.50400001928E-02 0. -1.
    10030    2    1    2    0    0  0.00000000000E+00  0.00000000000E+00  0.14478498910E+03  0.28114228044E+04  0.28076922004E+04 0.  0.
        5    1    3    3  502    0 -0.28816978065E+03  0.13533319469E+04  0.30979948996E+03  0.14179375850E+04  0.46999998093E+01 0.  1.
       -5    1    3    3    0  502  0.28816978065E+03 -0.13533319469E+04 -0.16501450087E+03  0.13934852194E+04  0.46999998093E+01 0. -1.
</event>
<event>
 5   0  0.3212679E-06  0.2814321E+04  0.7818609E-02  0.8298836E-01
        2   -1    0    0  501    0  0.00000000000E+00  0.00000000000E+00  0.15456008431E+04  0.15456008431E+04  0.25500000920E-02 0. -1.
       -2   -1    0    0    0  501  0.00000000000E+00  0.00000000000E+00 -0.12811201072E+04  0.12811201072E+04  0.25500000920E-02 0.  1.
    10030    2    1    2    0    0  0.00000000000E+00  0.00000000000E+00  0.26448073590E+03  0.28267209503E+04  0.28143207477E+04 0.  0.
        4    1    3    3  502    0  0.59456316180E+03 -0.28436116795E+03  0.13809931107E+04  0.15301994027E+04  0.12699999809E+01 0. -1.
       -4    1    3    3    0  502 -0.59456316180E+03  0.28436116795E+03 -0.11165123748E+04  0.12965215476E+04  0.12699999809E+01 0.  1.
</event>
<event>
 5   0  0.1263513E-06  0.2818186E+04  0.7818609E-02  0.8297645E-01
       -1   -1    0    0    0  501  0.00000000000E+00  0.00000000000E+00  0.92530730820E+03  0.92530730822E+03  0.50400001928E-02 0.  1.
        1   -1    0    0  501    0  0.00000000000E+00  0.00000000000E+00 -0.21458197082E+04  0.21458197082E+04  0.50400001928E-02 0. -1.
    10030    2    1    2    0    0  0.00000000000E+00  0.00000000000E+00 -0.12205124000E+04  0.30711270164E+04  0.28181856987E+04 0.  0.
        3    1    3    3  502    0 -0.29927782169E+03 -0.52310693163E+03 -0.19982846994E+04  0.20871870607E+04  0.10100000352E+00 0. -1.
       -3    1    3    3    0  502  0.29927782169E+03  0.52310693163E+03  0.77777229940E+03  0.98393995568E+03  0.10100000352E+00 0.  1.
</event>
<event>
 5   0  0.1263513E-06  0.2805363E+04  0.7818609E-02  0.8301605E-01
        1   -1    0    0  501    0  0.00000000000E+00  0.00000000000E+00  0.20521826923E+04  0.20521826923E+04  0.50400001928E-02 0.  1.
       -1   -1    0    0    0  501  0.00000000000E+00  0.00000000000E+00 -0.95874255463E+03  0.95874255464E+03  0.50400001928E-02 0. -1.
    10030    2    1    2    0    0  0.00000000000E+00  0.00000000000E+00  0.10934401376E+04  0.30109252469E+04  0.28053626340E+04 0.  0.
        3    1    3    3  502    0  0.13273986673E+04 -0.61456808418E+02  0.64640754844E+02  0.13303918966E+04  0.10100000352E+00 0.  1.
       -3    1    3    3    0  502 -0.13273986673E+04  0.61456808418E+02  0.10287993828E+04  0.16805333503E+04  0.10100000352E+00 0. -1.
</event>
<event>
 5   0  0.3167616E-06  0.2802365E+04  0.7818609E-02  0.8302535E-01
       -2   -1    0    0    0  501  0.00000000000E+00  0.00000000000E+00  0.88512912367E+03  0.88512912368E+03  0.25500000920E-02 0.  1.
        2   -1    0    0  501    0  0.00000000000E+00  0.00000000000E+00 -0.22181080230E+04  0.22181080230E+04  0.25500000920E-02 0. -1.
    10030    2    1    2    0    0  0.00000000000E+00  0.00000000000E+00 -0.13329788993E+04  0.31032371467E+04  0.28023647233E+04 0.  0.
        3    1    3    3  502    0 -0.12524551495E+04 -0.15177736074E+03 -0.13415561759E+04  0.18415898708E+04  0.10100000352E+00 0. -1.
       -3    1    3    3    0  502  0.12524551495E+04  0.15177736074E+03  0.85772766196E+01  0.12616472759E+04  0.10100000352E+00 0.  1.
</event>
<event>
 5   0  0.1263513E-06  0.2799620E+04  0.7818609E-02  0.8303386E-01
       -1   -1    0    0    0  501  0.00000000000E+00  0.00000000000E+00  0.11387446751E+04  0.11387446751E+04  0.50400001928E-02 0. -1.
        1   -1    0    0  501    0  0.00000000000E+00  0.00000000000E+00 -0.17207264749E+04  0.17207264749E+04  0.50400001928E-02 0.  1.
    10030    2    1    2    0    0  0.00000000000E+00  0.00000000000E+00 -0.58198179981E+03  0.28594711500E+04  0.27996200532E+04 0.  0.
        3    1    3    3  502    0  0.95109262162E+03 -0.90909197011E+03 -0.77916561379E+03  0.15290926881E+04  0.10100000352E+00 0.  1.
       -3    1    3    3    0  502 -0.95109262162E+03  0.90909197011E+03  0.19718381397E+03  0.13303784618E+04  0.10100000352E+00 0. -1.
</event>
<event>
 5   0  0.1220265E-06  0.2804462E+04  0.7818609E-02  0.8301884E-01
       -1   -1    0    0    0  501  0.00000000000E+00  0.00000000000E+00  0.96595426731E+03  0.96595426733E+03  0.50400001928E-02 0.  1.
        1   -1    0    0  501    0  0.00000000000E+00  0.00000000000E+00 -0.20355541443E+04  0.20355541443E+04  0.50400001928E-02 0. -1.
    10030    2    1    2    0    0  0.00000000000E+00  0.00000000000E+00 -0.10695998769E+04  0.30015084116E+04  0.28044623100E+04 0.  0.
        4    1    3    3  502    0 -0.73072166715E+03  0.74497996409E+03  0.46765380696E+03  0.11435256874E+04  0.12699999809E+01 0.  1.
       -4    1    3    3    0  502  0.73072166715E+03 -0.74497996409E+03 -0.15372536839E+04  0.18579827242E+04  0.12699999809E+01 0. -1.
</event>
<event>
 5   0  0.1243055E-06  0.2978682E+04  0.7818609E-02  0.8249845E-01
        1   -1    0    0  501    0  0.00000000000E+00  0.00000000000E+00  0.18589060268E+04  0.18589060268E+04  0.50400001928E-02 0.  1.
       -1   -1    0    0    0  501  0.00000000000E+00  0.00000000000E+00 -0.11932482177E+04  0.11932482177E+04  0.50400001928E-02 0. -1.
    10030    2    1    2    0    0  0.00000000000E+00  0.00000000000E+00  0.66565780916E+03  0.30521542445E+04  0.29786817912E+04 0.  0.
        5    1    3    3  502    0  0.14271304415E+04 -0.39275285236E+02 -0.10174353367E+03  0.14312992985E+04  0.46999998093E+01 0. -1.
       -5    1    3    3    0  502 -0.14271304415E+04  0.39275285236E+02  0.76740134283E+03  0.16208549460E+04  0.46999998093E+01 0.  1.
</event>
<event>
 5   0  0.1220265E-06  0.2800005E+04  0.7818609E-02  0.8303267E-01
       -1   -1    0    0    0  501  0.00000000000E+00  0.00000000000E+00  0.13856807856E+04  0.13856807856E+04  0.50400001928E-02 0.  1.
        1   -1    0    0  501    0  0.00000000000E+00  0.00000000000E+00 -0.14144725063E+04  0.14144725063E+04  0.50400001928E-02 0. -1.
    10030    2    1    2    0    0  0.00000000000E+00  0.00000000000E+00 -0.28791720645E+02  0.28001532919E+04  0.28000052670E+04 0.  0.
        4    1    3    3  502    0  0.49112791711E+01 -0.58237564953E+03 -0.12875775520E+04  0.14131677477E+04  0.12699999809E+01 0. -1.
       -4    1    3    3    0  502 -0.49112791711E+01  0.58237564953E+03  0.12587858313E+04  0.13869855442E+04  0.12699999809E+01 0.  1.
</event>
<event>
 5   0  0.3167616E-06  0.2792167E+04  0.7818609E-02  0.8305704E-01
       -2   -1    0    0    0  501  0.00000000000E+00  0.00000000000E+00  0.11769559284E+04  0.11769559284E+04  0.25500000920E-02 0. -1.
        2   -1    0    0  501    0  0.00000000000E+00  0.00000000000E+00 -0.16560091442E+04  0.16560091442E+04  0.25500000920E-02 0.  1.
    10030    2    1    2    0    0  0.00000000000E+00  0.00000000000E+00 -0.47905321579E+03  0.28329650726E+04  0.27921674589E+04 0.  0.
        3    1    3    3  502    0 -0.12048648043E+04 -0.24856592843E+03 -0.90914368579E+03  0.15297145057E+04  0.10100000352E+00 0.  1.
       -3    1    3    3    0  502  0.12048648043E+04  0.24856592843E+03  0.43009046999E+03  0.13032505668E+04  0.10100000352E+00 0. -1.
</event>
<event>
 5   0  0.1235252E-06  0.2780818E+04  0.7818609E-02  0.8309249E-01
       -1   -1    0    0    0  501  0.00000000000E+00  0.00000000000E+00  0.99429550675E+03  0.99429550676E+03  0.50400001928E-02 0. -1.
        1   -1    0    0  501    0  0.00000000000E+00  0.00000000000E+00 -0.19443280566E+04  0.19443280566E+04  0.50400001928E-02 0.  1.
    10030    2    1    2    0    0  0.00000000000E+00  0.00000000000E+00 -0.95003254987E+03  0.29386235634E+04  0.27808176139E+04 0.  0.
        1    1    3    3  502    0  0.94845144101E+03  0.99631853597E+03 -0.68905899079E+03  0.15385100110E+04  0.50400001928E-02 0.  1.
       -1    1    3    3    0  502 -0.94845144101E+03 -0.99631853597E+03 -0.26097355908E+03  0.14001135524E+04  0.50400001928E-02 0. -1.
</event>
<event>
 5   0  0.3167616E-06  0.2798318E+04  0.7818609E-02  0.8303791E-01
       -2   -1    0    0    0  501  0.00000000000E+00  0.00000000000E+00  0.10582775520E+04  0.10582775520E+04  0.25500000920E-02 0.  1.
        2   -1    0    0  501    0  0.00000000000E+00  0.00000000000E+00 -0.18498412503E+04  0.18498412503E+04  0.25500000920E-02 0. -1.
    10030    2    1    2    0    0  0.00000000000E+00  0.00000000000E+00 -0.79156369835E+03  0.29081188023E+04  0.27983176874E+04 0.  0.
        3    1    3    3  502    0 -0.77470080473E+03  0.10169147249E+04 -0.98674993284E+03  0.16149155813E+04  0.10100000352E+00 0. -1.
       -3    1    3    3    0  502  0.77470080473E+03 -0.10169147249E+04  0.19518623448E+03  0.12932032210E+04  0.10100000352E+00 0.  1.
</event>
<event>
 5   0  0.3212679E-06  0.2811549E+04  0.7818609E-02  0.8299692E-01
       -2   -1    0    0    0  501  0.00000000000E+00  0.00000000000E+00  0.84514439599E+03  0.84514439600E+03  0.25500000920E-02 0.  1.
        2   -1    0    0  501    0  0.00000000000E+00  0.00000000000E+00 -0.23383006965E+04  0.23383006965E+04  0.25500000920E-02 0. -1.
    10030    2    1    2    0    0  0.00000000000E+00  0.00000000000E+00 -0.14931563005E+04  0.31834450925E+04  0.28115488470E+04 0.  0.
        4    1    3    3  502    0  0.80774574215E+03  0.76950264374E+03 -0.17150618661E+04  0.20459780839E+04  0.12699999809E+01 0. -1.
       -4    1    3    3    0  502 -0.80774574215E+03 -0.76950264374E+03  0.22190556552E+03  0.11374670086E+04  0.12699999809E+01 0.  1.
</event>
<event>
 5   0  0.1220265E-06  0.2803311E+04  0.7818609E-02  0.8302241E-01
       -1   -1    0    0    0  501  0.00000000000E+00  0.00000000000E+00  0.15207874350E+04  0.15207874350E+04  0.50400001928E-02 0. -1.
        1   -1    0    0  501    0  0.00000000000E+00  0.00000000000E+00 -0.12918556008E+04  0.12918556008E+04  0.50400001928E-02 0.  1.
    10030    2    1    2    0    0  0.00000000000E+00  0.00000000000E+00  0.22893183420E+03  0.28126430358E+04  0.28033107323E+04 0.  0.
        4    1    3    3  502    0  0.41837032612E+03  0.13335283722E+04  0.22114250603E+03  0.14150043358E+04  0.12699999809E+01 0.  1.
       -4    1    3    3    0  502 -0.41837032612E+03 -0.13335283722E+04  0.77893281702E+01  0.13976387000E+04  0.12699999809E+01 0. -1.
</event>
<event>
 5   0  0.1235252E-06  0.2846991E+04  0.7818609E-02  0.8288826E-01
        1   -1    0    0  501    0  0.00000000000E+00  0.00000000000E+00  0.10534092522E+04  0.10534092522E+04  0.50400001928E-02 0. -1.
       -1   -1    0    0    0  501  0.00000000000E+00  0.00000000000E+00 -0.19236010398E+04  0.19236010398E+04  0.50400001928E-02 0.  1.
    10030    2    1    2    0    0  0.00000000000E+00  0.00000000000E+00 -0.87019178763E+03  0.29770102921E+04  0.28469907853E+04 0.  0.
        1    1    3    3  502    0  0.57042178791E+03 -0.10839471912E+04  0.32329655634E+03  0.12668240576E+04  0.50400001928E-02 0. -1.
       -1    1    3    3    0  502 -0.57042178791E+03  0.10839471912E+04 -0.11934883440E+04  0.17101862345E+04  0.50400001928E-02 0.  1.
</event>
<event>
 5   0  0.3345919E-06  0.2800400E+04  0.7818609E-02  0.8303144E-01
       -2   -1    0    0    0  501  0.00000000000E+00  0.00000000000E+00  0.26592214293E+04  0.26592214293E+04  0.25500000920E-02 0. -1.
        2   -1    0    0  501    0  0.00000000000E+00  0.00000000000E+00 -0.73726836297E+03  0.73726836297E+03  0.25500000920E-02 0.  1.
    10030    2    1    2    0    0  0.00000000000E+00  0.00000000000E+00  0.19219530664E+04  0.33964897923E+04  0.28003998500E+04 0.  0.
        2    1    3    3  502    0 -0.76569261857E+03 -0.35462559944E+03  0.23161884356E+04  0.24651112290E+04  0.25500000920E-02 0. -1.
       -2    1    3    3    0  502  0.76569261857E+03  0.35462559944E+03 -0.39423536924E+03  0.93137856335E+03  0.25500000920E-02 0.  1.
</event>
<event>
 5   0  0.3167616E-06  0.2795518E+04  0.7818609E-02  0.8304661E-01
        2   -1    0    0  501    0  0.00000000000E+00  0.00000000000E+00  0.19457106277E+04  0.19457106277E+04  0.25500000920E-02 0.  1.
       -2   -1    0    0    0  501  0.00000000000E+00  0.00000000000E+00 -0.10041217031E+04  0.10041217031E+04  0.25500000920E-02 0. -1.
    10030    2    1    2    0    0  0.00000000000E+00  0.00000000000E+00  0.94158892464E+03  0.29498323308E+04  0.27955180337E+04 0.  0.
        3    1    3    3  502    0  0.91234107255E+03  0.43235024666E+03  0.14908178128E+04  0.18005084642E+04  0.10100000352E+00 0.  1.
       -3    1    3    3    0  502 -0.91234107255E+03 -0.43235024666E+03 -0.54922888816E+03  0.11493238666E+04  0.10100000352E+00 0. -1.
</event>
<event>
 5   0  0.1220265E-06  0.2800445E+04  0.7818609E-02  0.8303130E-01
        1   -1    0    0  501    0  0.00000000000E+00  0.00000000000E+00  0.13820414168E+04  0.13820414168E+04  0.50400001928E-02 0. -1.
       -1   -1    0    0    0  501  0.00000000000E+00  0.00000000000E+00 -0.14186427255E+04  0.14186427255E+04  0.50400001928E-02 0.  1.
    10030    2    1    2    0    0  0.00000000000E+00  0.00000000000E+00 -0.36601308678E+02  0.28006841423E+04  0.28004449663E+04 0.  0.
        4    1    3    3  502    0  0.30960383077E+03 -0.79615920091E+03  0.10912522494E+04  0.13858416540E+04  0.12699999809E+01 0. -1.
       -4    1    3    3    0  502 -0.30960383077E+03  0.79615920091E+03 -0.11278535581E+04  0.14148424883E+04  0.12699999809E+01 0.  1.
</event>
<event>
 5   0  0.1246044E-06  0.2807547E+04  0.7818609E-02  0.8300929E-01
        1   -1    0    0  501    0  0.00000000000E+00  0.00000000000E+00  0.21297644811E+04  0.21297644811E+04  0.50400001928E-02 0. -1.
       -1   -1    0    0    0  501  0.00000000000E+00  0.00000000000E+00 -0.92525719346E+03  0.92525719347E+03  0.50400001928E-02 0.  1.
    10030    2    1    2    0    0  0.00000000000E+00  0.00000000000E+00  0.12045072877E+04  0.30550216746E+04  0.28075469054E+04 0.  0.
        2    1    3    3  502    0 -0.45836651032E+03  0.10737474415E+04  0.14504121653E+04  0.18619153781E+04  0.25500000920E-02 0. -1.
       -2    1    3    3    0  502  0.45836651032E+03 -0.10737474415E+04 -0.24590487761E+03  0.11931062965E+04  0.25500000920E-02 0.  1.
</event>
<event>
 5   0  0.1235252E-06  0.2791757E+04  0.7818609E-02  0.8305832E-01
       -1   -1    0    0    0  501  0.00000000000E+00  0.00000000000E+00  0.14373769333E+04  0.14373769333E+04  0.50400001928E-02 0. -1.
        1   -1    0    0  501    0  0.00000000000E+00  0.00000000000E+00 -0.13555777333E+04  0.13555777333E+04  0.50400001928E-02 0.  1.
    10030    2    1    2    0    0  0.00000000000E+00  0.00000000000E+00  0.81799200013E+02  0.27929546666E+04  0.27917565547E+04 0.  0.
        1    1    3    3  502    0 -0.81990025474E+03 -0.37165762503E+03 -0.10263807854E+04  0.13652191526E+04  0.50400001928E-02 0.  1.
       -1    1    3    3    0  502  0.81990025474E+03  0.37165762503E+03  0.11081799854E+04  0.14277355140E+04  0.50400001928E-02 0. -1.
</event>
<event>
 5   0  0.3345919E-06  0.2802537E+04  0.7818609E-02  0.8302481E-01
       -2   -1    0    0    0  501  0.00000000000E+00  0.00000000000E+00  0.12391498658E+04  0.12391498658E+04  0.25500000920E-02 0. -1.
        2   -1    0    0  501    0  0.00000000000E+00  0.00000000000E+00 -0.15845969026E+04  0.15845969026E+04  0.25500000920E-02 0.  1.
    10030    2    1    2    0    0  0.00000000000E+00  0.00000000000E+00 -0.34544703677E+03  0.28237467684E+04  0.28025367360E+04 0.  0.
        2    1    3    3  502    0 -0.42615065953E+03  0.59082402459E+03  0.10333636041E+04  0.12643250179E+04  0.25500000920E-02 0. -1.
       -2    1    3    3    0  502  0.42615065953E+03 -0.59082402459E+03 -0.13788106408E+04  0.15594217505E+04  0.25500000920E-02 0.  1.
</event>
<event>
 5   0  0.1243055E-06  0.2802154E+04  0.7818609E-02  0.8302600E-01
        1   -1    0    0  501    0  0.00000000000E+00  0.00000000000E+00  0.26374748406E+04  0.26374748406E+04  0.50400001928E-02 0.  1.
       -1   -1    0    0    0  501  0.00000000000E+00  0.00000000000E+00 -0.74427880244E+03  0.74427880246E+03  0.50400001928E-02 0. -1.
    10030    2    1    2    0    0  0.00000000000E+00  0.00000000000E+00  0.18931960382E+04  0.33817536430E+04  0.28021538972E+04 0.  0.
        5    1    3    3  502    0  0.22699878474E+03 -0.24724445097E+03 -0.69503210443E+03  0.77184841970E+03  0.46999998093E+01 0. -1.
       -5    1    3    3    0  502 -0.22699878474E+03  0.24724445097E+03  0.25882281426E+04  0.26099052233E+04  0.46999998093E+01 0.  1.
</event>
<event>
 5   0  0.1263513E-06  0.2795595E+04  0.7818609E-02  0.8304637E-01
        1   -1    0    0  501    0  0.00000000000E+00  0.00000000000E+00  0.11283733121E+04  0.11283733122E+04  0.50400001928E-02 0.  1.
       -1   -1    0    0    0  501  0.00000000000E+00  0.00000000000E+00 -0.17315532471E+04  0.17315532471E+04  0.50400001928E-02 0. -1.
    10030    2    1    2    0    0  0.00000000000E+00  0.00000000000E+00 -0.60317993497E+03  0.28599265593E+04  0.27955954447E+04 0.  0.
        3    1    3    3  502    0  0.29510795315E+03 -0.27011452527E+03  0.10685536818E+04  0.11409897203E+04  0.10100000352E+00 0.  1.
       -3    1    3    3    0  502 -0.29510795315E+03  0.27011452527E+03 -0.16717336168E+04  0.17189368390E+04  0.10100000352E+00 0. -1.
</event>
<event>
 5   0  0.3167616E-06  0.2791700E+04  0.7818609E-02  0.8305850E-01
        2   -1    0    0  501    0  0.00000000000E+00  0.00000000000E+00  0.17523653926E+04  0.17523653926E+04  0.25500000920E-02 0. -1.
       -2   -1    0    0    0  501  0.00000000000E+00  0.00000000000E+00 -0.11118669039E+04  0.11118669039E+04  0.25500000920E-02 0.  1.
    10030    2    1    2    0    0  0.00000000000E+00  0.00000000000E+00  0.64049848870E+03  0.28642322965E+04  0.27916999004E+04 0.  0.
        3    1    3    3  502    0  0.10937246997E+04 -0.30825790939E+03  0.11519528716E+04  0.16181013831E+04  0.10100000352E+00 0.  1.
       -3    1    3    3    0  502 -0.10937246997E+04  0.30825790939E+03 -0.51145438289E+03  0.12461309134E+04  0.10100000352E+00 0. -1.
</event>
<event>
 5   0  0.3167616E-06  0.2804525E+04  0.7818609E-02  0.8301865E-01
       -2   -1    0    0    0  501  0.00000000000E+00  0.00000000000E+00  0.11257314821E+04  0.11257314821E+04  0.25500000920E-02 0. -1.
        2   -1    0    0  501    0  0.00000000000E+00  0.00000000000E+00 -0.17467222211E+04  0.17467222211E+04  0.25500000920E-02 0.  1.
    10030    2    1    2    0    0  0.00000000000E+00  0.00000000000E+00 -0.62099073899E+03  0.28724537032E+04  0.28045250541E+04 0.  0.
        3    1    3    3  502    0  0.13455883389E+04  0.16910069277E+03 -0.67569469848E+03  0.15151786554E+04  0.10100000352E+00 0.  1.
       -3    1    3    3    0  502 -0.13455883389E+04 -0.16910069277E+03  0.54703959485E+02  0.13572750478E+04  0.10100000352E+00 0. -1.
</event>
<event>
 5   0  0.1235252E-06  0.2800643E+04  0.7818609E-02  0.8303069E-01
        1   -1    0    0  501    0  0.00000000000E+00  0.00000000000E+00  0.13997518883E+04  0.13997518883E+04  0.50400001928E-02 0. -1.
       -1   -1    0    0    0  501  0.00000000000E+00  0.00000000000E+00 -0.14008915832E+04  0.14008915832E+04  0.50400001928E-02 0.  1.
    10030    2    1    2    0    0  0.00000000000E+00  0.00000000000E+00 -0.11396949052E+01  0.28006434714E+04  0.28006432395E+04 0.  0.
        1    1    3    3  502    0  0.93259327751E+03  0.10328004484E+04 -0.15707433750E+03  0.14003854237E+04  0.50400001928E-02 0. -1.
       -1    1    3    3    0  502 -0.93259327751E+03 -0.10328004484E+04  0.15593464260E+03  0.14002580477E+04  0.50400001928E-02 0.  1.
</event>
<event>
 5   0  0.3162695E-06  0.2836063E+04  0.7818609E-02  0.8292159E-01
       -2   -1    0    0    0  501  0.00000000000E+00  0.00000000000E+00  0.80001683806E+03  0.80001683807E+03  0.25500000920E-02 0. -1.
        2   -1    0    0  501    0  0.00000000000E+00  0.00000000000E+00 -0.25134639182E+04  0.25134639182E+04  0.25500000920E-02 0.  1.
    10030    2    1    2    0    0  0.00000000000E+00  0.00000000000E+00 -0.17134470801E+04  0.33134807563E+04  0.28360630856E+04 0.  0.
        1    1    3    3  502    0  0.73262698144E+03 -0.10066763777E+04 -0.16497092074E+04  0.20668043188E+04  0.50400001928E-02 0.  1.
       -1    1    3    3    0  502 -0.73262698144E+03  0.10066763777E+04 -0.63737872724E+02  0.12466764374E+04  0.50400001928E-02 0. -1.
</event>
<event>
 5   0  0.1220265E-06  0.2810091E+04  0.7818609E-02  0.8300142E-01
       -1   -1    0    0    0  501  0.00000000000E+00  0.00000000000E+00  0.16996306883E+04  0.16996306883E+04  0.50400001928E-02 0. -1.
        1   -1    0    0  501    0  0.00000000000E+00  0.00000000000E+00 -0.11615187025E+04  0.11615187025E+04  0.50400001928E-02 0.  1.
    10030    2    1    2    0    0  0.00000000000E+00  0.00000000000E+00  0.53811198575E+03  0.28611493908E+04  0.28100909820E+04 0.  0.
        4    1    3    3  502    0 -0.37505478448E+03  0.30322300730E+03  0.16127085927E+04  0.16832827752E+04  0.12699999809E+01 0. -1.
       -4    1    3    3    0  502  0.37505478448E+03 -0.30322300730E+03 -0.10745966069E+04  0.11778666156E+04  0.12699999809E+01 0.  1.
</event>
<event>
 5   0  0.1235252E-06  0.2807269E+04  0.7818609E-02  0.8301015E-01
        1   -1    0    0  501    0  0.00000000000E+00  0.00000000000E+00  0.10453611688E+04  0.10453611688E+04  0.50400001928E-02 0.  1.
       -1   -1    0    0    0  501  0.00000000000E+00  0.00000000000E+00 -0.18846978850E+04  0.18846978850E+04  0.50400001928E-02 0. -1.
    10030    2    1    2    0    0  0.00000000000E+00  0.00000000000E+00 -0.83933671623E+03  0.29300590538E+04  0.28072691242E+04 0.  0.
        1    1    3    3  502    0 -0.87464861737E+03  0.39379049858E+03 -0.14892390109E+04  0.17714158157E+04  0.50400001928E-02 0. -1.
       -1    1    3    3    0  502  0.87464861737E+03 -0.39379049858E+03  0.64990229464E+03  0.11586432381E+04  0.50400001928E-02 0.  1.
</event>
<event>
 5   0  0.1246044E-06  0.2808769E+04  0.7818609E-02  0.8300551E-01
       -1   -1    0    0    0  501  0.00000000000E+00  0.00000000000E+00  0.11675873241E+04  0.11675873241E+04  0.50400001928E-02 0.  1.
        1   -1    0    0  501    0  0.00000000000E+00  0.00000000000E+00 -0.16892068487E+04  0.16892068487E+04  0.50400001928E-02 0. -1.
    10030    2    1    2    0    0  0.00000000000E+00  0.00000000000E+00 -0.52161952459E+03  0.28567941728E+04  0.28087694846E+04 0.  0.
        2    1    3    3  502    0 -0.99898549223E+03 -0.98019065058E+03 -0.37920793166E+03  0.14500153036E+04  0.25500000920E-02 0.  1.
       -2    1    3    3    0  502  0.99898549223E+03  0.98019065058E+03 -0.14241159293E+03  0.14067788692E+04  0.25500000920E-02 0. -1.
</event>
<event>
 5   0  0.3162695E-06  0.2790643E+04  0.7818609E-02  0.8306179E-01
        2   -1    0    0  501    0  0.00000000000E+00  0.00000000000E+00  0.13508794079E+04  0.13508794079E+04  0.25500000920E-02 0. -1.
       -2   -1    0    0    0  501  0.00000000000E+00  0.00000000000E+00 -0.14412261889E+04  0.14412261889E+04  0.25500000920E-02 0.  1.
    10030    2    1    2    0    0  0.00000000000E+00  0.00000000000E+00 -0.90346781003E+02  0.27921055967E+04  0.27906434961E+04 0.  0.
        1    1    3    3  502    0 -0.94116698559E+03 -0.10039921929E+04 -0.27578745521E+03  0.14035149941E+04  0.50400001928E-02 0.  1.
       -1    1    3    3    0  502  0.94116698559E+03  0.10039921929E+04  0.18544067420E+03  0.13885906027E+04  0.50400001928E-02 0. -1.
</event>
<event>
 5   0  0.1220265E-06  0.2796887E+04  0.7818609E-02  0.8304235E-01
       -1   -1    0    0    0  501  0.00000000000E+00  0.00000000000E+00  0.73782657831E+03  0.73782657833E+03  0.50400001928E-02 0. -1.
        1   -1    0    0  501    0  0.00000000000E+00  0.00000000000E+00 -0.26505480143E+04  0.26505480143E+04  0.50400001928E-02 0.  1.
    10030    2    1    2    0    0  0.00000000000E+00  0.00000000000E+00 -0.19127214359E+04  0.33883745926E+04  0.27968873928E+04 0.  0.
        4    1    3    3  502    0  0.10655447564E+04  0.65323148855E+03 -0.19635952963E+03  0.12651702191E+04  0.12699999809E+01 0. -1.
       -4    1    3    3    0  502 -0.10655447564E+04 -0.65323148855E+03 -0.17163619063E+04  0.21232043735E+04  0.12699999809E+01 0.  1.
</event>
<event>
 5   0  0.1246044E-06  0.2789562E+04  0.7818609E-02  0.8306516E-01
       -1   -1    0    0    0  501  0.00000000000E+00  0.00000000000E+00  0.10930399865E+04  0.10930399865E+04  0.50400001928E-02 0. -1.
        1   -1    0    0  501    0  0.00000000000E+00  0.00000000000E+00 -0.17798190215E+04  0.17798190215E+04  0.50400001928E-02 0.  1.
    10030    2    1    2    0    0  0.00000000000E+00  0.00000000000E+00 -0.68677903499E+03  0.28728590080E+04  0.27895615133E+04 0.  0.
        2    1    3    3  502    0  0.12744048281E+04 -0.46394865660E+03 -0.80005831565E+01  0.13562522005E+04  0.25500000920E-02 0. -1.
       -2    1    3    3    0  502 -0.12744048281E+04  0.46394865660E+03 -0.67877845183E+03  0.15166068075E+04  0.25500000920E-02 0.  1.
</event>
<event>
 5   0  0.3345919E-06  0.2781518E+04  0.7818609E-02  0.8309029E-01
        2   -1    0    0  501    0  0.00000000000E+00  0.00000000000E+00  0.20453704178E+04  0.20453704178E+04  0.25500000920E-02 0.  1.
       -2   -1    0    0    0  501  0.00000000000E+00  0.00000000000E+00 -0.94565305378E+03  0.94565305379E+03  0.25500000920E-02 0. -1.
    10030    2    1    2    0    0  0.00000000000E+00  0.00000000000E+00  0.10997173641E+04  0.29910234716E+04  0.27815181335E+04 0.  0.
        2    1    3    3  502    0 -0.47654406246E+03  0.25915842878E+03 -0.82720392498E+03  0.98920355245E+03  0.25500000920E-02 0. -1.
       -2    1    3    3    0  502  0.47654406246E+03 -0.25915842878E+03  0.19269212890E+04  0.20018199192E+04  0.25500000920E-02 0.  1.
</event>
<event>
 5   0  0.1263513E-06  0.2798974E+04  0.7818609E-02  0.8303587E-01
        1   -1    0    0  501    0  0.00000000000E+00  0.00000000000E+00  0.14850239996E+04  0.14850239996E+04  0.50400001928E-02 0. -1.
       -1   -1    0    0    0  501  0.00000000000E+00  0.00000000000E+00 -0.13188772639E+04  0.13188772639E+04  0.50400001928E-02 0.  1.
    10030    2    1    2    0    0  0.00000000000E+00  0.00000000000E+00  0.16614673567E+03  0.28039012635E+04  0.27989743760E+04 0.  0.
        3    1    3    3  502    0 -0.11555067421E+04 -0.33367066548E+03 -0.63375061986E+03  0.13594748259E+04  0.10100000352E+00 0.  1.
       -3    1    3    3    0  502  0.11555067421E+04  0.33367066548E+03  0.79989735553E+03  0.14444264376E+04  0.10100000352E+00 0. -1.
</event>
<event>
 5   0  0.3226364E-06  0.2809570E+04  0.7818609E-02  0.8300303E-01
       -2   -1    0    0    0  501  0.00000000000E+00  0.00000000000E+00  0.11010867966E+04  0.11010867966E+04  0.25500000920E-02 0. -1.
        2   -1    0    0  501    0  0.00000000000E+00  0.00000000000E+00 -0.17922487131E+04  0.17922487131E+04  0.25500000920E-02 0.  1.
    10030    2    1    2    0    0  0.00000000000E+00  0.00000000000E+00 -0.69116191646E+03  0.28933355097E+04  0.28095703545E+04 0.  0.
        5    1    3    3  502    0  0.30490604546E+02  0.10132987210E+04 -0.13470430334E+04  0.16858976833E+04  0.46999998093E+01 0.  1.
       -5    1    3    3    0  502 -0.30490604546E+02 -0.10132987210E+04  0.65588111689E+03  0.12074378263E+04  0.46999998093E+01 0. -1.
</event>
<event>
 5   0  0.1263513E-06  0.2814260E+04  0.7818609E-02  0.8298855E-01
       -1   -1    0    0    0  501  0.00000000000E+00  0.00000000000E+00  0.89820426182E+03  0.89820426184E+03  0.50400001928E-02 0. -1.
        1   -1    0    0  501    0  0.00000000000E+00  0.00000000000E+00 -0.22044150838E+04  0.22044150838E+04  0.50400001928E-02 0.  1.
    10030    2    1    2    0    0  0.00000000000E+00  0.00000000000E+00 -0.13062108220E+04  0.31026193457E+04  0.28142601324E+04 0.  0.
        3    1    3    3  502    0  0.11145846834E+04 -0.51327442412E+02  0.29211262784E+03  0.11533704177E+04  0.10100000352E+00 0. -1.
       -3    1    3    3    0  502 -0.11145846834E+04  0.51327442412E+02 -0.15983234498E+04  0.19492489280E+04  0.10100000352E+00 0.  1.
</event>
<event>
 5   0  0.3345919E-06  0.2804564E+04  0.7818609E-02  0.8301853E-01
       -2   -1    0    0    0  501  0.00000000000E+00  0.00000000000E+00  0.99186501298E+03  0.99186501298E+03  0.25500000920E-02 0.  1.
        2   -1    0    0  501    0  0.00000000000E+00  0.00000000000E+00 -0.19825229904E+04  0.19825229904E+04  0.25500000920E-02 0. -1.
    10030    2    1    2    0    0  0.00000000000E+00  0.00000000000E+00 -0.99065797742E+03  0.29743880034E+04  0.28045642739E+04 0.  0.
        2    1    3    3  502    0 -0.89954761712E+03 -0.91429278258E+03 -0.10964649459E+04  0.16874100229E+04  0.25500000920E-02 0. -1.
       -2    1    3    3    0  502  0.89954761712E+03  0.91429278258E+03  0.10580696845E+03  0.12869779805E+04  0.25500000920E-02 0.  1.
</event>
<event>
 5   0  0.3212679E-06  0.2811359E+04  0.7818609E-02  0.8299750E-01
       -2   -1    0    0    0  501  0.00000000000E+00  0.00000000000E+00  0.11406751007E+04  0.11406751007E+04  0.25500000920E-02 0. -1.
        2   -1    0    0  501    0  0.00000000000E+00  0.00000000000E+00 -0.17322504597E+04  0.17322504597E+04  0.25500000920E-02 0.  1.
    10030    2    1    2    0    0  0.00000000000E+00  0.00000000000E+00 -0.59157535903E+03  0.28729255604E+04  0.28113590789E+04 0.  0.
        4    1    3    3  502    0 -0.10899864047E+04 -0.50198855311E+03  0.45227497276E+03  0.12824262684E+04  0.12699999809E+01 0. -1.
       -4    1    3    3    0  502  0.10899864047E+04  0.50198855311E+03 -0.10438503318E+04  0.15904992921E+04  0.12699999809E+01 0.  1.
</event>
<event>
 5   0  0.1235252E-06  0.2816449E+04  0.7818609E-02  0.8298180E-01
        1   -1    0    0  501    0  0.00000000000E+00  0.00000000000E+00  0.16065160570E+04  0.16065160570E+04  0.50400001928E-02 0. -1.
       -1   -1    0    0    0  501  0.00000000000E+00  0.00000000000E+00 -0.12344080014E+04  0.12344080014E+04  0.50400001928E-02 0.  1.
    10030    2    1    2    0    0  0.00000000000E+00  0.00000000000E+00  0.37210805567E+03  0.28409240584E+04  0.28164490232E+04 0.  0.
        1    1    3    3  502    0 -0.25650240341E+03 -0.11689058270E+04 -0.56266442516E+03  0.13223938788E+04  0.50400001928E-02 0.  1.
       -1    1    3    3    0  502  0.25650240341E+03  0.11689058270E+04  0.93477248083E+03  0.15185301796E+04  0.50400001928E-02 0. -1.
</event>
<event>
 5   0  0.3167616E-06  0.2793566E+04  0.7818609E-02  0.8305269E-01
        2   -1    0    0  501    0  0.00000000000E+00  0.00000000000E+00  0.16648601368E+04  0.16648601368E+04  0.25500000920E-02 0. -1.
       -2   -1    0    0    0  501  0.00000000000E+00  0.00000000000E+00 -0.11718722312E+04  0.11718722312E+04  0.25500000920E-02 0.  1.
    10030    2    1    2    0    0  0.00000000000E+00  0.00000000000E+00  0.49298790553E+03  0.28367323680E+04  0.27935664396E+04 0.  0.
        3    1    3    3  502    0  0.13409583721E+04 -0.17586583016E+03 -0.10805033093E+03  0.13567509094E+04  0.10100000352E+00 0.  1.
       -3    1    3    3    0  502 -0.13409583721E+04  0.17586583016E+03  0.60103823647E+03  0.14799814586E+04  0.10100000352E+00 0. -1.
</event>
<event>
 5   0  0.3345919E-06  0.2805157E+04  0.7818609E-02  0.8301669E-01
        2   -1    0    0  501    0  0.00000000000E+00  0.00000000000E+00  0.20661130123E+04  0.20661130123E+04  0.25500000920E-02 0. -1.
       -2   -1    0    0    0  501  0.00000000000E+00  0.00000000000E+00 -0.95213904705E+03  0.95213904706E+03  0.25500000920E-02 0.  1.
    10030    2    1    2    0    0  0.00000000000E+00  0.00000000000E+00  0.11139739653E+04  0.30182520594E+04  0.28051573037E+04 0.  0.
        2    1    3    3  502    0  0.77686039904E+03  0.11644461662E+04  0.65189128098E+03  0.15441532294E+04  0.25500000920E-02 0. -1.
       -2    1    3    3    0  502 -0.77686039904E+03 -0.11644461662E+04  0.46208268431E+03  0.14740988300E+04  0.25500000920E-02 0.  1.
</event>
<event>
 5   0  0.1263513E-06  0.2797857E+04  0.7818609E-02  0.8303934E-01
       -1   -1    0    0    0  501  0.00000000000E+00  0.00000000000E+00  0.16908358978E+04  0.16908358978E+04  0.50400001928E-02 0. -1.
        1   -1    0    0  501    0  0.00000000000E+00  0.00000000000E+00 -0.11574163983E+04  0.11574163983E+04  0.50400001928E-02 0.  1.
    10030    2    1    2    0    0  0.00000000000E+00  0.00000000000E+00  0.53341949949E+03  0.28482522960E+04  0.27978571764E+04 0.  0.
        3    1    3    3  502    0 -0.14045033178E+03  0.88410269191E+03  0.13610785274E+04  0.16290790753E+04  0.10100000352E+00 0. -1.
       -3    1    3    3    0  502  0.14045033178E+03 -0.88410269191E+03 -0.82765902791E+03  0.12191732208E+04  0.10100000352E+00 0.  1.
</event>
<event>
 5   0  0.1243055E-06  0.2806762E+04  0.7818609E-02  0.8301172E-01
        1   -1    0    0  501    0  0.00000000000E+00  0.00000000000E+00  0.13159995800E+04  0.13159995800E+04  0.50400001928E-02 0.  1.
       -1   -1    0    0    0  501  0.00000000000E+00  0.00000000000E+00 -0.14965640879E+04  0.14965640879E+04  0.50400001928E-02 0. -1.
    10030    2    1    2    0    0  0.00000000000E+00  0.00000000000E+00 -0.18056450790E+03  0.28125636679E+04  0.28067616294E+04 0.  0.
        5    1    3    3  502    0 -0.76504074090E+03 -0.11704122906E+04 -0.21012611780E+03  0.14139757214E+04  0.46999998093E+01 0.  1.
       -5    1    3    3    0  502  0.76504074090E+03  0.11704122906E+04  0.29561609900E+02  0.13985879465E+04  0.46999998093E+01 0. -1.
</event>
<event>
 5   0  0.1220265E-06  0.2802610E+04  0.7818609E-02  0.8302459E-01
       -1   -1    0    0    0  501  0.00000000000E+00  0.00000000000E+00  0.18174973599E+04  0.18174973599E+04  0.50400001928E-02 0.  1.
        1   -1    0    0  501    0  0.00000000000E+00  0.00000000000E+00 -0.10804173268E+04  0.10804173269E+04  0.50400001928E-02 0. -1.
    10030    2    1    2    0    0  0.00000000000E+00  0.00000000000E+00  0.73708003309E+03  0.28979146868E+04  0.28026099544E+04 0.  0.
        4    1    3    3  502    0 -0.84233622195E+03 -0.11037045318E+04  0.17246019174E+03  0.13990847490E+04  0.12699999809E+01 0. -1.
       -4    1    3    3    0  502  0.84233622195E+03  0.11037045318E+04  0.56461984135E+03  0.14988299378E+04  0.12699999809E+01 0.  1.
</event>
<event>
 5   0  0.3167616E-06  0.2803086E+04  0.7818609E-02  0.8302311E-01
       -2   -1    0    0    0  501  0.00000000000E+00  0.00000000000E+00  0.19040825150E+04  0.19040825150E+04  0.25500000920E-02 0.  1.
        2   -1    0    0  501    0  0.00000000000E+00  0.00000000000E+00 -0.10316375527E+04  0.10316375527E+04  0.25500000920E-02 0. -1.
    10030    2    1    2    0    0  0.00000000000E+00  0.00000000000E+00  0.87244496230E+03  0.29357200678E+04  0.28030861749E+04 0.  0.
        3    1    3    3  502    0  0.52262378940E+03  0.16988084218E+03  0.17865419764E+04  0.18691515106E+04  0.10100000352E+00 0.  1.
       -3    1    3    3    0  502 -0.52262378940E+03 -0.16988084218E+03 -0.91409701411E+03  0.10665685572E+04  0.10100000352E+00 0. -1.
</event>
<event>
 5   0  0.3345919E-06  0.2733472E+04  0.7818609E-02  0.8324226E-01
        2   -1    0    0  501    0  0.00000000000E+00  0.00000000000E+00  0.17581135382E+04  0.17581135382E+04  0.25500000920E-02 0. -1.
       -2   -1    0    0    0  501  0.00000000000E+00  0.00000000000E+00 -0.10624837014E+04  0.10624837014E+04  0.25500000920E-02 0.  1.
    10030    2    1    2    0    0  0.00000000000E+00  0.00000000000E+00  0.69562983686E+03  0.28205972396E+04  0.27334717702E+04 0.  0.
        2    1    3    3  502    0  0.35063370598E+03 -0.10657351667E+04 -0.45759629565E+03  0.12116640670E+04  0.25500000920E-02 0.  1.
       -2    1    3    3    0  502 -0.35063370598E+03  0.10657351667E+04  0.11532261325E+04  0.16089331727E+04  0.25500000920E-02 0. -1.
</event>
<event>
 5   0  0.3212679E-06  0.2794938E+04  0.7818609E-02  0.8304842E-01
       -2   -1    0    0    0  501  0.00000000000E+00  0.00000000000E+00  0.12974759185E+04  0.12974759185E+04  0.25500000920E-02 0. -1.
        2   -1    0    0  501    0  0.00000000000E+00  0.00000000000E+00 -0.15051678851E+04  0.15051678851E+04  0.25500000920E-02 0.  1.
    10030    2    1    2    0    0  0.00000000000E+00  0.00000000000E+00 -0.20769196658E+03  0.28026438036E+04  0.27949376266E+04 0.  0.
        4    1    3    3  502    0  0.12004349555E+04  0.39997142851E+03 -0.69869000543E+03  0.14454032526E+04  0.12699999809E+01 0.  1.
       -4    1    3    3    0  502 -0.12004349555E+04 -0.39997142851E+03  0.49099803885E+03  0.13572405510E+04  0.12699999809E+01 0. -1.
</event>
<event>
 5   0  0.1246044E-06  0.2794115E+04  0.7818609E-02  0.8305098E-01
        1   -1    0    0  501    0  0.00000000000E+00  0.00000000000E+00  0.16669470908E+04  0.16669470909E+04  0.50400001928E-02 0.  1.
       -1   -1    0    0    0  501  0.00000000000E+00  0.00000000000E+00 -0.11708648081E+04  0.11708648081E+04  0.50400001928E-02 0. -1.
    10030    2    1    2    0    0  0.00000000000E+00  0.00000000000E+00  0.49608228272E+03  0.28378118990E+04  0.27941150196E+04 0.  0.
        2    1    3    3  502    0 -0.28579048679E+03  0.91418892154E+03  0.12809774073E+04  0.15994751341E+04  0.25500000920E-02 0.  1.
       -2    1    3    3    0  502  0.28579048679E+03 -0.91418892154E+03 -0.78489512459E+03  0.12383367649E+04  0.25500000920E-02 0. -1.
</event>
<event>
 5   0  0.3167616E-06  0.2802395E+04  0.7818609E-02  0.8302525E-01
        2   -1    0    0  501    0  0.00000000000E+00  0.00000000000E+00  0.16749305696E+04  0.16749305696E+04  0.25500000920E-02 0.  1.
       -2   -1    0    0    0  501  0.00000000000E+00  0.00000000000E+00 -0.11722002218E+04  0.11722002218E+04  0.25500000920E-02 0. -1.
    10030    2    1    2    0    0  0.00000000000E+00  0.00000000000E+00  0.50273034774E+03  0.28471307914E+04  0.28023946797E+04 0.  0.
        3    1    3    3  502    0  0.94389864133E+03  0.28951832079E+03  0.12615152229E+04  0.16019320120E+04  0.10100000352E+00 0.  1.
       -3    1    3    3    0  502 -0.94389864133E+03 -0.28951832079E+03 -0.75878487521E+03  0.12451987794E+04  0.10100000352E+00 0. -1.
</event>
<event>
 5   0  0.3345919E-06  0.2786731E+04  0.7818609E-02  0.8307400E-01
       -2   -1    0    0    0  501  0.00000000000E+00  0.00000000000E+00  0.95622310887E+03  0.95622310888E+03  0.25500000920E-02 0. -1.
        2   -1    0    0  501    0  0.00000000000E+00  0.00000000000E+00 -0.20303491798E+04  0.20303491798E+04  0.25500000920E-02 0.  1.
    10030    2    1    2    0    0  0.00000000000E+00  0.00000000000E+00 -0.10741260709E+04  0.29865722887E+04  0.27867305610E+04 0.  0.
        2    1    3    3  502    0 -0.12173180140E+04  0.65506881063E+03 -0.72419421619E+03  0.15605882085E+04  0.25500000920E-02 0. -1.
       -2    1    3    3    0  502  0.12173180140E+04 -0.65506881063E+03 -0.34993185476E+03  0.14259840802E+04  0.25500000920E-02 0.  1.
</event>
<event>
 5   0  0.1235252E-06  0.2794978E+04  0.7818609E-02  0.8304829E-01
       -1   -1    0    0    0  501  0.00000000000E+00  0.00000000000E+00  0.14494927934E+04  0.14494927934E+04  0.50400001928E-02 0.  1.
        1   -1    0    0  501    0  0.00000000000E+00  0.00000000000E+00 -0.13473506809E+04  0.13473506809E+04  0.50400001928E-02 0. -1.
    10030    2    1    2    0    0  0.00000000000E+00  0.00000000000E+00  0.10214211253E+03  0.27968434743E+04  0.27949777116E+04 0.  0.
        1    1    3    3  502    0  0.10978516738E+03 -0.30297016403E+03  0.14118065065E+04  0.14481164715E+04  0.50400001928E-02 0.  1.
       -1    1    3    3    0  502 -0.10978516738E+03  0.30297016403E+03 -0.13096643939E+04  0.13487270028E+04  0.50400001928E-02 0. -1.
</event>
<event>
 5   0  0.1243055E-06  0.2800047E+04  0.7818609E-02  0.8303254E-01
       -1   -1    0    0    0  501  0.00000000000E+00  0.00000000000E+00  0.16020433825E+04  0.16020433825E+04  0.50400001928E-02 0. -1.
        1   -1    0    0  501    0  0.00000000000E+00  0.00000000000E+00 -0.12234783248E+04  0.12234783248E+04  0.50400001928E-02 0.  1.
    10030    2    1    2    0    0  0.00000000000E+00  0.00000000000E+00  0.37856505771E+03  0.28255217073E+04  0.28000466809E+04 0.  0.
        5    1    3    3  502    0 -0.91547921322E+03 -0.10568564008E+04  0.11795976529E+03  0.14032049879E+04  0.46999998093E+01 0. -1.
       -5    1    3    3    0  502  0.91547921322E+03  0.10568564008E+04  0.26060529241E+03  0.14223167194E+04  0.46999998093E+01 0.  1.
</event>
<event>
 5   0  0.1220265E-06  0.2781377E+04  0.7818609E-02  0.8309074E-01
       -1   -1    0    0    0  501  0.00000000000E+00  0.00000000000E+00  0.15078224497E+04  0.15078224497E+04  0.50400001928E-02 0.  1.
        1   -1    0    0  501    0  0.00000000000E+00  0.00000000000E+00 -0.12826536024E+04  0.12826536025E+04  0.50400001928E-02 0. -1.
    10030    2    1    2    0    0  0.00000000000E+00  0.00000000000E+00  0.22516884728E+03  0.27904760522E+04  0.27813765635E+04 0.  0.
        4    1    3    3  502    0  0.16357234885E+02  0.10898264498E+04  0.97913642056E+03  0.14651617633E+04  0.12699999809E+01 0.  1.
       -4    1    3    3    0  502 -0.16357234885E+02 -0.10898264498E+04 -0.75396757328E+03  0.13253142889E+04  0.12699999809E+01 0. -1.
</event>
<event>
 5   0  0.1263513E-06  0.2806588E+04  0.7818609E-02  0.8301226E-01
        1   -1    0    0  501    0  0.00000000000E+00  0.00000000000E+00  0.25453646345E+04  0.25453646345E+04  0.50400001928E-02 0. -1.
       -1   -1    0    0    0  501  0.00000000000E+00  0.00000000000E+00 -0.77365473787E+03  0.77365473789E+03  0.50400001928E-02 0.  1.
    10030    2    1    2    0    0  0.00000000000E+00  0.00000000000E+00  0.17717098967E+04  0.33190193724E+04  0.28065875430E+04 0.  0.
        3    1    3    3  502    0 -0.53958834523E+02  0.19605107386E+03 -0.75614012036E+03  0.78300413230E+03  0.10100000352E+00 0.  1.
       -3    1    3    3    0  502  0.53958834523E+02 -0.19605107386E+03  0.25278500170E+04  0.25360152401E+04  0.10100000352E+00 0. -1.
</event>
<event>
 5   0  0.3167616E-06  0.2797679E+04  0.7818609E-02  0.8303989E-01
       -2   -1    0    0    0  501  0.00000000000E+00  0.00000000000E+00  0.13832599136E+04  0.13832599136E+04  0.25500000920E-02 0. -1.
        2   -1    0    0  501    0  0.00000000000E+00  0.00000000000E+00 -0.14145940627E+04  0.14145940627E+04  0.25500000920E-02 0.  1.
    10030    2    1    2    0    0  0.00000000000E+00  0.00000000000E+00 -0.31334149141E+02  0.27978539763E+04  0.27976785097E+04 0.  0.
        3    1    3    3  502    0 -0.59279052706E+00  0.37347961801E+03  0.13324767731E+04  0.13838286518E+04  0.10100000352E+00 0. -1.
       -3    1    3    3    0  502  0.59279052706E+00 -0.37347961801E+03 -0.13638109223E+04  0.14140253245E+04  0.10100000352E+00 0.  1.
</event>
<event>
 5   0  0.1220265E-06  0.2772336E+04  0.7818609E-02  0.8311909E-01
       -1   -1    0    0    0  501  0.00000000000E+00  0.00000000000E+00  0.18768632250E+04  0.18768632250E+04  0.50400001928E-02 0. -1.
        1   -1    0    0  501    0  0.00000000000E+00  0.00000000000E+00 -0.10237622039E+04  0.10237622040E+04  0.50400001928E-02 0.  1.
    10030    2    1    2    0    0  0.00000000000E+00  0.00000000000E+00  0.85310102109E+03  0.29006254290E+04  0.27723359333E+04 0.  0.
        4    1    3    3  502    0  0.17103519732E+03 -0.86814921045E+02 -0.10098100505E+04  0.10278656625E+04  0.12699999809E+01 0.  1.
       -4    1    3    3    0  502 -0.17103519732E+03  0.86814921045E+02  0.18629110716E+04  0.18727597664E+04  0.12699999809E+01 0. -1.
</event>
<event>
 5   0  0.3162695E-06  0.2797683E+04  0.7818609E-02  0.8303988E-01
        2   -1    0    0  501    0  0.00000000000E+00  0.00000000000E+00  0.16134005583E+04  0.16134005583E+04  0.25500000920E-02 0. -1.
       -2   -1    0    0    0  501  0.00000000000E+00  0.00000000000E+00 -0.12128159375E+04  0.12128159375E+04  0.25500000920E-02 0.  1.
    10030    2    1    2    0    0  0.00000000000E+00  0.00000000000E+00  0.40058462088E+03  0.28262164958E+04  0.27976832635E+04 0.  0.
        1    1    3    3  502    0 -0.87152580053E+03 -0.28391529862E+03 -0.86717428231E+03  0.12618067814E+04  0.50400001928E-02 0.  1.
       -1    1    3    3    0  502  0.87152580053E+03  0.28391529862E+03  0.12677589032E+04  0.15644097144E+04  0.50400001928E-02 0. -1.
</event>
<event>
 5   0  0.1246044E-06  0.2795981E+04  0.7818609E-02  0.8304517E-01
        1   -1    0    0  501    0  0.00000000000E+00  0.00000000000E+00  0.15448772751E+04  0.15448772751E+04  0.50400001928E-02 0.  1.
       -1   -1    0    0    0  501  0.00000000000E+00  0.00000000000E+00 -0.12650700387E+04  0.12650700387E+04  0.50400001928E-02 0. -1.
    10030    2    1    2    0    0  0.00000000000E+00  0.00000000000E+00  0.27980723645E+03  0.28099473139E+04  0.27959813692E+04 0.  0.
        2    1    3    3  502    0  0.20576433428E+03  0.12073304776E+04  0.81735681283E+03  0.14724326820E+04  0.25500000920E-02 0.  1.
       -2    1    3    3    0  502 -0.20576433428E+03 -0.12073304776E+04 -0.53754957639E+03  0.13375146319E+04  0.25500000920E-02 0. -1.
</event>
<event>
 5   0  0.1263513E-06  0.2746795E+04  0.7818609E-02  0.8319979E-01
       -1   -1    0    0    0  501  0.00000000000E+00  0.00000000000E+00  0.14309537674E+04  0.14309537674E+04  0.50400001928E-02 0. -1.
        1   -1    0    0  501    0  0.00000000000E+00  0.00000000000E+00 -0.13181565147E+04  0.13181565147E+04  0.50400001928E-02 0.  1.
    10030    2    1    2    0    0  0.00000000000E+00  0.00000000000E+00  0.11279725271E+03  0.27491102821E+04  0.27467952459E+04 0.  0.
        3    1    3    3  502    0  0.98494458338E+03  0.32047879861E+03 -0.84624759013E+03  0.13375191538E+04  0.10100000352E+00 0.  1.
       -3    1    3    3    0  502 -0.98494458338E+03 -0.32047879861E+03  0.95904484284E+03  0.14115911283E+04  0.10100000352E+00 0. -1.
</event>
<event>
 5   0  0.3162695E-06  0.2811900E+04  0.7818609E-02  0.8299583E-01
       -2   -1    0    0    0  501  0.00000000000E+00  0.00000000000E+00  0.99981393216E+03  0.99981393216E+03  0.25500000920E-02 0. -1.
        2   -1    0    0  501    0  0.00000000000E+00  0.00000000000E+00 -0.19770631211E+04  0.19770631211E+04  0.25500000920E-02 0.  1.
    10030    2    1    2    0    0  0.00000000000E+00  0.00000000000E+00 -0.97724918890E+03  0.29768770532E+04  0.28118998938E+04 0.  0.
        1    1    3    3  502    0  0.11255490839E+02  0.12850403408E+04 -0.10923826600E+04  0.16866402223E+04  0.50400001928E-02 0. -1.
       -1    1    3    3    0  502 -0.11255490839E+02 -0.12850403408E+04  0.11513347111E+03  0.12902368309E+04  0.50400001928E-02 0.  1.
</event>
<event>
 5   0  0.1220265E-06  0.2762954E+04  0.7818609E-02  0.8314863E-01
        1   -1    0    0  501    0  0.00000000000E+00  0.00000000000E+00  0.61247963413E+03  0.61247963415E+03  0.50400001928E-02 0. -1.
       -1   -1    0    0    0  501  0.00000000000E+00  0.00000000000E+00 -0.31159861534E+04  0.31159861534E+04  0.50400001928E-02 0.  1.
    10030    2    1    2    0    0  0.00000000000E+00  0.00000000000E+00 -0.25035065193E+04  0.37284657875E+04  0.27629535351E+04 0.  0.
        4    1    3    3  502    0 -0.20003944419E+03  0.11340331014E+04 -0.22816135129E+04  0.25557403408E+04  0.12699999809E+01 0.  1.
       -4    1    3    3    0  502  0.20003944419E+03 -0.11340331014E+04 -0.22189300633E+03  0.11727254467E+04  0.12699999809E+01 0. -1.
</event>
<event>
 5   0  0.3345919E-06  0.2785022E+04  0.7818609E-02  0.8307934E-01
        2   -1    0    0  501    0  0.00000000000E+00  0.00000000000E+00  0.20226205020E+04  0.20226205020E+04  0.25500000920E-02 0. -1.
       -2   -1    0    0    0  501  0.00000000000E+00  0.00000000000E+00 -0.95870011489E+03  0.95870011489E+03  0.25500000920E-02 0.  1.
    10030    2    1    2    0    0  0.00000000000E+00  0.00000000000E+00  0.10639203871E+04  0.29813206169E+04  0.27850217289E+04 0.  0.
        2    1    3    3  502    0  0.11740359003E+04  0.67074830268E+03  0.88832507843E+03  0.16178334357E+04  0.25500000920E-02 0. -1.
       -2    1    3    3    0  502 -0.11740359003E+04 -0.67074830268E+03  0.17559530863E+03  0.13634871811E+04  0.25500000920E-02 0.  1.
</event>
<event>
 5   0  0.1243055E-06  0.2859169E+04  0.7818609E-02  0.8285131E-01
       -1   -1    0    0    0  501  0.00000000000E+00  0.00000000000E+00  0.99458848335E+03  0.99458848336E+03  0.50400001928E-02 0.  1.
        1   -1    0    0  501    0  0.00000000000E+00  0.00000000000E+00 -0.20548316313E+04  0.20548316314E+04  0.50400001928E-02 0. -1.
    10030    2    1    2    0    0  0.00000000000E+00  0.00000000000E+00 -0.10602431480E+04  0.30494201147E+04  0.28591690232E+04 0.  0.
        5    1    3    3  502    0 -0.21031386226E+03  0.11908863784E+04  0.28300467181E+03  0.12419967879E+04  0.46999998093E+01 0.  1.
       -5    1    3    3    0  502  0.21031386226E+03 -0.11908863784E+04 -0.13432478198E+04  0.18074233268E+04  0.46999998093E+01 0. -1.
</event>
<event>
 5   0  0.3167616E-06  0.2807921E+04  0.7818609E-02  0.8300813E-01
       -2   -1    0    0    0  501  0.00000000000E+00  0.00000000000E+00  0.18507260531E+04  0.18507260531E+04  0.25500000920E-02 0. -1.
        2   -1    0    0  501    0  0.00000000000E+00  0.00000000000E+00 -0.10650444018E+04  0.10650444018E+04  0.25500000920E-02 0.  1.
    10030    2    1    2    0    0  0.00000000000E+00  0.00000000000E+00  0.78568165128E+03  0.29157704549E+04  0.28079212397E+04 0.  0.
        3    1    3    3  502    0 -0.85881277029E+03 -0.10227139621E+04 -0.56925938794E+02  0.13366913613E+04  0.10100000352E+00 0. -1.
       -3    1    3    3    0  502  0.85881277029E+03  0.10227139621E+04  0.84260759008E+03  0.15790790936E+04  0.10100000352E+00 0.  1.
</event>
<event>
 5   0  0.1246044E-06  0.2849376E+04  0.7818609E-02  0.8288101E-01
        1   -1    0    0  501    0  0.00000000000E+00  0.00000000000E+00  0.15602940990E+04  0.15602940990E+04  0.50400001928E-02 0.  1.
       -1   -1    0    0    0  501  0.00000000000E+00  0.00000000000E+00 -0.13008670533E+04  0.13008670533E+04  0.50400001928E-02 0. -1.
    10030    2    1    2    0    0  0.00000000000E+00  0.00000000000E+00  0.25942704570E+03  0.28611611523E+04  0.28493755012E+04 0.  0.
        2    1    3    3  502    0 -0.12694359349E+04 -0.20921960807E+03 -0.48477744021E+03  0.13748634855E+04  0.25500000920E-02 0. -1.
       -2    1    3    3    0  502  0.12694359349E+04  0.20921960807E+03  0.74420448591E+03  0.14862976667E+04  0.25500000920E-02 0.  1.
</event>
<event>
 5   0  0.3345919E-06  0.2799601E+04  0.7818609E-02  0.8303392E-01
       -2   -1    0    0    0  501  0.00000000000E+00  0.00000000000E+00  0.89281295975E+03  0.89281295976E+03  0.25500000920E-02 0. -1.
        2   -1    0    0  501    0  0.00000000000E+00  0.00000000000E+00 -0.21946831399E+04  0.21946831399E+04  0.25500000920E-02 0.  1.
    10030    2    1    2    0    0  0.00000000000E+00  0.00000000000E+00 -0.13018701802E+04  0.30874960997E+04  0.27996010786E+04 0.  0.
        2    1    3    3  502    0 -0.11094527894E+03  0.49814554308E+03 -0.20884252261E+04  0.21498785459E+04  0.25500000920E-02 0.  1.
       -2    1    3    3    0  502  0.11094527894E+03 -0.49814554308E+03  0.78655504590E+03  0.93761755383E+03  0.25500000920E-02 0. -1.
</event>
<event>
 5   0  0.3162695E-06  0.2802240E+04  0.7818609E-02  0.8302573E-01
        2   -1    0    0  501    0  0.00000000000E+00  0.00000000000E+00  0.23109472237E+04  0.23109472237E+04  0.25500000920E-02 0.  1.
       -2   -1    0    0    0  501  0.00000000000E+00  0.00000000000E+00 -0.84949455281E+03  0.84949455281E+03  0.25500000920E-02 0. -1.
    10030    2    1    2    0    0  0.00000000000E+00  0.00000000000E+00  0.14614526709E+04  0.31604417765E+04  0.28022398744E+04 0.  0.
        1    1    3    3  502    0 -0.33029069452E+03 -0.48308505094E+03  0.21665143169E+04  0.22441585048E+04  0.50400001928E-02 0.  1.
       -1    1    3    3    0  502  0.33029069452E+03  0.48308505094E+03 -0.70506164600E+03  0.91628327171E+03  0.50400001928E-02 0. -1.
</event>
<event>
 5   0  0.1263513E-06  0.2812963E+04  0.7818609E-02  0.8299255E-01
       -1   -1    0    0    0  501  0.00000000000E+00  0.00000000000E+00  0.98809164601E+03  0.98809164602E+03  0.50400001928E-02 0. -1.
        1   -1    0    0  501    0  0.00000000000E+00  0.00000000000E+00 -0.20020312387E+04  0.20020312387E+04  0.50400001928E-02 0.  1.
    10030    2    1    2    0    0  0.00000000000E+00  0.00000000000E+00 -0.10139395927E+04  0.29901228848E+04  0.28129630940E+04 0.  0.
        3    1    3    3  502    0 -0.80828881860E+03  0.99254674392E+03 -0.11265242372E+04  0.17051500580E+04  0.10100000352E+00 0.  1.
       -3    1    3    3    0  502  0.80828881860E+03 -0.99254674392E+03  0.11258464445E+03  0.12849728268E+04  0.10100000352E+00 0. -1.
</event>
<event>
 5   0  0.1220265E-06  0.2791716E+04  0.7818609E-02  0.8305845E-01
        1   -1    0    0  501    0  0.00000000000E+00  0.00000000000E+00  0.11218812073E+04  0.11218812073E+04  0.50400001928E-02 0. -1.
       -1   -1    0    0    0  501  0.00000000000E+00  0.00000000000E+00 -0.17367428318E+04  0.17367428318E+04  0.50400001928E-02 0.  1.
    10030    2    1    2    0    0  0.00000000000E+00  0.00000000000E+00 -0.61486162443E+03  0.28586240391E+04  0.27917157054E+04 0.  0.
        4    1    3    3  502    0  0.81812309695E+03  0.82251918780E+03  0.48741694384E+03  0.12583481657E+04  0.12699999809E+01 0. -1.
       -4    1    3    3    0  502 -0.81812309695E+03 -0.82251918780E+03 -0.11022785683E+04  0.16002758734E+04  0.12699999809E+01 0.  1.
</event>
<event>
 5   0  0.3345919E-06  0.2802264E+04  0.7818609E-02  0.8302566E-01
       -2   -1    0    0    0  501  0.00000000000E+00  0.00000000000E+00  0.15077326845E+04  0.15077326845E+04  0.25500000920E-02 0. -1.
        2   -1    0    0  501    0  0.00000000000E+00  0.00000000000E+00 -0.13020683876E+04  0.13020683876E+04  0.25500000920E-02 0.  1.
    10030    2    1    2    0    0  0.00000000000E+00  0.00000000000E+00  0.20566429695E+03  0.28098010721E+04  0.28022641313E+04 0.  0.
        2    1    3    3  502    0 -0.11286118518E+04  0.30648915211E+03  0.87657513206E+03  0.14615349036E+04  0.25500000920E-02 0.  1.
       -2    1    3    3    0  502  0.11286118518E+04 -0.30648915211E+03 -0.67091083512E+03  0.13482661685E+04  0.25500000920E-02 0. -1.
</event>
<event>
 5   0  0.3212679E-06  0.2792095E+04  0.7818609E-02  0.8305727E-01
        2   -1    0    0  501    0  0.00000000000E+00  0.00000000000E+00  0.13907055180E+04  0.13907055180E+04  0.25500000920E-02 0.  1.
       -2   -1    0    0    0  501  0.00000000000E+00  0.00000000000E+00 -0.14014104431E+04  0.14014104431E+04  0.25500000920E-02 0. -1.
    10030    2    1    2    0    0  0.00000000000E+00  0.00000000000E+00 -0.10704925116E+02  0.27921159611E+04  0.27920954398E+04 0.  0.
        4    1    3    3  502    0 -0.96318666034E+03 -0.39160606046E+03  0.92624644864E+03  0.13924862462E+04  0.12699999809E+01 0.  1.
       -4    1    3    3    0  502  0.96318666034E+03  0.39160606046E+03 -0.93695137376E+03  0.13996297149E+04  0.12699999809E+01 0. -1.
</event>
<event>
 5   0  0.3167616E-06  0.2805231E+04  0.7818609E-02  0.8301646E-01
        2   -1    0    0  501    0  0.00000000000E+00  0.00000000000E+00  0.20852462255E+04  0.20852462255E+04  0.25500000920E-02 0.  1.
       -2   -1    0    0    0  501  0.00000000000E+00  0.00000000000E+00 -0.94345243196E+03  0.94345243196E+03  0.25500000920E-02 0. -1.
    10030    2    1    2    0    0  0.00000000000E+00  0.00000000000E+00  0.11417937935E+04  0.30286986575E+04  0.28052312722E+04 0.  0.
        3    1    3    3  502    0  0.12951110905E+02 -0.35843582666E+03  0.20348974927E+04  0.20662651788E+04  0.10100000352E+00 0.  1.
       -3    1    3    3    0  502 -0.12951110905E+02  0.35843582666E+03 -0.89310369919E+03  0.96243347864E+03  0.10100000352E+00 0. -1.
</event>
<event>
 5   0  0.3226364E-06  0.2808308E+04  0.7818609E-02  0.8300694E-01
        2   -1    0    0  501    0  0.00000000000E+00  0.00000000000E+00  0.13468234739E+04  0.13468234739E+04  0.25500000920E-02 0.  1.
       -2   -1    0    0    0  501  0.00000000000E+00  0.00000000000E+00 -0.14639246491E+04  0.14639246491E+04  0.25500000920E-02 0. -1.
    10030    2    1    2    0    0  0.00000000000E+00  0.00000000000E+00 -0.11710117519E+03  0.28107481230E+04  0.28083077334E+04 0.  0.
        5    1    3    3  502    0  0.64023965764E+03 -0.10189528191E+04  0.66557956118E+03  0.13752054061E+04  0.46999998093E+01 0.  1.
       -5    1    3    3    0  502 -0.64023965764E+03  0.10189528191E+04 -0.78268073637E+03  0.14355427168E+04  0.46999998093E+01 0. -1.
</event>
<event>
 5   0  0.1220265E-06  0.2959647E+04  0.7818609E-02  0.8255349E-01
        1   -1    0    0  501    0  0.00000000000E+00  0.00000000000E+00  0.21597056301E+04  0.21597056301E+04  0.50400001928E-02 0.  1.
       -1   -1    0    0    0  501  0.00000000000E+00  0.00000000000E+00 -0.10139700935E+04  0.10139700935E+04  0.50400001928E-02 0. -1.
    10030    2    1    2    0    0  0.00000000000E+00  0.00000000000E+00  0.11457355366E+04  0.31736757236E+04  0.29596465462E+04 0.  0.
        4    1    3    3  502    0  0.46697302351E+03 -0.97327637969E+03  0.16582635599E+04  0.19786789439E+04  0.12699999809E+01 0.  1.
       -4    1    3    3    0  502 -0.46697302351E+03  0.97327637969E+03 -0.51252802327E+03  0.11949967797E+04  0.12699999809E+01 0. -1.
</event>
<event>
 5   0  0.1243055E-06  0.2795315E+04  0.7818609E-02  0.8304724E-01
       -1   -1    0    0    0  501  0.00000000000E+00  0.00000000000E+00  0.17530567822E+04  0.17530567822E+04  0.50400001928E-02 0.  1.
        1   -1    0    0  501    0  0.00000000000E+00  0.00000000000E+00 -0.11143089232E+04  0.11143089232E+04  0.50400001928E-02 0. -1.
    10030    2    1    2    0    0  0.00000000000E+00  0.00000000000E+00  0.63874785898E+03  0.28673657053E+04  0.27953152346E+04 0.  0.
        5    1    3    3  502    0  0.84917130224E+03 -0.45801487810E+03 -0.71790528445E+03  0.12026136605E+04  0.46999998093E+01 0. -1.
       -5    1    3    3    0  502 -0.84917130224E+03  0.45801487810E+03  0.13566531434E+04  0.16647520448E+04  0.46999998093E+01 0.  1.
</event>
<event>
 5   0  0.1235252E-06  0.2776005E+04  0.7818609E-02  0.8310757E-01
        1   -1    0    0  501    0  0.00000000000E+00  0.00000000000E+00  0.21266082745E+04  0.21266082745E+04  0.50400001928E-02 0. -1.
       -1   -1    0    0    0  501  0.00000000000E+00  0.00000000000E+00 -0.90592625697E+03  0.90592625699E+03  0.50400001928E-02 0.  1.
    10030    2    1    2    0    0  0.00000000000E+00  0.00000000000E+00  0.12206820175E+04  0.30325345315E+04  0.27760045203E+04 0.  0.
        1    1    3    3  502    0  0.79570859939E+03 -0.86333474740E+03  0.14190572361E+04  0.18417987133E+04  0.50400001928E-02 0.  1.
       -1    1    3    3    0  502 -0.79570859939E+03  0.86333474740E+03 -0.19837521857E+03  0.11907358181E+04  0.50400001928E-02 0. -1.
</event>
<event>
 5   0  0.3212679E-06  0.2792001E+04  0.7818609E-02  0.8305756E-01
        2   -1    0    0  501    0  0.00000000000E+00  0.00000000000E+00  0.82122726274E+03  0.82122726274E+03  0.25500000920E-02 0.  1.
       -2   -1    0    0    0  501  0.00000000000E+00  0.00000000000E+00 -0.23730555766E+04  0.23730555766E+04  0.25500000920E-02 0. -1.
    10030    2    1    2    0    0  0.00000000000E+00  0.00000000000E+00 -0.15518283138E+04  0.31942828393E+04  0.27920013864E+04 0.  0.
        4    1    3    3  502    0 -0.74184437700E+03  0.11722503686E+04 -0.95430432146E+03  0.16838059144E+04  0.12699999809E+01 0. -1.
       -4    1    3    3    0  502  0.74184437700E+03 -0.11722503686E+04 -0.59752399237E+03  0.15104769249E+04  0.12699999809E+01 0.  1.
</event>
<event>
 5   0  0.3212679E-06  0.2806545E+04  0.7818609E-02  0.8301239E-01
       -2   -1    0    0    0  501  0.00000000000E+00  0.00000000000E+00  0.86436938363E+03  0.86436938364E+03  0.25500000920E-02 0.  1.
        2   -1    0    0  501    0  0.00000000000E+00  0.00000000000E+00 -0.22781625634E+04  0.22781625634E+04  0.25500000920E-02 0. -1.
    10030    2    1    2    0    0  0.00000000000E+00  0.00000000000E+00 -0.14137931798E+04  0.31425319470E+04  0.28065451863E+04 0.  0.
        4    1    3    3  502    0 -0.10991827900E+04 -0.64170289049E+03 -0.13685593106E+04  0.18689413059E+04  0.12699999809E+01 0. -1.
       -4    1    3    3    0  502  0.10991827900E+04  0.64170289049E+03 -0.45233869187E+02  0.12735906411E+04  0.12699999809E+01 0.  1.
</event>
<event>
 5   0  0.1065675E-06  0.2801467E+04  0.7818609E-02  0.8302813E-01
       -3   -1    0    0    0  501  0.00000000000E+00  0.00000000000E+00  0.15636308557E+04  0.15636308590E+04  0.10100000352E+00 0.  1.
        3   -1    0    0  501    0  0.00000000000E+00  0.00000000000E+00 -0.12548063917E+04  0.12548063957E+04  0.10100000352E+00 0. -1.
    10030    2    1    2    0    0  0.00000000000E+00  0.00000000000E+00  0.30882446404E+03  0.28184372547E+04  0.28014667603E+04 0.  0.
        5    1    3    3  502    0  0.77158449889E+03 -0.10365321984E+04 -0.38950157068E+03  0.13496203914E+04  0.46999998093E+01 0. -1.
       -5    1    3    3    0  502 -0.77158449889E+03  0.10365321984E+04  0.69832603472E+03  0.14688168633E+04  0.46999998093E+01 0.  1.
</event>
<event>
 5   0  0.3345919E-06  0.2788376E+04  0.7818609E-02  0.8306886E-01
        2   -1    0    0  501    0  0.00000000000E+00  0.00000000000E+00  0.17070323006E+04  0.17070323006E+04  0.25500000920E-02 0. -1.
       -2   -1    0    0    0  501  0.00000000000E+00  0.00000000000E+00 -0.11386780741E+04  0.11386780741E+04  0.25500000920E-02 0.  1.
    10030    2    1    2    0    0  0.00000000000E+00  0.00000000000E+00  0.56835422646E+03  0.28457103747E+04  0.27883760524E+04 0.  0.
        2    1    3    3  502    0 -0.89168161037E+03 -0.50850089610E+03  0.12470225070E+04  0.16151576978E+04  0.25500000920E-02 0. -1.
       -2    1    3    3    0  502  0.89168161037E+03  0.50850089610E+03 -0.67866828056E+03  0.12305526769E+04  0.25500000920E-02 0.  1.
</event>
<event>
 5   0  0.1246044E-06  0.2815253E+04  0.7818609E-02  0.8298549E-01
       -1   -1    0    0    0  501  0.00000000000E+00  0.00000000000E+00  0.13648221308E+04  0.13648221308E+04  0.50400001928E-02 0. -1.
        1   -1    0    0  501    0  0.00000000000E+00  0.00000000000E+00 -0.14517731934E+04  0.14517731934E+04  0.50400001928E-02 0.  1.
    10030    2    1    2    0    0  0.00000000000E+00  0.00000000000E+00 -0.86951062601E+02  0.28165953241E+04  0.28152528719E+04 0.  0.
        2    1    3    3  502    0 -0.10754662205E+04 -0.65629153601E+03  0.58457058284E+03  0.13889092620E+04  0.25500000920E-02 0. -1.
       -2    1    3    3    0  502  0.10754662205E+04  0.65629153601E+03 -0.67152164544E+03  0.14276860621E+04  0.25500000920E-02 0.  1.
</event>
<event>
 5   0  0.1263513E-06  0.2795135E+04  0.7818609E-02  0.8304780E-01
        1   -1    0    0  501    0  0.00000000000E+00  0.00000000000E+00  0.94553781016E+03  0.94553781018E+03  0.50400001928E-02 0. -1.
       -1   -1    0    0    0  501  0.00000000000E+00  0.00000000000E+00 -0.20656979897E+04  0.20656979897E+04  0.50400001928E-02 0.  1.
    10030    2    1    2    0    0  0.00000000000E+00  0.00000000000E+00 -0.11201601796E+04  0.30112357999E+04  0.27951354555E+04 0.  0.
        3    1    3    3  502    0  0.85136753175E+03  0.76979705964E+03  0.29892512459E+03  0.11860735337E+04  0.10100000352E+00 0. -1.
       -3    1    3    3    0  502 -0.85136753175E+03 -0.76979705964E+03 -0.14190853042E+04  0.18251622662E+04  0.10100000352E+00 0.  1.
</event>
<event>
 5   0  0.3226364E-06  0.2777742E+04  0.7818609E-02  0.8310212E-01
       -2   -1    0    0    0  501  0.00000000000E+00  0.00000000000E+00  0.83786724583E+03  0.83786724583E+03  0.25500000920E-02 0.  1.
        2   -1    0    0  501    0  0.00000000000E+00  0.00000000000E+00 -0.23022294846E+04  0.23022294846E+04  0.25500000920E-02 0. -1.
    10030    2    1    2    0    0  0.00000000000E+00  0.00000000000E+00 -0.14643622388E+04  0.31400967304E+04  0.27777420165E+04 0.  0.
        5    1    3    3  502    0  0.15905569332E+03 -0.13430703266E+04 -0.10893100481E+04  0.17365929537E+04  0.46999998093E+01 0. -1.
       -5    1    3    3    0  502 -0.15905569332E+03  0.13430703266E+04 -0.37505219061E+03  0.14035037768E+04  0.46999998093E+01 0.  1.
</event>
<event>
 5   0  0.3162695E-06  0.2803339E+04  0.7818609E-02  0.8302233E-01
        2   -1    0    0  501    0  0.00000000000E+00  0.00000000000E+00  0.24691701904E+04  0.24691701904E+04  0.25500000920E-02 0.  1.
       -2   -1    0    0    0  501  0.00000000000E+00  0.00000000000E+00 -0.79568314644E+03  0.79568314645E+03  0.25500000920E-02 0. -1.
    10030    2    1    2    0    0  0.00000000000E+00  0.00000000000E+00  0.16734870440E+04  0.32648533369E+04  0.28033387995E+04 0.  0.
        1    1    3    3  502    0  0.79227350357E+03  0.93976755780E+03  0.52179580234E+02  0.12302776417E+04  0.50400001928E-02 0. -1.
       -1    1    3    3    0  502 -0.79227350357E+03 -0.93976755780E+03  0.16213074637E+04  0.20345756951E+04  0.50400001928E-02 0.  1.
</event>
<event>
 5   0  0.1220265E-06  0.2768652E+04  0.7818609E-02  0.8313067E-01
       -1   -1    0    0    0  501  0.00000000000E+00  0.00000000000E+00  0.18112538562E+04  0.18112538562E+04  0.50400001928E-02 0.  1.
        1   -1    0    0  501    0  0.00000000000E+00  0.00000000000E+00 -0.10580286581E+04  0.10580286581E+04  0.50400001928E-02 0. -1.
    10030    2    1    2    0    0  0.00000000000E+00  0.00000000000E+00  0.75322519812E+03  0.28692825143E+04  0.27686520092E+04 0.  0.
        4    1    3    3  502    0 -0.46735289658E+03  0.60617223494E+03  0.15720072152E+04  0.17484483996E+04  0.12699999809E+01 0.  1.
       -4    1    3    3    0  502  0.46735289658E+03 -0.60617223494E+03 -0.81878201709E+03  0.11208341147E+04  0.12699999809E+01 0. -1.
</event>
<event>
 5   0  0.1220265E-06  0.2800296E+04  0.7818609E-02  0.8303177E-01
        1   -1    0    0  501    0  0.00000000000E+00  0.00000000000E+00  0.65898123293E+03  0.65898123295E+03  0.50400001928E-02 0.  1.
       -1   -1    0    0    0  501  0.00000000000E+00  0.00000000000E+00 -0.29749159970E+04  0.29749159970E+04  0.50400001928E-02 0. -1.
    10030    2    1    2    0    0  0.00000000000E+00  0.00000000000E+00 -0.23159347641E+04  0.36338972300E+04  0.28002955641E+04 0.  0.
        4    1    3    3  502    0 -0.10917584550E+04 -0.80846404154E+03 -0.71816645614E+03  0.15366571843E+04  0.12699999809E+01 0. -1.
       -4    1    3    3    0  502  0.10917584550E+04  0.80846404154E+03 -0.15977683080E+04  0.20972400457E+04  0.12699999809E+01 0.  1.
</event>
<event>
 5   0  0.1243055E-06  0.2802759E+04  0.7818609E-02  0.8302412E-01
       -1   -1    0    0    0  501  0.00000000000E+00  0.00000000000E+00  0.16978474261E+04  0.16978474262E+04  0.50400001928E-02 0.  1.
        1   -1    0    0  501    0  0.00000000000E+00  0.00000000000E+00 -0.11566791259E+04  0.11566791259E+04  0.50400001928E-02 0. -1.
    10030    2    1    2    0    0  0.00000000000E+00  0.00000000000E+00  0.54116830028E+03  0.28545265520E+04  0.28027591240E+04 0.  0.
        5    1    3    3  502    0  0.94640837349E+03  0.27075792684E+03 -0.74525696761E+03  0.12346775701E+04  0.46999998093E+01 0. -1.
       -5    1    3    3    0  502 -0.94640837349E+03 -0.27075792684E+03  0.12864252679E+04  0.16198489819E+04  0.46999998093E+01 0.  1.
</event>
<event>
 5   0  0.3212679E-06  0.2811807E+04  0.7818609E-02  0.8299612E-01
       -2   -1    0    0    0  501  0.00000000000E+00  0.00000000000E+00  0.20721387847E+04  0.20721387847E+04  0.25500000920E-02 0.  1.
        2   -1    0    0  501    0  0.00000000000E+00  0.00000000000E+00 -0.95387677995E+03  0.95387677995E+03  0.25500000920E-02 0. -1.
    10030    2    1    2    0    0  0.00000000000E+00  0.00000000000E+00  0.11182620047E+04  0.30260155646E+04  0.28118072989E+04 0.  0.
        4    1    3    3  502    0  0.69072136627E+02 -0.93875600969E+03 -0.56470862909E+03  0.10976936068E+04  0.12699999809E+01 0. -1.
       -4    1    3    3    0  502 -0.69072136627E+02  0.93875600969E+03  0.16829706338E+04  0.19283219578E+04  0.12699999809E+01 0.  1.
</event>
<event>
 5   0  0.1243055E-06  0.2798045E+04  0.7818609E-02  0.8303876E-01
        1   -1    0    0  501    0  0.00000000000E+00  0.00000000000E+00  0.18555281114E+04  0.18555281114E+04  0.50400001928E-02 0.  1.
       -1   -1    0    0    0  501  0.00000000000E+00  0.00000000000E+00 -0.10548285969E+04  0.10548285969E+04  0.50400001928E-02 0. -1.
    10030    2    1    2    0    0  0.00000000000E+00  0.00000000000E+00  0.80069951448E+03  0.29103567084E+04  0.27980451136E+04 0.  0.
        5    1    3    3  502    0 -0.24722007444E+03 -0.12557057011E+04 -0.18742324841E+03  0.12934698052E+04  0.46999998093E+01 0. -1.
       -5    1    3    3    0  502  0.24722007444E+03  0.12557057011E+04  0.98812276289E+03  0.16168869031E+04  0.46999998093E+01 0.  1.
</event>
<event>
 5   0  0.3167616E-06  0.2796595E+04  0.7818609E-02  0.8304326E-01
       -2   -1    0    0    0  501  0.00000000000E+00  0.00000000000E+00  0.85853505354E+03  0.85853505354E+03  0.25500000920E-02 0. -1.
        2   -1    0    0  501    0  0.00000000000E+00  0.00000000000E+00 -0.22774095139E+04  0.22774095139E+04  0.25500000920E-02 0.  1.
    10030    2    1    2    0    0  0.00000000000E+00  0.00000000000E+00 -0.14188744604E+04  0.31359445675E+04  0.27965950003E+04 0.  0.
        3    1    3    3  502    0 -0.66681673696E+03  0.45894772016E+03 -0.19879454191E+04  0.21464399759E+04  0.10100000352E+00 0.  1.
       -3    1    3    3    0  502  0.66681673696E+03 -0.45894772016E+03  0.56907095871E+03  0.98950459159E+03  0.10100000352E+00 0. -1.
</event>
<event>
 5   0  0.3167616E-06  0.2794233E+04  0.7818609E-02  0.8305061E-01
        2   -1    0    0  501    0  0.00000000000E+00  0.00000000000E+00  0.17929879609E+04  0.17929879609E+04  0.25500000920E-02 0.  1.
       -2   -1    0    0    0  501  0.00000000000E+00  0.00000000000E+00 -0.10886490557E+04  0.10886490558E+04  0.25500000920E-02 0. -1.
    10030    2    1    2    0    0  0.00000000000E+00  0.00000000000E+00  0.70433890513E+03  0.28816370166E+04  0.27942330974E+04 0.  0.
        3    1    3    3  502    0 -0.15892875111E+02 -0.14810597386E+03 -0.10804366365E+04  0.10906563614E+04  0.10100000352E+00 0. -1.
       -3    1    3    3    0  502  0.15892875111E+02  0.14810597386E+03  0.17847755417E+04  0.17909806552E+04  0.10100000352E+00 0.  1.
</event>
<event>
 5   0  0.1243055E-06  0.2805611E+04  0.7818609E-02  0.8301528E-01
       -1   -1    0    0    0  501  0.00000000000E+00  0.00000000000E+00  0.13945425228E+04  0.13945425229E+04  0.50400001928E-02 0.  1.
        1   -1    0    0  501    0  0.00000000000E+00  0.00000000000E+00 -0.14111174229E+04  0.14111174229E+04  0.50400001928E-02 0. -1.
    10030    2    1    2    0    0  0.00000000000E+00  0.00000000000E+00 -0.16574900082E+02  0.28056599458E+04  0.28056109859E+04 0.  0.
        5    1    3    3  502    0 -0.10740359325E+04 -0.38831100305E+03  0.80628341795E+03  0.13980177608E+04  0.46999998093E+01 0. -1.
       -5    1    3    3    0  502  0.10740359325E+04  0.38831100305E+03 -0.82285831804E+03  0.14076421850E+04  0.46999998093E+01 0.  1.
</event>
<event>
 5   0  0.3167616E-06  0.2797861E+04  0.7818609E-02  0.8303933E-01
       -2   -1    0    0    0  501  0.00000000000E+00  0.00000000000E+00  0.16296962664E+04  0.16296962664E+04  0.25500000920E-02 0. -1.
        2   -1    0    0  501    0  0.00000000000E+00  0.00000000000E+00 -0.12008416219E+04  0.12008416219E+04  0.25500000920E-02 0.  1.
    10030    2    1    2    0    0  0.00000000000E+00  0.00000000000E+00  0.42885464443E+03  0.28305378883E+04  0.27978614031E+04 0.  0.
        3    1    3    3  502    0  0.14670263166E+03 -0.13906360783E+04  0.25510554180E+03  0.14214320990E+04  0.10100000352E+00 0. -1.
       -3    1    3    3    0  502 -0.14670263166E+03  0.13906360783E+04  0.17374910263E+03  0.14091057893E+04  0.10100000352E+00 0.  1.
</event>
<event>
 5   0  0.3345919E-06  0.2799502E+04  0.7818609E-02  0.8303423E-01
       -2   -1    0    0    0  501  0.00000000000E+00  0.00000000000E+00  0.94480659535E+03  0.94480659536E+03  0.25500000920E-02 0.  1.
        2   -1    0    0  501    0  0.00000000000E+00  0.00000000000E+00 -0.20737605069E+04  0.20737605069E+04  0.25500000920E-02 0. -1.
    10030    2    1    2    0    0  0.00000000000E+00  0.00000000000E+00 -0.11289539115E+04  0.30185671022E+04  0.27995018157E+04 0.  0.
        2    1    3    3  502    0  0.45530530656E+03  0.12461445542E+04 -0.10456278149E+04  0.16892355369E+04  0.25500000920E-02 0. -1.
       -2    1    3    3    0  502 -0.45530530656E+03 -0.12461445542E+04 -0.83326096647E+02  0.13293315653E+04  0.25500000920E-02 0.  1.
</event>
<event>
 5   0  0.3162695E-06  0.2806320E+04  0.7818609E-02  0.8301309E-01
        2   -1    0    0  501    0  0.00000000000E+00  0.00000000000E+00  0.13343241672E+04  0.13343241672E+04  0.25500000920E-02 0. -1.
       -2   -1    0    0    0  501  0.00000000000E+00  0.00000000000E+00 -0.14755465430E+04  0.14755465430E+04  0.25500000920E-02 0.  1.
    10030    2    1    2    0    0  0.00000000000E+00  0.00000000000E+00 -0.14122237578E+03  0.28098707102E+04  0.28063195913E+04 0.  0.
        1    1    3    3  502    0  0.68892026976E+03 -0.14171850405E+03  0.11450759889E+04  0.13438356644E+04  0.50400001928E-02 0. -1.
       -1    1    3    3    0  502 -0.68892026976E+03  0.14171850405E+03 -0.12862983647E+04  0.14660350458E+04  0.50400001928E-02 0.  1.
</event>
<event>
 5   0  0.1235252E-06  0.2800367E+04  0.7818609E-02  0.8303154E-01
        1   -1    0    0  501    0  0.00000000000E+00  0.00000000000E+00  0.20826611393E+04  0.20826611393E+04  0.50400001928E-02 0.  1.
       -1   -1    0    0    0  501  0.00000000000E+00  0.00000000000E+00 -0.94135035811E+03  0.94135035813E+03  0.50400001928E-02 0. -1.
    10030    2    1    2    0    0  0.00000000000E+00  0.00000000000E+00  0.11413107812E+04  0.30240114974E+04  0.28003669826E+04 0.  0.
        1    1    3    3  502    0  0.11003697923E+04  0.28884672077E+03 -0.31078484237E+03  0.11793359683E+04  0.50400001928E-02 0. -1.
       -1    1    3    3    0  502 -0.11003697923E+04 -0.28884672077E+03  0.14520956236E+04  0.18446755291E+04  0.50400001928E-02 0.  1.
</event>
<event>
 5   0  0.3212679E-06  0.2807962E+04  0.7818609E-02  0.8300801E-01
       -2   -1    0    0    0  501  0.00000000000E+00  0.00000000000E+00  0.13464871964E+04  0.13464871964E+04  0.25500000920E-02 0.  1.
        2   -1    0    0  501    0  0.00000000000E+00  0.00000000000E+00 -0.14639301281E+04  0.14639301281E+04  0.25500000920E-02 0. -1.
    10030    2    1    2    0    0  0.00000000000E+00  0.00000000000E+00 -0.11744293177E+03  0.28104173245E+04  0.28079623743E+04 0.  0.
        4    1    3    3  502    0 -0.43902631724E+03  0.27395779162E+03  0.12475496871E+04  0.13506216397E+04  0.12699999809E+01 0.  1.
       -4    1    3    3    0  502  0.43902631724E+03 -0.27395779162E+03 -0.13649926189E+04  0.14597956848E+04  0.12699999809E+01 0. -1.
</event>
<event>
 5   0  0.3212679E-06  0.2800458E+04  0.7818609E-02  0.8303126E-01
       -2   -1    0    0    0  501  0.00000000000E+00  0.00000000000E+00  0.12905316359E+04  0.12905316359E+04  0.25500000920E-02 0.  1.
        2   -1    0    0  501    0  0.00000000000E+00  0.00000000000E+00 -0.15192508649E+04  0.15192508649E+04  0.25500000920E-02 0. -1.
    10030    2    1    2    0    0  0.00000000000E+00  0.00000000000E+00 -0.22871922900E+03  0.28097825008E+04  0.28004580368E+04 0.  0.
        4    1    3    3  502    0  0.13978757760E+04  0.67062249955E+02 -0.68538521495E+02  0.14011613656E+04  0.12699999809E+01 0.  1.
       -4    1    3    3    0  502 -0.13978757760E+04 -0.67062249955E+02 -0.16018070751E+03  0.14086211352E+04  0.12699999809E+01 0. -1.
</event>
<event>
 5   0  0.3226364E-06  0.2807826E+04  0.7818609E-02  0.8300843E-01
        2   -1    0    0  501    0  0.00000000000E+00  0.00000000000E+00  0.10158517795E+04  0.10158517795E+04  0.25500000920E-02 0. -1.
       -2   -1    0    0    0  501  0.00000000000E+00  0.00000000000E+00 -0.19402155332E+04  0.19402155332E+04  0.25500000920E-02 0.  1.
    10030    2    1    2    0    0  0.00000000000E+00  0.00000000000E+00 -0.92436375370E+03  0.29560673128E+04  0.28078257796E+04 0.  0.
        5    1    3    3  502    0 -0.13084795072E+04 -0.46380340328E+03 -0.68230709914E+03  0.15468669255E+04  0.46999998093E+01 0. -1.
       -5    1    3    3    0  502  0.13084795072E+04  0.46380340328E+03 -0.24205665456E+03  0.14092003873E+04  0.46999998093E+01 0.  1.
</event>
<event>
 5   0  0.1220265E-06  0.2813646E+04  0.7818609E-02  0.8299044E-01
       -1   -1    0    0    0  501  0.00000000000E+00  0.00000000000E+00  0.13552808488E+04  0.13552808488E+04  0.50400001928E-02 0.  1.
        1   -1    0    0  501    0  0.00000000000E+00  0.00000000000E+00 -0.14603255695E+04  0.14603255695E+04  0.50400001928E-02 0. -1.
    10030    2    1    2    0    0  0.00000000000E+00  0.00000000000E+00 -0.10504472074E+03  0.28156064183E+04  0.28136462304E+04 0.  0.
        4    1    3    3  502    0  0.29474967609E+03 -0.13364541862E+04  0.27353050889E+03  0.13956388199E+04  0.12699999809E+01 0.  1.
       -4    1    3    3    0  502 -0.29474967609E+03  0.13364541862E+04 -0.37857522963E+03  0.14199675985E+04  0.12699999809E+01 0. -1.
</event>
<event>
 5   0  0.1246044E-06  0.2812008E+04  0.7818609E-02  0.8299550E-01
       -1   -1    0    0    0  501  0.00000000000E+00  0.00000000000E+00  0.13973726607E+04  0.13973726607E+04  0.50400001928E-02 0.  1.
        1   -1    0    0  501    0  0.00000000000E+00  0.00000000000E+00 -0.14146890958E+04  0.14146890959E+04  0.50400001928E-02 0. -1.
    10030    2    1    2    0    0  0.00000000000E+00  0.00000000000E+00 -0.17316435163E+02  0.28120617565E+04  0.28120084395E+04 0.  0.
        2    1    3    3  502    0 -0.68223039985E+03 -0.11246154701E+04 -0.50530592475E+03  0.14090891923E+04  0.25500000920E-02 0.  1.
       -2    1    3    3    0  502  0.68223039985E+03  0.11246154701E+04  0.48798948958E+03  0.14029725643E+04  0.25500000920E-02 0. -1.
</event>
<event>
 5   0  0.3167616E-06  0.2791641E+04  0.7818609E-02  0.8305868E-01
        2   -1    0    0  501    0  0.00000000000E+00  0.00000000000E+00  0.15032663719E+04  0.15032663719E+04  0.25500000920E-02 0.  1.
       -2   -1    0    0    0  501  0.00000000000E+00  0.00000000000E+00 -0.12960547716E+04  0.12960547716E+04  0.25500000920E-02 0. -1.
    10030    2    1    2    0    0  0.00000000000E+00  0.00000000000E+00  0.20721160033E+03  0.27993211436E+04  0.27916414916E+04 0.  0.
        3    1    3    3  502    0  0.38194123161E+03  0.78176937106E+02 -0.12403516328E+04  0.13001780343E+04  0.10100000352E+00 0. -1.
       -3    1    3    3    0  502 -0.38194123161E+03 -0.78176937106E+02  0.14475632331E+04  0.14991431092E+04  0.10100000352E+00 0.  1.
</event>
<event>
 5   0  0.3162695E-06  0.2787713E+04  0.7818609E-02  0.8307093E-01
        2   -1    0    0  501    0  0.00000000000E+00  0.00000000000E+00  0.32027116938E+04  0.32027116938E+04  0.25500000920E-02 0. -1.
       -2   -1    0    0    0  501  0.00000000000E+00  0.00000000000E+00 -0.60662237396E+03  0.60662237397E+03  0.25500000920E-02 0.  1.
    10030    2    1    2    0    0  0.00000000000E+00  0.00000000000E+00  0.25960893198E+04  0.38093340677E+04  0.27877134507E+04 0.  0.
        1    1    3    3  502    0 -0.75981308704E+02 -0.18001131364E+03 -0.58781593213E+03  0.61943910306E+03  0.50400001928E-02 0.  1.
       -1    1    3    3    0  502  0.75981308704E+02  0.18001131364E+03  0.31839052519E+04  0.31898949647E+04  0.50400001928E-02 0. -1.
</event>
<event>
 5   0  0.3212679E-06  0.2810656E+04  0.7818609E-02  0.8299968E-01
        2   -1    0    0  501    0  0.00000000000E+00  0.00000000000E+00  0.21999220323E+04  0.21999220323E+04  0.25500000920E-02 0. -1.
       -2   -1    0    0    0  501  0.00000000000E+00  0.00000000000E+00 -0.89773519053E+03  0.89773519053E+03  0.25500000920E-02 0.  1.
    10030    2    1    2    0    0  0.00000000000E+00  0.00000000000E+00  0.13021868418E+04  0.30976572229E+04  0.28106564535E+04 0.  0.
        4    1    3    3  502    0  0.75268918239E+02 -0.13913665263E+04  0.44973671287E+03  0.14641826881E+04  0.12699999809E+01 0.  1.
       -4    1    3    3    0  502 -0.75268918239E+02  0.13913665263E+04  0.85245012894E+03  0.16334745347E+04  0.12699999809E+01 0. -1.
</event>
<event>
 5   0  0.1263513E-06  0.2798157E+04  0.7818609E-02  0.8303841E-01
        1   -1    0    0  501    0  0.00000000000E+00  0.00000000000E+00  0.13515650731E+04  0.13515650732E+04  0.50400001928E-02 0. -1.
       -1   -1    0    0    0  501  0.00000000000E+00  0.00000000000E+00 -0.14482625225E+04  0.14482625225E+04  0.50400001928E-02 0.  1.
    10030    2    1    2    0    0  0.00000000000E+00  0.00000000000E+00 -0.96697449361E+02  0.27998275957E+04  0.27981572809E+04 0.  0.
        3    1    3    3  502    0  0.51669600533E+03  0.15132842667E+02 -0.13492083501E+04  0.14448414955E+04  0.10100000352E+00 0.  1.
       -3    1    3    3    0  502 -0.51669600533E+03 -0.15132842667E+02  0.12525109008E+04  0.13549861002E+04  0.10100000352E+00 0. -1.
</event>
<event>
 5   0  0.1235252E-06  0.2802627E+04  0.7818609E-02  0.8302453E-01
       -1   -1    0    0    0  501  0.00000000000E+00  0.00000000000E+00  0.78508346374E+03  0.78508346375E+03  0.50400001928E-02 0.  1.
        1   -1    0    0  501    0  0.00000000000E+00  0.00000000000E+00 -0.25012373471E+04  0.25012373471E+04  0.50400001928E-02 0. -1.
    10030    2    1    2    0    0  0.00000000000E+00  0.00000000000E+00 -0.17161538834E+04  0.32863208109E+04  0.28026273960E+04 0.  0.
        1    1    3    3  502    0 -0.63394880475E+03 -0.67580397924E+03 -0.20907305621E+04  0.22868660627E+04  0.50400001928E-02 0. -1.
       -1    1    3    3    0  502  0.63394880475E+03  0.67580397924E+03  0.37457667872E+03  0.99945474818E+03  0.50400001928E-02 0.  1.
</event>
<event>
 5   0  0.1220265E-06  0.2799206E+04  0.7818609E-02  0.8303515E-01
        1   -1    0    0  501    0  0.00000000000E+00  0.00000000000E+00  0.17480787549E+04  0.17480787549E+04  0.50400001928E-02 0.  1.
       -1   -1    0    0    0  501  0.00000000000E+00  0.00000000000E+00 -0.11205954338E+04  0.11205954338E+04  0.50400001928E-02 0. -1.
    10030    2    1    2    0    0  0.00000000000E+00  0.00000000000E+00  0.62748332110E+03  0.28686741887E+04  0.27992063665E+04 0.  0.
        4    1    3    3  502    0  0.63763840757E+03  0.28571330680E+03  0.15565504410E+04  0.17061845506E+04  0.12699999809E+01 0.  1.
       -4    1    3    3    0  502 -0.63763840757E+03 -0.28571330680E+03 -0.92906711987E+03  0.11624896381E+04  0.12699999809E+01 0. -1.
</event>
<event>
 5   0  0.3162695E-06  0.2793177E+04  0.7818609E-02  0.8305390E-01
       -2   -1    0    0    0  501  0.00000000000E+00  0.00000000000E+00  0.10145214847E+04  0.10145214847E+04  0.25500000920E-02 0.  1.
        2   -1    0    0  501    0  0.00000000000E+00  0.00000000000E+00 -0.19225419328E+04  0.19225419328E+04  0.25500000920E-02 0. -1.
    10030    2    1    2    0    0  0.00000000000E+00  0.00000000000E+00 -0.90802044806E+03  0.29370634176E+04  0.27931774710E+04 0.  0.
        1    1    3    3  502    0 -0.10301832278E+04  0.84791979378E+03 -0.88783389456E+03  0.16026523278E+04  0.50400001928E-02 0. -1.
       -1    1    3    3    0  502  0.10301832278E+04 -0.84791979378E+03 -0.20186553501E+02  0.13344110897E+04  0.50400001928E-02 0.  1.
</event>
<event>
 5   0  0.3212679E-06  0.2733175E+04  0.7818609E-02  0.8324320E-01
        2   -1    0    0  501    0  0.00000000000E+00  0.00000000000E+00  0.12132926809E+04  0.12132926809E+04  0.25500000920E-02 0. -1.
       -2   -1    0    0    0  501  0.00000000000E+00  0.00000000000E+00 -0.15392507062E+04  0.15392507062E+04  0.25500000920E-02 0.  1.
    10030    2    1    2    0    0  0.00000000000E+00  0.00000000000E+00 -0.32595802525E+03  0.27525433871E+04  0.27331751615E+04 0.  0.
        4    1    3    3  502    0  0.44459859436E+03  0.51332049093E+03  0.10313396979E+04  0.12348396746E+04  0.12699999809E+01 0. -1.
       -4    1    3    3    0  502 -0.44459859436E+03 -0.51332049093E+03 -0.13572977232E+04  0.15177037125E+04  0.12699999809E+01 0.  1.
</event>
<event>
 5   0  0.1243055E-06  0.2790874E+04  0.7818609E-02  0.8306107E-01
       -1   -1    0    0    0  501  0.00000000000E+00  0.00000000000E+00  0.11254109733E+04  0.11254109733E+04  0.50400001928E-02 0. -1.
        1   -1    0    0  501    0  0.00000000000E+00  0.00000000000E+00 -0.17302521895E+04  0.17302521895E+04  0.50400001928E-02 0.  1.
    10030    2    1    2    0    0  0.00000000000E+00  0.00000000000E+00 -0.60484121619E+03  0.28556631628E+04  0.27908742721E+04 0.  0.
        5    1    3    3  502    0  0.37528347243E+03  0.12061385679E+04  0.30431609711E+03  0.12993222490E+04  0.46999998093E+01 0. -1.
       -5    1    3    3    0  502 -0.37528347243E+03 -0.12061385679E+04 -0.90915731329E+03  0.15563409138E+04  0.46999998093E+01 0.  1.
</event>
<event>
 5   0  0.3162695E-06  0.2802798E+04  0.7818609E-02  0.8302400E-01
        2   -1    0    0  501    0  0.00000000000E+00  0.00000000000E+00  0.12920554573E+04  0.12920554573E+04  0.25500000920E-02 0.  1.
       -2   -1    0    0    0  501  0.00000000000E+00  0.00000000000E+00 -0.15199955834E+04  0.15199955834E+04  0.25500000920E-02 0. -1.
    10030    2    1    2    0    0  0.00000000000E+00  0.00000000000E+00 -0.22794012612E+03  0.28120510407E+04  0.28027975943E+04 0.  0.
        1    1    3    3  502    0  0.40101657587E+03  0.82889095435E+03  0.94594761877E+03  0.13201103764E+04  0.50400001928E-02 0.  1.
       -1    1    3    3    0  502 -0.40101657587E+03 -0.82889095435E+03 -0.11738877449E+04  0.14919406644E+04  0.50400001928E-02 0. -1.
</event>
<event>
 5   0  0.1263513E-06  0.2780997E+04  0.7818609E-02  0.8309192E-01
        1   -1    0    0  501    0  0.00000000000E+00  0.00000000000E+00  0.11767526057E+04  0.11767526058E+04  0.50400001928E-02 0.  1.
       -1   -1    0    0    0  501  0.00000000000E+00  0.00000000000E+00 -0.16430698700E+04  0.16430698700E+04  0.50400001928E-02 0. -1.
    10030    2    1    2    0    0  0.00000000000E+00  0.00000000000E+00 -0.46631726423E+03  0.28198224757E+04  0.27809974836E+04 0.  0.
        3    1    3    3  502    0  0.60516886684E+03 -0.72073760284E+03 -0.12710676104E+04  0.15815514313E+04  0.10100000352E+00 0. -1.
       -3    1    3    3    0  502 -0.60516886684E+03  0.72073760284E+03  0.80475034617E+03  0.12382710444E+04  0.10100000352E+00 0.  1.
</event>
<event>
 5   0  0.1065675E-06  0.2796362E+04  0.7818609E-02  0.8304399E-01
        3   -1    0    0  501    0  0.00000000000E+00  0.00000000000E+00  0.14609305912E+04  0.14609305946E+04  0.10100000352E+00 0.  1.
       -3   -1    0    0    0  501  0.00000000000E+00  0.00000000000E+00 -0.13381263459E+04  0.13381263497E+04  0.10100000352E+00 0. -1.
    10030    2    1    2    0    0  0.00000000000E+00  0.00000000000E+00  0.12280424523E+03  0.27990569444E+04  0.27963617247E+04 0.  0.
        1    1    3    3  502    0  0.93549486418E+03 -0.23904188726E+03 -0.95081834283E+03  0.13551188826E+04  0.50400001928E-02 0. -1.
       -1    1    3    3    0  502 -0.93549486418E+03  0.23904188726E+03  0.10736225881E+04  0.14439380618E+04  0.50400001928E-02 0.  1.
</event>
<event>
 5   0  0.1243055E-06  0.2802799E+04  0.7818609E-02  0.8302400E-01
       -1   -1    0    0    0  501  0.00000000000E+00  0.00000000000E+00  0.89838204125E+03  0.89838204127E+03  0.50400001928E-02 0.  1.
        1   -1    0    0  501    0  0.00000000000E+00  0.00000000000E+00 -0.21860642991E+04  0.21860642991E+04  0.50400001928E-02 0. -1.
    10030    2    1    2    0    0  0.00000000000E+00  0.00000000000E+00 -0.12876822579E+04  0.30844463404E+04  0.28027992489E+04 0.  0.
        5    1    3    3  502    0 -0.12261493688E+04 -0.38295791950E+03 -0.27371705738E+02  0.12848619938E+04  0.46999998093E+01 0.  1.
       -5    1    3    3    0  502  0.12261493688E+04  0.38295791950E+03 -0.12603105521E+04  0.17995843466E+04  0.46999998093E+01 0. -1.
</event>
<event>
 5   0  0.1065675E-06  0.2792047E+04  0.7818609E-02  0.8305742E-01
        4   -1    0    0  501    0  0.00000000000E+00  0.00000000000E+00  0.19326473659E+04  0.19326477831E+04  0.12699999809E+01 0.  1.
       -4   -1    0    0    0  501  0.00000000000E+00  0.00000000000E+00 -0.10083990292E+04  0.10083998289E+04  0.12699999809E+01 0. -1.
    10030    2    1    2    0    0  0.00000000000E+00  0.00000000000E+00  0.92424833671E+03  0.29410476120E+04  0.27920469316E+04 0.  0.
        1    1    3    3  502    0  0.41251723104E+03 -0.48757753428E+03 -0.84548431481E+03  0.10595971142E+04  0.50400001928E-02 0. -1.
       -1    1    3    3    0  502 -0.41251723104E+03  0.48757753428E+03  0.17697326515E+04  0.18814504978E+04  0.50400001928E-02 0.  1.
</event>
<event>
 5   0  0.3226364E-06  0.2800940E+04  0.7818609E-02  0.8302976E-01
        2   -1    0    0  501    0  0.00000000000E+00  0.00000000000E+00  0.13915670043E+04  0.13915670043E+04  0.25500000920E-02 0.  1.
       -2   -1    0    0    0  501  0.00000000000E+00  0.00000000000E+00 -0.14094304461E+04  0.14094304461E+04  0.25500000920E-02 0. -1.
    10030    2    1    2    0    0  0.00000000000E+00  0.00000000000E+00 -0.17863441812E+02  0.28009974505E+04  0.28009404876E+04 0.  0.
        5    1    3    3  502    0 -0.52063006746E+03  0.63355422845E+02 -0.13075054860E+04  0.14087804168E+04  0.46999998093E+01 0. -1.
       -5    1    3    3    0  502  0.52063006746E+03 -0.63355422845E+02  0.12896420442E+04  0.13922170337E+04  0.46999998093E+01 0.  1.
</event>
<event>
 5   0  0.3212679E-06  0.2789590E+04  0.7818609E-02  0.8306508E-01
        2   -1    0    0  501    0  0.00000000000E+00  0.00000000000E+00  0.12792356850E+04  0.12792356850E+04  0.25500000920E-02 0. -1.
       -2   -1    0    0    0  501  0.00000000000E+00  0.00000000000E+00 -0.15207929856E+04  0.15207929856E+04  0.25500000920E-02 0.  1.
    10030    2    1    2    0    0  0.00000000000E+00  0.00000000000E+00 -0.24155730058E+03  0.28000286706E+04  0.27895896879E+04 0.  0.
        4    1    3    3  502    0 -0.93429733442E+03  0.98021227877E+03  0.21472269535E+03  0.13710707747E+04  0.12699999809E+01 0. -1.
       -4    1    3    3    0  502  0.93429733442E+03 -0.98021227877E+03 -0.45627999593E+03  0.14289578959E+04  0.12699999809E+01 0.  1.
</event>
<event>
 5   0  0.1235252E-06  0.2797294E+04  0.7818609E-02  0.8304109E-01
       -1   -1    0    0    0  501  0.00000000000E+00  0.00000000000E+00  0.11566748828E+04  0.11566748828E+04  0.50400001928E-02 0. -1.
        1   -1    0    0  501    0  0.00000000000E+00  0.00000000000E+00 -0.16912385025E+04  0.16912385025E+04  0.50400001928E-02 0.  1.
    10030    2    1    2    0    0  0.00000000000E+00  0.00000000000E+00 -0.53456361970E+03  0.28479133854E+04  0.27972937613E+04 0.  0.
        1    1    3    3  502    0 -0.10390087697E+04  0.90269899489E+03 -0.14169980299E+02  0.13764466889E+04  0.50400001928E-02 0. -1.
       -1    1    3    3    0  502  0.10390087697E+04 -0.90269899489E+03 -0.52039363940E+03  0.14714666965E+04  0.50400001928E-02 0.  1.
</event>
<event>
 5   0  0.3226364E-06  0.2807590E+04  0.7818609E-02  0.8300916E-01
        2   -1    0    0  501    0  0.00000000000E+00  0.00000000000E+00  0.13191495258E+04  0.13191495258E+04  0.25500000920E-02 0.  1.
       -2   -1    0    0    0  501  0.00000000000E+00  0.00000000000E+00 -0.14938717161E+04  0.14938717161E+04  0.25500000920E-02 0. -1.
    10030    2    1    2    0    0  0.00000000000E+00  0.00000000000E+00 -0.17472219028E+03  0.28130212419E+04  0.28075898318E+04 0.  0.
        5    1    3    3  502    0 -0.44461224145E+03  0.45799305325E+03  0.11653297410E+04  0.13287035702E+04  0.46999998093E+01 0. -1.
       -5    1    3    3    0  502  0.44461224145E+03 -0.45799305325E+03 -0.13400519313E+04  0.14843176717E+04  0.46999998093E+01 0.  1.
</event>
<event>
 5   0  0.1243055E-06  0.2793919E+04  0.7818609E-02  0.8305159E-01
        1   -1    0    0  501    0  0.00000000000E+00  0.00000000000E+00  0.26092393472E+04  0.26092393472E+04  0.50400001928E-02 0. -1.
       -1   -1    0    0    0  501  0.00000000000E+00  0.00000000000E+00 -0.74791753763E+03  0.74791753765E+03  0.50400001928E-02 0.  1.
    10030    2    1    2    0    0  0.00000000000E+00  0.00000000000E+00  0.18613218096E+04  0.33571568849E+04  0.27939190165E+04 0.  0.
        5    1    3    3  502    0 -0.95423576166E+03  0.60208746166E+03  0.19203534239E+04  0.22272975919E+04  0.46999998093E+01 0. -1.
       -5    1    3    3    0  502  0.95423576166E+03 -0.60208746166E+03 -0.59031614334E+02  0.11298592929E+04  0.46999998093E+01 0.  1.
</event>
<event>
 5   0  0.3167616E-06  0.2807575E+04  0.7818609E-02  0.8300921E-01
        2   -1    0    0  501    0  0.00000000000E+00  0.00000000000E+00  0.94298698238E+03  0.94298698239E+03  0.25500000920E-02 0.  1.
       -2   -1    0    0    0  501  0.00000000000E+00  0.00000000000E+00 -0.20897625316E+04  0.20897625316E+04  0.25500000920E-02 0. -1.
    10030    2    1    2    0    0  0.00000000000E+00  0.00000000000E+00 -0.11467755493E+04  0.30327495140E+04  0.28075746570E+04 0.  0.
        3    1    3    3  502    0 -0.63812149934E+03  0.10128480723E+04  0.21859936684E+03  0.12169001433E+04  0.10100000352E+00 0.  1.
       -3    1    3    3    0  502  0.63812149934E+03 -0.10128480723E+04 -0.13653749161E+04  0.18158493707E+04  0.10100000352E+00 0. -1.
</event>
<event>
 5   0  0.3226364E-06  0.2786616E+04  0.7818609E-02  0.8307436E-01
        2   -1    0    0  501    0  0.00000000000E+00  0.00000000000E+00  0.19908315952E+04  0.19908315952E+04  0.25500000920E-02 0. -1.
       -2   -1    0    0    0  501  0.00000000000E+00  0.00000000000E+00 -0.97512351447E+03  0.97512351447E+03  0.25500000920E-02 0.  1.
    10030    2    1    2    0    0  0.00000000000E+00  0.00000000000E+00  0.10157080807E+04  0.29659551096E+04  0.27866156547E+04 0.  0.
        5    1    3    3  502    0 -0.46072669530E+02 -0.12573090454E+04 -0.12928270436E+03  0.12647864777E+04  0.46999998093E+01 0.  1.
       -5    1    3    3    0  502  0.46072669530E+02  0.12573090454E+04  0.11449907850E+04  0.17011686319E+04  0.46999998093E+01 0. -1.
</event>
<event>
 5   0  0.1220265E-06  0.2806104E+04  0.7818609E-02  0.8301376E-01
       -1   -1    0    0    0  501  0.00000000000E+00  0.00000000000E+00  0.12140599956E+04  0.12140599956E+04  0.50400001928E-02 0. -1.
        1   -1    0    0  501    0  0.00000000000E+00  0.00000000000E+00 -0.16214639851E+04  0.16214639851E+04  0.50400001928E-02 0.  1.
    10030    2    1    2    0    0  0.00000000000E+00  0.00000000000E+00 -0.40740398944E+03  0.28355239807E+04  0.28061037462E+04 0.  0.
        4    1    3    3  502    0 -0.42277039044E+03  0.25429589240E+03 -0.15309230155E+04  0.16084551894E+04  0.12699999809E+01 0.  1.
       -4    1    3    3    0  502  0.42277039044E+03 -0.25429589240E+03  0.11235190260E+04  0.12270687913E+04  0.12699999809E+01 0. -1.
</event>
<event>
 5   0  0.3167616E-06  0.2805692E+04  0.7818609E-02  0.8301503E-01
        2   -1    0    0  501    0  0.00000000000E+00  0.00000000000E+00  0.14392304461E+04  0.14392304461E+04  0.25500000920E-02 0. -1.
       -2   -1    0    0    0  501  0.00000000000E+00  0.00000000000E+00 -0.13673817686E+04  0.13673817686E+04  0.25500000920E-02 0.  1.
    10030    2    1    2    0    0  0.00000000000E+00  0.00000000000E+00  0.71848677454E+02  0.28066122147E+04  0.28056924085E+04 0.  0.
        3    1    3    3  502    0  0.77294428923E+03 -0.22873064045E+03 -0.11125883261E+04  0.13739044267E+04  0.10100000352E+00 0.  1.
       -3    1    3    3    0  502 -0.77294428923E+03  0.22873064045E+03  0.11844370036E+04  0.14327077880E+04  0.10100000352E+00 0. -1.
</event>
<event>
 5   0  0.3345919E-06  0.2802666E+04  0.7818609E-02  0.8302441E-01
       -2   -1    0    0    0  501  0.00000000000E+00  0.00000000000E+00  0.10775240814E+04  0.10775240814E+04  0.25500000920E-02 0. -1.
        2   -1    0    0  501    0  0.00000000000E+00  0.00000000000E+00 -0.18224507534E+04  0.18224507534E+04  0.25500000920E-02 0.  1.
    10030    2    1    2    0    0  0.00000000000E+00  0.00000000000E+00 -0.74492667194E+03  0.28999748348E+04  0.28026662834E+04 0.  0.
        2    1    3    3  502    0 -0.35762213599E+03  0.36343367915E+03  0.97813639726E+03  0.11030541433E+04  0.25500000920E-02 0. -1.
       -2    1    3    3    0  502  0.35762213599E+03 -0.36343367915E+03 -0.17230630692E+04  0.17969206916E+04  0.25500000920E-02 0.  1.
</event>
<event>
 5   0  0.3212679E-06  0.2793409E+04  0.7818609E-02  0.8305318E-01
       -2   -1    0    0    0  501  0.00000000000E+00  0.00000000000E+00  0.12839748954E+04  0.12839748954E+04  0.25500000920E-02 0. -1.
        2   -1    0    0  501    0  0.00000000000E+00  0.00000000000E+00 -0.15193311093E+04  0.15193311093E+04  0.25500000920E-02 0.  1.
    10030    2    1    2    0    0  0.00000000000E+00  0.00000000000E+00 -0.23535621392E+03  0.28033060047E+04  0.27934086720E+04 0.  0.
        4    1    3    3  502    0  0.10001164802E+04 -0.85695828092E+03  0.34891107536E+03  0.13624797322E+04  0.12699999809E+01 0. -1.
       -4    1    3    3    0  502 -0.10001164802E+04  0.85695828092E+03 -0.58426728928E+03  0.14408262725E+04  0.12699999809E+01 0.  1.
</event>
<event>
 5   0  0.3226364E-06  0.2725283E+04  0.7818609E-02  0.8326848E-01
        2   -1    0    0  501    0  0.00000000000E+00  0.00000000000E+00  0.13356360645E+04  0.13356360645E+04  0.25500000920E-02 0.  1.
       -2   -1    0    0    0  501  0.00000000000E+00  0.00000000000E+00 -0.13901928582E+04  0.13901928582E+04  0.25500000920E-02 0. -1.
    10030    2    1    2    0    0  0.00000000000E+00  0.00000000000E+00 -0.54556793727E+02  0.27258289228E+04  0.27252828977E+04 0.  0.
        5    1    3    3  502    0  0.11299644664E+04 -0.30682239992E+03 -0.72441872449E+03  0.13768675531E+04  0.46999998093E+01 0. -1.
       -5    1    3    3    0  502 -0.11299644664E+04  0.30682239992E+03  0.66986193076E+03  0.13489613696E+04  0.46999998093E+01 0.  1.
</event>
<event>
 5   0  0.3162695E-06  0.2804093E+04  0.7818609E-02  0.8301999E-01
        2   -1    0    0  501    0  0.00000000000E+00  0.00000000000E+00  0.24143964668E+04  0.24143964668E+04  0.25500000920E-02 0.  1.
       -2   -1    0    0    0  501  0.00000000000E+00  0.00000000000E+00 -0.81417202295E+03  0.81417202295E+03  0.25500000920E-02 0. -1.
    10030    2    1    2    0    0  0.00000000000E+00  0.00000000000E+00  0.16002244438E+04  0.32285684897E+04  0.28040927628E+04 0.  0.
        1    1    3    3  502    0  0.10733552320E+04 -0.27442180946E+03 -0.18922519709E+03  0.11239239114E+04  0.50400001928E-02 0. -1.
       -1    1    3    3    0  502 -0.10733552320E+04  0.27442180946E+03  0.17894496409E+04  0.21046445783E+04  0.50400001928E-02 0.  1.
</event>
<event>
 5   0  0.3162695E-06  0.2779293E+04  0.7818609E-02  0.8309726E-01
        2   -1    0    0  501    0  0.00000000000E+00  0.00000000000E+00  0.21715821759E+04  0.21715821759E+04  0.25500000920E-02 0. -1.
       -2   -1    0    0    0  501  0.00000000000E+00  0.00000000000E+00 -0.88926764551E+03  0.88926764551E+03  0.25500000920E-02 0.  1.
    10030    2    1    2    0    0  0.00000000000E+00  0.00000000000E+00  0.12823145304E+04  0.30608498214E+04  0.27792932689E+04 0.  0.
        1    1    3    3  502    0  0.12464221770E+04 -0.55503730729E+03  0.35085710231E+03  0.14088063607E+04  0.50400001928E-02 0.  1.
       -1    1    3    3    0  502 -0.12464221770E+04  0.55503730729E+03  0.93145742811E+03  0.16520434607E+04  0.50400001928E-02 0. -1.
</event>
<event>
 5   0  0.1235252E-06  0.2791292E+04  0.7818609E-02  0.8305977E-01
        1   -1    0    0  501    0  0.00000000000E+00  0.00000000000E+00  0.22053714094E+04  0.22053714094E+04  0.50400001928E-02 0. -1.
       -1   -1    0    0    0  501  0.00000000000E+00  0.00000000000E+00 -0.88321953055E+03  0.88321953056E+03  0.50400001928E-02 0.  1.
    10030    2    1    2    0    0  0.00000000000E+00  0.00000000000E+00  0.13221518788E+04  0.30885909400E+04  0.27912915297E+04 0.  0.
        1    1    3    3  502    0  0.64968547611E+03 -0.77592767139E+03 -0.40236681302E+03  0.10890610733E+04  0.50400001928E-02 0.  1.
       -1    1    3    3    0  502 -0.64968547611E+03  0.77592767139E+03  0.17245186919E+04  0.19995298667E+04  0.50400001928E-02 0. -1.
</event>
<event>
 5   0  0.1246044E-06  0.2806987E+04  0.7818609E-02  0.8301102E-01
       -1   -1    0    0    0  501  0.00000000000E+00  0.00000000000E+00  0.11601692953E+04  0.11601692953E+04  0.50400001928E-02 0. -1.
        1   -1    0    0  501    0  0.00000000000E+00  0.00000000000E+00 -0.16978506426E+04  0.16978506426E+04  0.50400001928E-02 0.  1.
    10030    2    1    2    0    0  0.00000000000E+00  0.00000000000E+00 -0.53768134730E+03  0.28580199379E+04  0.28069871275E+04 0.  0.
        2    1    3    3  502    0  0.67269366934E+03 -0.11929338444E+04  0.43636713434E+02  0.13702233733E+04  0.25500000920E-02 0. -1.
       -2    1    3    3    0  502 -0.67269366934E+03  0.11929338444E+04 -0.58131806073E+03  0.14877965646E+04  0.25500000920E-02 0.  1.
</event>
<event>
 5   0  0.3162695E-06  0.2806909E+04  0.7818609E-02  0.8301126E-01
        2   -1    0    0  501    0  0.00000000000E+00  0.00000000000E+00  0.20460964790E+04  0.20460964790E+04  0.25500000920E-02 0. -1.
       -2   -1    0    0    0  501  0.00000000000E+00  0.00000000000E+00 -0.96265510266E+03  0.96265510266E+03  0.25500000920E-02 0.  1.
    10030    2    1    2    0    0  0.00000000000E+00  0.00000000000E+00  0.10834413763E+04  0.30087515816E+04  0.28069094863E+04 0.  0.
        1    1    3    3  502    0 -0.76629566627E+03  0.81258564133E+03  0.14526420260E+04  0.18323955163E+04  0.50400001928E-02 0. -1.
       -1    1    3    3    0  502  0.76629566627E+03 -0.81258564133E+03 -0.36920064967E+03  0.11763560653E+04  0.50400001928E-02 0.  1.
</event>
<event>
 5   0  0.1243055E-06  0.2775994E+04  0.7818609E-02  0.8310760E-01
        1   -1    0    0  501    0  0.00000000000E+00  0.00000000000E+00  0.16283915908E+04  0.16283915908E+04  0.50400001928E-02 0.  1.
       -1   -1    0    0    0  501  0.00000000000E+00  0.00000000000E+00 -0.11830914487E+04  0.11830914487E+04  0.50400001928E-02 0. -1.
    10030    2    1    2    0    0  0.00000000000E+00  0.00000000000E+00  0.44530014212E+03  0.28114830395E+04  0.27759943561E+04 0.  0.
        5    1    3    3  502    0  0.13790340591E+04 -0.11166009272E+03  0.11027591499E+03  0.13879430031E+04  0.46999998093E+01 0.  1.
       -5    1    3    3    0  502 -0.13790340591E+04  0.11166009272E+03  0.33502422713E+03  0.14235400364E+04  0.46999998093E+01 0. -1.
</event>
<event>
 5   0  0.3226364E-06  0.2765815E+04  0.7818609E-02  0.8313961E-01
        2   -1    0    0  501    0  0.00000000000E+00  0.00000000000E+00  0.11132445047E+04  0.11132445047E+04  0.25500000920E-02 0. -1.
       -2   -1    0    0    0  501  0.00000000000E+00  0.00000000000E+00 -0.17178917139E+04  0.17178917139E+04  0.25500000920E-02 0.  1.
    10030    2    1    2    0    0  0.00000000000E+00  0.00000000000E+00 -0.60464720915E+03  0.28311362186E+04  0.27658152579E+04 0.  0.
        5    1    3    3  502    0  0.93483700040E+03 -0.19632112719E+03  0.72126765813E+03  0.11969592002E+04  0.46999998093E+01 0. -1.
       -5    1    3    3    0  502 -0.93483700040E+03  0.19632112719E+03 -0.13259148673E+04  0.16341770184E+04  0.46999998093E+01 0.  1.
</event>
<event>
 5   0  0.1263513E-06  0.2804936E+04  0.7818609E-02  0.8301737E-01
       -1   -1    0    0    0  501  0.00000000000E+00  0.00000000000E+00  0.16005380914E+04  0.16005380914E+04  0.50400001928E-02 0.  1.
        1   -1    0    0  501    0  0.00000000000E+00  0.00000000000E+00 -0.12289097498E+04  0.12289097498E+04  0.50400001928E-02 0. -1.
    10030    2    1    2    0    0  0.00000000000E+00  0.00000000000E+00  0.37162834154E+03  0.28294478412E+04  0.28049362670E+04 0.  0.
        3    1    3    3  502    0 -0.62549528827E+03 -0.90765976422E+03 -0.68884214763E+03  0.12998438821E+04  0.10100000352E+00 0. -1.
       -3    1    3    3    0  502  0.62549528827E+03  0.90765976422E+03  0.10604704892E+04  0.15296039591E+04  0.10100000352E+00 0.  1.
</event>
<event>
 5   0  0.3345919E-06  0.2795072E+04  0.7818609E-02  0.8304800E-01
       -2   -1    0    0    0  501  0.00000000000E+00  0.00000000000E+00  0.83015237907E+03  0.83015237907E+03  0.25500000920E-02 0. -1.
        2   -1    0    0  501    0  0.00000000000E+00  0.00000000000E+00 -0.23527084215E+04  0.23527084215E+04  0.25500000920E-02 0.  1.
    10030    2    1    2    0    0  0.00000000000E+00  0.00000000000E+00 -0.15225560424E+04  0.31828608006E+04  0.27950717296E+04 0.  0.
        2    1    3    3  502    0 -0.13298014911E+04 -0.35306003077E+03 -0.48215165466E+03  0.14579072704E+04  0.25500000920E-02 0. -1.
       -2    1    3    3    0  502  0.13298014911E+04  0.35306003077E+03 -0.10404043878E+04  0.17249535302E+04  0.25500000920E-02 0.  1.
</event>
<event>
 5   0  0.1220265E-06  0.2804641E+04  0.7818609E-02  0.8301829E-01
        1   -1    0    0  501    0  0.00000000000E+00  0.00000000000E+00  0.24601469843E+04  0.24601469843E+04  0.50400001928E-02 0.  1.
       -1   -1    0    0    0  501  0.00000000000E+00  0.00000000000E+00 -0.79934353946E+03  0.79934353947E+03  0.50400001928E-02 0. -1.
    10030    2    1    2    0    0  0.00000000000E+00  0.00000000000E+00  0.16608034448E+04  0.32594905238E+04  0.28046408669E+04 0.  0.
        4    1    3    3  502    0 -0.63621779067E+03  0.28102525964E+03  0.22455659054E+04  0.23508118006E+04  0.12699999809E+01 0.  1.
       -4    1    3    3    0  502  0.63621779067E+03 -0.28102525964E+03 -0.58476246054E+03  0.90867872314E+03  0.12699999809E+01 0. -1.
</event>
<event>
 5   0  0.1243055E-06  0.2730703E+04  0.7818609E-02  0.8325111E-01
       -1   -1    0    0    0  501  0.00000000000E+00  0.00000000000E+00  0.15741990543E+04  0.15741990543E+04  0.50400001928E-02 0. -1.
        1   -1    0    0  501    0  0.00000000000E+00  0.00000000000E+00 -0.11842111476E+04  0.11842111476E+04  0.50400001928E-02 0.  1.
    10030    2    1    2    0    0  0.00000000000E+00  0.00000000000E+00  0.38998790669E+03  0.27584102018E+04  0.27307025239E+04 0.  0.
        5    1    3    3  502    0  0.17559864231E+03 -0.42101515868E+03  0.14949367458E+04  0.15629928378E+04  0.46999998093E+01 0. -1.
       -5    1    3    3    0  502 -0.17559864231E+03  0.42101515868E+03 -0.11049488392E+04  0.11954173640E+04  0.46999998093E+01 0.  1.
</event>
<event>
 5   0  0.1235252E-06  0.2810574E+04  0.7818609E-02  0.8299993E-01
       -1   -1    0    0    0  501  0.00000000000E+00  0.00000000000E+00  0.18802343929E+04  0.18802343929E+04  0.50400001928E-02 0. -1.
        1   -1    0    0  501    0  0.00000000000E+00  0.00000000000E+00 -0.10503110274E+04  0.10503110274E+04  0.50400001928E-02 0.  1.
    10030    2    1    2    0    0  0.00000000000E+00  0.00000000000E+00  0.82992336550E+03  0.29305454203E+04  0.28105735478E+04 0.  0.
        1    1    3    3  502    0  0.17068310664E+03 -0.57494554211E+03 -0.91016691453E+03  0.10899995007E+04  0.50400001928E-02 0.  1.
       -1    1    3    3    0  502 -0.17068310664E+03  0.57494554211E+03  0.17400902800E+04  0.18405459196E+04  0.50400001928E-02 0. -1.
</event>
<event>
 5   0  0.1246044E-06  0.2804435E+04  0.7818609E-02  0.8301893E-01
        1   -1    0    0  501    0  0.00000000000E+00  0.00000000000E+00  0.23961290498E+04  0.23961290498E+04  0.50400001928E-02 0.  1.
       -1   -1    0    0    0  501  0.00000000000E+00  0.00000000000E+00 -0.82057946396E+03  0.82057946397E+03  0.50400001928E-02 0. -1.
    10030    2    1    2    0    0  0.00000000000E+00  0.00000000000E+00  0.15755495858E+04  0.32167085138E+04  0.28044352667E+04 0.  0.
        2    1    3    3  502    0  0.15303667703E+03 -0.28825281672E+03  0.23519602569E+04  0.23744950960E+04  0.25500000920E-02 0.  1.
       -2    1    3    3    0  502 -0.15303667703E+03  0.28825281672E+03 -0.77641067108E+03  0.84221341775E+03  0.25500000920E-02 0. -1.
</event>
<event>
 5   0  0.3167616E-06  0.2799397E+04  0.7818609E-02  0.8303455E-01
        2   -1    0    0  501    0  0.00000000000E+00  0.00000000000E+00  0.18378144921E+04  0.18378144921E+04  0.25500000920E-02 0. -1.
       -2   -1    0    0    0  501  0.00000000000E+00  0.00000000000E+00 -0.10660250808E+04  0.10660250808E+04  0.25500000920E-02 0.  1.
    10030    2    1    2    0    0  0.00000000000E+00  0.00000000000E+00  0.77178941138E+03  0.29038395729E+04  0.27993973226E+04 0.  0.
        3    1    3    3  502    0 -0.41877401918E+03  0.12076148889E+04  0.97766183402E+03  0.16092010660E+04  0.10100000352E+00 0. -1.
       -3    1    3    3    0  502  0.41877401918E+03 -0.12076148889E+04 -0.20587242264E+03  0.12946385069E+04  0.10100000352E+00 0.  1.
</event>
<event>
 5   0  0.3162695E-06  0.2792378E+04  0.7818609E-02  0.8305639E-01
        2   -1    0    0  501    0  0.00000000000E+00  0.00000000000E+00  0.17818987340E+04  0.17818987340E+04  0.25500000920E-02 0. -1.
       -2   -1    0    0    0  501  0.00000000000E+00  0.00000000000E+00 -0.10939701437E+04  0.10939701437E+04  0.25500000920E-02 0.  1.
    10030    2    1    2    0    0  0.00000000000E+00  0.00000000000E+00  0.68792859028E+03  0.28758688777E+04  0.27923782080E+04 0.  0.
        1    1    3    3  502    0 -0.85617523698E+03  0.70358725647E+03 -0.53070657576E+03  0.12287068542E+04  0.50400001928E-02 0. -1.
       -1    1    3    3    0  502  0.85617523698E+03 -0.70358725647E+03  0.12186351660E+04  0.16471620236E+04  0.50400001928E-02 0.  1.
</event>
<event>
 5   0  0.1246044E-06  0.2812197E+04  0.7818609E-02  0.8299492E-01
       -1   -1    0    0    0  501  0.00000000000E+00  0.00000000000E+00  0.15369556943E+04  0.15369556943E+04  0.50400001928E-02 0.  1.
        1   -1    0    0  501    0  0.00000000000E+00  0.00000000000E+00 -0.12863825348E+04  0.12863825349E+04  0.50400001928E-02 0. -1.
    10030    2    1    2    0    0  0.00000000000E+00  0.00000000000E+00  0.25057315943E+03  0.28233382291E+04  0.28121969789E+04 0.  0.
        2    1    3    3  502    0  0.14865971974E+03 -0.49081872396E+03  0.14397138015E+04  0.15283254112E+04  0.25500000920E-02 0.  1.
       -2    1    3    3    0  502 -0.14865971974E+03  0.49081872396E+03 -0.11891406421E+04  0.12950128180E+04  0.25500000920E-02 0. -1.
</event>
<event>
 5   0  0.1220265E-06  0.2804093E+04  0.7818609E-02  0.8301999E-01
       -1   -1    0    0    0  501  0.00000000000E+00  0.00000000000E+00  0.16560277546E+04  0.16560277546E+04  0.50400001928E-02 0. -1.
        1   -1    0    0  501    0  0.00000000000E+00  0.00000000000E+00 -0.11870177282E+04  0.11870177283E+04  0.50400001928E-02 0.  1.
    10030    2    1    2    0    0  0.00000000000E+00  0.00000000000E+00  0.46901002636E+03  0.28430454829E+04  0.28040929394E+04 0.  0.
        4    1    3    3  502    0 -0.90731362556E+03 -0.13390492215E+03 -0.84069034857E+03  0.12441504806E+04  0.12699999809E+01 0.  1.
       -4    1    3    3    0  502  0.90731362556E+03  0.13390492215E+03  0.13097003749E+04  0.15988950023E+04  0.12699999809E+01 0. -1.
</event>
<event>
 5   0  0.1263513E-06  0.2843211E+04  0.7818609E-02  0.8289977E-01
       -1   -1    0    0    0  501  0.00000000000E+00  0.00000000000E+00  0.88630700408E+03  0.88630700410E+03  0.50400001928E-02 0. -1.
        1   -1    0    0  501    0  0.00000000000E+00  0.00000000000E+00 -0.22802052231E+04  0.22802052232E+04  0.50400001928E-02 0.  1.
    10030    2    1    2    0    0  0.00000000000E+00  0.00000000000E+00 -0.13938982191E+04  0.31665122272E+04  0.28432107625E+04 0.  0.
        3    1    3    3  502    0  0.68560566599E+03 -0.10966683709E+04 -0.13541561637E+04  0.18725585627E+04  0.10100000352E+00 0.  1.
       -3    1    3    3    0  502 -0.68560566599E+03  0.10966683709E+04 -0.39742055396E+02  0.12939536646E+04  0.10100000352E+00 0. -1.
</event>
<event>
 5   0  0.1220265E-06  0.2806518E+04  0.7818609E-02  0.8301248E-01
       -1   -1    0    0    0  501  0.00000000000E+00  0.00000000000E+00  0.89915120860E+03  0.89915120861E+03  0.50400001928E-02 0. -1.
        1   -1    0    0  501    0  0.00000000000E+00  0.00000000000E+00 -0.21899944332E+04  0.21899944332E+04  0.50400001928E-02 0.  1.
    10030    2    1    2    0    0  0.00000000000E+00  0.00000000000E+00 -0.12908432246E+04  0.30891456418E+04  0.28065182283E+04 0.  0.
        4    1    3    3  502    0  0.13563452401E+04  0.33627609796E+03 -0.78629668408E+03  0.16034394633E+04  0.12699999809E+01 0.  1.
       -4    1    3    3    0  502 -0.13563452401E+04 -0.33627609796E+03 -0.50454654053E+03  0.14857061785E+04  0.12699999809E+01 0. -1.
</event>
<event>
 5   0  0.3345919E-06  0.2796140E+04  0.7818609E-02  0.8304468E-01
        2   -1    0    0  501    0  0.00000000000E+00  0.00000000000E+00  0.23577693612E+04  0.23577693612E+04  0.25500000920E-02 0. -1.
       -2   -1    0    0    0  501  0.00000000000E+00  0.00000000000E+00 -0.82900363992E+03  0.82900363992E+03  0.25500000920E-02 0.  1.
    10030    2    1    2    0    0  0.00000000000E+00  0.00000000000E+00  0.15287657213E+04  0.31867730012E+04  0.27961397551E+04 0.  0.
        2    1    3    3  502    0  0.44901020456E+03 -0.39799458657E+03 -0.67480242009E+03  0.90297738671E+03  0.25500000920E-02 0.  1.
       -2    1    3    3    0  502 -0.44901020456E+03  0.39799458657E+03  0.22035681414E+04  0.22837956145E+04  0.25500000920E-02 0. -1.
</event>
<event>
 5   0  0.3162695E-06  0.2800530E+04  0.7818609E-02  0.8303104E-01
        2   -1    0    0  501    0  0.00000000000E+00  0.00000000000E+00  0.19415315725E+04  0.19415315725E+04  0.25500000920E-02 0. -1.
       -2   -1    0    0    0  501  0.00000000000E+00  0.00000000000E+00 -0.10098946677E+04  0.10098946677E+04  0.25500000920E-02 0.  1.
    10030    2    1    2    0    0  0.00000000000E+00  0.00000000000E+00  0.93163690479E+03  0.29514262402E+04  0.28005302228E+04 0.  0.
        1    1    3    3  502    0 -0.11275818284E+04 -0.97233047683E+02  0.13347736207E+04  0.17500044754E+04  0.50400001928E-02 0. -1.
       -1    1    3    3    0  502  0.11275818284E+04  0.97233047683E+02 -0.40313671594E+03  0.12014217648E+04  0.50400001928E-02 0.  1.
</event>
<event>
 5   0  0.1235252E-06  0.2797589E+04  0.7818609E-02  0.8304017E-01
        1   -1    0    0  501    0  0.00000000000E+00  0.00000000000E+00  0.12313005257E+04  0.12313005257E+04  0.50400001928E-02 0. -1.
       -1   -1    0    0    0  501  0.00000000000E+00  0.00000000000E+00 -0.15890722131E+04  0.15890722131E+04  0.50400001928E-02 0.  1.
    10030    2    1    2    0    0  0.00000000000E+00  0.00000000000E+00 -0.35777168745E+03  0.28203727388E+04  0.27975885697E+04 0.  0.
        1    1    3    3  502    0  0.86133931390E+03  0.99821409435E+03  0.29213296560E+03  0.13504363967E+04  0.50400001928E-02 0. -1.
       -1    1    3    3    0  502 -0.86133931390E+03 -0.99821409435E+03 -0.64990465304E+03  0.14699363421E+04  0.50400001928E-02 0.  1.
</event>
<event>
 5   0  0.3345919E-06  0.2796847E+04  0.7818609E-02  0.8304248E-01
       -2   -1    0    0    0  501  0.00000000000E+00  0.00000000000E+00  0.11476782559E+04  0.11476782559E+04  0.25500000920E-02 0. -1.
        2   -1    0    0  501    0  0.00000000000E+00  0.00000000000E+00 -0.17039517005E+04  0.17039517005E+04  0.25500000920E-02 0.  1.
    10030    2    1    2    0    0  0.00000000000E+00  0.00000000000E+00 -0.55627344465E+03  0.28516299564E+04  0.27968470217E+04 0.  0.
        2    1    3    3  502    0 -0.31113745495E+03 -0.70384706747E+03 -0.14686468417E+04  0.16580502875E+04  0.25500000920E-02 0.  1.
       -2    1    3    3    0  502  0.31113745495E+03  0.70384706747E+03  0.91237339705E+03  0.11935796689E+04  0.25500000920E-02 0. -1.
</event>
<event>
 5   0  0.1263513E-06  0.2805639E+04  0.7818609E-02  0.8301520E-01
        1   -1    0    0  501    0  0.00000000000E+00  0.00000000000E+00  0.12669860319E+04  0.12669860319E+04  0.50400001928E-02 0.  1.
       -1   -1    0    0    0  501  0.00000000000E+00  0.00000000000E+00 -0.15532156580E+04  0.15532156580E+04  0.50400001928E-02 0. -1.
    10030    2    1    2    0    0  0.00000000000E+00  0.00000000000E+00 -0.28622962612E+03  0.28202016900E+04  0.28056389955E+04 0.  0.
        3    1    3    3  502    0  0.42807235833E+03  0.13070135488E+04 -0.42090439324E+03  0.14382944341E+04  0.10100000352E+00 0. -1.
       -3    1    3    3    0  502 -0.42807235833E+03 -0.13070135488E+04  0.13467476712E+03  0.13819072559E+04  0.10100000352E+00 0.  1.
</event>
<event>
 5   0  0.3162695E-06  0.2784296E+04  0.7818609E-02  0.8308160E-01
        2   -1    0    0  501    0  0.00000000000E+00  0.00000000000E+00  0.23663379725E+04  0.23663379725E+04  0.25500000920E-02 0.  1.
       -2   -1    0    0    0  501  0.00000000000E+00  0.00000000000E+00 -0.81901916917E+03  0.81901916917E+03  0.25500000920E-02 0. -1.
    10030    2    1    2    0    0  0.00000000000E+00  0.00000000000E+00  0.15473188033E+04  0.31853571416E+04  0.27842960763E+04 0.  0.
        1    1    3    3  502    0 -0.69092352291E+03 -0.74453233446E+03 -0.31551158691E+03  0.10636029678E+04  0.50400001928E-02 0. -1.
       -1    1    3    3    0  502  0.69092352291E+03  0.74453233446E+03  0.18628303902E+04  0.21217541739E+04  0.50400001928E-02 0.  1.
</event>
<event>
 5   0  0.1263513E-06  0.2797148E+04  0.7818609E-02  0.8304154E-01
        1   -1    0    0  501    0  0.00000000000E+00  0.00000000000E+00  0.12319423339E+04  0.12319423339E+04  0.50400001928E-02 0. -1.
       -1   -1    0    0    0  501  0.00000000000E+00  0.00000000000E+00 -0.15877440619E+04  0.15877440619E+04  0.50400001928E-02 0.  1.
    10030    2    1    2    0    0  0.00000000000E+00  0.00000000000E+00 -0.35580172800E+03  0.28196863959E+04  0.27971479227E+04 0.  0.
        3    1    3    3  502    0  0.11871256524E+04 -0.17923455268E+03 -0.90104912271E+03  0.15010935584E+04  0.10100000352E+00 0.  1.
       -3    1    3    3    0  502 -0.11871256524E+04  0.17923455268E+03  0.54524739470E+03  0.13185928375E+04  0.10100000352E+00 0. -1.
</event>
<event>
 5   0  0.3226364E-06  0.2791375E+04  0.7818609E-02  0.8305951E-01
       -2   -1    0    0    0  501  0.00000000000E+00  0.00000000000E+00  0.10078661865E+04  0.10078661865E+04  0.25500000920E-02 0.  1.
        2   -1    0    0  501    0  0.00000000000E+00  0.00000000000E+00 -0.19327406003E+04  0.19327406003E+04  0.25500000920E-02 0. -1.
    10030    2    1    2    0    0  0.00000000000E+00  0.00000000000E+00 -0.92487441382E+03  0.29406067869E+04  0.27913752155E+04 0.  0.
        5    1    3    3  502    0  0.26847080139E+03  0.22623580682E+02  0.98020283625E+03  0.10165668142E+04  0.46999998093E+01 0.  1.
       -5    1    3    3    0  502 -0.26847080139E+03 -0.22623580682E+02 -0.19050772501E+04  0.19240399726E+04  0.46999998093E+01 0. -1.
</event>
<event>
 5   0  0.3162695E-06  0.2730968E+04  0.7818609E-02  0.8325026E-01
        2   -1    0    0  501    0  0.00000000000E+00  0.00000000000E+00  0.17635813425E+04  0.17635813425E+04  0.25500000920E-02 0. -1.
       -2   -1    0    0    0  501  0.00000000000E+00  0.00000000000E+00 -0.10572497576E+04  0.10572497576E+04  0.25500000920E-02 0.  1.
    10030    2    1    2    0    0  0.00000000000E+00  0.00000000000E+00  0.70633158495E+03  0.28208311001E+04  0.27309675552E+04 0.  0.
        1    1    3    3  502    0 -0.72449547680E+03 -0.27030833378E+03  0.15156252768E+04  0.17014935412E+04  0.50400001928E-02 0. -1.
       -1    1    3    3    0  502  0.72449547680E+03  0.27030833378E+03 -0.80929369180E+03  0.11193375589E+04  0.50400001928E-02 0.  1.
</event>
<event>
 5   0  0.1246044E-06  0.2795496E+04  0.7818609E-02  0.8304668E-01
        1   -1    0    0  501    0  0.00000000000E+00  0.00000000000E+00  0.13411320496E+04  0.13411320497E+04  0.50400001928E-02 0. -1.
       -1   -1    0    0    0  501  0.00000000000E+00  0.00000000000E+00 -0.14567542964E+04  0.14567542964E+04  0.50400001928E-02 0.  1.
    10030    2    1    2    0    0  0.00000000000E+00  0.00000000000E+00 -0.11562224675E+03  0.27978863461E+04  0.27954962889E+04 0.  0.
        2    1    3    3  502    0 -0.54590313615E+03  0.12803632679E+04  0.70202661634E+02  0.13936530220E+04  0.25500000920E-02 0. -1.
       -2    1    3    3    0  502  0.54590313615E+03 -0.12803632679E+04 -0.18582490838E+03  0.14042333241E+04  0.25500000920E-02 0.  1.
</event>
<event>
 5   0  0.3345919E-06  0.2753372E+04  0.7818609E-02  0.8317892E-01
        2   -1    0    0  501    0  0.00000000000E+00  0.00000000000E+00  0.22783742503E+04  0.22783742503E+04  0.25500000920E-02 0. -1.
       -2   -1    0    0    0  501  0.00000000000E+00  0.00000000000E+00 -0.83184953565E+03  0.83184953565E+03  0.25500000920E-02 0.  1.
    10030    2    1    2    0    0  0.00000000000E+00  0.00000000000E+00  0.14465247147E+04  0.31102237859E+04  0.27533721595E+04 0.  0.
        2    1    3    3  502    0 -0.10206795261E+04  0.56198968271E+03 -0.10501295053E+03  0.11698917976E+04  0.25500000920E-02 0.  1.
       -2    1    3    3    0  502  0.10206795261E+04 -0.56198968271E+03  0.15515376652E+04  0.19403319883E+04  0.25500000920E-02 0. -1.
</event>
<event>
 5   0  0.3162695E-06  0.2775513E+04  0.7818609E-02  0.8310911E-01
       -2   -1    0    0    0  501  0.00000000000E+00  0.00000000000E+00  0.92696406703E+03  0.92696406704E+03  0.25500000920E-02 0.  1.
        2   -1    0    0  501    0  0.00000000000E+00  0.00000000000E+00 -0.20776086875E+04  0.20776086875E+04  0.25500000920E-02 0. -1.
    10030    2    1    2    0    0  0.00000000000E+00  0.00000000000E+00 -0.11506446205E+04  0.30045727545E+04  0.27755133570E+04 0.  0.
        1    1    3    3  502    0  0.51067586374E+03 -0.78391941853E+03 -0.16848741091E+04  0.19272052968E+04  0.50400001928E-02 0. -1.
       -1    1    3    3    0  502 -0.51067586374E+03  0.78391941853E+03  0.53422948858E+03  0.10773674578E+04  0.50400001928E-02 0.  1.
</event>
<event>
 5   0  0.1246044E-06  0.2803207E+04  0.7818609E-02  0.8302273E-01
       -1   -1    0    0    0  501  0.00000000000E+00  0.00000000000E+00  0.11030214058E+04  0.11030214059E+04  0.50400001928E-02 0. -1.
        1   -1    0    0  501    0  0.00000000000E+00  0.00000000000E+00 -0.17810105978E+04  0.17810105978E+04  0.50400001928E-02 0.  1.
    10030    2    1    2    0    0  0.00000000000E+00  0.00000000000E+00 -0.67798919200E+03  0.28840320037E+04  0.28032073155E+04 0.  0.
        2    1    3    3  502    0 -0.23821270330E+03 -0.53271095993E+02  0.10809848416E+04  0.11082018450E+04  0.25500000920E-02 0. -1.
       -2    1    3    3    0  502  0.23821270330E+03  0.53271095993E+02 -0.17589740336E+04  0.17758301587E+04  0.25500000920E-02 0.  1.
</event>
<event>
 5   0  0.1220265E-06  0.2801515E+04  0.7818609E-02  0.8302798E-01
        1   -1    0    0  501    0  0.00000000000E+00  0.00000000000E+00  0.23299370210E+04  0.23299370210E+04  0.50400001928E-02 0. -1.
       -1   -1    0    0    0  501  0.00000000000E+00  0.00000000000E+00 -0.84213507667E+03  0.84213507669E+03  0.50400001928E-02 0.  1.
    10030    2    1    2    0    0  0.00000000000E+00  0.00000000000E+00  0.14878019443E+04  0.31720720977E+04  0.28015150843E+04 0.  0.
        4    1    3    3  502    0  0.39919498981E+03  0.12356354835E+04  0.14908892595E+03  0.13070504232E+04  0.12699999809E+01 0.  1.
       -4    1    3    3    0  502 -0.39919498981E+03 -0.12356354835E+04  0.13387130184E+04  0.18650216745E+04  0.12699999809E+01 0. -1.
</event>
<event>
 5   0  0.3226364E-06  0.2799180E+04  0.7818609E-02  0.8303523E-01
        2   -1    0    0  501    0  0.00000000000E+00  0.00000000000E+00  0.14621149839E+04  0.14621149839E+04  0.25500000920E-02 0.  1.
       -2   -1    0    0    0  501  0.00000000000E+00  0.00000000000E+00 -0.13397388113E+04  0.13397388113E+04  0.25500000920E-02 0. -1.
    10030    2    1    2    0    0  0.00000000000E+00  0.00000000000E+00  0.12237617268E+03  0.28018537952E+04  0.27991800160E+04 0.  0.
        5    1    3    3  502    0  0.18442809994E+03  0.96266603800E+03  0.10611871564E+04  0.14446037158E+04  0.46999998093E+01 0.  1.
       -5    1    3    3    0  502 -0.18442809994E+03 -0.96266603800E+03 -0.93881098376E+03  0.13572500794E+04  0.46999998093E+01 0. -1.
</event>
<event>
 5   0  0.1243055E-06  0.2805488E+04  0.7818609E-02  0.8301566E-01
        1   -1    0    0  501    0  0.00000000000E+00  0.00000000000E+00  0.10548737144E+04  0.10548737144E+04  0.50400001928E-02 0.  1.
       -1   -1    0    0    0  501  0.00000000000E+00  0.00000000000E+00 -0.18653336027E+04  0.18653336028E+04  0.50400001928E-02 0. -1.
    10030    2    1    2    0    0  0.00000000000E+00  0.00000000000E+00 -0.81045988832E+03  0.29202073172E+04  0.28054884681E+04 0.  0.
        5    1    3    3  502    0  0.68342529401E+03 -0.11208791421E+04  0.10917355328E+03  0.13173386574E+04  0.46999998093E+01 0. -1.
       -5    1    3    3    0  502 -0.68342529401E+03  0.11208791421E+04 -0.91963344160E+03  0.16028686598E+04  0.46999998093E+01 0.  1.
</event>
<event>
 5   0  0.1263513E-06  0.2790564E+04  0.7818609E-02  0.8306204E-01
        1   -1    0    0  501    0  0.00000000000E+00  0.00000000000E+00  0.11920797161E+04  0.11920797161E+04  0.50400001928E-02 0.  1.
       -1   -1    0    0    0  501  0.00000000000E+00  0.00000000000E+00 -0.16331221580E+04  0.16331221580E+04  0.50400001928E-02 0. -1.
    10030    2    1    2    0    0  0.00000000000E+00  0.00000000000E+00 -0.44104244193E+03  0.28252018742E+04  0.27905639563E+04 0.  0.
        3    1    3    3  502    0  0.69814908011E+03 -0.73846407691E+03 -0.11884587788E+04  0.15637057300E+04  0.10100000352E+00 0. -1.
       -3    1    3    3    0  502 -0.69814908011E+03  0.73846407691E+03  0.74741633686E+03  0.12614961442E+04  0.10100000352E+00 0.  1.
</event>
<event>
 5   0  0.3167616E-06  0.2803491E+04  0.7818609E-02  0.8302185E-01
       -2   -1    0    0    0  501  0.00000000000E+00  0.00000000000E+00  0.12671491117E+04  0.12671491117E+04  0.25500000920E-02 0. -1.
        2   -1    0    0  501    0  0.00000000000E+00  0.00000000000E+00 -0.15506384242E+04  0.15506384242E+04  0.25500000920E-02 0.  1.
    10030    2    1    2    0    0  0.00000000000E+00  0.00000000000E+00 -0.28348931255E+03  0.28177875359E+04  0.28034907539E+04 0.  0.
        3    1    3    3  502    0  0.61607304947E+03  0.89811548639E+03  0.74521386610E+03  0.13196594809E+04  0.10100000352E+00 0. -1.
       -3    1    3    3    0  502 -0.61607304947E+03 -0.89811548639E+03 -0.10287031787E+04  0.14981280550E+04  0.10100000352E+00 0.  1.
</event>
<event>
 5   0  0.3226364E-06  0.2836359E+04  0.7818609E-02  0.8292068E-01
       -2   -1    0    0    0  501  0.00000000000E+00  0.00000000000E+00  0.11335612548E+04  0.11335612548E+04  0.25500000920E-02 0.  1.
        2   -1    0    0  501    0  0.00000000000E+00  0.00000000000E+00 -0.17742611551E+04  0.17742611551E+04  0.25500000920E-02 0. -1.
    10030    2    1    2    0    0  0.00000000000E+00  0.00000000000E+00 -0.64069990022E+03  0.29078224099E+04  0.28363594281E+04 0.  0.
        5    1    3    3  502    0 -0.45957595038E+03 -0.45892450428E+03 -0.16128240033E+04  0.17386906310E+04  0.46999998093E+01 0. -1.
       -5    1    3    3    0  502  0.45957595038E+03  0.45892450428E+03  0.97212410304E+03  0.11691317789E+04  0.46999998093E+01 0.  1.
</event>
<event>
 5   0  0.1243055E-06  0.2798120E+04  0.7818609E-02  0.8303852E-01
       -1   -1    0    0    0  501  0.00000000000E+00  0.00000000000E+00  0.10333809722E+04  0.10333809722E+04  0.50400001928E-02 0. -1.
        1   -1    0    0  501    0  0.00000000000E+00  0.00000000000E+00 -0.18941405386E+04  0.18941405386E+04  0.50400001928E-02 0.  1.
    10030    2    1    2    0    0  0.00000000000E+00  0.00000000000E+00 -0.86075956644E+03  0.29275215108E+04  0.27981199340E+04 0.  0.
        5    1    3    3  502    0  0.94555913176E+03 -0.10311444417E+04 -0.42786661069E+03  0.14630218241E+04  0.46999998093E+01 0.  1.
       -5    1    3    3    0  502 -0.94555913176E+03  0.10311444417E+04 -0.43289295575E+03  0.14644996867E+04  0.46999998093E+01 0. -1.
</event>
<event>
 5   0  0.1246044E-06  0.2811183E+04  0.7818609E-02  0.8299805E-01
        1   -1    0    0  501    0  0.00000000000E+00  0.00000000000E+00  0.11813993667E+04  0.11813993667E+04  0.50400001928E-02 0.  1.
       -1   -1    0    0    0  501  0.00000000000E+00  0.00000000000E+00 -0.16723285653E+04  0.16723285653E+04  0.50400001928E-02 0. -1.
    10030    2    1    2    0    0  0.00000000000E+00  0.00000000000E+00 -0.49092919857E+03  0.28537279320E+04  0.28111833153E+04 0.  0.
        2    1    3    3  502    0  0.50008276899E+03  0.10491333265E+04  0.55702079904E+03  0.12888117330E+04  0.25500000920E-02 0.  1.
       -2    1    3    3    0  502 -0.50008276899E+03 -0.10491333265E+04 -0.10479499976E+04  0.15649161990E+04  0.25500000920E-02 0. -1.
</event>
<event>
 5   0  0.3212679E-06  0.2805397E+04  0.7818609E-02  0.8301595E-01
        2   -1    0    0  501    0  0.00000000000E+00  0.00000000000E+00  0.26582417972E+04  0.26582417972E+04  0.25500000920E-02 0. -1.
       -2   -1    0    0    0  501  0.00000000000E+00  0.00000000000E+00 -0.74017479065E+03  0.74017479066E+03  0.25500000920E-02 0.  1.
    10030    2    1    2    0    0  0.00000000000E+00  0.00000000000E+00  0.19180670065E+04  0.33984165879E+04  0.28053973449E+04 0.  0.
        4    1    3    3  502    0  0.13506294749E+04 -0.32709143856E+03  0.11900658453E+04  0.18296029943E+04  0.12699999809E+01 0. -1.
       -4    1    3    3    0  502 -0.13506294749E+04  0.32709143856E+03  0.72800116121E+03  0.15688135935E+04  0.12699999809E+01 0.  1.
</event>
<event>
 5   0  0.3226364E-06  0.2799439E+04  0.7818609E-02  0.8303443E-01
       -2   -1    0    0    0  501  0.00000000000E+00  0.00000000000E+00  0.57677391002E+03  0.57677391003E+03  0.25500000920E-02 0.  1.
        2   -1    0    0  501    0  0.00000000000E+00  0.00000000000E+00 -0.33968498034E+04  0.33968498034E+04  0.25500000920E-02 0. -1.
    10030    2    1    2    0    0  0.00000000000E+00  0.00000000000E+00 -0.28200758934E+04  0.39736237135E+04  0.27994387601E+04 0.  0.
        5    1    3    3  502    0 -0.73974903718E+03  0.87618632587E+03 -0.27071528771E+03  0.11782359580E+04  0.46999998093E+01 0.  1.
       -5    1    3    3    0  502  0.73974903718E+03 -0.87618632587E+03 -0.25493606057E+04  0.27953877555E+04  0.46999998093E+01 0. -1.
</event>
<event>
 5   0  0.1235252E-06  0.2781901E+04  0.7818609E-02  0.8308909E-01
       -1   -1    0    0    0  501  0.00000000000E+00  0.00000000000E+00  0.11391873012E+04  0.11391873012E+04  0.50400001928E-02 0.  1.
        1   -1    0    0  501    0  0.00000000000E+00  0.00000000000E+00 -0.16983539689E+04  0.16983539689E+04  0.50400001928E-02 0. -1.
    10030    2    1    2    0    0  0.00000000000E+00  0.00000000000E+00 -0.55916666770E+03  0.28375412702E+04  0.27819009863E+04 0.  0.
        1    1    3    3  502    0 -0.11621108443E+04 -0.39779285376E+03  0.38615964506E+03  0.12875791395E+04  0.50400001928E-02 0.  1.
       -1    1    3    3    0  502  0.11621108443E+04  0.39779285376E+03 -0.94532631276E+03  0.15499621307E+04  0.50400001928E-02 0. -1.
</event>
<event>
 5   0  0.3345919E-06  0.2792812E+04  0.7818609E-02  0.8305503E-01
        2   -1    0    0  501    0  0.00000000000E+00  0.00000000000E+00  0.96517921542E+03  0.96517921542E+03  0.25500000920E-02 0.  1.
       -2   -1    0    0    0  501  0.00000000000E+00  0.00000000000E+00 -0.20202986568E+04  0.20202986568E+04  0.25500000920E-02 0. -1.
    10030    2    1    2    0    0  0.00000000000E+00  0.00000000000E+00 -0.10551194414E+04  0.29854778722E+04  0.27928123979E+04 0.  0.
        2    1    3    3  502    0  0.54759924059E+03 -0.12763490267E+04 -0.68253877833E+03  0.15475112117E+04  0.25500000920E-02 0.  1.
       -2    1    3    3    0  502 -0.54759924059E+03  0.12763490267E+04 -0.37258066303E+03  0.14379666605E+04  0.25500000920E-02 0. -1.
</event>
<event>
 5   0  0.1246044E-06  0.2799097E+04  0.7818609E-02  0.8303549E-01
        1   -1    0    0  501    0  0.00000000000E+00  0.00000000000E+00  0.27272669038E+04  0.27272669038E+04  0.50400001928E-02 0.  1.
       -1   -1    0    0    0  501  0.00000000000E+00  0.00000000000E+00 -0.71820473084E+03  0.71820473086E+03  0.50400001928E-02 0. -1.
    10030    2    1    2    0    0  0.00000000000E+00  0.00000000000E+00  0.20090621729E+04  0.34454716346E+04  0.27990969920E+04 0.  0.
        2    1    3    3  502    0  0.49103885440E+03  0.76296314659E+03 -0.30714040514E+03  0.95789725339E+03  0.25500000920E-02 0. -1.
       -2    1    3    3    0  502 -0.49103885440E+03 -0.76296314659E+03  0.23162025781E+04  0.24875743812E+04  0.25500000920E-02 0.  1.
</event>
<event>
 5   0  0.3162695E-06  0.2647594E+04  0.7818609E-02  0.8352212E-01
        2   -1    0    0  501    0  0.00000000000E+00  0.00000000000E+00  0.10258659638E+04  0.10258659638E+04  0.25500000920E-02 0. -1.
       -2   -1    0    0    0  501  0.00000000000E+00  0.00000000000E+00 -0.17082532052E+04  0.17082532053E+04  0.25500000920E-02 0.  1.
    10030    2    1    2    0    0  0.00000000000E+00  0.00000000000E+00 -0.68238724144E+03  0.27341191691E+04  0.26475942445E+04 0.  0.
        1    1    3    3  502    0 -0.10778025669E+04  0.31490706139E+03 -0.10652595765E+04  0.15477734963E+04  0.50400001928E-02 0.  1.
       -1    1    3    3    0  502  0.10778025669E+04 -0.31490706139E+03  0.38287233502E+03  0.11863456728E+04  0.50400001928E-02 0. -1.
</event>
<event>
 5   0  0.1263513E-06  0.2790429E+04  0.7818609E-02  0.8306246E-01
       -1   -1    0    0    0  501  0.00000000000E+00  0.00000000000E+00  0.12663575988E+04  0.12663575988E+04  0.50400001928E-02 0. -1.
        1   -1    0    0  501    0  0.00000000000E+00  0.00000000000E+00 -0.15371834681E+04  0.15371834681E+04  0.50400001928E-02 0.  1.
    10030    2    1    2    0    0  0.00000000000E+00  0.00000000000E+00 -0.27082586931E+03  0.28035410669E+04  0.27904293329E+04 0.  0.
        3    1    3    3  502    0  0.30343482477E+03 -0.10185956594E+04  0.77272262454E+03  0.13140434068E+04  0.10100000352E+00 0. -1.
       -3    1    3    3    0  502 -0.30343482477E+03  0.10185956594E+04 -0.10435484939E+04  0.14894976601E+04  0.10100000352E+00 0.  1.
</event>
<event>
 5   0  0.1263513E-06  0.2805707E+04  0.7818609E-02  0.8301499E-01
       -1   -1    0    0    0  501  0.00000000000E+00  0.00000000000E+00  0.80825504142E+03  0.80825504143E+03  0.50400001928E-02 0. -1.
        1   -1    0    0  501    0  0.00000000000E+00  0.00000000000E+00 -0.24348729863E+04  0.24348729863E+04  0.50400001928E-02 0.  1.
    10030    2    1    2    0    0  0.00000000000E+00  0.00000000000E+00 -0.16266179449E+04  0.32431280278E+04  0.28057073022E+04 0.  0.
        3    1    3    3  502    0 -0.23821964692E+03 -0.11902471095E+03  0.77877101318E+03  0.82304300201E+03  0.10100000352E+00 0. -1.
       -3    1    3    3    0  502  0.23821964692E+03  0.11902471095E+03 -0.24053889581E+04  0.24200850258E+04  0.10100000352E+00 0.  1.
</event>
<event>
 5   0  0.3212679E-06  0.2803353E+04  0.7818609E-02  0.8302228E-01
        2   -1    0    0  501    0  0.00000000000E+00  0.00000000000E+00  0.16605622029E+04  0.16605622029E+04  0.25500000920E-02 0. -1.
       -2   -1    0    0    0  501  0.00000000000E+00  0.00000000000E+00 -0.11831518472E+04  0.11831518472E+04  0.25500000920E-02 0.  1.
    10030    2    1    2    0    0  0.00000000000E+00  0.00000000000E+00  0.47741035561E+03  0.28437140501E+04  0.28033531620E+04 0.  0.
        4    1    3    3  502    0  0.97758428877E+03  0.54880650600E+02 -0.77873724520E+03  0.12510460573E+04  0.12699999809E+01 0.  1.
       -4    1    3    3    0  502 -0.97758428877E+03 -0.54880650600E+02  0.12561476008E+04  0.15926679928E+04  0.12699999809E+01 0. -1.
</event>
<event>
 5   0  0.3162695E-06  0.2797664E+04  0.7818609E-02  0.8303994E-01
       -2   -1    0    0    0  501  0.00000000000E+00  0.00000000000E+00  0.97641553207E+03  0.97641553208E+03  0.25500000920E-02 0.  1.
        2   -1    0    0  501    0  0.00000000000E+00  0.00000000000E+00 -0.20039942759E+04  0.20039942759E+04  0.25500000920E-02 0. -1.
    10030    2    1    2    0    0  0.00000000000E+00  0.00000000000E+00 -0.10275787438E+04  0.29804098080E+04  0.27976641236E+04 0.  0.
        1    1    3    3  502    0  0.27856650393E+03  0.25212144435E+03  0.92165545559E+03  0.99529558356E+03  0.50400001928E-02 0.  1.
       -1    1    3    3    0  502 -0.27856650393E+03 -0.25212144435E+03 -0.19492341994E+04  0.19851142244E+04  0.50400001928E-02 0. -1.
</event>
<event>
 5   0  0.1246044E-06  0.2794404E+04  0.7818609E-02  0.8305008E-01
       -1   -1    0    0    0  501  0.00000000000E+00  0.00000000000E+00  0.10936682966E+04  0.10936682966E+04  0.50400001928E-02 0.  1.
        1   -1    0    0  501    0  0.00000000000E+00  0.00000000000E+00 -0.17849774737E+04  0.17849774737E+04  0.50400001928E-02 0. -1.
    10030    2    1    2    0    0  0.00000000000E+00  0.00000000000E+00 -0.69130917708E+03  0.28786457702E+04  0.27944038885E+04 0.  0.
        2    1    3    3  502    0  0.21479109461E+03  0.54846052078E+02 -0.17667455043E+04  0.17805990510E+04  0.25500000920E-02 0. -1.
       -2    1    3    3    0  502 -0.21479109461E+03 -0.54846052078E+02  0.10754363272E+04  0.10980467192E+04  0.25500000920E-02 0.  1.
</event>
<event>
 5   0  0.1220265E-06  0.2808040E+04  0.7818609E-02  0.8300776E-01
        1   -1    0    0  501    0  0.00000000000E+00  0.00000000000E+00  0.14875224518E+04  0.14875224518E+04  0.50400001928E-02 0. -1.
       -1   -1    0    0    0  501  0.00000000000E+00  0.00000000000E+00 -0.13252054093E+04  0.13252054093E+04  0.50400001928E-02 0.  1.
    10030    2    1    2    0    0  0.00000000000E+00  0.00000000000E+00  0.16231704248E+03  0.28127278611E+04  0.28080404553E+04 0.  0.
        4    1    3    3  502    0 -0.67277921779E+03  0.10712652758E+04  0.69129765262E+03  0.14415738706E+04  0.12699999809E+01 0.  1.
       -4    1    3    3    0  502  0.67277921779E+03 -0.10712652758E+04 -0.52898061014E+03  0.13711539905E+04  0.12699999809E+01 0. -1.
</event>
<event>
 5   0  0.1243055E-06  0.2795539E+04  0.7818609E-02  0.8304655E-01
        1   -1    0    0  501    0  0.00000000000E+00  0.00000000000E+00  0.21716045669E+04  0.21716045669E+04  0.50400001928E-02 0. -1.
       -1   -1    0    0    0  501  0.00000000000E+00  0.00000000000E+00 -0.89968501000E+03  0.89968501002E+03  0.50400001928E-02 0.  1.
    10030    2    1    2    0    0  0.00000000000E+00  0.00000000000E+00  0.12719195569E+04  0.30712895769E+04  0.27955393587E+04 0.  0.
        5    1    3    3  502    0  0.11784124692E+04 -0.69989967973E+03  0.33463907645E+03  0.14108582178E+04  0.46999998093E+01 0. -1.
       -5    1    3    3    0  502 -0.11784124692E+04  0.69989967973E+03  0.93728048046E+03  0.16604313591E+04  0.46999998093E+01 0.  1.
</event>
<event>
 5   0  0.3345919E-06  0.2803470E+04  0.7818609E-02  0.8302192E-01
       -2   -1    0    0    0  501  0.00000000000E+00  0.00000000000E+00  0.82031121186E+03  0.82031121187E+03  0.25500000920E-02 0. -1.
        2   -1    0    0  501    0  0.00000000000E+00  0.00000000000E+00 -0.23952626271E+04  0.23952626271E+04  0.25500000920E-02 0.  1.
    10030    2    1    2    0    0  0.00000000000E+00  0.00000000000E+00 -0.15749514152E+04  0.32155738390E+04  0.28034698417E+04 0.  0.
        2    1    3    3  502    0  0.12142097680E+04 -0.36930214980E+03 -0.14700804660E+04  0.19421189498E+04  0.25500000920E-02 0.  1.
       -2    1    3    3    0  502 -0.12142097680E+04  0.36930214980E+03 -0.10487094918E+03  0.12734548891E+04  0.25500000920E-02 0. -1.
</event>
<event>
 5   0  0.1220265E-06  0.2759593E+04  0.7818609E-02  0.8315924E-01
       -1   -1    0    0    0  501  0.00000000000E+00  0.00000000000E+00  0.11431775655E+04  0.11431775655E+04  0.50400001928E-02 0. -1.
        1   -1    0    0  501    0  0.00000000000E+00  0.00000000000E+00 -0.16653912471E+04  0.16653912471E+04  0.50400001928E-02 0.  1.
    10030    2    1    2    0    0  0.00000000000E+00  0.00000000000E+00 -0.52221368155E+03  0.28085688126E+04  0.27595926594E+04 0.  0.
        4    1    3    3  502    0 -0.33257727077E+03 -0.12763636136E+04 -0.67341972514E+03  0.14809481606E+04  0.12699999809E+01 0.  1.
       -4    1    3    3    0  502  0.33257727077E+03  0.12763636136E+04  0.15120604359E+03  0.13276206520E+04  0.12699999809E+01 0. -1.
</event>
<event>
 5   0  0.3226364E-06  0.2794937E+04  0.7818609E-02  0.8304842E-01
       -2   -1    0    0    0  501  0.00000000000E+00  0.00000000000E+00  0.14373954169E+04  0.14373954169E+04  0.25500000920E-02 0. -1.
        2   -1    0    0  501    0  0.00000000000E+00  0.00000000000E+00 -0.13586506118E+04  0.13586506118E+04  0.25500000920E-02 0.  1.
    10030    2    1    2    0    0  0.00000000000E+00  0.00000000000E+00  0.78744805141E+02  0.27960460288E+04  0.27949369672E+04 0.  0.
        5    1    3    3  502    0  0.40079435917E+03  0.94497476908E+02  0.13753161708E+04  0.14356470844E+04  0.46999998093E+01 0. -1.
       -5    1    3    3    0  502 -0.40079435917E+03 -0.94497476908E+02 -0.12965713656E+04  0.13603989443E+04  0.46999998093E+01 0.  1.
</event>
<event>
 5   0  0.1243055E-06  0.2782314E+04  0.7818609E-02  0.8308780E-01
        1   -1    0    0  501    0  0.00000000000E+00  0.00000000000E+00  0.22224920658E+04  0.22224920658E+04  0.50400001928E-02 0.  1.
       -1   -1    0    0    0  501  0.00000000000E+00  0.00000000000E+00 -0.87078737068E+03  0.87078737069E+03  0.50400001928E-02 0. -1.
    10030    2    1    2    0    0  0.00000000000E+00  0.00000000000E+00  0.13517046951E+04  0.30932794365E+04  0.27823141608E+04 0.  0.
        5    1    3    3  502    0  0.77143058497E+03  0.10632231001E+04  0.16668410708E+03  0.13241428131E+04  0.46999998093E+01 0. -1.
       -5    1    3    3    0  502 -0.77143058497E+03 -0.10632231001E+04  0.11850205880E+04  0.17691366233E+04  0.46999998093E+01 0.  1.
</event>
<event>
 5   0  0.1235252E-06  0.2814764E+04  0.7818609E-02  0.8298699E-01
       -1   -1    0    0    0  501  0.00000000000E+00  0.00000000000E+00  0.92513639049E+03  0.92513639051E+03  0.50400001928E-02 0. -1.
        1   -1    0    0  501    0  0.00000000000E+00  0.00000000000E+00 -0.21410070390E+04  0.21410070390E+04  0.50400001928E-02 0.  1.
    10030    2    1    2    0    0  0.00000000000E+00  0.00000000000E+00 -0.12158706485E+04  0.30661434295E+04  0.28147635951E+04 0.  0.
        1    1    3    3  502    0 -0.32565916973E+03  0.62744857131E+03 -0.19335729828E+04  0.20587496410E+04  0.50400001928E-02 0.  1.
       -1    1    3    3    0  502  0.32565916973E+03 -0.62744857131E+03  0.71770233429E+03  0.10073937885E+04  0.50400001928E-02 0. -1.
</event>
<event>
 5   0  0.3345919E-06  0.2746147E+04  0.7818609E-02  0.8320185E-01
        2   -1    0    0  501    0  0.00000000000E+00  0.00000000000E+00  0.20154673516E+04  0.20154673516E+04  0.25500000920E-02 0.  1.
       -2   -1    0    0    0  501  0.00000000000E+00  0.00000000000E+00 -0.93543114692E+03  0.93543114693E+03  0.25500000920E-02 0. -1.
    10030    2    1    2    0    0  0.00000000000E+00  0.00000000000E+00  0.10800362047E+04  0.29508984985E+04  0.27461470728E+04 0.  0.
        2    1    3    3  502    0  0.99969016264E+03  0.94011920777E+03  0.49046715511E+03  0.14573134791E+04  0.25500000920E-02 0.  1.
       -2    1    3    3    0  502 -0.99969016264E+03 -0.94011920777E+03  0.58956904959E+03  0.14935850195E+04  0.25500000920E-02 0. -1.
</event>
<event>
 5   0  0.1243055E-06  0.2791767E+04  0.7818609E-02  0.8305829E-01
        1   -1    0    0  501    0  0.00000000000E+00  0.00000000000E+00  0.20934119817E+04  0.20934119817E+04  0.50400001928E-02 0. -1.
       -1   -1    0    0    0  501  0.00000000000E+00  0.00000000000E+00 -0.93077265123E+03  0.93077265125E+03  0.50400001928E-02 0.  1.
    10030    2    1    2    0    0  0.00000000000E+00  0.00000000000E+00  0.11626393305E+04  0.30241846330E+04  0.27917669103E+04 0.  0.
        5    1    3    3  502    0  0.68475912406E+03  0.73339900244E+03  0.16325195099E+04  0.19162231590E+04  0.46999998093E+01 0. -1.
       -5    1    3    3    0  502 -0.68475912406E+03 -0.73339900244E+03 -0.46988017945E+03  0.11079614740E+04  0.46999998093E+01 0.  1.
</event>
<event>
 5   0  0.3162695E-06  0.2798509E+04  0.7818609E-02  0.8303731E-01
       -2   -1    0    0    0  501  0.00000000000E+00  0.00000000000E+00  0.11439310589E+04  0.11439310589E+04  0.25500000920E-02 0. -1.
        2   -1    0    0  501    0  0.00000000000E+00  0.00000000000E+00 -0.17115661098E+04  0.17115661098E+04  0.25500000920E-02 0.  1.
    10030    2    1    2    0    0  0.00000000000E+00  0.00000000000E+00 -0.56763505086E+03  0.28554971687E+04  0.27985093406E+04 0.  0.
        1    1    3    3  502    0  0.31128938428E+03  0.84555775562E+02  0.11054752475E+04  0.11515755654E+04  0.50400001928E-02 0. -1.
       -1    1    3    3    0  502 -0.31128938428E+03 -0.84555775562E+02 -0.16731102983E+04  0.17039216033E+04  0.50400001928E-02 0.  1.
</event>
<event>
 5   0  0.1235252E-06  0.2836399E+04  0.7818609E-02  0.8292056E-01
       -1   -1    0    0    0  501  0.00000000000E+00  0.00000000000E+00  0.11218370228E+04  0.11218370229E+04  0.50400001928E-02 0.  1.
        1   -1    0    0  501    0  0.00000000000E+00  0.00000000000E+00 -0.17928532249E+04  0.17928532249E+04  0.50400001928E-02 0. -1.
    10030    2    1    2    0    0  0.00000000000E+00  0.00000000000E+00 -0.67101620206E+03  0.29146902478E+04  0.28363985081E+04 0.  0.
        1    1    3    3  502    0  0.92273103099E+03  0.47603820697E+03 -0.13282190411E+04  0.16858857468E+04  0.50400001928E-02 0. -1.
       -1    1    3    3    0  502 -0.92273103099E+03 -0.47603820697E+03  0.65720283901E+03  0.12288045010E+04  0.50400001928E-02 0.  1.
</event>
<event>
 5   0  0.1246044E-06  0.2801305E+04  0.7818609E-02  0.8302863E-01
        1   -1    0    0  501    0  0.00000000000E+00  0.00000000000E+00  0.20706510361E+04  0.20706510361E+04  0.50400001928E-02 0.  1.
       -1   -1    0    0    0  501  0.00000000000E+00  0.00000000000E+00 -0.94744464783E+03  0.94744464784E+03  0.50400001928E-02 0. -1.
    10030    2    1    2    0    0  0.00000000000E+00  0.00000000000E+00  0.11232063883E+04  0.30180956839E+04  0.28013048686E+04 0.  0.
        2    1    3    3  502    0  0.10072715327E+04 -0.89671165718E+03  0.96922028367E+03  0.16607455238E+04  0.25500000920E-02 0.  1.
       -2    1    3    3    0  502 -0.10072715327E+04  0.89671165718E+03  0.15398610458E+03  0.13573501601E+04  0.25500000920E-02 0. -1.
</event>
<event>
 5   0  0.3212679E-06  0.2799144E+04  0.7818609E-02  0.8303534E-01
       -2   -1    0    0    0  501  0.00000000000E+00  0.00000000000E+00  0.15260547598E+04  0.15260547598E+04  0.25500000920E-02 0.  1.
        2   -1    0    0  501    0  0.00000000000E+00  0.00000000000E+00 -0.12835722007E+04  0.12835722007E+04  0.25500000920E-02 0. -1.
    10030    2    1    2    0    0  0.00000000000E+00  0.00000000000E+00  0.24248255918E+03  0.28096269605E+04  0.27991437737E+04 0.  0.
        4    1    3    3  502    0 -0.48976184716E+03  0.12998683014E+04  0.29298317459E+03  0.14196355242E+04  0.12699999809E+01 0.  1.
       -4    1    3    3    0  502  0.48976184716E+03 -0.12998683014E+04 -0.50500615411E+02  0.13899914363E+04  0.12699999809E+01 0. -1.
</event>
<event>
 5   0  0.3345919E-06  0.2777662E+04  0.7818609E-02  0.8310237E-01
       -2   -1    0    0    0  501  0.00000000000E+00  0.00000000000E+00  0.14999401950E+04  0.14999401950E+04  0.25500000920E-02 0.  1.
        2   -1    0    0  501    0  0.00000000000E+00  0.00000000000E+00 -0.12859525692E+04  0.12859525693E+04  0.25500000920E-02 0. -1.
    10030    2    1    2    0    0  0.00000000000E+00  0.00000000000E+00  0.21398762573E+03  0.27858927642E+04  0.27776622887E+04 0.  0.
        2    1    3    3  502    0 -0.11173073092E+04  0.22517545977E+03  0.90292723700E+03  0.14540829434E+04  0.25500000920E-02 0.  1.
       -2    1    3    3    0  502  0.11173073092E+04 -0.22517545977E+03 -0.68893961128E+03  0.13318098208E+04  0.25500000920E-02 0. -1.
</event>
<event>
 5   0  0.3212679E-06  0.2645550E+04  0.7818609E-02  0.8352892E-01
        2   -1    0    0  501    0  0.00000000000E+00  0.00000000000E+00  0.24080632833E+04  0.24080632833E+04  0.25500000920E-02 0. -1.
       -2   -1    0    0    0  501  0.00000000000E+00  0.00000000000E+00 -0.72661442588E+03  0.72661442588E+03  0.25500000920E-02 0.  1.
    10030    2    1    2    0    0  0.00000000000E+00  0.00000000000E+00  0.16814488574E+04  0.31346777092E+04  0.26455498635E+04 0.  0.
        4    1    3    3  502    0  0.67547489073E+03 -0.10032738023E+04  0.14753940491E+04  0.19077772049E+04  0.12699999809E+01 0. -1.
       -4    1    3    3    0  502 -0.67547489073E+03  0.10032738023E+04  0.20605480829E+03  0.12269005043E+04  0.12699999809E+01 0.  1.
</event>
<event>
 5   0  0.1246044E-06  0.2774750E+04  0.7818609E-02  0.8311151E-01
        1   -1    0    0  501    0  0.00000000000E+00  0.00000000000E+00  0.14272696331E+04  0.14272696331E+04  0.50400001928E-02 0. -1.
       -1   -1    0    0    0  501  0.00000000000E+00  0.00000000000E+00 -0.13485957503E+04  0.13485957503E+04  0.50400001928E-02 0.  1.
    10030    2    1    2    0    0  0.00000000000E+00  0.00000000000E+00  0.78673882849E+02  0.27758653835E+04  0.27747502675E+04 0.  0.
        2    1    3    3  502    0  0.50432320860E+01 -0.69772246818E+03 -0.11602978769E+04  0.13539325094E+04  0.25500000920E-02 0.  1.
       -2    1    3    3    0  502 -0.50432320860E+01  0.69772246818E+03  0.12389717598E+04  0.14219328741E+04  0.25500000920E-02 0. -1.
</event>
<event>
 5   0  0.3162695E-06  0.2803619E+04  0.7818609E-02  0.8302146E-01
        2   -1    0    0  501    0  0.00000000000E+00  0.00000000000E+00  0.11830396259E+04  0.11830396259E+04  0.25500000920E-02 0.  1.
       -2   -1    0    0    0  501  0.00000000000E+00  0.00000000000E+00 -0.16610350681E+04  0.16610350681E+04  0.25500000920E-02 0. -1.
    10030    2    1    2    0    0  0.00000000000E+00  0.00000000000E+00 -0.47799544226E+03  0.28440746940E+04  0.28036193077E+04 0.  0.
        1    1    3    3  502    0  0.11805069237E+04 -0.22843771516E+03 -0.97001375331E+03  0.15448971061E+04  0.50400001928E-02 0. -1.
       -1    1    3    3    0  502 -0.11805069237E+04  0.22843771516E+03  0.49201831104E+03  0.12991775880E+04  0.50400001928E-02 0.  1.
</event>
<event>
 5   0  0.1220265E-06  0.2720638E+04  0.7818609E-02  0.8328340E-01
        1   -1    0    0  501    0  0.00000000000E+00  0.00000000000E+00  0.17499576329E+04  0.17499576329E+04  0.50400001928E-02 0.  1.
       -1   -1    0    0    0  501  0.00000000000E+00  0.00000000000E+00 -0.10574353928E+04  0.10574353928E+04  0.50400001928E-02 0. -1.
    10030    2    1    2    0    0  0.00000000000E+00  0.00000000000E+00  0.69252224008E+03  0.28073930257E+04  0.27206375260E+04 0.  0.
        4    1    3    3  502    0  0.60752602922E+03 -0.86606268060E+02  0.15990074925E+04  0.17127215465E+04  0.12699999809E+01 0.  1.
       -4    1    3    3    0  502 -0.60752602922E+03  0.86606268060E+02 -0.90648525237E+03  0.10946714793E+04  0.12699999809E+01 0. -1.
</event>
<event>
 5   0  0.1246044E-06  0.2802605E+04  0.7818609E-02  0.8302460E-01
        1   -1    0    0  501    0  0.00000000000E+00  0.00000000000E+00  0.20628550185E+04  0.20628550185E+04  0.50400001928E-02 0.  1.
       -1   -1    0    0    0  501  0.00000000000E+00  0.00000000000E+00 -0.95190845694E+03  0.95190845695E+03  0.50400001928E-02 0. -1.
    10030    2    1    2    0    0  0.00000000000E+00  0.00000000000E+00  0.11109465615E+04  0.30147634755E+04  0.28026053148E+04 0.  0.
        2    1    3    3  502    0 -0.49216627676E+03 -0.93430523971E+03  0.15463417344E+04  0.18725188075E+04  0.25500000920E-02 0.  1.
       -2    1    3    3    0  502  0.49216627676E+03  0.93430523971E+03 -0.43539517283E+03  0.11422446680E+04  0.25500000920E-02 0. -1.
</event>
<event>
 5   0  0.1235252E-06  0.2796800E+04  0.7818609E-02  0.8304262E-01
       -1   -1    0    0    0  501  0.00000000000E+00  0.00000000000E+00  0.13322167355E+04  0.13322167355E+04  0.50400001928E-02 0.  1.
        1   -1    0    0  501    0  0.00000000000E+00  0.00000000000E+00 -0.14678715704E+04  0.14678715704E+04  0.50400001928E-02 0. -1.
    10030    2    1    2    0    0  0.00000000000E+00  0.00000000000E+00 -0.13565483492E+03  0.28000883059E+04  0.27968003659E+04 0.  0.
        1    1    3    3  502    0 -0.56181426539E+03  0.11929561836E+04 -0.53393175842E+03  0.14226253363E+04  0.50400001928E-02 0. -1.
       -1    1    3    3    0  502  0.56181426539E+03 -0.11929561836E+04  0.39827692350E+03  0.13774629696E+04  0.50400001928E-02 0.  1.
</event>
<event>
 5   0  0.3162695E-06  0.2798027E+04  0.7818609E-02  0.8303881E-01
        2   -1    0    0  501    0  0.00000000000E+00  0.00000000000E+00  0.19001461429E+04  0.19001461429E+04  0.25500000920E-02 0. -1.
       -2   -1    0    0    0  501  0.00000000000E+00  0.00000000000E+00 -0.10300467355E+04  0.10300467355E+04  0.25500000920E-02 0.  1.
    10030    2    1    2    0    0  0.00000000000E+00  0.00000000000E+00  0.87009940745E+03  0.29301928784E+04  0.27980273990E+04 0.  0.
        1    1    3    3  502    0  0.98418657075E+03  0.87895061033E+03 -0.51731041449E+02  0.13205504466E+04  0.50400001928E-02 0.  1.
       -1    1    3    3    0  502 -0.98418657075E+03 -0.87895061033E+03  0.92183044890E+03  0.16096424317E+04  0.50400001928E-02 0. -1.
</event>
<event>
 5   0  0.1263513E-06  0.2798282E+04  0.7818609E-02  0.8303802E-01
       -1   -1    0    0    0  501  0.00000000000E+00  0.00000000000E+00  0.25885838849E+04  0.25885838850E+04  0.50400001928E-02 0. -1.
        1   -1    0    0  501    0  0.00000000000E+00  0.00000000000E+00 -0.75624196118E+03  0.75624196120E+03  0.50400001928E-02 0.  1.
    10030    2    1    2    0    0  0.00000000000E+00  0.00000000000E+00  0.18323419238E+04  0.33448258461E+04  0.27982821544E+04 0.  0.
        3    1    3    3  502    0  0.81705968051E+03 -0.13511932865E+03  0.22641502536E+04  0.24108546483E+04  0.10100000352E+00 0. -1.
       -3    1    3    3    0  502 -0.81705968051E+03  0.13511932865E+03 -0.43180832978E+03  0.93397119782E+03  0.10100000352E+00 0.  1.
</event>
<event>
 5   0  0.1243055E-06  0.2619194E+04  0.7818609E-02  0.8361711E-01
        1   -1    0    0  501    0  0.00000000000E+00  0.00000000000E+00  0.14392791749E+04  0.14392791750E+04  0.50400001928E-02 0. -1.
       -1   -1    0    0    0  501  0.00000000000E+00  0.00000000000E+00 -0.11915991976E+04  0.11915991976E+04  0.50400001928E-02 0.  1.
    10030    2    1    2    0    0  0.00000000000E+00  0.00000000000E+00  0.24767997735E+03  0.26308783726E+04  0.26191937004E+04 0.  0.
        5    1    3    3  502    0 -0.71076870000E+03 -0.10160305196E+04 -0.29936092229E+03  0.12755975907E+04  0.46999998093E+01 0.  1.
       -5    1    3    3    0  502  0.71076870000E+03  0.10160305196E+04  0.54704089964E+03  0.13552807818E+04  0.46999998093E+01 0. -1.
</event>
<event>
 5   0  0.1263513E-06  0.2818026E+04  0.7818609E-02  0.8297694E-01
       -1   -1    0    0    0  501  0.00000000000E+00  0.00000000000E+00  0.13065378301E+04  0.13065378301E+04  0.50400001928E-02 0.  1.
        1   -1    0    0  501    0  0.00000000000E+00  0.00000000000E+00 -0.15195260532E+04  0.15195260532E+04  0.50400001928E-02 0. -1.
    10030    2    1    2    0    0  0.00000000000E+00  0.00000000000E+00 -0.21298822308E+03  0.28260638834E+04  0.28180264530E+04 0.  0.
        3    1    3    3  502    0  0.26362960390E+03  0.86229173080E+03 -0.11922966634E+04  0.14948641881E+04  0.10100000352E+00 0. -1.
       -3    1    3    3    0  502 -0.26362960390E+03 -0.86229173080E+03  0.97930844036E+03  0.13311996952E+04  0.10100000352E+00 0.  1.
</event>
<event>
 5   0  0.3345919E-06  0.2839974E+04  0.7818609E-02  0.8290965E-01
       -2   -1    0    0    0  501  0.00000000000E+00  0.00000000000E+00  0.11681319062E+04  0.11681319062E+04  0.25500000920E-02 0. -1.
        2   -1    0    0  501    0  0.00000000000E+00  0.00000000000E+00 -0.17261428435E+04  0.17261428435E+04  0.25500000920E-02 0.  1.
    10030    2    1    2    0    0  0.00000000000E+00  0.00000000000E+00 -0.55801093731E+03  0.28942747497E+04  0.28399736126E+04 0.  0.
        2    1    3    3  502    0  0.11812957051E+04 -0.68611999657E+03 -0.67389628819E+03  0.15232716107E+04  0.25500000920E-02 0.  1.
       -2    1    3    3    0  502 -0.11812957051E+04  0.68611999657E+03  0.11588535088E+03  0.13710031390E+04  0.25500000920E-02 0. -1.
</event>
<event>
 5   0  0.3212679E-06  0.2798407E+04  0.7818609E-02  0.8303763E-01
        2   -1    0    0  501    0  0.00000000000E+00  0.00000000000E+00  0.24663627178E+04  0.24663627178E+04  0.25500000920E-02 0.  1.
       -2   -1    0    0    0  501  0.00000000000E+00  0.00000000000E+00 -0.79378843868E+03  0.79378843869E+03  0.25500000920E-02 0. -1.
    10030    2    1    2    0    0  0.00000000000E+00  0.00000000000E+00  0.16725742791E+04  0.32601511565E+04  0.27984068403E+04 0.  0.
        4    1    3    3  502    0 -0.66924620592E+03  0.12286314373E+04  0.81471396745E+03  0.16190077685E+04  0.12699999809E+01 0. -1.
       -4    1    3    3    0  502  0.66924620592E+03 -0.12286314373E+04  0.85786031170E+03  0.16411433880E+04  0.12699999809E+01 0.  1.
</event>
<event>
 5   0  0.3212679E-06  0.2808258E+04  0.7818609E-02  0.8300709E-01
        2   -1    0    0  501    0  0.00000000000E+00  0.00000000000E+00  0.34799155376E+04  0.34799155376E+04  0.25500000920E-02 0. -1.
       -2   -1    0    0    0  501  0.00000000000E+00  0.00000000000E+00 -0.56655905198E+03  0.56655905199E+03  0.25500000920E-02 0.  1.
    10030    2    1    2    0    0  0.00000000000E+00  0.00000000000E+00  0.29133564856E+04  0.40464745896E+04  0.28082575722E+04 0.  0.
        4    1    3    3  502    0 -0.50731391396E+03 -0.79351992668E+03  0.29572667491E+04  0.31036220001E+04  0.12699999809E+01 0. -1.
       -4    1    3    3    0  502  0.50731391396E+03  0.79351992668E+03 -0.43910263488E+02  0.94285258948E+03  0.12699999809E+01 0.  1.
</event>
<event>
 5   0  0.1263513E-06  0.2800870E+04  0.7818609E-02  0.8302998E-01
       -1   -1    0    0    0  501  0.00000000000E+00  0.00000000000E+00  0.11214202404E+04  0.11214202404E+04  0.50400001928E-02 0.  1.
        1   -1    0    0  501    0  0.00000000000E+00  0.00000000000E+00 -0.17488702988E+04  0.17488702989E+04  0.50400001928E-02 0. -1.
    10030    2    1    2    0    0  0.00000000000E+00  0.00000000000E+00 -0.62745005841E+03  0.28702905393E+04  0.28008702584E+04 0.  0.
        3    1    3    3  502    0  0.89769134687E+02  0.33088683570E+03  0.10777484289E+04  0.11309669676E+04  0.10100000352E+00 0.  1.
       -3    1    3    3    0  502 -0.89769134687E+02 -0.33088683570E+03 -0.17051984873E+04  0.17393235717E+04  0.10100000352E+00 0. -1.
</event>
<event>
 5   0  0.1220265E-06  0.2790460E+04  0.7818609E-02  0.8306236E-01
        1   -1    0    0  501    0  0.00000000000E+00  0.00000000000E+00  0.12905296599E+04  0.12905296599E+04  0.50400001928E-02 0.  1.
       -1   -1    0    0    0  501  0.00000000000E+00  0.00000000000E+00 -0.15084241963E+04  0.15084241963E+04  0.50400001928E-02 0. -1.
    10030    2    1    2    0    0  0.00000000000E+00  0.00000000000E+00 -0.21789453635E+03  0.27989538562E+04  0.27904595787E+04 0.  0.
        4    1    3    3  502    0  0.96730508219E+03  0.86291454416E+03  0.40872833876E+03  0.13591766259E+04  0.12699999809E+01 0.  1.
       -4    1    3    3    0  502 -0.96730508219E+03 -0.86291454416E+03 -0.62662287510E+03  0.14397772304E+04  0.12699999809E+01 0. -1.
</event>
<event>
 5   0  0.3226364E-06  0.2805497E+04  0.7818609E-02  0.8301564E-01
       -2   -1    0    0    0  501  0.00000000000E+00  0.00000000000E+00  0.18549620963E+04  0.18549620963E+04  0.25500000920E-02 0. -1.
        2   -1    0    0  501    0  0.00000000000E+00  0.00000000000E+00 -0.10607784257E+04  0.10607784257E+04  0.25500000920E-02 0.  1.
    10030    2    1    2    0    0  0.00000000000E+00  0.00000000000E+00  0.79418367055E+03  0.29157405220E+04  0.28054972980E+04 0.  0.
        5    1    3    3  502    0 -0.89478290189E+03 -0.95052676713E+03  0.93063022232E+03  0.16031943978E+04  0.46999998093E+01 0.  1.
       -5    1    3    3    0  502  0.89478290189E+03  0.95052676713E+03 -0.13644655178E+03  0.13125461242E+04  0.46999998093E+01 0. -1.
</event>
<event>
 5   0  0.1243055E-06  0.2801381E+04  0.7818609E-02  0.8302840E-01
        1   -1    0    0  501    0  0.00000000000E+00  0.00000000000E+00  0.26383304058E+04  0.26383304058E+04  0.50400001928E-02 0. -1.
       -1   -1    0    0    0  501  0.00000000000E+00  0.00000000000E+00 -0.74362723927E+03  0.74362723929E+03  0.50400001928E-02 0.  1.
    10030    2    1    2    0    0  0.00000000000E+00  0.00000000000E+00  0.18947031665E+04  0.33819576450E+04  0.28013813421E+04 0.  0.
        5    1    3    3  502    0  0.11593303207E+04  0.15589739143E+03  0.18774497446E+04  0.22120557006E+04  0.46999998093E+01 0. -1.
       -5    1    3    3    0  502 -0.11593303207E+04 -0.15589739143E+03  0.17253421888E+02  0.11699019444E+04  0.46999998093E+01 0.  1.
</event>
<event>
 5   0  0.1246044E-06  0.2692937E+04  0.7818609E-02  0.8337300E-01
       -1   -1    0    0    0  501  0.00000000000E+00  0.00000000000E+00  0.73530491449E+03  0.73530491451E+03  0.50400001928E-02 0.  1.
        1   -1    0    0  501    0  0.00000000000E+00  0.00000000000E+00 -0.24656139267E+04  0.24656139267E+04  0.50400001928E-02 0. -1.
    10030    2    1    2    0    0  0.00000000000E+00  0.00000000000E+00 -0.17303090122E+04  0.32009188412E+04  0.26929374575E+04 0.  0.
        2    1    3    3  502    0 -0.25537918753E+03 -0.16674999608E+03  0.69370438682E+03  0.75779275987E+03  0.25500000920E-02 0.  1.
       -2    1    3    3    0  502  0.25537918753E+03  0.16674999608E+03 -0.24240133990E+04  0.24431260813E+04  0.25500000920E-02 0. -1.
</event>
<event>
 5   0  0.3167616E-06  0.2822050E+04  0.7818609E-02  0.8296455E-01
        2   -1    0    0  501    0  0.00000000000E+00  0.00000000000E+00  0.17070163123E+04  0.17070163123E+04  0.25500000920E-02 0. -1.
       -2   -1    0    0    0  501  0.00000000000E+00  0.00000000000E+00 -0.11663576937E+04  0.11663576937E+04  0.25500000920E-02 0.  1.
    10030    2    1    2    0    0  0.00000000000E+00  0.00000000000E+00  0.54065861858E+03  0.28733740060E+04  0.28220500415E+04 0.  0.
        3    1    3    3  502    0  0.77346942390E+03 -0.10768460113E+04  0.76195572293E+03  0.15291922102E+04  0.10100000352E+00 0. -1.
       -3    1    3    3    0  502 -0.77346942390E+03  0.10768460113E+04 -0.22129710435E+03  0.13441817959E+04  0.10100000352E+00 0.  1.
</event>
<event>
 5   0  0.1263513E-06  0.2795730E+04  0.7818609E-02  0.8304595E-01
        1   -1    0    0  501    0  0.00000000000E+00  0.00000000000E+00  0.22629463382E+04  0.22629463382E+04  0.50400001928E-02 0. -1.
       -1   -1    0    0    0  501  0.00000000000E+00  0.00000000000E+00 -0.86348779564E+03  0.86348779566E+03  0.50400001928E-02 0.  1.
    10030    2    1    2    0    0  0.00000000000E+00  0.00000000000E+00  0.13994585426E+04  0.31264341339E+04  0.27957299907E+04 0.  0.
        3    1    3    3  502    0  0.12784426609E+04  0.36106379461E+03  0.11862092008E+04  0.17809758503E+04  0.10100000352E+00 0. -1.
       -3    1    3    3    0  502 -0.12784426609E+04 -0.36106379461E+03  0.21324934181E+03  0.13454582836E+04  0.10100000352E+00 0.  1.
</event>
<event>
 5   0  0.1263513E-06  0.2800565E+04  0.7818609E-02  0.8303093E-01
       -1   -1    0    0    0  501  0.00000000000E+00  0.00000000000E+00  0.76373832163E+03  0.76373832165E+03  0.50400001928E-02 0.  1.
        1   -1    0    0  501    0  0.00000000000E+00  0.00000000000E+00 -0.25673605777E+04  0.25673605777E+04  0.50400001928E-02 0. -1.
    10030    2    1    2    0    0  0.00000000000E+00  0.00000000000E+00 -0.18036222561E+04  0.33310988994E+04  0.28005654134E+04 0.  0.
        3    1    3    3  502    0 -0.89743482684E+03  0.76147198058E+03 -0.18041884355E+04  0.21541413061E+04  0.10100000352E+00 0. -1.
       -3    1    3    3    0  502  0.89743482684E+03 -0.76147198058E+03  0.56617941102E+00  0.11769575933E+04  0.10100000352E+00 0.  1.
</event>
<event>
 5   0  0.1263513E-06  0.2804864E+04  0.7818609E-02  0.8301760E-01
       -1   -1    0    0    0  501  0.00000000000E+00  0.00000000000E+00  0.16758938402E+04  0.16758938402E+04  0.50400001928E-02 0. -1.
        1   -1    0    0  501    0  0.00000000000E+00  0.00000000000E+00 -0.11735915506E+04  0.11735915506E+04  0.50400001928E-02 0.  1.
    10030    2    1    2    0    0  0.00000000000E+00  0.00000000000E+00  0.50230228966E+03  0.28494853908E+04  0.28048635265E+04 0.  0.
        3    1    3    3  502    0  0.10984038740E+04 -0.73923742046E+03 -0.21864685231E+03  0.13419275280E+04  0.10100000352E+00 0.  1.
       -3    1    3    3    0  502 -0.10984038740E+04  0.73923742046E+03  0.72094914197E+03  0.15075578628E+04  0.10100000352E+00 0. -1.
</event>
<event>
 5   0  0.1246044E-06  0.2683514E+04  0.7818609E-02  0.8340374E-01
        1   -1    0    0  501    0  0.00000000000E+00  0.00000000000E+00  0.18477347146E+04  0.18477347146E+04  0.50400001928E-02 0.  1.
       -1   -1    0    0    0  501  0.00000000000E+00  0.00000000000E+00 -0.97433475288E+03  0.97433475290E+03  0.50400001928E-02 0. -1.
    10030    2    1    2    0    0  0.00000000000E+00  0.00000000000E+00  0.87339996176E+03  0.28220694675E+04  0.26835142233E+04 0.  0.
        2    1    3    3  502    0  0.10266480662E+04 -0.64342091579E+01 -0.47176917873E+03  0.11298733597E+04  0.25500000920E-02 0. -1.
       -2    1    3    3    0  502 -0.10266480662E+04  0.64342091579E+01  0.13451691405E+04  0.16921961079E+04  0.25500000920E-02 0.  1.
</event>
<event>
 5   0  0.1220265E-06  0.2794479E+04  0.7818609E-02  0.8304984E-01
       -1   -1    0    0    0  501  0.00000000000E+00  0.00000000000E+00  0.70427535506E+03  0.70427535508E+03  0.50400001928E-02 0. -1.
        1   -1    0    0  501    0  0.00000000000E+00  0.00000000000E+00 -0.27720390540E+04  0.27720390540E+04  0.50400001928E-02 0.  1.
    10030    2    1    2    0    0  0.00000000000E+00  0.00000000000E+00 -0.20677636990E+04  0.34763144091E+04  0.27944794070E+04 0.  0.
        4    1    3    3  502    0 -0.74314217322E+03 -0.28953156945E+03 -0.24610566122E+04  0.25870620558E+04  0.12699999809E+01 0.  1.
       -4    1    3    3    0  502  0.74314217322E+03  0.28953156945E+03  0.39329291323E+03  0.88925235329E+03  0.12699999809E+01 0. -1.
</event>
<event>
 5   0  0.1220265E-06  0.2773217E+04  0.7818609E-02  0.8311632E-01
        1   -1    0    0  501    0  0.00000000000E+00  0.00000000000E+00  0.13197556227E+04  0.13197556227E+04  0.50400001928E-02 0.  1.
       -1   -1    0    0    0  501  0.00000000000E+00  0.00000000000E+00 -0.14568479983E+04  0.14568479983E+04  0.50400001928E-02 0. -1.
    10030    2    1    2    0    0  0.00000000000E+00  0.00000000000E+00 -0.13709237563E+03  0.27766036210E+04  0.27732171478E+04 0.  0.
        4    1    3    3  502    0 -0.20945874314E+03  0.95056740517E+03  0.92019725618E+03  0.13394834676E+04  0.12699999809E+01 0.  1.
       -4    1    3    3    0  502  0.20945874314E+03 -0.95056740517E+03 -0.10572896318E+04  0.14371201534E+04  0.12699999809E+01 0. -1.
</event>
<event>
 5   0  0.3167616E-06  0.2786798E+04  0.7818609E-02  0.8307379E-01
        2   -1    0    0  501    0  0.00000000000E+00  0.00000000000E+00  0.19315192649E+04  0.19315192649E+04  0.25500000920E-02 0.  1.
       -2   -1    0    0    0  501  0.00000000000E+00  0.00000000000E+00 -0.10051990061E+04  0.10051990061E+04  0.25500000920E-02 0. -1.
    10030    2    1    2    0    0  0.00000000000E+00  0.00000000000E+00  0.92632025881E+03  0.29367182710E+04  0.27867983389E+04 0.  0.
        3    1    3    3  502    0 -0.54212855786E+03  0.52579151954E+03  0.16971378683E+04  0.18575890422E+04  0.10100000352E+00 0.  1.
       -3    1    3    3    0  502  0.54212855786E+03 -0.52579151954E+03 -0.77081760950E+03  0.10791292289E+04  0.10100000352E+00 0. -1.
</event>
<event>
 5   0  0.3212679E-06  0.2795880E+04  0.7818609E-02  0.8304548E-01
       -2   -1    0    0    0  501  0.00000000000E+00  0.00000000000E+00  0.13010070638E+04  0.13010070638E+04  0.25500000920E-02 0.  1.
        2   -1    0    0  501    0  0.00000000000E+00  0.00000000000E+00 -0.15020954903E+04  0.15020954903E+04  0.25500000920E-02 0. -1.
    10030    2    1    2    0    0  0.00000000000E+00  0.00000000000E+00 -0.20108842652E+03  0.28031025541E+04  0.27958804291E+04 0.  0.
        4    1    3    3  502    0  0.14908900237E+03 -0.78958435455E+03  0.10463356252E+04  0.13192766340E+04  0.12699999809E+01 0.  1.
       -4    1    3    3    0  502 -0.14908900237E+03  0.78958435455E+03 -0.12474240517E+04  0.14838259201E+04  0.12699999809E+01 0. -1.
</event>
<event>
 5   0  0.3212679E-06  0.2795251E+04  0.7818609E-02  0.8304744E-01
       -2   -1    0    0    0  501  0.00000000000E+00  0.00000000000E+00  0.17472796951E+04  0.17472796951E+04  0.25500000920E-02 0. -1.
        2   -1    0    0  501    0  0.00000000000E+00  0.00000000000E+00 -0.11179419564E+04  0.11179419565E+04  0.25500000920E-02 0.  1.
    10030    2    1    2    0    0  0.00000000000E+00  0.00000000000E+00  0.62933773869E+03  0.28652216516E+04  0.27952511736E+04 0.  0.
        4    1    3    3  502    0  0.46895640583E+03  0.64776198675E+03  0.14895897446E+04  0.16906788347E+04  0.12699999809E+01 0. -1.
       -4    1    3    3    0  502 -0.46895640583E+03 -0.64776198675E+03 -0.86025200592E+03  0.11745428169E+04  0.12699999809E+01 0.  1.
</event>
<event>
 5   0  0.1243055E-06  0.2818301E+04  0.7818609E-02  0.8297609E-01
       -1   -1    0    0    0  501  0.00000000000E+00  0.00000000000E+00  0.13358778995E+04  0.13358778995E+04  0.50400001928E-02 0. -1.
        1   -1    0    0  501    0  0.00000000000E+00  0.00000000000E+00 -0.14864418720E+04  0.14864418720E+04  0.50400001928E-02 0.  1.
    10030    2    1    2    0    0  0.00000000000E+00  0.00000000000E+00 -0.15056397249E+03  0.28223197716E+04  0.28183007972E+04 0.  0.
        5    1    3    3  502    0 -0.24802868392E+03 -0.86417493405E+02 -0.14617043484E+04  0.14851221846E+04  0.46999998093E+01 0.  1.
       -5    1    3    3    0  502  0.24802868392E+03  0.86417493405E+02  0.13111403759E+04  0.13371975869E+04  0.46999998093E+01 0. -1.
</event>
<event>
 5   0  0.1263513E-06  0.2806089E+04  0.7818609E-02  0.8301380E-01
       -1   -1    0    0    0  501  0.00000000000E+00  0.00000000000E+00  0.96891281634E+03  0.96891281636E+03  0.50400001928E-02 0.  1.
        1   -1    0    0  501    0  0.00000000000E+00  0.00000000000E+00 -0.20316941918E+04  0.20316941918E+04  0.50400001928E-02 0. -1.
    10030    2    1    2    0    0  0.00000000000E+00  0.00000000000E+00 -0.10627813755E+04  0.30006070082E+04  0.28060894792E+04 0.  0.
        3    1    3    3  502    0  0.99620033185E+03  0.25770742337E+03  0.48851076004E+03  0.11390658410E+04  0.10100000352E+00 0.  1.
       -3    1    3    3    0  502 -0.99620033185E+03 -0.25770742337E+03 -0.15512921355E+04  0.18615411672E+04  0.10100000352E+00 0. -1.
</event>
<event>
 5   0  0.3212679E-06  0.2791942E+04  0.7818609E-02  0.8305774E-01
       -2   -1    0    0    0  501  0.00000000000E+00  0.00000000000E+00  0.11855989490E+04  0.11855989490E+04  0.25500000920E-02 0.  1.
        2   -1    0    0  501    0  0.00000000000E+00  0.00000000000E+00 -0.16436718764E+04  0.16436718764E+04  0.25500000920E-02 0. -1.
    10030    2    1    2    0    0  0.00000000000E+00  0.00000000000E+00 -0.45807292749E+03  0.28292708254E+04  0.27919424415E+04 0.  0.
        4    1    3    3  502    0  0.90972611532E+03 -0.79370610426E+03 -0.93923685143E+03  0.15296203649E+04  0.12699999809E+01 0. -1.
       -4    1    3    3    0  502 -0.90972611532E+03  0.79370610426E+03  0.48116392394E+03  0.12996504605E+04  0.12699999809E+01 0.  1.
</event>
<event>
 5   0  0.3226364E-06  0.2803675E+04  0.7818609E-02  0.8302128E-01
       -2   -1    0    0    0  501  0.00000000000E+00  0.00000000000E+00  0.18297778822E+04  0.18297778822E+04  0.25500000920E-02 0.  1.
        2   -1    0    0  501    0  0.00000000000E+00  0.00000000000E+00 -0.10739820159E+04  0.10739820159E+04  0.25500000920E-02 0. -1.
    10030    2    1    2    0    0  0.00000000000E+00  0.00000000000E+00  0.75579586627E+03  0.29037598981E+04  0.28036751157E+04 0.  0.
        5    1    3    3  502    0 -0.64417589743E+03  0.80791639004E+03  0.13590459041E+04  0.17072549135E+04  0.46999998093E+01 0.  1.
       -5    1    3    3    0  502  0.64417589743E+03 -0.80791639004E+03 -0.60325003784E+03  0.11965049846E+04  0.46999998093E+01 0. -1.
</event>
<event>
 5   0  0.1243055E-06  0.2793452E+04  0.7818609E-02  0.8305304E-01
        1   -1    0    0  501    0  0.00000000000E+00  0.00000000000E+00  0.99734149172E+03  0.99734149173E+03  0.50400001928E-02 0.  1.
       -1   -1    0    0    0  501  0.00000000000E+00  0.00000000000E+00 -0.19560438285E+04  0.19560438285E+04  0.50400001928E-02 0. -1.
    10030    2    1    2    0    0  0.00000000000E+00  0.00000000000E+00 -0.95870233682E+03  0.29533853203E+04  0.27934521080E+04 0.  0.
        5    1    3    3  502    0  0.81349687266E+03  0.44700559215E+03  0.62406352405E+03  0.11185117493E+04  0.46999998093E+01 0.  1.
       -5    1    3    3    0  502 -0.81349687266E+03 -0.44700559215E+03 -0.15827658609E+04  0.18348735710E+04  0.46999998093E+01 0. -1.
</event>
<event>
 5   0  0.1263513E-06  0.2782570E+04  0.7818609E-02  0.8308700E-01
       -1   -1    0    0    0  501  0.00000000000E+00  0.00000000000E+00  0.10240435927E+04  0.10240435927E+04  0.50400001928E-02 0. -1.
        1   -1    0    0  501    0  0.00000000000E+00  0.00000000000E+00 -0.18902259138E+04  0.18902259138E+04  0.50400001928E-02 0.  1.
    10030    2    1    2    0    0  0.00000000000E+00  0.00000000000E+00 -0.86618232106E+03  0.29142695065E+04  0.27825698452E+04 0.  0.
        3    1    3    3  502    0  0.87535468234E+03  0.99410793762E+03 -0.87888652303E+03  0.15896345310E+04  0.10100000352E+00 0. -1.
       -3    1    3    3    0  502 -0.87535468234E+03 -0.99410793762E+03  0.12704201974E+02  0.13246349756E+04  0.10100000352E+00 0.  1.
</event>
<event>
 5   0  0.3345919E-06  0.2800955E+04  0.7818609E-02  0.8302972E-01
       -2   -1    0    0    0  501  0.00000000000E+00  0.00000000000E+00  0.99544747965E+03  0.99544747966E+03  0.25500000920E-02 0. -1.
        2   -1    0    0  501    0  0.00000000000E+00  0.00000000000E+00 -0.19703077747E+04  0.19703077747E+04  0.25500000920E-02 0.  1.
    10030    2    1    2    0    0  0.00000000000E+00  0.00000000000E+00 -0.97486029501E+03  0.29657552543E+04  0.28009554859E+04 0.  0.
        2    1    3    3  502    0 -0.83083600546E+03 -0.58818848017E+03 -0.15058330497E+04  0.18176323417E+04  0.25500000920E-02 0.  1.
       -2    1    3    3    0  502  0.83083600546E+03  0.58818848017E+03  0.53097275469E+03  0.11481229126E+04  0.25500000920E-02 0. -1.
</event>
<event>
 5   0  0.3226364E-06  0.2800497E+04  0.7818609E-02  0.8303114E-01
       -2   -1    0    0    0  501  0.00000000000E+00  0.00000000000E+00  0.12466962620E+04  0.12466962620E+04  0.25500000920E-02 0.  1.
        2   -1    0    0  501    0  0.00000000000E+00  0.00000000000E+00 -0.15727134118E+04  0.15727134118E+04  0.25500000920E-02 0. -1.
    10030    2    1    2    0    0  0.00000000000E+00  0.00000000000E+00 -0.32601714982E+03  0.28194096739E+04  0.28004970500E+04 0.  0.
        5    1    3    3  502    0 -0.12213392906E+04  0.52228783222E+03 -0.60896688209E+03  0.14612723894E+04  0.46999998093E+01 0. -1.
       -5    1    3    3    0  502  0.12213392906E+04 -0.52228783222E+03  0.28294973227E+03  0.13581372845E+04  0.46999998093E+01 0.  1.
</event>
<event>
 5   0  0.3162695E-06  0.2777091E+04  0.7818609E-02  0.8310416E-01
        2   -1    0    0  501    0  0.00000000000E+00  0.00000000000E+00  0.10048905074E+04  0.10048905074E+04  0.25500000920E-02 0.  1.
       -2   -1    0    0    0  501  0.00000000000E+00  0.00000000000E+00 -0.19186749023E+04  0.19186749023E+04  0.25500000920E-02 0. -1.
    10030    2    1    2    0    0  0.00000000000E+00  0.00000000000E+00 -0.91378439498E+03  0.29235654097E+04  0.27770907051E+04 0.  0.
        1    1    3    3  502    0  0.80118014353E+03  0.19048196124E+03 -0.16338416524E+04  0.18296479293E+04  0.50400001928E-02 0. -1.
       -1    1    3    3    0  502 -0.80118014353E+03 -0.19048196124E+03  0.72005725744E+03  0.10939174804E+04  0.50400001928E-02 0.  1.
</event>
<event>
 5   0  0.3212679E-06  0.2801222E+04  0.7818609E-02  0.8302889E-01
        2   -1    0    0  501    0  0.00000000000E+00  0.00000000000E+00  0.15063946880E+04  0.15063946880E+04  0.25500000920E-02 0.  1.
       -2   -1    0    0    0  501  0.00000000000E+00  0.00000000000E+00 -0.13022558140E+04  0.13022558140E+04  0.25500000920E-02 0. -1.
    10030    2    1    2    0    0  0.00000000000E+00  0.00000000000E+00  0.20413887393E+03  0.28086505020E+04  0.28012220481E+04 0.  0.
        4    1    3    3  502    0 -0.57518275211E+03  0.11382341055E+04  0.68265382702E+03  0.14465233969E+04  0.12699999809E+01 0. -1.
       -4    1    3    3    0  502  0.57518275211E+03 -0.11382341055E+04 -0.47851495308E+03  0.13621271051E+04  0.12699999809E+01 0.  1.
</event>
<event>
 5   0  0.3226364E-06  0.2824247E+04  0.7818609E-02  0.8295780E-01
        2   -1    0    0  501    0  0.00000000000E+00  0.00000000000E+00  0.18986431173E+04  0.18986431173E+04  0.25500000920E-02 0. -1.
       -2   -1    0    0    0  501  0.00000000000E+00  0.00000000000E+00 -0.10502724940E+04  0.10502724940E+04  0.25500000920E-02 0.  1.
    10030    2    1    2    0    0  0.00000000000E+00  0.00000000000E+00  0.84837062330E+03  0.29489156112E+04  0.28242469027E+04 0.  0.
        5    1    3    3  502    0  0.52178300492E+03 -0.58027552957E+03  0.16530362535E+04  0.18279847209E+04  0.46999998093E+01 0. -1.
       -5    1    3    3    0  502 -0.52178300492E+03  0.58027552957E+03 -0.80466563021E+03  0.11209308903E+04  0.46999998093E+01 0.  1.
</event>
<event>
 5   0  0.3167616E-06  0.2790138E+04  0.7818609E-02  0.8306337E-01
       -2   -1    0    0    0  501  0.00000000000E+00  0.00000000000E+00  0.13952543383E+04  0.13952543383E+04  0.25500000920E-02 0.  1.
        2   -1    0    0  501    0  0.00000000000E+00  0.00000000000E+00 -0.13948841572E+04  0.13948841572E+04  0.25500000920E-02 0. -1.
    10030    2    1    2    0    0  0.00000000000E+00  0.00000000000E+00  0.37018106093E+00  0.27901384955E+04  0.27901384709E+04 0.  0.
        3    1    3    3  502    0  0.10303101264E+03  0.10059312184E+04  0.96128090888E+03  0.13951967609E+04  0.10100000352E+00 0.  1.
       -3    1    3    3    0  502 -0.10303101264E+03 -0.10059312184E+04 -0.96091072782E+03  0.13949417346E+04  0.10100000352E+00 0. -1.
</event>
<event>
 5   0  0.1220265E-06  0.2811731E+04  0.7818609E-02  0.8299636E-01
       -1   -1    0    0    0  501  0.00000000000E+00  0.00000000000E+00  0.95386710607E+03  0.95386710608E+03  0.50400001928E-02 0. -1.
        1   -1    0    0  501    0  0.00000000000E+00  0.00000000000E+00 -0.20720476734E+04  0.20720476734E+04  0.50400001928E-02 0.  1.
    10030    2    1    2    0    0  0.00000000000E+00  0.00000000000E+00 -0.11181805673E+04  0.30259147795E+04  0.28117312232E+04 0.  0.
        4    1    3    3  502    0  0.77499920516E+03  0.41406995338E+02 -0.18206125911E+04  0.19791336809E+04  0.12699999809E+01 0.  1.
       -4    1    3    3    0  502 -0.77499920516E+03 -0.41406995338E+02  0.70243202380E+03  0.10467810985E+04  0.12699999809E+01 0. -1.
</event>
<event>
 5   0  0.3226364E-06  0.2804940E+04  0.7818609E-02  0.8301736E-01
       -2   -1    0    0    0  501  0.00000000000E+00  0.00000000000E+00  0.99348669501E+03  0.99348669502E+03  0.25500000920E-02 0. -1.
        2   -1    0    0  501    0  0.00000000000E+00  0.00000000000E+00 -0.19798179386E+04  0.19798179386E+04  0.25500000920E-02 0.  1.
    10030    2    1    2    0    0  0.00000000000E+00  0.00000000000E+00 -0.98633124355E+03  0.29733046336E+04  0.28049404846E+04 0.  0.
        5    1    3    3  502    0 -0.96520979205E+03  0.61179120914E+03  0.36864265376E+03  0.12007655568E+04  0.46999998093E+01 0. -1.
       -5    1    3    3    0  502  0.96520979205E+03 -0.61179120914E+03 -0.13549738973E+04  0.17725390768E+04  0.46999998093E+01 0.  1.
</event>
<event>
 5   0  0.1243055E-06  0.2783746E+04  0.7818609E-02  0.8308332E-01
       -1   -1    0    0    0  501  0.00000000000E+00  0.00000000000E+00  0.11532877851E+04  0.11532877851E+04  0.50400001928E-02 0.  1.
        1   -1    0    0  501    0  0.00000000000E+00  0.00000000000E+00 -0.16798148962E+04  0.16798148962E+04  0.50400001928E-02 0. -1.
    10030    2    1    2    0    0  0.00000000000E+00  0.00000000000E+00 -0.52652711110E+03  0.28331026813E+04  0.27837456788E+04 0.  0.
        5    1    3    3  502    0  0.62197605090E+03  0.59351251420E+03  0.85075692679E+03  0.12095126088E+04  0.46999998093E+01 0.  1.
       -5    1    3    3    0  502 -0.62197605090E+03 -0.59351251420E+03 -0.13772840379E+04  0.16235900725E+04  0.46999998093E+01 0. -1.
</event>
<event>
 5   0  0.1243055E-06  0.2734640E+04  0.7818609E-02  0.8323852E-01
        1   -1    0    0  501    0  0.00000000000E+00  0.00000000000E+00  0.16875617128E+04  0.16875617128E+04  0.50400001928E-02 0. -1.
       -1   -1    0    0    0  501  0.00000000000E+00  0.00000000000E+00 -0.11078495514E+04  0.11078495514E+04  0.50400001928E-02 0.  1.
    10030    2    1    2    0    0  0.00000000000E+00  0.00000000000E+00  0.57971216144E+03  0.27954112642E+04  0.27346403686E+04 0.  0.
        5    1    3    3  502    0  0.65365439672E+03 -0.62626364480E+03  0.13373585738E+04  0.16149366142E+04  0.46999998093E+01 0. -1.
       -5    1    3    3    0  502 -0.65365439672E+03  0.62626364480E+03 -0.75764641232E+03  0.11804746500E+04  0.46999998093E+01 0.  1.
</event>
<event>
 5   0  0.1243055E-06  0.2798986E+04  0.7818609E-02  0.8303583E-01
       -1   -1    0    0    0  501  0.00000000000E+00  0.00000000000E+00  0.15597202712E+04  0.15597202712E+04  0.50400001928E-02 0. -1.
        1   -1    0    0  501    0  0.00000000000E+00  0.00000000000E+00 -0.12557255473E+04  0.12557255473E+04  0.50400001928E-02 0.  1.
    10030    2    1    2    0    0  0.00000000000E+00  0.00000000000E+00  0.30399472396E+03  0.28154458185E+04  0.27989859529E+04 0.  0.
        5    1    3    3  502    0  0.95262969608E+03  0.10249710582E+04  0.12974276093E+03  0.14053199927E+04  0.46999998093E+01 0. -1.
       -5    1    3    3    0  502 -0.95262969608E+03 -0.10249710582E+04  0.17425196303E+03  0.14101258258E+04  0.46999998093E+01 0.  1.
</event>
<event>
 5   0  0.1235252E-06  0.2815951E+04  0.7818609E-02  0.8298333E-01
        1   -1    0    0  501    0  0.00000000000E+00  0.00000000000E+00  0.13556596764E+04  0.13556596764E+04  0.50400001928E-02 0.  1.
       -1   -1    0    0    0  501  0.00000000000E+00  0.00000000000E+00 -0.14623100772E+04  0.14623100772E+04  0.50400001928E-02 0. -1.
    10030    2    1    2    0    0  0.00000000000E+00  0.00000000000E+00 -0.10665040073E+03  0.28179697536E+04  0.28159508561E+04 0.  0.
        1    1    3    3  502    0 -0.12161193002E+04  0.48421014242E+03 -0.57233872021E+03  0.14286277419E+04  0.50400001928E-02 0. -1.
       -1    1    3    3    0  502  0.12161193002E+04 -0.48421014242E+03  0.46568831948E+03  0.13893420116E+04  0.50400001928E-02 0.  1.
</event>
<event>
 5   0  0.3167616E-06  0.2801908E+04  0.7818609E-02  0.8302676E-01
        2   -1    0    0  501    0  0.00000000000E+00  0.00000000000E+00  0.16710758649E+04  0.16710758649E+04  0.25500000920E-02 0.  1.
       -2   -1    0    0    0  501  0.00000000000E+00  0.00000000000E+00 -0.11744965014E+04  0.11744965014E+04  0.25500000920E-02 0. -1.
    10030    2    1    2    0    0  0.00000000000E+00  0.00000000000E+00  0.49657936347E+03  0.28455723663E+04  0.28019084617E+04 0.  0.
        3    1    3    3  502    0  0.62728696077E+03  0.60939462250E+03 -0.86321638212E+03  0.12288178342E+04  0.10100000352E+00 0. -1.
       -3    1    3    3    0  502 -0.62728696077E+03 -0.60939462250E+03  0.13597957456E+04  0.16167545321E+04  0.10100000352E+00 0.  1.
</event>
<event>
 5   0  0.1065675E-06  0.2721792E+04  0.7818609E-02  0.8327969E-01
       -4   -1    0    0    0  501  0.00000000000E+00  0.00000000000E+00  0.17239032892E+04  0.17239037570E+04  0.12699999809E+01 0.  1.
        4   -1    0    0  501    0  0.00000000000E+00  0.00000000000E+00 -0.10743273946E+04  0.10743281453E+04  0.12699999809E+01 0. -1.
    10030    2    1    2    0    0  0.00000000000E+00  0.00000000000E+00  0.64957589460E+03  0.27982319023E+04  0.27217922287E+04 0.  0.
        5    1    3    3  502    0 -0.12987885816E+04 -0.26520512881E+03  0.64138217485E+03  0.14726094948E+04  0.46999998093E+01 0. -1.
       -5    1    3    3    0  502  0.12987885816E+04  0.26520512881E+03  0.81937197453E+01  0.13256224074E+04  0.46999998093E+01 0.  1.
</event>
<event>
 5   0  0.1220265E-06  0.2802277E+04  0.7818609E-02  0.8302562E-01
       -1   -1    0    0    0  501  0.00000000000E+00  0.00000000000E+00  0.28280273066E+04  0.28280273066E+04  0.50400001928E-02 0. -1.
        1   -1    0    0  501    0  0.00000000000E+00  0.00000000000E+00 -0.69419040891E+03  0.69419040893E+03  0.50400001928E-02 0.  1.
    10030    2    1    2    0    0  0.00000000000E+00  0.00000000000E+00  0.21338368977E+04  0.35222177155E+04  0.28022772400E+04 0.  0.
        4    1    3    3  502    0  0.74772386838E+02 -0.59940963988E+03 -0.52212190293E+03  0.79843329129E+03  0.12699999809E+01 0.  1.
       -4    1    3    3    0  502 -0.74772386838E+02  0.59940963988E+03  0.26559588006E+04  0.27237844242E+04  0.12699999809E+01 0. -1.
</event>
<event>
 5   0  0.3212679E-06  0.2654490E+04  0.7818609E-02  0.8349924E-01
        2   -1    0    0  501    0  0.00000000000E+00  0.00000000000E+00  0.14500528723E+04  0.14500528724E+04  0.25500000920E-02 0. -1.
       -2   -1    0    0    0  501  0.00000000000E+00  0.00000000000E+00 -0.12148383294E+04  0.12148383294E+04  0.25500000920E-02 0.  1.
    10030    2    1    2    0    0  0.00000000000E+00  0.00000000000E+00  0.23521454297E+03  0.26648912017E+04  0.26544903910E+04 0.  0.
        4    1    3    3  502    0  0.80690058886E+03 -0.89452560596E+03  0.67684789787E+03  0.13818065385E+04  0.12699999809E+01 0. -1.
       -4    1    3    3    0  502 -0.80690058886E+03  0.89452560596E+03 -0.44163335490E+03  0.12830846633E+04  0.12699999809E+01 0.  1.
</event>
<event>
 5   0  0.3345919E-06  0.2830627E+04  0.7818609E-02  0.8293823E-01
        2   -1    0    0  501    0  0.00000000000E+00  0.00000000000E+00  0.20461097688E+04  0.20461097688E+04  0.25500000920E-02 0.  1.
       -2   -1    0    0    0  501  0.00000000000E+00  0.00000000000E+00 -0.97898544920E+03  0.97898544921E+03  0.25500000920E-02 0. -1.
    10030    2    1    2    0    0  0.00000000000E+00  0.00000000000E+00  0.10671243196E+04  0.30250952180E+04  0.28306265675E+04 0.  0.
        2    1    3    3  502    0 -0.93765791554E+02 -0.11958714913E+04  0.13363065178E+04  0.17957215143E+04  0.25500000920E-02 0.  1.
       -2    1    3    3    0  502  0.93765791554E+02  0.11958714913E+04 -0.26918219820E+03  0.12293737037E+04  0.25500000920E-02 0. -1.
</event>
<event>
 5   0  0.1235252E-06  0.2794718E+04  0.7818609E-02  0.8304910E-01
       -1   -1    0    0    0  501  0.00000000000E+00  0.00000000000E+00  0.12533440735E+04  0.12533440735E+04  0.50400001928E-02 0.  1.
        1   -1    0    0  501    0  0.00000000000E+00  0.00000000000E+00 -0.15579214208E+04  0.15579214208E+04  0.50400001928E-02 0. -1.
    10030    2    1    2    0    0  0.00000000000E+00  0.00000000000E+00 -0.30457734733E+03  0.28112654943E+04  0.27947175741E+04 0.  0.
        1    1    3    3  502    0  0.17929429220E+03 -0.11797883371E+04  0.57904063664E+03  0.13263992696E+04  0.50400001928E-02 0.  1.
       -1    1    3    3    0  502 -0.17929429220E+03  0.11797883371E+04 -0.88361798397E+03  0.14848662247E+04  0.50400001928E-02 0. -1.
</event>
<event>
 5   0  0.3226364E-06  0.2826640E+04  0.7818609E-02  0.8295045E-01
       -2   -1    0    0    0  501  0.00000000000E+00  0.00000000000E+00  0.93690415061E+03  0.93690415061E+03  0.25500000920E-02 0. -1.
        2   -1    0    0  501    0  0.00000000000E+00  0.00000000000E+00 -0.21319934701E+04  0.21319934701E+04  0.25500000920E-02 0.  1.
    10030    2    1    2    0    0  0.00000000000E+00  0.00000000000E+00 -0.11950893195E+04  0.30688976207E+04  0.28266400770E+04 0.  0.
        5    1    3    3  502    0  0.52264331430E+03 -0.13033389447E+04 -0.42382165313E+03  0.14667976420E+04  0.46999998093E+01 0. -1.
       -5    1    3    3    0  502 -0.52264331430E+03  0.13033389447E+04 -0.77126766639E+03  0.16020999788E+04  0.46999998093E+01 0.  1.
</event>
<event>
 5   0  0.1263513E-06  0.2792077E+04  0.7818609E-02  0.8305732E-01
       -1   -1    0    0    0  501  0.00000000000E+00  0.00000000000E+00  0.15341003494E+04  0.15341003495E+04  0.50400001928E-02 0. -1.
        1   -1    0    0  501    0  0.00000000000E+00  0.00000000000E+00 -0.12704016998E+04  0.12704016998E+04  0.50400001928E-02 0.  1.
    10030    2    1    2    0    0  0.00000000000E+00  0.00000000000E+00  0.26369864963E+03  0.28045020493E+04  0.27920771419E+04 0.  0.
        3    1    3    3  502    0 -0.19121830044E+03 -0.92233113835E+03  0.11668055931E+04  0.14995647601E+04  0.10100000352E+00 0. -1.
       -3    1    3    3    0  502  0.19121830044E+03  0.92233113835E+03 -0.90310694351E+03  0.13049372892E+04  0.10100000352E+00 0.  1.
</event>
<event>
 5   0  0.3212679E-06  0.2796657E+04  0.7818609E-02  0.8304307E-01
       -2   -1    0    0    0  501  0.00000000000E+00  0.00000000000E+00  0.12877055525E+04  0.12877055525E+04  0.25500000920E-02 0. -1.
        2   -1    0    0  501    0  0.00000000000E+00  0.00000000000E+00 -0.15184544069E+04  0.15184544069E+04  0.25500000920E-02 0.  1.
    10030    2    1    2    0    0  0.00000000000E+00  0.00000000000E+00 -0.23074885441E+03  0.28061599594E+04  0.27966566975E+04 0.  0.
        4    1    3    3  502    0 -0.13505741990E+04 -0.35071458187E+03 -0.20661842567E+03  0.14105829191E+04  0.12699999809E+01 0. -1.
       -4    1    3    3    0  502  0.13505741990E+04  0.35071458187E+03 -0.24130428739E+02  0.13955770403E+04  0.12699999809E+01 0.  1.
</event>
<event>
 5   0  0.1065675E-06  0.2801038E+04  0.7818609E-02  0.8302946E-01
        4   -1    0    0  501    0  0.00000000000E+00  0.00000000000E+00  0.15558148425E+04  0.15558153608E+04  0.12699999809E+01 0.  1.
       -4   -1    0    0    0  501  0.00000000000E+00  0.00000000000E+00 -0.12607231363E+04  0.12607237760E+04  0.12699999809E+01 0. -1.
    10030    2    1    2    0    0  0.00000000000E+00  0.00000000000E+00  0.29509170612E+03  0.28165391368E+04  0.28010379494E+04 0.  0.
        5    1    3    3  502    0  0.92295560331E+02  0.13751697230E+04  0.39756027435E+03  0.14344638368E+04  0.46999998093E+01 0.  1.
       -5    1    3    3    0  502 -0.92295560331E+02 -0.13751697230E+04 -0.10246856823E+03  0.13820753000E+04  0.46999998093E+01 0. -1.
</event>
<event>
 5   0  0.1263513E-06  0.2794365E+04  0.7818609E-02  0.8305020E-01
       -1   -1    0    0    0  501  0.00000000000E+00  0.00000000000E+00  0.66771776970E+03  0.66771776971E+03  0.50400001928E-02 0.  1.
        1   -1    0    0  501    0  0.00000000000E+00  0.00000000000E+00 -0.29235683842E+04  0.29235683842E+04  0.50400001928E-02 0. -1.
    10030    2    1    2    0    0  0.00000000000E+00  0.00000000000E+00 -0.22558506145E+04  0.35912861539E+04  0.27943647300E+04 0.  0.
        3    1    3    3  502    0  0.11763468174E+04 -0.38370585882E+01 -0.20967837555E+04  0.24042272533E+04  0.10100000352E+00 0. -1.
       -3    1    3    3    0  502 -0.11763468174E+04  0.38370585882E+01 -0.15906685898E+03  0.11870589006E+04  0.10100000352E+00 0.  1.
</event>
<event>
 5   0  0.1235252E-06  0.2801704E+04  0.7818609E-02  0.8302739E-01
       -1   -1    0    0    0  501  0.00000000000E+00  0.00000000000E+00  0.77898984903E+03  0.77898984904E+03  0.50400001928E-02 0.  1.
        1   -1    0    0  501    0  0.00000000000E+00  0.00000000000E+00 -0.25191432391E+04  0.25191432391E+04  0.50400001928E-02 0. -1.
    10030    2    1    2    0    0  0.00000000000E+00  0.00000000000E+00 -0.17401533901E+04  0.32981330881E+04  0.28017044894E+04 0.  0.
        1    1    3    3  502    0 -0.11677892164E+04 -0.64325943641E+03 -0.36392325869E+03  0.13820110328E+04  0.50400001928E-02 0.  1.
       -1    1    3    3    0  502  0.11677892164E+04  0.64325943641E+03 -0.13762301314E+04  0.19161220554E+04  0.50400001928E-02 0. -1.
</event>
<event>
 5   0  0.1263513E-06  0.2798172E+04  0.7818609E-02  0.8303836E-01
       -1   -1    0    0    0  501  0.00000000000E+00  0.00000000000E+00  0.28241456646E+04  0.28241456646E+04  0.50400001928E-02 0. -1.
        1   -1    0    0  501    0  0.00000000000E+00  0.00000000000E+00 -0.69310945398E+03  0.69310945400E+03  0.50400001928E-02 0.  1.
    10030    2    1    2    0    0  0.00000000000E+00  0.00000000000E+00  0.21310362107E+04  0.35172551186E+04  0.27981723032E+04 0.  0.
        3    1    3    3  502    0  0.13927734209E+04 -0.19125950540E+01  0.89866294927E+03  0.16575332777E+04  0.10100000352E+00 0. -1.
       -3    1    3    3    0  502 -0.13927734209E+04  0.19125950540E+01  0.12323732614E+04  0.18597218409E+04  0.10100000352E+00 0.  1.
</event>
<event>
 5   0  0.3212679E-06  0.2812515E+04  0.7818609E-02  0.8299393E-01
       -2   -1    0    0    0  501  0.00000000000E+00  0.00000000000E+00  0.18885794173E+04  0.18885794174E+04  0.25500000920E-02 0. -1.
        2   -1    0    0  501    0  0.00000000000E+00  0.00000000000E+00 -0.10471155112E+04  0.10471155112E+04  0.25500000920E-02 0.  1.
    10030    2    1    2    0    0  0.00000000000E+00  0.00000000000E+00  0.84146390616E+03  0.29356949285E+04  0.28125154592E+04 0.  0.
        4    1    3    3  502    0  0.20275931663E+03  0.96164701770E+03 -0.62914451333E+03  0.11669193454E+04  0.12699999809E+01 0.  1.
       -4    1    3    3    0  502 -0.20275931663E+03 -0.96164701770E+03  0.14706084195E+04  0.17687755831E+04  0.12699999809E+01 0. -1.
</event>
<event>
 5   0  0.3162695E-06  0.2786700E+04  0.7818609E-02  0.8307409E-01
        2   -1    0    0  501    0  0.00000000000E+00  0.00000000000E+00  0.87520017443E+03  0.87520017443E+03  0.25500000920E-02 0. -1.
       -2   -1    0    0    0  501  0.00000000000E+00  0.00000000000E+00 -0.22182636356E+04  0.22182636356E+04  0.25500000920E-02 0.  1.
    10030    2    1    2    0    0  0.00000000000E+00  0.00000000000E+00 -0.13430634611E+04  0.30934638100E+04  0.27867003576E+04 0.  0.
        1    1    3    3  502    0  0.38452289247E+03 -0.89581205050E+03 -0.17766551831E+04  0.20265341656E+04  0.50400001928E-02 0.  1.
       -1    1    3    3    0  502 -0.38452289247E+03  0.89581205050E+03  0.43359172200E+03  0.10669296444E+04  0.50400001928E-02 0. -1.
</event>
<event>
 5   0  0.1246044E-06  0.2793574E+04  0.7818609E-02  0.8305266E-01
       -1   -1    0    0    0  501  0.00000000000E+00  0.00000000000E+00  0.11175347457E+04  0.11175347457E+04  0.50400001928E-02 0.  1.
        1   -1    0    0  501    0  0.00000000000E+00  0.00000000000E+00 -0.17458199739E+04  0.17458199739E+04  0.50400001928E-02 0. -1.
    10030    2    1    2    0    0  0.00000000000E+00  0.00000000000E+00 -0.62828522821E+03  0.28633547197E+04  0.27935743990E+04 0.  0.
        2    1    3    3  502    0 -0.26050048759E+03  0.54835773771E+03 -0.16035227497E+04  0.17145967226E+04  0.25500000920E-02 0. -1.
       -2    1    3    3    0  502  0.26050048759E+03 -0.54835773771E+03  0.97523752145E+03  0.11487579971E+04  0.25500000920E-02 0.  1.
</event>
<event>
 5   0  0.1246044E-06  0.2799841E+04  0.7818609E-02  0.8303318E-01
        1   -1    0    0  501    0  0.00000000000E+00  0.00000000000E+00  0.17142166536E+04  0.17142166536E+04  0.50400001928E-02 0. -1.
       -1   -1    0    0    0  501  0.00000000000E+00  0.00000000000E+00 -0.11432496179E+04  0.11432496179E+04  0.50400001928E-02 0.  1.
    10030    2    1    2    0    0  0.00000000000E+00  0.00000000000E+00  0.57096703570E+03  0.28574662715E+04  0.27998410913E+04 0.  0.
        2    1    3    3  502    0  0.58998459024E+03 -0.67274532991E+03 -0.81329447102E+03  0.12091798842E+04  0.25500000920E-02 0.  1.
       -2    1    3    3    0  502 -0.58998459024E+03  0.67274532991E+03  0.13842615067E+04  0.16482863873E+04  0.25500000920E-02 0. -1.
</event>
<event>
 5   0  0.1065675E-06  0.2803243E+04  0.7818609E-02  0.8302262E-01
        3   -1    0    0  501    0  0.00000000000E+00  0.00000000000E+00  0.12669725666E+04  0.12669725706E+04  0.10100000352E+00 0. -1.
       -3   -1    0    0    0  501  0.00000000000E+00  0.00000000000E+00 -0.15505802927E+04  0.15505802960E+04  0.10100000352E+00 0.  1.
    10030    2    1    2    0    0  0.00000000000E+00  0.00000000000E+00 -0.28360772608E+03  0.28175528666E+04  0.28032429102E+04 0.  0.
        3    1    3    3  502    0 -0.25942461805E+03  0.82018815060E+03  0.97043119608E+03  0.12968216729E+04  0.10100000352E+00 0. -1.
       -3    1    3    3    0  502  0.25942461805E+03 -0.82018815060E+03 -0.12540389222E+04  0.15207311936E+04  0.10100000352E+00 0.  1.
</event>
<event>
 5   0  0.3212679E-06  0.2786210E+04  0.7818609E-02  0.8307562E-01
       -2   -1    0    0    0  501  0.00000000000E+00  0.00000000000E+00  0.10423240062E+04  0.10423240062E+04  0.25500000920E-02 0. -1.
        2   -1    0    0  501    0  0.00000000000E+00  0.00000000000E+00 -0.18619371476E+04  0.18619371476E+04  0.25500000920E-02 0.  1.
    10030    2    1    2    0    0  0.00000000000E+00  0.00000000000E+00 -0.81961314138E+03  0.29042611538E+04  0.27862101765E+04 0.  0.
        4    1    3    3  502    0  0.69407917706E+03  0.10574712061E+04 -0.10182763803E+04  0.16238471773E+04  0.12699999809E+01 0.  1.
       -4    1    3    3    0  502 -0.69407917706E+03 -0.10574712061E+04  0.19866323887E+03  0.12804139765E+04  0.12699999809E+01 0. -1.
</event>
<event>
 5   0  0.1263513E-06  0.2794823E+04  0.7818609E-02  0.8304877E-01
        1   -1    0    0  501    0  0.00000000000E+00  0.00000000000E+00  0.13268331456E+04  0.13268331456E+04  0.50400001928E-02 0.  1.
       -1   -1    0    0    0  501  0.00000000000E+00  0.00000000000E+00 -0.14717440772E+04  0.14717440772E+04  0.50400001928E-02 0. -1.
    10030    2    1    2    0    0  0.00000000000E+00  0.00000000000E+00 -0.14491093160E+03  0.27985772229E+04  0.27948229451E+04 0.  0.
        3    1    3    3  502    0 -0.10821127137E+04 -0.65879089898E+03 -0.66298101608E+03  0.14298661517E+04  0.10100000352E+00 0. -1.
       -3    1    3    3    0  502  0.10821127137E+04  0.65879089898E+03  0.51807008448E+03  0.13687110712E+04  0.10100000352E+00 0.  1.
</event>
<event>
 5   0  0.3212679E-06  0.2811777E+04  0.7818609E-02  0.8299621E-01
        2   -1    0    0  501    0  0.00000000000E+00  0.00000000000E+00  0.13893724340E+04  0.13893724340E+04  0.25500000920E-02 0.  1.
       -2   -1    0    0    0  501  0.00000000000E+00  0.00000000000E+00 -0.14226007632E+04  0.14226007632E+04  0.25500000920E-02 0. -1.
    10030    2    1    2    0    0  0.00000000000E+00  0.00000000000E+00 -0.33228329267E+02  0.28119731972E+04  0.28117768652E+04 0.  0.
        4    1    3    3  502    0  0.90877095567E+02 -0.31120876868E+03 -0.13847049800E+04  0.14221529590E+04  0.12699999809E+01 0. -1.
       -4    1    3    3    0  502 -0.90877095567E+02  0.31120876868E+03  0.13514766507E+04  0.13898202382E+04  0.12699999809E+01 0.  1.
</event>
<event>
 5   0  0.1263513E-06  0.2798974E+04  0.7818609E-02  0.8303587E-01
        1   -1    0    0  501    0  0.00000000000E+00  0.00000000000E+00  0.13289616069E+04  0.13289616069E+04  0.50400001928E-02 0. -1.
       -1   -1    0    0    0  501  0.00000000000E+00  0.00000000000E+00 -0.14737548224E+04  0.14737548224E+04  0.50400001928E-02 0.  1.
    10030    2    1    2    0    0  0.00000000000E+00  0.00000000000E+00 -0.14479321553E+03  0.28027164293E+04  0.27989737955E+04 0.  0.
        3    1    3    3  502    0 -0.58562191339E+03 -0.76166709742E+03 -0.10913395809E+04  0.14539985845E+04  0.10100000352E+00 0.  1.
       -3    1    3    3    0  502  0.58562191339E+03  0.76166709742E+03  0.94654636538E+03  0.13487178448E+04  0.10100000352E+00 0. -1.
</event>
<event>
 5   0  0.1263513E-06  0.2792046E+04  0.7818609E-02  0.8305742E-01
       -1   -1    0    0    0  501  0.00000000000E+00  0.00000000000E+00  0.28454209471E+04  0.28454209471E+04  0.50400001928E-02 0. -1.
        1   -1    0    0  501    0  0.00000000000E+00  0.00000000000E+00 -0.68491810386E+03  0.68491810388E+03  0.50400001928E-02 0.  1.
    10030    2    1    2    0    0  0.00000000000E+00  0.00000000000E+00  0.21605028433E+04  0.35303390510E+04  0.27920460740E+04 0.  0.
        3    1    3    3  502    0 -0.56000913851E+03 -0.70688336826E+03  0.24276740815E+04  0.25897675161E+04  0.10100000352E+00 0. -1.
       -3    1    3    3    0  502  0.56000913851E+03  0.70688336826E+03 -0.26717123819E+03  0.94057153489E+03  0.10100000352E+00 0.  1.
</event>
<event>
 5   0  0.3162695E-06  0.2803475E+04  0.7818609E-02  0.8302190E-01
        2   -1    0    0  501    0  0.00000000000E+00  0.00000000000E+00  0.11409159030E+04  0.11409159030E+04  0.25500000920E-02 0.  1.
       -2   -1    0    0    0  501  0.00000000000E+00  0.00000000000E+00 -0.17221844937E+04  0.17221844937E+04  0.25500000920E-02 0. -1.
    10030    2    1    2    0    0  0.00000000000E+00  0.00000000000E+00 -0.58126859069E+03  0.28631003967E+04  0.28034747560E+04 0.  0.
        1    1    3    3  502    0  0.57081881422E+03 -0.75920144872E+03 -0.13434064269E+04  0.16452847129E+04  0.50400001928E-02 0. -1.
       -1    1    3    3    0  502 -0.57081881422E+03  0.75920144872E+03  0.76213783626E+03  0.12178156839E+04  0.50400001928E-02 0.  1.
</event>
<event>
 5   0  0.3162695E-06  0.2797500E+04  0.7818609E-02  0.8304045E-01
       -2   -1    0    0    0  501  0.00000000000E+00  0.00000000000E+00  0.82925940990E+03  0.82925940990E+03  0.25500000920E-02 0.  1.
        2   -1    0    0  501    0  0.00000000000E+00  0.00000000000E+00 -0.23593359440E+04  0.23593359440E+04  0.25500000920E-02 0. -1.
    10030    2    1    2    0    0  0.00000000000E+00  0.00000000000E+00 -0.15300765341E+04  0.31885953539E+04  0.27974999787E+04 0.  0.
        1    1    3    3  502    0 -0.83512750344E+03  0.11161407468E+04 -0.89645409113E+03  0.16573587575E+04  0.50400001928E-02 0. -1.
       -1    1    3    3    0  502  0.83512750344E+03 -0.11161407468E+04 -0.63362244294E+03  0.15312365963E+04  0.50400001928E-02 0.  1.
</event>
<event>
 5   0  0.3212679E-06  0.2779178E+04  0.7818609E-02  0.8309762E-01
        2   -1    0    0  501    0  0.00000000000E+00  0.00000000000E+00  0.22075373486E+04  0.22075373486E+04  0.25500000920E-02 0.  1.
       -2   -1    0    0    0  501  0.00000000000E+00  0.00000000000E+00 -0.87471122322E+03  0.87471122323E+03  0.25500000920E-02 0. -1.
    10030    2    1    2    0    0  0.00000000000E+00  0.00000000000E+00  0.13328261254E+04  0.30822485719E+04  0.27791780760E+04 0.  0.
        4    1    3    3  502    0 -0.67719894480E+03 -0.82643177429E+03 -0.31893824297E+03  0.11150386110E+04  0.12699999809E+01 0. -1.
       -4    1    3    3    0  502  0.67719894480E+03  0.82643177429E+03  0.16517643684E+04  0.19672099608E+04  0.12699999809E+01 0.  1.
</event>
<event>
 5   0  0.3212679E-06  0.2780221E+04  0.7818609E-02  0.8309435E-01
       -2   -1    0    0    0  501  0.00000000000E+00  0.00000000000E+00  0.87969571680E+03  0.87969571680E+03  0.25500000920E-02 0.  1.
        2   -1    0    0  501    0  0.00000000000E+00  0.00000000000E+00 -0.21966764837E+04  0.21966764837E+04  0.25500000920E-02 0. -1.
    10030    2    1    2    0    0  0.00000000000E+00  0.00000000000E+00 -0.13169807669E+04  0.30763722005E+04  0.27802207782E+04 0.  0.
        4    1    3    3  502    0 -0.45509581311E+03  0.62240575315E+03  0.62139799483E+03  0.99027178166E+03  0.12699999809E+01 0.  1.
       -4    1    3    3    0  502  0.45509581311E+03 -0.62240575315E+03 -0.19383787617E+04  0.20861004188E+04  0.12699999809E+01 0. -1.
</event>
<event>
 5   0  0.1235252E-06  0.2855864E+04  0.7818609E-02  0.8286132E-01
        1   -1    0    0  501    0  0.00000000000E+00  0.00000000000E+00  0.16707919720E+04  0.16707919721E+04  0.50400001928E-02 0. -1.
       -1   -1    0    0    0  501  0.00000000000E+00  0.00000000000E+00 -0.12203735574E+04  0.12203735574E+04  0.50400001928E-02 0.  1.
    10030    2    1    2    0    0  0.00000000000E+00  0.00000000000E+00  0.45041841463E+03  0.28911655295E+04  0.28558643824E+04 0.  0.
        1    1    3    3  502    0 -0.13132395015E+04  0.43547006216E+03  0.58278646651E+03  0.15012901881E+04  0.50400001928E-02 0.  1.
       -1    1    3    3    0  502  0.13132395015E+04 -0.43547006216E+03 -0.13236805188E+03  0.13898753414E+04  0.50400001928E-02 0. -1.
</event>
<event>
 5   0  0.1263513E-06  0.2810508E+04  0.7818609E-02  0.8300014E-01
       -1   -1    0    0    0  501  0.00000000000E+00  0.00000000000E+00  0.22056596295E+04  0.22056596295E+04  0.50400001928E-02 0.  1.
        1   -1    0    0  501    0  0.00000000000E+00  0.00000000000E+00 -0.89530506745E+03  0.89530506746E+03  0.50400001928E-02 0. -1.
    10030    2    1    2    0    0  0.00000000000E+00  0.00000000000E+00  0.13103545620E+04  0.31009646970E+04  0.28105076007E+04 0.  0.
        3    1    3    3  502    0 -0.17314512619E+03 -0.81494689952E+03 -0.59341973046E+03  0.10228707985E+04  0.10100000352E+00 0. -1.
       -3    1    3    3    0  502  0.17314512619E+03  0.81494689952E+03  0.19037742925E+04  0.20780938984E+04  0.10100000352E+00 0.  1.
</event>
<event>
 5   0  0.3345919E-06  0.2809850E+04  0.7818609E-02  0.8300217E-01
        2   -1    0    0  501    0  0.00000000000E+00  0.00000000000E+00  0.24968663971E+04  0.24968663971E+04  0.25500000920E-02 0. -1.
       -2   -1    0    0    0  501  0.00000000000E+00  0.00000000000E+00 -0.79051675754E+03  0.79051675754E+03  0.25500000920E-02 0.  1.
    10030    2    1    2    0    0  0.00000000000E+00  0.00000000000E+00  0.17063496396E+04  0.32873831546E+04  0.28098503364E+04 0.  0.
        2    1    3    3  502    0  0.71951903759E+03 -0.43397308107E+02  0.22640310315E+04  0.23760108340E+04  0.25500000920E-02 0. -1.
       -2    1    3    3    0  502 -0.71951903759E+03  0.43397308107E+02 -0.55768139196E+03  0.91137232060E+03  0.25500000920E-02 0.  1.
</event>
<event>
 5   0  0.1246044E-06  0.2794118E+04  0.7818609E-02  0.8305097E-01
        1   -1    0    0  501    0  0.00000000000E+00  0.00000000000E+00  0.15523918843E+04  0.15523918843E+04  0.50400001928E-02 0.  1.
       -1   -1    0    0    0  501  0.00000000000E+00  0.00000000000E+00 -0.12572684848E+04  0.12572684848E+04  0.50400001928E-02 0. -1.
    10030    2    1    2    0    0  0.00000000000E+00  0.00000000000E+00  0.29512339952E+03  0.28096603691E+04  0.27941176726E+04 0.  0.
        2    1    3    3  502    0  0.13593622722E+04  0.31457830280E+03  0.76827700775E+02  0.13974003690E+04  0.25500000920E-02 0. -1.
       -2    1    3    3    0  502 -0.13593622722E+04 -0.31457830280E+03  0.21829569875E+03  0.14122600001E+04  0.25500000920E-02 0.  1.
</event>
<event>
 5   0  0.1220265E-06  0.2808518E+04  0.7818609E-02  0.8300629E-01
       -1   -1    0    0    0  501  0.00000000000E+00  0.00000000000E+00  0.10140806052E+04  0.10140806052E+04  0.50400001928E-02 0.  1.
        1   -1    0    0  501    0  0.00000000000E+00  0.00000000000E+00 -0.19445620993E+04  0.19445620993E+04  0.50400001928E-02 0. -1.
    10030    2    1    2    0    0  0.00000000000E+00  0.00000000000E+00 -0.93048149412E+03  0.29586427046E+04  0.28085175525E+04 0.  0.
        4    1    3    3  502    0  0.12496789177E+04  0.61185975646E+03 -0.66476200395E+03  0.15420700029E+04  0.12699999809E+01 0.  1.
       -4    1    3    3    0  502 -0.12496789177E+04 -0.61185975646E+03 -0.26571949018E+03  0.14165727017E+04  0.12699999809E+01 0. -1.
</event>
<event>
 5   0  0.1220265E-06  0.2809665E+04  0.7818609E-02  0.8300274E-01
       -1   -1    0    0    0  501  0.00000000000E+00  0.00000000000E+00  0.23558231825E+04  0.23558231825E+04  0.50400001928E-02 0.  1.
        1   -1    0    0  501    0  0.00000000000E+00  0.00000000000E+00 -0.83773468796E+03  0.83773468797E+03  0.50400001928E-02 0. -1.
    10030    2    1    2    0    0  0.00000000000E+00  0.00000000000E+00  0.15180884945E+04  0.31935578705E+04  0.28096653172E+04 0.  0.
        4    1    3    3  502    0 -0.13489502010E+04 -0.37107210203E+03  0.90367842492E+03  0.16655321847E+04  0.12699999809E+01 0.  1.
       -4    1    3    3    0  502  0.13489502010E+04  0.37107210203E+03  0.61441006963E+03  0.15280256858E+04  0.12699999809E+01 0. -1.
</event>
<event>
 5   0  0.3345919E-06  0.2811676E+04  0.7818609E-02  0.8299652E-01
        2   -1    0    0  501    0  0.00000000000E+00  0.00000000000E+00  0.15066621371E+04  0.15066621371E+04  0.25500000920E-02 0. -1.
       -2   -1    0    0    0  501  0.00000000000E+00  0.00000000000E+00 -0.13117612981E+04  0.13117612981E+04  0.25500000920E-02 0.  1.
    10030    2    1    2    0    0  0.00000000000E+00  0.00000000000E+00  0.19490083902E+03  0.28184234352E+04  0.28116764258E+04 0.  0.
        2    1    3    3  502    0 -0.36266323816E+03 -0.10197343624E+04 -0.80191954508E+03  0.13470180960E+04  0.25500000920E-02 0.  1.
       -2    1    3    3    0  502  0.36266323816E+03  0.10197343624E+04  0.99682038410E+03  0.14714053392E+04  0.25500000920E-02 0. -1.
</event>
<event>
 5   0  0.1235252E-06  0.2740270E+04  0.7818609E-02  0.8322056E-01
       -1   -1    0    0    0  501  0.00000000000E+00  0.00000000000E+00  0.11134898058E+04  0.11134898058E+04  0.50400001928E-02 0. -1.
        1   -1    0    0  501    0  0.00000000000E+00  0.00000000000E+00 -0.16859333688E+04  0.16859333688E+04  0.50400001928E-02 0.  1.
    10030    2    1    2    0    0  0.00000000000E+00  0.00000000000E+00 -0.57244356304E+03  0.27994231746E+04  0.27402697819E+04 0.  0.
        1    1    3    3  502    0 -0.73630155081E+03  0.33925245221E+03 -0.14146184816E+04  0.16304532034E+04  0.50400001928E-02 0.  1.
       -1    1    3    3    0  502  0.73630155081E+03 -0.33925245221E+03  0.84217491856E+03  0.11689699712E+04  0.50400001928E-02 0. -1.
</event>
<event>
 5   0  0.3345919E-06  0.2787439E+04  0.7818609E-02  0.8307179E-01
        2   -1    0    0  501    0  0.00000000000E+00  0.00000000000E+00  0.13374269946E+04  0.13374269946E+04  0.25500000920E-02 0. -1.
       -2   -1    0    0    0  501  0.00000000000E+00  0.00000000000E+00 -0.14523811405E+04  0.14523811405E+04  0.25500000920E-02 0.  1.
    10030    2    1    2    0    0  0.00000000000E+00  0.00000000000E+00 -0.11495414587E+03  0.27898081351E+04  0.27874387841E+04 0.  0.
        2    1    3    3  502    0 -0.12109191159E+04  0.10854162260E+02 -0.74799890289E+03  0.14233570447E+04  0.25500000920E-02 0.  1.
       -2    1    3    3    0  502  0.12109191159E+04 -0.10854162260E+02  0.63304475702E+03  0.13664510904E+04  0.25500000920E-02 0. -1.
</event>
<event>
 5   0  0.3345919E-06  0.2803163E+04  0.7818609E-02  0.8302287E-01
        2   -1    0    0  501    0  0.00000000000E+00  0.00000000000E+00  0.19738292449E+04  0.19738292449E+04  0.25500000920E-02 0.  1.
       -2   -1    0    0    0  501  0.00000000000E+00  0.00000000000E+00 -0.99523815159E+03  0.99523815160E+03  0.25500000920E-02 0. -1.
    10030    2    1    2    0    0  0.00000000000E+00  0.00000000000E+00  0.97859109328E+03  0.29690673965E+04  0.28031626205E+04 0.  0.
        2    1    3    3  502    0  0.12982704399E+04 -0.36783187727E+02 -0.68736104064E+02  0.13006090073E+04  0.25500000920E-02 0. -1.
       -2    1    3    3    0  502 -0.12982704399E+04  0.36783187727E+02  0.10473271973E+04  0.16684583891E+04  0.25500000920E-02 0.  1.
</event>
<event>
 5   0  0.3345919E-06  0.2813556E+04  0.7818609E-02  0.8299072E-01
       -2   -1    0    0    0  501  0.00000000000E+00  0.00000000000E+00  0.89998088773E+03  0.89998088773E+03  0.25500000920E-02 0.  1.
        2   -1    0    0  501    0  0.00000000000E+00  0.00000000000E+00 -0.21989622645E+04  0.21989622645E+04  0.25500000920E-02 0. -1.
    10030    2    1    2    0    0  0.00000000000E+00  0.00000000000E+00 -0.12989813767E+04  0.30989431522E+04  0.28135557651E+04 0.  0.
        2    1    3    3  502    0 -0.74980871728E+03  0.11896533728E+04 -0.69265436902E+03  0.15675644596E+04  0.25500000920E-02 0.  1.
       -2    1    3    3    0  502  0.74980871728E+03 -0.11896533728E+04 -0.60632700771E+03  0.15313786926E+04  0.25500000920E-02 0. -1.
</event>
<event>
 5   0  0.3162695E-06  0.2789621E+04  0.7818609E-02  0.8306498E-01
       -2   -1    0    0    0  501  0.00000000000E+00  0.00000000000E+00  0.10340459680E+04  0.10340459680E+04  0.25500000920E-02 0. -1.
        2   -1    0    0  501    0  0.00000000000E+00  0.00000000000E+00 -0.18814404679E+04  0.18814404679E+04  0.25500000920E-02 0.  1.
    10030    2    1    2    0    0  0.00000000000E+00  0.00000000000E+00 -0.84739449986E+03  0.29154864359E+04  0.27896207124E+04 0.  0.
        1    1    3    3  502    0 -0.12571769532E+04  0.43115149314E+03 -0.86600678541E+03  0.15863017538E+04  0.50400001928E-02 0. -1.
       -1    1    3    3    0  502  0.12571769532E+04 -0.43115149314E+03  0.18612285552E+02  0.13291846820E+04  0.50400001928E-02 0.  1.
</event>
<event>
 5   0  0.1246044E-06  0.2801014E+04  0.7818609E-02  0.8302954E-01
        1   -1    0    0  501    0  0.00000000000E+00  0.00000000000E+00  0.11961586033E+04  0.11961586034E+04  0.50400001928E-02 0.  1.
       -1   -1    0    0    0  501  0.00000000000E+00  0.00000000000E+00 -0.16397657952E+04  0.16397657952E+04  0.50400001928E-02 0. -1.
    10030    2    1    2    0    0  0.00000000000E+00  0.00000000000E+00 -0.44360719185E+03  0.28359243986E+04  0.28010140760E+04 0.  0.
        2    1    3    3  502    0  0.12703100534E+04 -0.33357932694E+03 -0.71413279782E+03  0.14949743985E+04  0.25500000920E-02 0. -1.
       -2    1    3    3    0  502 -0.12703100534E+04  0.33357932694E+03  0.27052560596E+03  0.13409500001E+04  0.25500000920E-02 0.  1.
</event>
<event>
 5   0  0.3212679E-06  0.2742903E+04  0.7818609E-02  0.8321217E-01
        2   -1    0    0  501    0  0.00000000000E+00  0.00000000000E+00  0.15196161304E+04  0.15196161304E+04  0.25500000920E-02 0.  1.
       -2   -1    0    0    0  501  0.00000000000E+00  0.00000000000E+00 -0.12377334591E+04  0.12377334591E+04  0.25500000920E-02 0. -1.
    10030    2    1    2    0    0  0.00000000000E+00  0.00000000000E+00  0.28188267130E+03  0.27573495896E+04  0.27429033739E+04 0.  0.
        4    1    3    3  502    0  0.12131990380E+04  0.63863763211E+03  0.17530008221E+03  0.13821872748E+04  0.12699999809E+01 0. -1.
       -4    1    3    3    0  502 -0.12131990380E+04 -0.63863763211E+03  0.10658258909E+03  0.13751623148E+04  0.12699999809E+01 0.  1.
</event>
<event>
 5   0  0.3226364E-06  0.2809267E+04  0.7818609E-02  0.8300397E-01
        2   -1    0    0  501    0  0.00000000000E+00  0.00000000000E+00  0.11675861068E+04  0.11675861068E+04  0.25500000920E-02 0. -1.
       -2   -1    0    0    0  501  0.00000000000E+00  0.00000000000E+00 -0.16898075989E+04  0.16898075989E+04  0.25500000920E-02 0.  1.
    10030    2    1    2    0    0  0.00000000000E+00  0.00000000000E+00 -0.52222149211E+03  0.28573937058E+04  0.28092674317E+04 0.  0.
        5    1    3    3  502    0 -0.39615757096E+03 -0.10163361402E+03 -0.16278958221E+04  0.16784925112E+04  0.46999998093E+01 0.  1.
       -5    1    3    3    0  502  0.39615757096E+03  0.10163361402E+03  0.11056743300E+04  0.11789011946E+04  0.46999998093E+01 0. -1.
</event>
<event>
 5   0  0.1243055E-06  0.2791986E+04  0.7818609E-02  0.8305761E-01
       -1   -1    0    0    0  501  0.00000000000E+00  0.00000000000E+00  0.89879255148E+03  0.89879255150E+03  0.50400001928E-02 0.  1.
        1   -1    0    0  501    0  0.00000000000E+00  0.00000000000E+00 -0.21682383241E+04  0.21682383241E+04  0.50400001928E-02 0. -1.
    10030    2    1    2    0    0  0.00000000000E+00  0.00000000000E+00 -0.12694457726E+04  0.30670308756E+04  0.27919859997E+04 0.  0.
        5    1    3    3  502    0  0.77165308043E+03 -0.10824920246E+04 -0.16667813849E+03  0.13397914583E+04  0.46999998093E+01 0.  1.
       -5    1    3    3    0  502 -0.77165308043E+03  0.10824920246E+04 -0.11027676341E+04  0.17272394173E+04  0.46999998093E+01 0. -1.
</event>
<event>
 5   0  0.3226364E-06  0.2793310E+04  0.7818609E-02  0.8305348E-01
        2   -1    0    0  501    0  0.00000000000E+00  0.00000000000E+00  0.16534916749E+04  0.16534916749E+04  0.25500000920E-02 0. -1.
       -2   -1    0    0    0  501  0.00000000000E+00  0.00000000000E+00 -0.11797126429E+04  0.11797126429E+04  0.25500000920E-02 0.  1.
    10030    2    1    2    0    0  0.00000000000E+00  0.00000000000E+00  0.47377903198E+03  0.28332043178E+04  0.27933098889E+04 0.  0.
        5    1    3    3  502    0 -0.98487714938E+03 -0.97585878330E+03  0.40763745766E+03  0.14451552689E+04  0.46999998093E+01 0.  1.
       -5    1    3    3    0  502  0.98487714938E+03  0.97585878330E+03  0.66141574319E+02  0.13880490489E+04  0.46999998093E+01 0. -1.
</event>
<event>
 5   0  0.1243055E-06  0.2826122E+04  0.7818609E-02  0.8295204E-01
       -1   -1    0    0    0  501  0.00000000000E+00  0.00000000000E+00  0.14379280343E+04  0.14379280344E+04  0.50400001928E-02 0. -1.
        1   -1    0    0  501    0  0.00000000000E+00  0.00000000000E+00 -0.13886241358E+04  0.13886241358E+04  0.50400001928E-02 0.  1.
    10030    2    1    2    0    0  0.00000000000E+00  0.00000000000E+00  0.49303898543E+02  0.28265521702E+04  0.28261221305E+04 0.  0.
        5    1    3    3  502    0  0.81700056638E+03  0.52858115750E+02  0.11765370502E+04  0.14333685591E+04  0.46999998093E+01 0. -1.
       -5    1    3    3    0  502 -0.81700056638E+03 -0.52858115750E+02 -0.11272331516E+04  0.13931836110E+04  0.46999998093E+01 0.  1.
</event>
<event>
 5   0  0.3226364E-06  0.2786919E+04  0.7818609E-02  0.8307341E-01
        2   -1    0    0  501    0  0.00000000000E+00  0.00000000000E+00  0.17606168978E+04  0.17606168978E+04  0.25500000920E-02 0. -1.
       -2   -1    0    0    0  501  0.00000000000E+00  0.00000000000E+00 -0.11028688929E+04  0.11028688929E+04  0.25500000920E-02 0.  1.
    10030    2    1    2    0    0  0.00000000000E+00  0.00000000000E+00  0.65774800495E+03  0.28634857907E+04  0.27869191656E+04 0.  0.
        5    1    3    3  502    0  0.93346934494E+03 -0.98437767812E+03  0.65596434871E+03  0.15068761555E+04  0.46999998093E+01 0. -1.
       -5    1    3    3    0  502 -0.93346934494E+03  0.98437767812E+03  0.17836562310E+01  0.13566096353E+04  0.46999998093E+01 0.  1.
</event>
<event>
 5   0  0.3345919E-06  0.2800943E+04  0.7818609E-02  0.8302976E-01
        2   -1    0    0  501    0  0.00000000000E+00  0.00000000000E+00  0.20723261484E+04  0.20723261484E+04  0.25500000920E-02 0. -1.
       -2   -1    0    0    0  501  0.00000000000E+00  0.00000000000E+00 -0.94643411863E+03  0.94643411863E+03  0.25500000920E-02 0.  1.
    10030    2    1    2    0    0  0.00000000000E+00  0.00000000000E+00  0.11258920298E+04  0.30187602670E+04  0.28009428211E+04 0.  0.
        2    1    3    3  502    0  0.13237932498E+04 -0.45704541114E+03  0.56181781960E+03  0.15089593561E+04  0.25500000920E-02 0.  1.
       -2    1    3    3    0  502 -0.13237932498E+04  0.45704541114E+03  0.56407421019E+03  0.15098009109E+04  0.25500000920E-02 0. -1.
</event>
<event>
 5   0  0.1235252E-06  0.2796165E+04  0.7818609E-02  0.8304460E-01
        1   -1    0    0  501    0  0.00000000000E+00  0.00000000000E+00  0.27398835084E+04  0.27398835084E+04  0.50400001928E-02 0. -1.
       -1   -1    0    0    0  501  0.00000000000E+00  0.00000000000E+00 -0.71340057495E+03  0.71340057497E+03  0.50400001928E-02 0.  1.
    10030    2    1    2    0    0  0.00000000000E+00  0.00000000000E+00  0.20264829335E+04  0.34532840834E+04  0.27961648523E+04 0.  0.
        1    1    3    3  502    0  0.80027497338E+03 -0.85004179943E+03  0.63310167586E+02  0.11691959935E+04  0.50400001928E-02 0.  1.
       -1    1    3    3    0  502 -0.80027497338E+03  0.85004179943E+03  0.19631727659E+04  0.22840880899E+04  0.50400001928E-02 0. -1.
</event>
<event>
 5   0  0.1263513E-06  0.2798178E+04  0.7818609E-02  0.8303834E-01
       -1   -1    0    0    0  501  0.00000000000E+00  0.00000000000E+00  0.79152104310E+03  0.79152104311E+03  0.50400001928E-02 0.  1.
        1   -1    0    0  501    0  0.00000000000E+00  0.00000000000E+00 -0.24730240409E+04  0.24730240409E+04  0.50400001928E-02 0. -1.
    10030    2    1    2    0    0  0.00000000000E+00  0.00000000000E+00 -0.16815029978E+04  0.32645450840E+04  0.27981783850E+04 0.  0.
        3    1    3    3  502    0  0.33329082864E+03 -0.86206531664E+02  0.74133639051E+03  0.81737017113E+03  0.10100000352E+00 0.  1.
       -3    1    3    3    0  502 -0.33329082864E+03  0.86206531664E+02 -0.24228393883E+04  0.24471749129E+04  0.10100000352E+00 0. -1.
</event>
<event>
 5   0  0.3212679E-06  0.2837183E+04  0.7818609E-02  0.8291817E-01
        2   -1    0    0  501    0  0.00000000000E+00  0.00000000000E+00  0.21140950482E+04  0.21140950482E+04  0.25500000920E-02 0.  1.
       -2   -1    0    0    0  501  0.00000000000E+00  0.00000000000E+00 -0.95189749897E+03  0.95189749898E+03  0.25500000920E-02 0. -1.
    10030    2    1    2    0    0  0.00000000000E+00  0.00000000000E+00  0.11621975492E+04  0.30659925471E+04  0.28371829613E+04 0.  0.
        4    1    3    3  502    0  0.13844144824E+04 -0.69146186158E+02  0.90711670316E+03  0.16565768863E+04  0.12699999809E+01 0.  1.
       -4    1    3    3    0  502 -0.13844144824E+04  0.69146186158E+02  0.25508084603E+03  0.14094156609E+04  0.12699999809E+01 0. -1.
</event>
<event>
 5   0  0.3212679E-06  0.2803506E+04  0.7818609E-02  0.8302181E-01
        2   -1    0    0  501    0  0.00000000000E+00  0.00000000000E+00  0.10663760537E+04  0.10663760537E+04  0.25500000920E-02 0. -1.
       -2   -1    0    0    0  501  0.00000000000E+00  0.00000000000E+00 -0.18426064170E+04  0.18426064170E+04  0.25500000920E-02 0.  1.
    10030    2    1    2    0    0  0.00000000000E+00  0.00000000000E+00 -0.77623036331E+03  0.29089824707E+04  0.28035059190E+04 0.  0.
        4    1    3    3  502    0 -0.12029365163E+04 -0.21481693767E+03 -0.11007644844E+04  0.16446539581E+04  0.12699999809E+01 0.  1.
       -4    1    3    3    0  502  0.12029365163E+04  0.21481693767E+03  0.32453412109E+03  0.12643285126E+04  0.12699999809E+01 0. -1.
</event>
<event>
 5   0  0.3162695E-06  0.2800113E+04  0.7818609E-02  0.8303233E-01
        2   -1    0    0  501    0  0.00000000000E+00  0.00000000000E+00  0.19285238810E+04  0.19285238810E+04  0.25500000920E-02 0. -1.
       -2   -1    0    0    0  501  0.00000000000E+00  0.00000000000E+00 -0.10164033354E+04  0.10164033354E+04  0.25500000920E-02 0.  1.
    10030    2    1    2    0    0  0.00000000000E+00  0.00000000000E+00  0.91212054560E+03  0.29449272165E+04  0.28001129300E+04 0.  0.
        1    1    3    3  502    0  0.29210150119E+03  0.22619388607E+03  0.18763347472E+04  0.19123595490E+04  0.50400001928E-02 0. -1.
       -1    1    3    3    0  502 -0.29210150119E+03 -0.22619388607E+03 -0.96421420164E+03  0.10325676674E+04  0.50400001928E-02 0.  1.
</event>
<event>
 5   0  0.3226364E-06  0.2775429E+04  0.7818609E-02  0.8310937E-01
        2   -1    0    0  501    0  0.00000000000E+00  0.00000000000E+00  0.22419615997E+04  0.22419615997E+04  0.25500000920E-02 0.  1.
       -2   -1    0    0    0  501  0.00000000000E+00  0.00000000000E+00 -0.85895850766E+03  0.85895850767E+03  0.25500000920E-02 0. -1.
    10030    2    1    2    0    0  0.00000000000E+00  0.00000000000E+00  0.13830030920E+04  0.31009201074E+04  0.27754293289E+04 0.  0.
        5    1    3    3  502    0  0.12288064102E+04  0.36040861143E+03  0.12888736692E+04  0.18168866190E+04  0.46999998093E+01 0.  1.
       -5    1    3    3    0  502 -0.12288064102E+04 -0.36040861143E+03  0.94129422825E+02  0.12840334884E+04  0.46999998093E+01 0. -1.
</event>
<event>
 5   0  0.1263513E-06  0.2796696E+04  0.7818609E-02  0.8304295E-01
       -1   -1    0    0    0  501  0.00000000000E+00  0.00000000000E+00  0.87430142461E+03  0.87430142463E+03  0.50400001928E-02 0.  1.
        1   -1    0    0  501    0  0.00000000000E+00  0.00000000000E+00 -0.22365014963E+04  0.22365014963E+04  0.50400001928E-02 0. -1.
    10030    2    1    2    0    0  0.00000000000E+00  0.00000000000E+00 -0.13622000717E+04  0.31108029209E+04  0.27966955103E+04 0.  0.
        3    1    3    3  502    0 -0.35503068789E+03 -0.83606782794E+03  0.50147324820E+03  0.10375604229E+04  0.10100000352E+00 0.  1.
       -3    1    3    3    0  502  0.35503068789E+03  0.83606782794E+03 -0.18636733199E+04  0.20732424980E+04  0.10100000352E+00 0. -1.
</event>
<event>
 5   0  0.1235252E-06  0.2794036E+04  0.7818609E-02  0.8305122E-01
        1   -1    0    0  501    0  0.00000000000E+00  0.00000000000E+00  0.21637008008E+04  0.21637008008E+04  0.50400001928E-02 0. -1.
       -1   -1    0    0    0  501  0.00000000000E+00  0.00000000000E+00 -0.90200035713E+03  0.90200035715E+03  0.50400001928E-02 0.  1.
    10030    2    1    2    0    0  0.00000000000E+00  0.00000000000E+00  0.12617004436E+04  0.30657011579E+04  0.27940357156E+04 0.  0.
        1    1    3    3  502    0 -0.12835794767E+03 -0.24190493558E+03 -0.87226148532E+03  0.91423949783E+03  0.50400001928E-02 0.  1.
       -1    1    3    3    0  502  0.12835794767E+03  0.24190493558E+03  0.21339619290E+04  0.21514616601E+04  0.50400001928E-02 0. -1.
</event>
<event>
 5   0  0.3345919E-06  0.2809709E+04  0.7818609E-02  0.8300260E-01
       -2   -1    0    0    0  501  0.00000000000E+00  0.00000000000E+00  0.70298454833E+03  0.70298454834E+03  0.25500000920E-02 0.  1.
        2   -1    0    0  501    0  0.00000000000E+00  0.00000000000E+00 -0.28074822585E+04  0.28074822585E+04  0.25500000920E-02 0. -1.
    10030    2    1    2    0    0  0.00000000000E+00  0.00000000000E+00 -0.21044977102E+04  0.35104668068E+04  0.28097093426E+04 0.  0.
        2    1    3    3  502    0 -0.51057595673E+03  0.98680092229E+03  0.21915118802E+02  0.11112804058E+04  0.25500000920E-02 0.  1.
       -2    1    3    3    0  502  0.51057595673E+03 -0.98680092229E+03 -0.21264128290E+04  0.23991864010E+04  0.25500000920E-02 0. -1.
</event>
<event>
 5   0  0.1243055E-06  0.2798063E+04  0.7818609E-02  0.8303870E-01
        1   -1    0    0  501    0  0.00000000000E+00  0.00000000000E+00  0.18636974848E+04  0.18636974848E+04  0.50400001928E-02 0. -1.
       -1   -1    0    0    0  501  0.00000000000E+00  0.00000000000E+00 -0.10502179765E+04  0.10502179765E+04  0.50400001928E-02 0.  1.
    10030    2    1    2    0    0  0.00000000000E+00  0.00000000000E+00  0.81347950830E+03  0.29139154613E+04  0.27980626163E+04 0.  0.
        5    1    3    3  502    0 -0.82747709225E+02  0.39111182226E+03  0.18029410381E+04  0.18467360715E+04  0.46999998093E+01 0. -1.
       -5    1    3    3    0  502  0.82747709225E+02 -0.39111182226E+03 -0.98946152983E+03  0.10671793897E+04  0.46999998093E+01 0.  1.
</event>
<event>
 5   0  0.1263513E-06  0.2813862E+04  0.7818609E-02  0.8298978E-01
       -1   -1    0    0    0  501  0.00000000000E+00  0.00000000000E+00  0.11073424117E+04  0.11073424117E+04  0.50400001928E-02 0.  1.
        1   -1    0    0  501    0  0.00000000000E+00  0.00000000000E+00 -0.17875725136E+04  0.17875725136E+04  0.50400001928E-02 0. -1.
    10030    2    1    2    0    0  0.00000000000E+00  0.00000000000E+00 -0.68023010191E+03  0.28949149253E+04  0.28138620139E+04 0.  0.
        3    1    3    3  502    0 -0.50351090268E+03  0.60770596630E+03 -0.15384077937E+04  0.17290252515E+04  0.10100000352E+00 0. -1.
       -3    1    3    3    0  502  0.50351090268E+03 -0.60770596630E+03  0.85817769175E+03  0.11658896738E+04  0.10100000352E+00 0.  1.
</event>
<event>
 5   0  0.1246044E-06  0.2725152E+04  0.7818609E-02  0.8326890E-01
        1   -1    0    0  501    0  0.00000000000E+00  0.00000000000E+00  0.90656737235E+03  0.90656737236E+03  0.50400001928E-02 0.  1.
       -1   -1    0    0    0  501  0.00000000000E+00  0.00000000000E+00 -0.20479601151E+04  0.20479601151E+04  0.50400001928E-02 0. -1.
    10030    2    1    2    0    0  0.00000000000E+00  0.00000000000E+00 -0.11413927427E+04  0.29545274874E+04  0.27251523409E+04 0.  0.
        2    1    3    3  502    0 -0.50569682598E+03  0.30992310172E+03 -0.19006646698E+04  0.19910569544E+04  0.25500000920E-02 0. -1.
       -2    1    3    3    0  502  0.50569682598E+03 -0.30992310172E+03  0.75927192705E+03  0.96347053302E+03  0.25500000920E-02 0.  1.
</event>
<event>
 5   0  0.3345919E-06  0.2796587E+04  0.7818609E-02  0.8304329E-01
       -2   -1    0    0    0  501  0.00000000000E+00  0.00000000000E+00  0.71778005374E+03  0.71778005375E+03  0.25500000920E-02 0. -1.
        2   -1    0    0  501    0  0.00000000000E+00  0.00000000000E+00 -0.27239888377E+04  0.27239888377E+04  0.25500000920E-02 0.  1.
    10030    2    1    2    0    0  0.00000000000E+00  0.00000000000E+00 -0.20062087840E+04  0.34417688915E+04  0.27965871017E+04 0.  0.
        2    1    3    3  502    0 -0.13069997798E+04  0.29928367207E+03 -0.14913783939E+04  0.20054996022E+04  0.25500000920E-02 0.  1.
       -2    1    3    3    0  502  0.13069997798E+04 -0.29928367207E+03 -0.51483039005E+03  0.14362692892E+04  0.25500000920E-02 0. -1.
</event>
<event>
 5   0  0.3167616E-06  0.2817130E+04  0.7818609E-02  0.8297970E-01
       -2   -1    0    0    0  501  0.00000000000E+00  0.00000000000E+00  0.13409360016E+04  0.13409360016E+04  0.25500000920E-02 0.  1.
        2   -1    0    0  501    0  0.00000000000E+00  0.00000000000E+00 -0.14796048519E+04  0.14796048519E+04  0.25500000920E-02 0. -1.
    10030    2    1    2    0    0  0.00000000000E+00  0.00000000000E+00 -0.13866885032E+03  0.28205408535E+04  0.28171300389E+04 0.  0.
        3    1    3    3  502    0 -0.68815406843E+03 -0.27108204302E+03  0.11308721060E+04  0.13512635665E+04  0.10100000352E+00 0.  1.
       -3    1    3    3    0  502  0.68815406843E+03  0.27108204302E+03 -0.12695409563E+04  0.14692772869E+04  0.10100000352E+00 0. -1.
</event>
<event>
 5   0  0.1243055E-06  0.2787586E+04  0.7818609E-02  0.8307133E-01
        1   -1    0    0  501    0  0.00000000000E+00  0.00000000000E+00  0.21475632931E+04  0.21475632931E+04  0.50400001928E-02 0.  1.
       -1   -1    0    0    0  501  0.00000000000E+00  0.00000000000E+00 -0.90458769901E+03  0.90458769902E+03  0.50400001928E-02 0. -1.
    10030    2    1    2    0    0  0.00000000000E+00  0.00000000000E+00  0.12429755941E+04  0.30521509921E+04  0.27875862948E+04 0.  0.
        5    1    3    3  502    0 -0.13788254003E+04 -0.18790764943E+03  0.53549407850E+03  0.14910549176E+04  0.46999998093E+01 0. -1.
       -5    1    3    3    0  502  0.13788254003E+04  0.18790764943E+03  0.70748151558E+03  0.15610960746E+04  0.46999998093E+01 0.  1.
</event>
<event>
 5   0  0.1235252E-06  0.2803686E+04  0.7818609E-02  0.8302125E-01
        1   -1    0    0  501    0  0.00000000000E+00  0.00000000000E+00  0.18645844243E+04  0.18645844243E+04  0.50400001928E-02 0.  1.
       -1   -1    0    0    0  501  0.00000000000E+00  0.00000000000E+00 -0.10539417089E+04  0.10539417089E+04  0.50400001928E-02 0. -1.
    10030    2    1    2    0    0  0.00000000000E+00  0.00000000000E+00  0.81064271537E+03  0.29185261332E+04  0.28036856419E+04 0.  0.
        1    1    3    3  502    0 -0.12070022289E+04 -0.71291438503E+03  0.41351746514E+03  0.14615395975E+04  0.50400001928E-02 0.  1.
       -1    1    3    3    0  502  0.12070022289E+04  0.71291438503E+03  0.39712525023E+03  0.14569865358E+04  0.50400001928E-02 0. -1.
</event>
<event>
 5   0  0.1243055E-06  0.2848402E+04  0.7818609E-02  0.8288397E-01
       -1   -1    0    0    0  501  0.00000000000E+00  0.00000000000E+00  0.22621486331E+04  0.22621486331E+04  0.50400001928E-02 0.  1.
        1   -1    0    0  501    0  0.00000000000E+00  0.00000000000E+00 -0.89664668823E+03  0.89664668824E+03  0.50400001928E-02 0. -1.
    10030    2    1    2    0    0  0.00000000000E+00  0.00000000000E+00  0.13655019448E+04  0.31587953213E+04  0.28484017133E+04 0.  0.
        5    1    3    3  502    0 -0.11936296877E+04 -0.77001979508E+03  0.56834043414E+03  0.15299396247E+04  0.46999998093E+01 0.  1.
       -5    1    3    3    0  502  0.11936296877E+04  0.77001979508E+03  0.79716151068E+03  0.16288556966E+04  0.46999998093E+01 0. -1.
</event>
<event>
 5   0  0.3226364E-06  0.2801958E+04  0.7818609E-02  0.8302661E-01
        2   -1    0    0  501    0  0.00000000000E+00  0.00000000000E+00  0.12696843675E+04  0.12696843675E+04  0.25500000920E-02 0. -1.
       -2   -1    0    0    0  501  0.00000000000E+00  0.00000000000E+00 -0.15458503090E+04  0.15458503090E+04  0.25500000920E-02 0.  1.
    10030    2    1    2    0    0  0.00000000000E+00  0.00000000000E+00 -0.27616594153E+03  0.28155346765E+04  0.28019578668E+04 0.  0.
        5    1    3    3  502    0 -0.93141476058E+03 -0.47221621113E+02 -0.11885942686E+04  0.15108083144E+04  0.46999998093E+01 0.  1.
       -5    1    3    3    0  502  0.93141476058E+03  0.47221621113E+02  0.91242832704E+03  0.13047263620E+04  0.46999998093E+01 0. -1.
</event>
<event>
 5   0  0.3345919E-06  0.2815366E+04  0.7818609E-02  0.8298514E-01
       -2   -1    0    0    0  501  0.00000000000E+00  0.00000000000E+00  0.33850245533E+04  0.33850245533E+04  0.25500000920E-02 0.  1.
        2   -1    0    0  501    0  0.00000000000E+00  0.00000000000E+00 -0.58539350078E+03  0.58539350078E+03  0.25500000920E-02 0. -1.
    10030    2    1    2    0    0  0.00000000000E+00  0.00000000000E+00  0.27996310526E+04  0.39704180541E+04  0.28153659609E+04 0.  0.
        2    1    3    3  502    0  0.10409915759E+04 -0.18708521270E+03  0.89779055117E+02  0.10614728525E+04  0.25500000920E-02 0. -1.
       -2    1    3    3    0  502 -0.10409915759E+04  0.18708521270E+03  0.27098519975E+04  0.29089452016E+04  0.25500000920E-02 0.  1.
</event>
<event>
 5   0  0.3345919E-06  0.2809973E+04  0.7818609E-02  0.8300179E-01
        2   -1    0    0  501    0  0.00000000000E+00  0.00000000000E+00  0.15135995789E+04  0.15135995789E+04  0.25500000920E-02 0.  1.
       -2   -1    0    0    0  501  0.00000000000E+00  0.00000000000E+00 -0.13041675504E+04  0.13041675504E+04  0.25500000920E-02 0. -1.
    10030    2    1    2    0    0  0.00000000000E+00  0.00000000000E+00  0.20943202848E+03  0.28177671292E+04  0.28099732775E+04 0.  0.
        2    1    3    3  502    0 -0.23405657937E+03  0.57399806137E+03 -0.11596265459E+04  0.13149106368E+04  0.25500000920E-02 0. -1.
       -2    1    3    3    0  502  0.23405657937E+03 -0.57399806137E+03  0.13690585744E+04  0.15028564924E+04  0.25500000920E-02 0.  1.
</event>
<event>
 5   0  0.3226364E-06  0.2798884E+04  0.7818609E-02  0.8303615E-01
        2   -1    0    0  501    0  0.00000000000E+00  0.00000000000E+00  0.29462340700E+04  0.29462340700E+04  0.25500000920E-02 0.  1.
       -2   -1    0    0    0  501  0.00000000000E+00  0.00000000000E+00 -0.66472575196E+03  0.66472575196E+03  0.25500000920E-02 0. -1.
    10030    2    1    2    0    0  0.00000000000E+00  0.00000000000E+00  0.22815083181E+04  0.36109598220E+04  0.27988838187E+04 0.  0.
        5    1    3    3  502    0 -0.19204760084E+03 -0.63755651575E+03 -0.44725126293E+03  0.80213239179E+03  0.46999998093E+01 0. -1.
       -5    1    3    3    0  502  0.19204760084E+03  0.63755651575E+03  0.27287595810E+04  0.28088274302E+04  0.46999998093E+01 0.  1.
</event>
<event>
 5   0  0.3162695E-06  0.2826195E+04  0.7818609E-02  0.8295182E-01
       -2   -1    0    0    0  501  0.00000000000E+00  0.00000000000E+00  0.13412239747E+04  0.13412239747E+04  0.25500000920E-02 0.  1.
        2   -1    0    0  501    0  0.00000000000E+00  0.00000000000E+00 -0.14888223306E+04  0.14888223306E+04  0.25500000920E-02 0. -1.
    10030    2    1    2    0    0  0.00000000000E+00  0.00000000000E+00 -0.14759835593E+03  0.28300463053E+04  0.28261947589E+04 0.  0.
        1    1    3    3  502    0  0.82703081283E+03 -0.94140468238E+03  0.58025361553E+03  0.13809116553E+04  0.50400001928E-02 0.  1.
       -1    1    3    3    0  502 -0.82703081283E+03  0.94140468238E+03 -0.72785197146E+03  0.14491346500E+04  0.50400001928E-02 0. -1.
</event>
<event>
 5   0  0.3345919E-06  0.2813314E+04  0.7818609E-02  0.8299147E-01
        2   -1    0    0  501    0  0.00000000000E+00  0.00000000000E+00  0.15145472935E+04  0.15145472935E+04  0.25500000920E-02 0. -1.
       -2   -1    0    0    0  501  0.00000000000E+00  0.00000000000E+00 -0.13064523229E+04  0.13064523229E+04  0.25500000920E-02 0.  1.
    10030    2    1    2    0    0  0.00000000000E+00  0.00000000000E+00  0.20809497062E+03  0.28209996164E+04  0.28133139389E+04 0.  0.
        2    1    3    3  502    0  0.23704028645E+03  0.21098569830E+03  0.14781856424E+04  0.15118650256E+04  0.25500000920E-02 0. -1.
       -2    1    3    3    0  502 -0.23704028645E+03 -0.21098569830E+03 -0.12700906718E+04  0.13091345908E+04  0.25500000920E-02 0.  1.
</event>
<event>
 5   0  0.3162695E-06  0.2839515E+04  0.7818609E-02  0.8291105E-01
       -2   -1    0    0    0  501  0.00000000000E+00  0.00000000000E+00  0.15537656546E+04  0.15537656546E+04  0.25500000920E-02 0. -1.
        2   -1    0    0  501    0  0.00000000000E+00  0.00000000000E+00 -0.12973070482E+04  0.12973070482E+04  0.25500000920E-02 0.  1.
    10030    2    1    2    0    0  0.00000000000E+00  0.00000000000E+00  0.25645860643E+03  0.28510727028E+04  0.28395148424E+04 0.  0.
        1    1    3    3  502    0  0.10538316708E+04 -0.13156443068E+03 -0.81785902552E+03  0.13404341742E+04  0.50400001928E-02 0.  1.
       -1    1    3    3    0  502 -0.10538316708E+04  0.13156443068E+03  0.10743176320E+04  0.15106385286E+04  0.50400001928E-02 0. -1.
</event>
<event>
 5   0  0.1220265E-06  0.2784117E+04  0.7818609E-02  0.8308216E-01
        1   -1    0    0  501    0  0.00000000000E+00  0.00000000000E+00  0.15272037098E+04  0.15272037098E+04  0.50400001928E-02 0. -1.
       -1   -1    0    0    0  501  0.00000000000E+00  0.00000000000E+00 -0.12688723562E+04  0.12688723562E+04  0.50400001928E-02 0.  1.
    10030    2    1    2    0    0  0.00000000000E+00  0.00000000000E+00  0.25833135362E+03  0.27960760660E+04  0.27841167861E+04 0.  0.
        4    1    3    3  502    0  0.38950538212E+03 -0.34024071060E+03  0.14271362736E+04  0.15179584119E+04  0.12699999809E+01 0. -1.
       -4    1    3    3    0  502 -0.38950538212E+03  0.34024071060E+03 -0.11688049200E+04  0.12781176541E+04  0.12699999809E+01 0.  1.
</event>
<event>
 5   0  0.1235252E-06  0.2798857E+04  0.7818609E-02  0.8303623E-01
        1   -1    0    0  501    0  0.00000000000E+00  0.00000000000E+00  0.18169353787E+04  0.18169353787E+04  0.50400001928E-02 0.  1.
       -1   -1    0    0    0  501  0.00000000000E+00  0.00000000000E+00 -0.10778592073E+04  0.10778592073E+04  0.50400001928E-02 0. -1.
    10030    2    1    2    0    0  0.00000000000E+00  0.00000000000E+00  0.73907617136E+03  0.28947945861E+04  0.27988572862E+04 0.  0.
        1    1    3    3  502    0  0.35540511327E+03  0.12270980941E+04  0.96036124785E+03  0.15982416129E+04  0.50400001928E-02 0.  1.
       -1    1    3    3    0  502 -0.35540511327E+03 -0.12270980941E+04 -0.22128507648E+03  0.12965529731E+04  0.50400001928E-02 0. -1.
</event>
<event>
 5   0  0.1220265E-06  0.2806555E+04  0.7818609E-02  0.8301236E-01
       -1   -1    0    0    0  501  0.00000000000E+00  0.00000000000E+00  0.17264532513E+04  0.17264532513E+04  0.50400001928E-02 0.  1.
        1   -1    0    0  501    0  0.00000000000E+00  0.00000000000E+00 -0.11405971619E+04  0.11405971619E+04  0.50400001928E-02 0. -1.
    10030    2    1    2    0    0  0.00000000000E+00  0.00000000000E+00  0.58585608943E+03  0.28670504132E+04  0.28065549548E+04 0.  0.
        4    1    3    3  502    0 -0.43515942926E+03  0.11319234943E+04  0.10142439704E+04  0.15809196596E+04  0.12699999809E+01 0.  1.
       -4    1    3    3    0  502  0.43515942926E+03 -0.11319234943E+04 -0.42838788094E+03  0.12861307536E+04  0.12699999809E+01 0. -1.
</event>
<event>
 5   0  0.3212679E-06  0.2801834E+04  0.7818609E-02  0.8302699E-01
       -2   -1    0    0    0  501  0.00000000000E+00  0.00000000000E+00  0.82578481069E+03  0.82578481069E+03  0.25500000920E-02 0.  1.
        2   -1    0    0  501    0  0.00000000000E+00  0.00000000000E+00 -0.23766102243E+04  0.23766102243E+04  0.25500000920E-02 0. -1.
    10030    2    1    2    0    0  0.00000000000E+00  0.00000000000E+00 -0.15508254136E+04  0.32023950350E+04  0.28018341308E+04 0.  0.
        4    1    3    3  502    0 -0.91770491399E+03 -0.10283597375E+04 -0.10619775843E+04  0.17399724312E+04  0.12699999809E+01 0. -1.
       -4    1    3    3    0  502  0.91770491399E+03  0.10283597375E+04 -0.48884782927E+03  0.14624226038E+04  0.12699999809E+01 0.  1.
</event>
<event>
 5   0  0.1243055E-06  0.2665792E+04  0.7818609E-02  0.8346190E-01
        1   -1    0    0  501    0  0.00000000000E+00  0.00000000000E+00  0.14318847748E+04  0.14318847748E+04  0.50400001928E-02 0. -1.
       -1   -1    0    0    0  501  0.00000000000E+00  0.00000000000E+00 -0.12407508675E+04  0.12407508675E+04  0.50400001928E-02 0.  1.
    10030    2    1    2    0    0  0.00000000000E+00  0.00000000000E+00  0.19113390726E+03  0.26726356423E+04  0.26657923974E+04 0.  0.
        5    1    3    3  502    0 -0.74080240467E+03 -0.59230439697E+03  0.10344416892E+04  0.14034615776E+04  0.46999998093E+01 0. -1.
       -5    1    3    3    0  502  0.74080240467E+03  0.59230439697E+03 -0.84330778193E+03  0.12691740647E+04  0.46999998093E+01 0.  1.
</event>
<event>
 5   0  0.1246044E-06  0.2784495E+04  0.7818609E-02  0.8308098E-01
        1   -1    0    0  501    0  0.00000000000E+00  0.00000000000E+00  0.13985921409E+04  0.13985921409E+04  0.50400001928E-02 0.  1.
       -1   -1    0    0    0  501  0.00000000000E+00  0.00000000000E+00 -0.13859317596E+04  0.13859317596E+04  0.50400001928E-02 0. -1.
    10030    2    1    2    0    0  0.00000000000E+00  0.00000000000E+00  0.12660381329E+02  0.27845239005E+04  0.27844951189E+04 0.  0.
        2    1    3    3  502    0 -0.10845386287E+04  0.41742141391E+03 -0.76041666864E+03  0.13887757860E+04  0.25500000920E-02 0. -1.
       -2    1    3    3    0  502  0.10845386287E+04 -0.41742141391E+03  0.77307704997E+03  0.13957481145E+04  0.25500000920E-02 0.  1.
</event>
<event>
 5   0  0.1220265E-06  0.2753320E+04  0.7818609E-02  0.8317909E-01
        1   -1    0    0  501    0  0.00000000000E+00  0.00000000000E+00  0.80142020177E+03  0.80142020178E+03  0.50400001928E-02 0.  1.
       -1   -1    0    0    0  501  0.00000000000E+00  0.00000000000E+00 -0.23647936646E+04  0.23647936646E+04  0.50400001928E-02 0. -1.
    10030    2    1    2    0    0  0.00000000000E+00  0.00000000000E+00 -0.15633734628E+04  0.31662138664E+04  0.27533204796E+04 0.  0.
        4    1    3    3  502    0  0.30589630509E+03  0.90647836784E+03  0.35666888622E+03  0.10210239410E+04  0.12699999809E+01 0.  1.
       -4    1    3    3    0  502 -0.30589630509E+03 -0.90647836784E+03 -0.19200423490E+04  0.21451899254E+04  0.12699999809E+01 0. -1.
</event>
<event>
 5   0  0.1220265E-06  0.2802345E+04  0.7818609E-02  0.8302541E-01
       -1   -1    0    0    0  501  0.00000000000E+00  0.00000000000E+00  0.14132479740E+04  0.14132479741E+04  0.50400001928E-02 0.  1.
        1   -1    0    0  501    0  0.00000000000E+00  0.00000000000E+00 -0.13892003914E+04  0.13892003914E+04  0.50400001928E-02 0. -1.
    10030    2    1    2    0    0  0.00000000000E+00  0.00000000000E+00  0.24047582604E+02  0.28024483655E+04  0.28023451884E+04 0.  0.
        4    1    3    3  502    0 -0.20969521452E+03 -0.13851369251E+04 -0.14559918954E+02  0.14009960701E+04  0.12699999809E+01 0.  1.
       -4    1    3    3    0  502  0.20969521452E+03  0.13851369251E+04  0.38607501558E+02  0.14014522954E+04  0.12699999809E+01 0. -1.
</event>
<event>
 5   0  0.3167616E-06  0.2800423E+04  0.7818609E-02  0.8303137E-01
       -2   -1    0    0    0  501  0.00000000000E+00  0.00000000000E+00  0.80339701168E+03  0.80339701168E+03  0.25500000920E-02 0.  1.
        2   -1    0    0  501    0  0.00000000000E+00  0.00000000000E+00 -0.24403777888E+04  0.24403777888E+04  0.25500000920E-02 0. -1.
    10030    2    1    2    0    0  0.00000000000E+00  0.00000000000E+00 -0.16369807771E+04  0.32437748005E+04  0.28004229844E+04 0.  0.
        3    1    3    3  502    0 -0.12355526483E+03 -0.13507721879E+04 -0.12209794640E+04  0.18250047311E+04  0.10100000352E+00 0. -1.
       -3    1    3    3    0  502  0.12355526483E+03  0.13507721879E+04 -0.41600131314E+03  0.14187700694E+04  0.10100000352E+00 0.  1.
</event>
<event>
 5   0  0.1246044E-06  0.2807226E+04  0.7818609E-02  0.8301029E-01
       -1   -1    0    0    0  501  0.00000000000E+00  0.00000000000E+00  0.30020756954E+04  0.30020756954E+04  0.50400001928E-02 0.  1.
        1   -1    0    0  501    0  0.00000000000E+00  0.00000000000E+00 -0.65625562984E+03  0.65625562986E+03  0.50400001928E-02 0. -1.
    10030    2    1    2    0    0  0.00000000000E+00  0.00000000000E+00  0.23458200655E+04  0.36583313252E+04  0.28072257311E+04 0.  0.
        2    1    3    3  502    0 -0.10184672822E+04 -0.65940200115E+03  0.25322548434E+03  0.12394392885E+04  0.25500000920E-02 0. -1.
       -2    1    3    3    0  502  0.10184672822E+04  0.65940200115E+03  0.20925945812E+04  0.24188920367E+04  0.25500000920E-02 0.  1.
</event>
<event>
 5   0  0.3167616E-06  0.2763301E+04  0.7818609E-02  0.8314753E-01
       -2   -1    0    0    0  501  0.00000000000E+00  0.00000000000E+00  0.14351783101E+04  0.14351783101E+04  0.25500000920E-02 0. -1.
        2   -1    0    0  501    0  0.00000000000E+00  0.00000000000E+00 -0.13301188481E+04  0.13301188481E+04  0.25500000920E-02 0.  1.
    10030    2    1    2    0    0  0.00000000000E+00  0.00000000000E+00  0.10505946201E+03  0.27652971581E+04  0.27633007224E+04 0.  0.
        3    1    3    3  502    0  0.21428911468E+03 -0.13472266175E+04 -0.16675943139E+03  0.13743173220E+04  0.10100000352E+00 0.  1.
       -3    1    3    3    0  502 -0.21428911468E+03  0.13472266175E+04  0.27181889340E+03  0.13909798361E+04  0.10100000352E+00 0. -1.
</event>
<event>
 5   0  0.1065675E-06  0.2767354E+04  0.7818609E-02  0.8313476E-01
        3   -1    0    0  501    0  0.00000000000E+00  0.00000000000E+00  0.15959704329E+04  0.15959704360E+04  0.10100000352E+00 0. -1.
       -3   -1    0    0    0  501  0.00000000000E+00  0.00000000000E+00 -0.11996228702E+04  0.11996228745E+04  0.10100000352E+00 0.  1.
    10030    2    1    2    0    0  0.00000000000E+00  0.00000000000E+00  0.39634756265E+03  0.27955933105E+04  0.27673544347E+04 0.  0.
        2    1    3    3  502    0  0.76366612651E+03  0.11068499485E+04 -0.13112783957E+03  0.13511096445E+04  0.25500000920E-02 0.  1.
       -2    1    3    3    0  502 -0.76366612651E+03 -0.11068499485E+04  0.52747540222E+03  0.14444836660E+04  0.25500000920E-02 0. -1.
</event>
<event>
 5   0  0.3167616E-06  0.2802695E+04  0.7818609E-02  0.8302432E-01
       -2   -1    0    0    0  501  0.00000000000E+00  0.00000000000E+00  0.84138361580E+03  0.84138361580E+03  0.25500000920E-02 0. -1.
        2   -1    0    0  501    0  0.00000000000E+00  0.00000000000E+00 -0.23339831475E+04  0.23339831475E+04  0.25500000920E-02 0.  1.
    10030    2    1    2    0    0  0.00000000000E+00  0.00000000000E+00 -0.14925995317E+04  0.31753667633E+04  0.28026952598E+04 0.  0.
        3    1    3    3  502    0  0.11238420419E+04 -0.79237731761E+03 -0.44041404533E+03  0.14439000277E+04  0.10100000352E+00 0. -1.
       -3    1    3    3    0  502 -0.11238420419E+04  0.79237731761E+03 -0.10521854864E+04  0.17314667356E+04  0.10100000352E+00 0.  1.
</event>
<event>
 5   0  0.1263513E-06  0.2792160E+04  0.7818609E-02  0.8305706E-01
       -1   -1    0    0    0  501  0.00000000000E+00  0.00000000000E+00  0.11562977691E+04  0.11562977691E+04  0.50400001928E-02 0.  1.
        1   -1    0    0  501    0  0.00000000000E+00  0.00000000000E+00 -0.16855864349E+04  0.16855864349E+04  0.50400001928E-02 0. -1.
    10030    2    1    2    0    0  0.00000000000E+00  0.00000000000E+00 -0.52928866586E+03  0.28418842040E+04  0.27921603351E+04 0.  0.
        3    1    3    3  502    0 -0.38219205227E+03  0.67418750346E+03 -0.14465474598E+04  0.16410664576E+04  0.10100000352E+00 0. -1.
       -3    1    3    3    0  502  0.38219205227E+03 -0.67418750346E+03  0.91725879397E+03  0.12008177463E+04  0.10100000352E+00 0.  1.
</event>
<event>
 5   0  0.1243055E-06  0.2801971E+04  0.7818609E-02  0.8302657E-01
       -1   -1    0    0    0  501  0.00000000000E+00  0.00000000000E+00  0.13103518191E+04  0.13103518191E+04  0.50400001928E-02 0. -1.
        1   -1    0    0  501    0  0.00000000000E+00  0.00000000000E+00 -0.14978877009E+04  0.14978877009E+04  0.50400001928E-02 0.  1.
    10030    2    1    2    0    0  0.00000000000E+00  0.00000000000E+00 -0.18753588181E+03  0.28082395201E+04  0.28019706450E+04 0.  0.
        5    1    3    3  502    0 -0.80989829712E+03 -0.99089558052E+03  0.47753236378E+03  0.13659679907E+04  0.46999998093E+01 0. -1.
       -5    1    3    3    0  502  0.80989829712E+03  0.99089558052E+03 -0.66506824559E+03  0.14422715294E+04  0.46999998093E+01 0.  1.
</event>
<event>
 5   0  0.3226364E-06  0.2801719E+04  0.7818609E-02  0.8302735E-01
        2   -1    0    0  501    0  0.00000000000E+00  0.00000000000E+00  0.29057941964E+04  0.29057941964E+04  0.25500000920E-02 0. -1.
       -2   -1    0    0    0  501  0.00000000000E+00  0.00000000000E+00 -0.67534272968E+03  0.67534272968E+03  0.25500000920E-02 0.  1.
    10030    2    1    2    0    0  0.00000000000E+00  0.00000000000E+00  0.22304514667E+04  0.35811369261E+04  0.28017187471E+04 0.  0.
        5    1    3    3  502    0 -0.86239195484E+03  0.10900348748E+04  0.13384121991E+04  0.19295764346E+04  0.46999998093E+01 0.  1.
       -5    1    3    3    0  502  0.86239195484E+03 -0.10900348748E+04  0.89203926758E+03  0.16515604915E+04  0.46999998093E+01 0. -1.
</event>
<event>
 5   0  0.1263513E-06  0.2770722E+04  0.7818609E-02  0.8312416E-01
       -1   -1    0    0    0  501  0.00000000000E+00  0.00000000000E+00  0.10121591952E+04  0.10121591952E+04  0.50400001928E-02 0. -1.
        1   -1    0    0  501    0  0.00000000000E+00  0.00000000000E+00 -0.18961690798E+04  0.18961690798E+04  0.50400001928E-02 0.  1.
    10030    2    1    2    0    0  0.00000000000E+00  0.00000000000E+00 -0.88400988459E+03  0.29083282749E+04  0.27707219057E+04 0.  0.
        3    1    3    3  502    0  0.91529279286E+03 -0.61110221611E+03  0.44122275753E+03  0.11856999398E+04  0.10100000352E+00 0.  1.
       -3    1    3    3    0  502 -0.91529279286E+03  0.61110221611E+03 -0.13252326421E+04  0.17226283352E+04  0.10100000352E+00 0. -1.
</event>
<event>
 5   0  0.1246044E-06  0.2803264E+04  0.7818609E-02  0.8302256E-01
       -1   -1    0    0    0  501  0.00000000000E+00  0.00000000000E+00  0.87923155861E+03  0.87923155863E+03  0.50400001928E-02 0. -1.
        1   -1    0    0  501    0  0.00000000000E+00  0.00000000000E+00 -0.22344194366E+04  0.22344194366E+04  0.50400001928E-02 0.  1.
    10030    2    1    2    0    0  0.00000000000E+00  0.00000000000E+00 -0.13551878780E+04  0.31136509952E+04  0.28032638719E+04 0.  0.
        2    1    3    3  502    0 -0.10086162459E+04 -0.83004359862E+03 -0.11309614348E+03  0.13111330386E+04  0.25500000920E-02 0. -1.
       -2    1    3    3    0  502  0.10086162459E+04  0.83004359862E+03 -0.12420917345E+04  0.18025179567E+04  0.25500000920E-02 0.  1.
</event>
<event>
 5   0  0.3345919E-06  0.2811755E+04  0.7818609E-02  0.8299628E-01
       -2   -1    0    0    0  501  0.00000000000E+00  0.00000000000E+00  0.10166642891E+04  0.10166642891E+04  0.25500000920E-02 0.  1.
        2   -1    0    0  501    0  0.00000000000E+00  0.00000000000E+00 -0.19440947419E+04  0.19440947419E+04  0.25500000920E-02 0. -1.
    10030    2    1    2    0    0  0.00000000000E+00  0.00000000000E+00 -0.92743045282E+03  0.29607590309E+04  0.28117551093E+04 0.  0.
        2    1    3    3  502    0 -0.77161745326E+03 -0.11649182375E+04 -0.30036986332E+03  0.14292130874E+04  0.25500000920E-02 0.  1.
       -2    1    3    3    0  502  0.77161745326E+03  0.11649182375E+04 -0.62706058950E+03  0.15315459436E+04  0.25500000920E-02 0. -1.
</event>
<event>
 5   0  0.3345919E-06  0.2787251E+04  0.7818609E-02  0.8307237E-01
       -2   -1    0    0    0  501  0.00000000000E+00  0.00000000000E+00  0.81282456016E+03  0.81282456016E+03  0.25500000920E-02 0. -1.
        2   -1    0    0  501    0  0.00000000000E+00  0.00000000000E+00 -0.23894353717E+04  0.23894353717E+04  0.25500000920E-02 0.  1.
    10030    2    1    2    0    0  0.00000000000E+00  0.00000000000E+00 -0.15766108115E+04  0.32022599318E+04  0.27872507996E+04 0.  0.
        2    1    3    3  502    0 -0.11993028598E+04 -0.27404074555E+03 -0.36005962298E+02  0.12307404718E+04  0.25500000920E-02 0. -1.
       -2    1    3    3    0  502  0.11993028598E+04  0.27404074555E+03 -0.15406048492E+04  0.19715194600E+04  0.25500000920E-02 0.  1.
</event>
<event>
 5   0  0.3212679E-06  0.2794388E+04  0.7818609E-02  0.8305013E-01
       -2   -1    0    0    0  501  0.00000000000E+00  0.00000000000E+00  0.99728046203E+03  0.99728046203E+03  0.25500000920E-02 0. -1.
        2   -1    0    0  501    0  0.00000000000E+00  0.00000000000E+00 -0.19574742907E+04  0.19574742907E+04  0.25500000920E-02 0.  1.
    10030    2    1    2    0    0  0.00000000000E+00  0.00000000000E+00 -0.96019382862E+03  0.29547547527E+04  0.27943878507E+04 0.  0.
        4    1    3    3  502    0 -0.73825533980E+03 -0.11182587860E+03 -0.17288115744E+04  0.18831667601E+04  0.12699999809E+01 0.  1.
       -4    1    3    3    0  502  0.73825533980E+03  0.11182587860E+03  0.76861774573E+03  0.10715879926E+04  0.12699999809E+01 0. -1.
</event>
<event>
 5   0  0.3162695E-06  0.2797762E+04  0.7818609E-02  0.8303964E-01
        2   -1    0    0  501    0  0.00000000000E+00  0.00000000000E+00  0.18800876179E+04  0.18800876179E+04  0.25500000920E-02 0.  1.
       -2   -1    0    0    0  501  0.00000000000E+00  0.00000000000E+00 -0.10408387492E+04  0.10408387492E+04  0.25500000920E-02 0. -1.
    10030    2    1    2    0    0  0.00000000000E+00  0.00000000000E+00  0.83924886872E+03  0.29209263671E+04  0.27977619946E+04 0.  0.
        1    1    3    3  502    0 -0.67529404161E+03  0.49738416948E+01 -0.85938671328E+03  0.10929740641E+04  0.50400001928E-02 0. -1.
       -1    1    3    3    0  502  0.67529404161E+03 -0.49738416948E+01  0.16986355820E+04  0.18279523030E+04  0.50400001928E-02 0.  1.
</event>
<event>
 5   0  0.1246044E-06  0.2798231E+04  0.7818609E-02  0.8303818E-01
       -1   -1    0    0    0  501  0.00000000000E+00  0.00000000000E+00  0.14580008259E+04  0.14580008259E+04  0.50400001928E-02 0. -1.
        1   -1    0    0  501    0  0.00000000000E+00  0.00000000000E+00 -0.13426080825E+04  0.13426080825E+04  0.50400001928E-02 0.  1.
    10030    2    1    2    0    0  0.00000000000E+00  0.00000000000E+00  0.11539274344E+03  0.28006089084E+04  0.27982306503E+04 0.  0.
        2    1    3    3  502    0 -0.92166625796E+03  0.71476921659E+03  0.83111441574E+03  0.14321713920E+04  0.25500000920E-02 0. -1.
       -2    1    3    3    0  502  0.92166625796E+03 -0.71476921659E+03 -0.71572167230E+03  0.13684375164E+04  0.25500000920E-02 0.  1.
</event>
<event>
 5   0  0.3212679E-06  0.2802289E+04  0.7818609E-02  0.8302558E-01
       -2   -1    0    0    0  501  0.00000000000E+00  0.00000000000E+00  0.73915555000E+03  0.73915555000E+03  0.25500000920E-02 0. -1.
        2   -1    0    0  501    0  0.00000000000E+00  0.00000000000E+00 -0.26560120682E+04  0.26560120682E+04  0.25500000920E-02 0.  1.
    10030    2    1    2    0    0  0.00000000000E+00  0.00000000000E+00 -0.19168565182E+04  0.33951676182E+04  0.28022891079E+04 0.  0.
        4    1    3    3  502    0  0.26193067755E+03 -0.61075456190E+03  0.53606876217E+03  0.85381505339E+03  0.12699999809E+01 0. -1.
       -4    1    3    3    0  502 -0.26193067755E+03  0.61075456190E+03 -0.24529252804E+04  0.25413525648E+04  0.12699999809E+01 0.  1.
</event>
<event>
 5   0  0.3167616E-06  0.2799894E+04  0.7818609E-02  0.8303301E-01
       -2   -1    0    0    0  501  0.00000000000E+00  0.00000000000E+00  0.11843685984E+04  0.11843685984E+04  0.25500000920E-02 0.  1.
        2   -1    0    0  501    0  0.00000000000E+00  0.00000000000E+00 -0.16547652766E+04  0.16547652766E+04  0.25500000920E-02 0. -1.
    10030    2    1    2    0    0  0.00000000000E+00  0.00000000000E+00 -0.47039667818E+03  0.28391338749E+04  0.27998943060E+04 0.  0.
        3    1    3    3  502    0  0.40300741286E+03 -0.63584332893E+03  0.96165700414E+03  0.12212681596E+04  0.10100000352E+00 0.  1.
       -3    1    3    3    0  502 -0.40300741286E+03  0.63584332893E+03 -0.14320536823E+04  0.16178657154E+04  0.10100000352E+00 0. -1.
</event>
<event>
 5   0  0.1263513E-06  0.2802464E+04  0.7818609E-02  0.8302504E-01
        1   -1    0    0  501    0  0.00000000000E+00  0.00000000000E+00  0.10322875197E+04  0.10322875197E+04  0.50400001928E-02 0.  1.
       -1   -1    0    0    0  501  0.00000000000E+00  0.00000000000E+00 -0.19020389390E+04  0.19020389390E+04  0.50400001928E-02 0. -1.
    10030    2    1    2    0    0  0.00000000000E+00  0.00000000000E+00 -0.86975141930E+03  0.29343264587E+04  0.28024639578E+04 0.  0.
        3    1    3    3  502    0  0.66190474319E+03  0.12350075379E+04 -0.42496786452E+03  0.14642264865E+04  0.10100000352E+00 0.  1.
       -3    1    3    3    0  502 -0.66190474319E+03 -0.12350075379E+04 -0.44478355478E+03  0.14700999723E+04  0.10100000352E+00 0. -1.
</event>
<event>
 5   0  0.3226364E-06  0.2785022E+04  0.7818609E-02  0.8307934E-01
       -2   -1    0    0    0  501  0.00000000000E+00  0.00000000000E+00  0.12170327371E+04  0.12170327371E+04  0.25500000920E-02 0. -1.
        2   -1    0    0  501    0  0.00000000000E+00  0.00000000000E+00 -0.15932907750E+04  0.15932907750E+04  0.25500000920E-02 0.  1.
    10030    2    1    2    0    0  0.00000000000E+00  0.00000000000E+00 -0.37625803786E+03  0.28103235121E+04  0.27850221062E+04 0.  0.
        5    1    3    3  502    0  0.11629398838E+03  0.11871687288E+04 -0.91310646528E+03  0.15022248131E+04  0.46999998093E+01 0.  1.
       -5    1    3    3    0  502 -0.11629398838E+03 -0.11871687288E+04  0.53684842743E+03  0.13080986990E+04  0.46999998093E+01 0. -1.
</event>
<event>
 5   0  0.1220265E-06  0.2800460E+04  0.7818609E-02  0.8303126E-01
       -1   -1    0    0    0  501  0.00000000000E+00  0.00000000000E+00  0.80561830942E+03  0.80561830944E+03  0.50400001928E-02 0. -1.
        1   -1    0    0  501    0  0.00000000000E+00  0.00000000000E+00 -0.24337133638E+04  0.24337133638E+04  0.50400001928E-02 0.  1.
    10030    2    1    2    0    0  0.00000000000E+00  0.00000000000E+00 -0.16280950544E+04  0.32393316733E+04  0.28004599949E+04 0.  0.
        4    1    3    3  502    0 -0.22785093763E+03  0.75265200568E+03  0.52606525605E+03  0.94612227432E+03  0.12699999809E+01 0. -1.
       -4    1    3    3    0  502  0.22785093763E+03 -0.75265200568E+03 -0.21541603104E+04  0.22932093989E+04  0.12699999809E+01 0.  1.
</event>
<event>
 5   0  0.3162695E-06  0.2791566E+04  0.7818609E-02  0.8305892E-01
       -2   -1    0    0    0  501  0.00000000000E+00  0.00000000000E+00  0.93487920979E+03  0.93487920979E+03  0.25500000920E-02 0. -1.
        2   -1    0    0  501    0  0.00000000000E+00  0.00000000000E+00 -0.20839167051E+04  0.20839167051E+04  0.25500000920E-02 0.  1.
    10030    2    1    2    0    0  0.00000000000E+00  0.00000000000E+00 -0.11490374953E+04  0.30187959149E+04  0.27915661572E+04 0.  0.
        1    1    3    3  502    0 -0.96702740177E+03 -0.19231602303E+03  0.49386972414E+03  0.11027396578E+04  0.50400001928E-02 0. -1.
       -1    1    3    3    0  502  0.96702740177E+03  0.19231602303E+03 -0.16429072194E+04  0.19160562571E+04  0.50400001928E-02 0.  1.
</event>
<event>
 5   0  0.3345919E-06  0.2806121E+04  0.7818609E-02  0.8301371E-01
        2   -1    0    0  501    0  0.00000000000E+00  0.00000000000E+00  0.30969036835E+04  0.30969036835E+04  0.25500000920E-02 0. -1.
       -2   -1    0    0    0  501  0.00000000000E+00  0.00000000000E+00 -0.63566032049E+03  0.63566032049E+03  0.25500000920E-02 0.  1.
    10030    2    1    2    0    0  0.00000000000E+00  0.00000000000E+00  0.24612433630E+04  0.37325640040E+04  0.28061210152E+04 0.  0.
        2    1    3    3  502    0 -0.61374879157E+03 -0.11556588597E+04  0.55716094073E+03  0.14222036749E+04  0.25500000920E-02 0. -1.
       -2    1    3    3    0  502  0.61374879157E+03  0.11556588597E+04  0.19040824223E+04  0.23103603290E+04  0.25500000920E-02 0.  1.
</event>
<event>
 5   0  0.1243055E-06  0.2803925E+04  0.7818609E-02  0.8302051E-01
       -1   -1    0    0    0  501  0.00000000000E+00  0.00000000000E+00  0.17278099332E+04  0.17278099332E+04  0.50400001928E-02 0.  1.
        1   -1    0    0  501    0  0.00000000000E+00  0.00000000000E+00 -0.11375667113E+04  0.11375667113E+04  0.50400001928E-02 0. -1.
    10030    2    1    2    0    0  0.00000000000E+00  0.00000000000E+00  0.59024322190E+03  0.28653766446E+04  0.28039251513E+04 0.  0.
        5    1    3    3  502    0  0.40371329104E+03  0.92729433046E+03 -0.69704158588E+03  0.12283111410E+04  0.46999998093E+01 0. -1.
       -5    1    3    3    0  502 -0.40371329104E+03 -0.92729433046E+03  0.12872848078E+04  0.16370655036E+04  0.46999998093E+01 0.  1.
</event>
<event>
 5   0  0.3212679E-06  0.2781624E+04  0.7818609E-02  0.8308996E-01
       -2   -1    0    0    0  501  0.00000000000E+00  0.00000000000E+00  0.98789048377E+03  0.98789048377E+03  0.25500000920E-02 0.  1.
        2   -1    0    0  501    0  0.00000000000E+00  0.00000000000E+00 -0.19580693000E+04  0.19580693000E+04  0.25500000920E-02 0. -1.
    10030    2    1    2    0    0  0.00000000000E+00  0.00000000000E+00 -0.97017881622E+03  0.29459597838E+04  0.27816240062E+04 0.  0.
        4    1    3    3  502    0  0.71887545596E+03 -0.46306384064E+03  0.67659355785E+03  0.10904084084E+04  0.12699999809E+01 0.  1.
       -4    1    3    3    0  502 -0.71887545596E+03  0.46306384064E+03 -0.16467723741E+04  0.18555513754E+04  0.12699999809E+01 0. -1.
</event>
<event>
 5   0  0.3226364E-06  0.2795656E+04  0.7818609E-02  0.8304618E-01
       -2   -1    0    0    0  501  0.00000000000E+00  0.00000000000E+00  0.23887297488E+04  0.23887297488E+04  0.25500000920E-02 0. -1.
        2   -1    0    0  501    0  0.00000000000E+00  0.00000000000E+00 -0.81797561572E+03  0.81797561573E+03  0.25500000920E-02 0.  1.
    10030    2    1    2    0    0  0.00000000000E+00  0.00000000000E+00  0.15707541331E+04  0.32067053645E+04  0.27956556920E+04 0.  0.
        5    1    3    3  502    0 -0.60767751310E+03  0.95160262764E+03  0.17306042199E+04  0.20663573207E+04  0.46999998093E+01 0. -1.
       -5    1    3    3    0  502  0.60767751310E+03 -0.95160262764E+03 -0.15985008681E+03  0.11403480438E+04  0.46999998093E+01 0.  1.
</event>
<event>
 5   0  0.1220265E-06  0.2813391E+04  0.7818609E-02  0.8299123E-01
       -1   -1    0    0    0  501  0.00000000000E+00  0.00000000000E+00  0.13546937489E+04  0.13546937489E+04  0.50400001928E-02 0.  1.
        1   -1    0    0  501    0  0.00000000000E+00  0.00000000000E+00 -0.14606938384E+04  0.14606938384E+04  0.50400001928E-02 0. -1.
    10030    2    1    2    0    0  0.00000000000E+00  0.00000000000E+00 -0.10600008944E+03  0.28153875873E+04  0.28133914139E+04 0.  0.
        4    1    3    3  502    0  0.33848388293E+03 -0.19741993526E+03 -0.14049749945E+04  0.14585960091E+04  0.12699999809E+01 0. -1.
       -4    1    3    3    0  502 -0.33848388293E+03  0.19741993526E+03  0.12989749050E+04  0.13567915782E+04  0.12699999809E+01 0.  1.
</event>
<event>
 5   0  0.3167616E-06  0.2771436E+04  0.7818609E-02  0.8312192E-01
        2   -1    0    0  501    0  0.00000000000E+00  0.00000000000E+00  0.21071484783E+04  0.21071484783E+04  0.25500000920E-02 0. -1.
       -2   -1    0    0    0  501  0.00000000000E+00  0.00000000000E+00 -0.91128551927E+03  0.91128551927E+03  0.25500000920E-02 0.  1.
    10030    2    1    2    0    0  0.00000000000E+00  0.00000000000E+00  0.11958629590E+04  0.30184339976E+04  0.27714356534E+04 0.  0.
        3    1    3    3  502    0  0.50691398690E+03  0.10648916880E+04  0.13902695302E+04  0.18231306794E+04  0.10100000352E+00 0. -1.
       -3    1    3    3    0  502 -0.50691398690E+03 -0.10648916880E+04 -0.19440657121E+03  0.11953033182E+04  0.10100000352E+00 0.  1.
</event>
<event>
 5   0  0.1065675E-06  0.2776372E+04  0.7818609E-02  0.8310642E-01
        3   -1    0    0  501    0  0.00000000000E+00  0.00000000000E+00  0.23495209547E+04  0.23495209569E+04  0.10100000352E+00 0. -1.
       -3   -1    0    0    0  501  0.00000000000E+00  0.00000000000E+00 -0.82019295066E+03  0.82019295688E+03  0.10100000352E+00 0.  1.
    10030    2    1    2    0    0  0.00000000000E+00  0.00000000000E+00  0.15293280041E+04  0.31697139138E+04  0.27763721204E+04 0.  0.
        1    1    3    3  502    0  0.11786245416E+03 -0.36798876688E+03  0.22868864840E+04  0.23193009898E+04  0.50400001928E-02 0. -1.
       -1    1    3    3    0  502 -0.11786245416E+03  0.36798876688E+03 -0.75755847995E+03  0.85041292395E+03  0.50400001928E-02 0.  1.
</event>
<event>
 5   0  0.1263513E-06  0.2844991E+04  0.7818609E-02  0.8289435E-01
        1   -1    0    0  501    0  0.00000000000E+00  0.00000000000E+00  0.14988060761E+04  0.14988060761E+04  0.50400001928E-02 0.  1.
       -1   -1    0    0    0  501  0.00000000000E+00  0.00000000000E+00 -0.13500699969E+04  0.13500699969E+04  0.50400001928E-02 0. -1.
    10030    2    1    2    0    0  0.00000000000E+00  0.00000000000E+00  0.14873607914E+03  0.28488760730E+04  0.28449907659E+04 0.  0.
        3    1    3    3  502    0 -0.11097379554E+04  0.64443899068E+02  0.96317343479E+03  0.14708413992E+04  0.10100000352E+00 0.  1.
       -3    1    3    3    0  502  0.11097379554E+04 -0.64443899068E+02 -0.81443735566E+03  0.13780346738E+04  0.10100000352E+00 0. -1.
</event>
<event>
 5   0  0.1263513E-06  0.2775681E+04  0.7818609E-02  0.8310858E-01
       -1   -1    0    0    0  501  0.00000000000E+00  0.00000000000E+00  0.19215610728E+04  0.19215610728E+04  0.50400001928E-02 0. -1.
        1   -1    0    0  501    0  0.00000000000E+00  0.00000000000E+00 -0.10023630682E+04  0.10023630682E+04  0.50400001928E-02 0.  1.
    10030    2    1    2    0    0  0.00000000000E+00  0.00000000000E+00  0.91919800461E+03  0.29239241411E+04  0.27756814318E+04 0.  0.
        3    1    3    3  502    0 -0.12926247867E+03 -0.10747262058E+04 -0.45532461555E+03  0.11743362898E+04  0.10100000352E+00 0.  1.
       -3    1    3    3    0  502  0.12926247867E+03  0.10747262058E+04  0.13745226202E+04  0.17495878513E+04  0.10100000352E+00 0. -1.
</event>
<event>
 5   0  0.1235252E-06  0.2800239E+04  0.7818609E-02  0.8303194E-01
       -1   -1    0    0    0  501  0.00000000000E+00  0.00000000000E+00  0.25281928547E+04  0.25281928547E+04  0.50400001928E-02 0.  1.
        1   -1    0    0  501    0  0.00000000000E+00  0.00000000000E+00 -0.77538945779E+03  0.77538945781E+03  0.50400001928E-02 0. -1.
    10030    2    1    2    0    0  0.00000000000E+00  0.00000000000E+00  0.17528033969E+04  0.33035823125E+04  0.28002386233E+04 0.  0.
        1    1    3    3  502    0  0.14378740891E+03  0.49627013674E+03  0.24116078105E+04  0.24663355609E+04  0.50400001928E-02 0.  1.
       -1    1    3    3    0  502 -0.14378740891E+03 -0.49627013674E+03 -0.65880441359E+03  0.83724675155E+03  0.50400001928E-02 0. -1.
</event>
<event>
 5   0  0.3167616E-06  0.2807044E+04  0.7818609E-02  0.8301085E-01
       -2   -1    0    0    0  501  0.00000000000E+00  0.00000000000E+00  0.13932012098E+04  0.13932012098E+04  0.25500000920E-02 0. -1.
        2   -1    0    0  501    0  0.00000000000E+00  0.00000000000E+00 -0.14139193267E+04  0.14139193267E+04  0.25500000920E-02 0.  1.
    10030    2    1    2    0    0  0.00000000000E+00  0.00000000000E+00 -0.20718116931E+02  0.28071205365E+04  0.28070440799E+04 0.  0.
        3    1    3    3  502    0  0.89484119138E+03 -0.96222856123E+03  0.48285772520E+03  0.13999200530E+04  0.10100000352E+00 0. -1.
       -3    1    3    3    0  502 -0.89484119138E+03  0.96222856123E+03 -0.50357584213E+03  0.14072004835E+04  0.10100000352E+00 0.  1.
</event>
<event>
 5   0  0.3167616E-06  0.2808825E+04  0.7818609E-02  0.8300534E-01
       -2   -1    0    0    0  501  0.00000000000E+00  0.00000000000E+00  0.18818196690E+04  0.18818196690E+04  0.25500000920E-02 0. -1.
        2   -1    0    0  501    0  0.00000000000E+00  0.00000000000E+00 -0.10481205565E+04  0.10481205565E+04  0.25500000920E-02 0.  1.
    10030    2    1    2    0    0  0.00000000000E+00  0.00000000000E+00  0.83369911249E+03  0.29299402256E+04  0.28088245789E+04 0.  0.
        3    1    3    3  502    0  0.10917108125E+04  0.67831745260E+03 -0.17362142962E+03  0.12969546930E+04  0.10100000352E+00 0.  1.
       -3    1    3    3    0  502 -0.10917108125E+04 -0.67831745260E+03  0.10073205421E+04  0.16329855325E+04  0.10100000352E+00 0. -1.
</event>
<event>
 5   0  0.3226364E-06  0.2735443E+04  0.7818609E-02  0.8323596E-01
       -2   -1    0    0    0  501  0.00000000000E+00  0.00000000000E+00  0.16883041769E+04  0.16883041769E+04  0.25500000920E-02 0. -1.
        2   -1    0    0  501    0  0.00000000000E+00  0.00000000000E+00 -0.11080128683E+04  0.11080128683E+04  0.25500000920E-02 0.  1.
    10030    2    1    2    0    0  0.00000000000E+00  0.00000000000E+00  0.58029130856E+03  0.27963170452E+04  0.27354434767E+04 0.  0.
        5    1    3    3  502    0 -0.52905773834E+03  0.74646435993E+03 -0.74910452989E+03  0.11824934748E+04  0.46999998093E+01 0.  1.
       -5    1    3    3    0  502  0.52905773834E+03 -0.74646435993E+03  0.13293958384E+04  0.16138235704E+04  0.46999998093E+01 0. -1.
</event>
<event>
 5   0  0.1220265E-06  0.2792418E+04  0.7818609E-02  0.8305626E-01
       -1   -1    0    0    0  501  0.00000000000E+00  0.00000000000E+00  0.10368129769E+04  0.10368129769E+04  0.50400001928E-02 0.  1.
        1   -1    0    0  501    0  0.00000000000E+00  0.00000000000E+00 -0.18801841430E+04  0.18801841430E+04  0.50400001928E-02 0. -1.
    10030    2    1    2    0    0  0.00000000000E+00  0.00000000000E+00 -0.84337116603E+03  0.29169971199E+04  0.27924178187E+04 0.  0.
        4    1    3    3  502    0 -0.26397947732E+03  0.11548501879E+04  0.35022194683E+03  0.12353222842E+04  0.12699999809E+01 0.  1.
       -4    1    3    3    0  502  0.26397947732E+03 -0.11548501879E+04 -0.11935931129E+04  0.16816748357E+04  0.12699999809E+01 0. -1.
</event>
<event>
 5   0  0.1220265E-06  0.2803935E+04  0.7818609E-02  0.8302048E-01
        1   -1    0    0  501    0  0.00000000000E+00  0.00000000000E+00  0.11820955557E+04  0.11820955558E+04  0.50400001928E-02 0.  1.
       -1   -1    0    0    0  501  0.00000000000E+00  0.00000000000E+00 -0.16627359839E+04  0.16627359839E+04  0.50400001928E-02 0. -1.
    10030    2    1    2    0    0  0.00000000000E+00  0.00000000000E+00 -0.48064042820E+03  0.28448315397E+04  0.28039349615E+04 0.  0.
        4    1    3    3  502    0 -0.95173706655E+03  0.25953473663E+03  0.77037670497E+03  0.12516563441E+04  0.12699999809E+01 0.  1.
       -4    1    3    3    0  502  0.95173706655E+03 -0.25953473663E+03 -0.12510171332E+04  0.15931751956E+04  0.12699999809E+01 0. -1.
</event>
<event>
 5   0  0.3345919E-06  0.2781055E+04  0.7818609E-02  0.8309174E-01
       -2   -1    0    0    0  501  0.00000000000E+00  0.00000000000E+00  0.92542281896E+03  0.92542281896E+03  0.25500000920E-02 0.  1.
        2   -1    0    0  501    0  0.00000000000E+00  0.00000000000E+00 -0.20893872071E+04  0.20893872071E+04  0.25500000920E-02 0. -1.
    10030    2    1    2    0    0  0.00000000000E+00  0.00000000000E+00 -0.11639643882E+04  0.30148100261E+04  0.27810549071E+04 0.  0.
        2    1    3    3  502    0 -0.58082997468E+03  0.12634026119E+04 -0.58644922366E+03  0.15091296535E+04  0.25500000920E-02 0. -1.
       -2    1    3    3    0  502  0.58082997468E+03 -0.12634026119E+04 -0.57751516450E+03  0.15056803726E+04  0.25500000920E-02 0.  1.
</event>
<event>
 5   0  0.3167616E-06  0.2703198E+04  0.7818609E-02  0.8333968E-01
        2   -1    0    0  501    0  0.00000000000E+00  0.00000000000E+00  0.21951424657E+04  0.21951424657E+04  0.25500000920E-02 0. -1.
       -2   -1    0    0    0  501  0.00000000000E+00  0.00000000000E+00 -0.83221008925E+03  0.83221008925E+03  0.25500000920E-02 0.  1.
    10030    2    1    2    0    0  0.00000000000E+00  0.00000000000E+00  0.13629323764E+04  0.30273525549E+04  0.27031978894E+04 0.  0.
        3    1    3    3  502    0  0.11204443449E+04 -0.57989852130E+03  0.12245291032E+04  0.17581664767E+04  0.10100000352E+00 0. -1.
       -3    1    3    3    0  502 -0.11204443449E+04  0.57989852130E+03  0.13840327319E+03  0.12691860782E+04  0.10100000352E+00 0.  1.
</event>
<event>
 5   0  0.1235252E-06  0.2792286E+04  0.7818609E-02  0.8305667E-01
        1   -1    0    0  501    0  0.00000000000E+00  0.00000000000E+00  0.17299445030E+04  0.17299445031E+04  0.50400001928E-02 0.  1.
       -1   -1    0    0    0  501  0.00000000000E+00  0.00000000000E+00 -0.11267499767E+04  0.11267499767E+04  0.50400001928E-02 0. -1.
    10030    2    1    2    0    0  0.00000000000E+00  0.00000000000E+00  0.60319452639E+03  0.28566944797E+04  0.27922857507E+04 0.  0.
        1    1    3    3  502    0  0.73700152200E+03  0.54616268010E+03  0.13783718996E+04  0.16557095187E+04  0.50400001928E-02 0.  1.
       -1    1    3    3    0  502 -0.73700152200E+03 -0.54616268010E+03 -0.77517737326E+03  0.12009849610E+04  0.50400001928E-02 0. -1.
</event>
<event>
 5   0  0.3226364E-06  0.2800363E+04  0.7818609E-02  0.8303156E-01
        2   -1    0    0  501    0  0.00000000000E+00  0.00000000000E+00  0.13334072808E+04  0.13334072808E+04  0.25500000920E-02 0. -1.
       -2   -1    0    0    0  501  0.00000000000E+00  0.00000000000E+00 -0.14702996283E+04  0.14702996283E+04  0.25500000920E-02 0.  1.
    10030    2    1    2    0    0  0.00000000000E+00  0.00000000000E+00 -0.13689234752E+03  0.28037069091E+04  0.28003629974E+04 0.  0.
        5    1    3    3  502    0 -0.96734347017E+03  0.10110807103E+04 -0.11798805777E+03  0.14042723610E+04  0.46999998093E+01 0.  1.
       -5    1    3    3    0  502  0.96734347017E+03 -0.10110807103E+04 -0.18904289749E+02  0.13994345481E+04  0.46999998093E+01 0. -1.
</event>
<event>
 5   0  0.1220265E-06  0.2797153E+04  0.7818609E-02  0.8304153E-01
       -1   -1    0    0    0  501  0.00000000000E+00  0.00000000000E+00  0.11191958423E+04  0.11191958424E+04  0.50400001928E-02 0. -1.
        1   -1    0    0  501    0  0.00000000000E+00  0.00000000000E+00 -0.17476983047E+04  0.17476983047E+04  0.50400001928E-02 0.  1.
    10030    2    1    2    0    0  0.00000000000E+00  0.00000000000E+00 -0.62850246232E+03  0.28668941470E+04  0.27971533217E+04 0.  0.
        4    1    3    3  502    0  0.57484109374E+03 -0.12749699682E+04 -0.30919252343E+03  0.14323380649E+04  0.12699999809E+01 0.  1.
       -4    1    3    3    0  502 -0.57484109374E+03  0.12749699682E+04 -0.31930993889E+03  0.14345560821E+04  0.12699999809E+01 0. -1.
</event>
<event>
 5   0  0.1243055E-06  0.2788271E+04  0.7818609E-02  0.8306919E-01
       -1   -1    0    0    0  501  0.00000000000E+00  0.00000000000E+00  0.17753518632E+04  0.17753518632E+04  0.50400001928E-02 0. -1.
        1   -1    0    0  501    0  0.00000000000E+00  0.00000000000E+00 -0.10947768187E+04  0.10947768188E+04  0.50400001928E-02 0.  1.
    10030    2    1    2    0    0  0.00000000000E+00  0.00000000000E+00  0.68057504449E+03  0.28701286820E+04  0.27882711956E+04 0.  0.
        5    1    3    3  502    0 -0.76056080625E+03 -0.69453783324E+03  0.13074218579E+04  0.16643946486E+04  0.46999998093E+01 0. -1.
       -5    1    3    3    0  502  0.76056080625E+03  0.69453783324E+03 -0.62684681342E+03  0.12057340334E+04  0.46999998093E+01 0.  1.
</event>
<event>
 5   0  0.3345919E-06  0.2801549E+04  0.7818609E-02  0.8302788E-01
       -2   -1    0    0    0  501  0.00000000000E+00  0.00000000000E+00  0.11449128343E+04  0.11449128343E+04  0.25500000920E-02 0. -1.
        2   -1    0    0  501    0  0.00000000000E+00  0.00000000000E+00 -0.17138149870E+04  0.17138149870E+04  0.25500000920E-02 0.  1.
    10030    2    1    2    0    0  0.00000000000E+00  0.00000000000E+00 -0.56890215272E+03  0.28587278214E+04  0.28015486962E+04 0.  0.
        2    1    3    3  502    0  0.21955606905E+03  0.10998957135E+04 -0.11407405100E+04  0.15997700957E+04  0.25500000920E-02 0.  1.
       -2    1    3    3    0  502 -0.21955606905E+03 -0.10998957135E+04  0.57183835732E+03  0.12589577256E+04  0.25500000920E-02 0. -1.
</event>
<event>
 5   0  0.1235252E-06  0.2803020E+04  0.7818609E-02  0.8302332E-01
        1   -1    0    0  501    0  0.00000000000E+00  0.00000000000E+00  0.15302510551E+04  0.15302510551E+04  0.50400001928E-02 0.  1.
       -1   -1    0    0    0  501  0.00000000000E+00  0.00000000000E+00 -0.12835995775E+04  0.12835995775E+04  0.50400001928E-02 0. -1.
    10030    2    1    2    0    0  0.00000000000E+00  0.00000000000E+00  0.24665147765E+03  0.28138506326E+04  0.28030195203E+04 0.  0.
        1    1    3    3  502    0 -0.11988928231E+04  0.33423245358E+03  0.77015571013E+03  0.14636239791E+04  0.50400001928E-02 0.  1.
       -1    1    3    3    0  502  0.11988928231E+04 -0.33423245358E+03 -0.52350423248E+03  0.13502266535E+04  0.50400001928E-02 0. -1.
</event>
<event>
 5   0  0.1246044E-06  0.2793382E+04  0.7818609E-02  0.8305326E-01
       -1   -1    0    0    0  501  0.00000000000E+00  0.00000000000E+00  0.12705394206E+04  0.12705394206E+04  0.50400001928E-02 0.  1.
        1   -1    0    0  501    0  0.00000000000E+00  0.00000000000E+00 -0.15353684153E+04  0.15353684154E+04  0.50400001928E-02 0. -1.
    10030    2    1    2    0    0  0.00000000000E+00  0.00000000000E+00 -0.26482899480E+03  0.28059078359E+04  0.27933822487E+04 0.  0.
        2    1    3    3  502    0  0.22663715645E+03  0.11554158352E+04  0.62221708117E+03  0.13317297958E+04  0.25500000920E-02 0. -1.
       -2    1    3    3    0  502 -0.22663715645E+03 -0.11554158352E+04 -0.88704607596E+03  0.14741780401E+04  0.25500000920E-02 0.  1.
</event>
<event>
 5   0  0.3226364E-06  0.2777392E+04  0.7818609E-02  0.8310322E-01
       -2   -1    0    0    0  501  0.00000000000E+00  0.00000000000E+00  0.96814362040E+03  0.96814362041E+03  0.25500000920E-02 0. -1.
        2   -1    0    0  501    0  0.00000000000E+00  0.00000000000E+00 -0.19919327999E+04  0.19919327999E+04  0.25500000920E-02 0.  1.
    10030    2    1    2    0    0  0.00000000000E+00  0.00000000000E+00 -0.10237891795E+04  0.29600764203E+04  0.27773923255E+04 0.  0.
        5    1    3    3  502    0 -0.93643129279E+03 -0.71474439310E+03 -0.12955778956E+04  0.17510874585E+04  0.46999998093E+01 0.  1.
       -5    1    3    3    0  502  0.93643129279E+03  0.71474439310E+03  0.27178871614E+03  0.12089889618E+04  0.46999998093E+01 0. -1.
</event>
<event>
 5   0  0.3212679E-06  0.2974917E+04  0.7818609E-02  0.8250930E-01
        2   -1    0    0  501    0  0.00000000000E+00  0.00000000000E+00  0.26093061903E+04  0.26093061903E+04  0.25500000920E-02 0. -1.
       -2   -1    0    0    0  501  0.00000000000E+00  0.00000000000E+00 -0.84793902460E+03  0.84793902461E+03  0.25500000920E-02 0.  1.
    10030    2    1    2    0    0  0.00000000000E+00  0.00000000000E+00  0.17613671657E+04  0.34572452149E+04  0.29749168364E+04 0.  0.
        4    1    3    3  502    0  0.52025579206E+03 -0.57999308620E+03 -0.59182162461E+03  0.97842348575E+03  0.12699999809E+01 0.  1.
       -4    1    3    3    0  502 -0.52025579206E+03  0.57999308620E+03  0.23531887903E+04  0.24788217291E+04  0.12699999809E+01 0. -1.
</event>
<event>
 5   0  0.1246044E-06  0.2782466E+04  0.7818609E-02  0.8308733E-01
       -1   -1    0    0    0  501  0.00000000000E+00  0.00000000000E+00  0.10824035894E+04  0.10824035894E+04  0.50400001928E-02 0. -1.
        1   -1    0    0  501    0  0.00000000000E+00  0.00000000000E+00 -0.17881767123E+04  0.17881767123E+04  0.50400001928E-02 0.  1.
    10030    2    1    2    0    0  0.00000000000E+00  0.00000000000E+00 -0.70577312289E+03  0.28705803017E+04  0.27824657352E+04 0.  0.
        2    1    3    3  502    0 -0.12652122377E+03 -0.95722630028E+03  0.68045071531E+03  0.11812294383E+04  0.25500000920E-02 0. -1.
       -2    1    3    3    0  502  0.12652122377E+03  0.95722630028E+03 -0.13862238382E+04  0.16893508634E+04  0.25500000920E-02 0.  1.
</event>
<event>
 5   0  0.1263513E-06  0.2787384E+04  0.7818609E-02  0.8307196E-01
       -1   -1    0    0    0  501  0.00000000000E+00  0.00000000000E+00  0.12252610796E+04  0.12252610796E+04  0.50400001928E-02 0. -1.
        1   -1    0    0  501    0  0.00000000000E+00  0.00000000000E+00 -0.15852766419E+04  0.15852766419E+04  0.50400001928E-02 0.  1.
    10030    2    1    2    0    0  0.00000000000E+00  0.00000000000E+00 -0.36001556233E+03  0.28105377216E+04  0.27873842719E+04 0.  0.
        3    1    3    3  502    0  0.18888339188E+03 -0.33871017018E+02  0.12118765808E+04  0.12269755657E+04  0.10100000352E+00 0. -1.
       -3    1    3    3    0  502 -0.18888339188E+03  0.33871017018E+02 -0.15718921431E+04  0.15835621558E+04  0.10100000352E+00 0.  1.
</event>
<event>
 5   0  0.1246044E-06  0.2806536E+04  0.7818609E-02  0.8301242E-01
        1   -1    0    0  501    0  0.00000000000E+00  0.00000000000E+00  0.32996159546E+04  0.32996159546E+04  0.50400001928E-02 0. -1.
       -1   -1    0    0    0  501  0.00000000000E+00  0.00000000000E+00 -0.59678491938E+03  0.59678491940E+03  0.50400001928E-02 0.  1.
    10030    2    1    2    0    0  0.00000000000E+00  0.00000000000E+00  0.27028310352E+04  0.38964008740E+04  0.28065359727E+04 0.  0.
        2    1    3    3  502    0 -0.46315395695E+03  0.17777667654E+03 -0.47097445517E+03  0.68405633685E+03  0.25500000920E-02 0.  1.
       -2    1    3    3    0  502  0.46315395695E+03 -0.17777667654E+03  0.31738054904E+04  0.32123445371E+04  0.25500000920E-02 0. -1.
</event>
<event>
 5   0  0.3167616E-06  0.2794637E+04  0.7818609E-02  0.8304935E-01
       -2   -1    0    0    0  501  0.00000000000E+00  0.00000000000E+00  0.13003260012E+04  0.13003260012E+04  0.25500000920E-02 0.  1.
        2   -1    0    0  501    0  0.00000000000E+00  0.00000000000E+00 -0.15015462566E+04  0.15015462566E+04  0.25500000920E-02 0. -1.
    10030    2    1    2    0    0  0.00000000000E+00  0.00000000000E+00 -0.20122025542E+03  0.28018722579E+04  0.27946374645E+04 0.  0.
        3    1    3    3  502    0  0.10737584965E+04  0.44682405864E+03 -0.87714126705E+03  0.14567037656E+04  0.10100000352E+00 0. -1.
       -3    1    3    3    0  502 -0.10737584965E+04 -0.44682405864E+03  0.67592101163E+03  0.13451684922E+04  0.10100000352E+00 0.  1.
</event>
<event>
 5   0  0.1065675E-06  0.2793426E+04  0.7818609E-02  0.8305312E-01
        3   -1    0    0  501    0  0.00000000000E+00  0.00000000000E+00  0.96136923484E+03  0.96136924015E+03  0.10100000352E+00 0.  1.
       -3   -1    0    0    0  501  0.00000000000E+00  0.00000000000E+00 -0.20291967381E+04  0.20291967406E+04  0.10100000352E+00 0. -1.
    10030    2    1    2    0    0  0.00000000000E+00  0.00000000000E+00 -0.10678275033E+04  0.29905659808E+04  0.27934260879E+04 0.  0.
        3    1    3    3  502    0  0.62223816561E+02 -0.13757403362E+04 -0.28450465865E+03  0.14062276441E+04  0.10100000352E+00 0. -1.
       -3    1    3    3    0  502 -0.62223816561E+02  0.13757403362E+04 -0.78332284461E+03  0.15843383367E+04  0.10100000352E+00 0.  1.
</event>
<event>
 5   0  0.1220265E-06  0.2797878E+04  0.7818609E-02  0.8303927E-01
        1   -1    0    0  501    0  0.00000000000E+00  0.00000000000E+00  0.17855614526E+04  0.17855614526E+04  0.50400001928E-02 0.  1.
       -1   -1    0    0    0  501  0.00000000000E+00  0.00000000000E+00 -0.10960310054E+04  0.10960310054E+04  0.50400001928E-02 0. -1.
    10030    2    1    2    0    0  0.00000000000E+00  0.00000000000E+00  0.68953044714E+03  0.28815924580E+04  0.27978782776E+04 0.  0.
        4    1    3    3  502    0  0.10985441331E+04  0.39441596142E+03  0.11389842265E+04  0.16308432923E+04  0.12699999809E+01 0.  1.
       -4    1    3    3    0  502 -0.10985441331E+04 -0.39441596142E+03 -0.44945377932E+03  0.12507491657E+04  0.12699999809E+01 0. -1.
</event>
<event>
 5   0  0.1263513E-06  0.2796304E+04  0.7818609E-02  0.8304417E-01
        1   -1    0    0  501    0  0.00000000000E+00  0.00000000000E+00  0.18058171326E+04  0.18058171326E+04  0.50400001928E-02 0. -1.
       -1   -1    0    0    0  501  0.00000000000E+00  0.00000000000E+00 -0.10825177586E+04  0.10825177587E+04  0.50400001928E-02 0.  1.
    10030    2    1    2    0    0  0.00000000000E+00  0.00000000000E+00  0.72329937400E+03  0.28883348913E+04  0.27963040714E+04 0.  0.
        3    1    3    3  502    0 -0.15805699900E+03 -0.13056593070E+04  0.85171248172E+03  0.15668894034E+04  0.10100000352E+00 0.  1.
       -3    1    3    3    0  502  0.15805699900E+03  0.13056593070E+04 -0.12841310772E+03  0.13214454878E+04  0.10100000352E+00 0. -1.
</event>
<event>
 5   0  0.3162695E-06  0.2800137E+04  0.7818609E-02  0.8303226E-01
        2   -1    0    0  501    0  0.00000000000E+00  0.00000000000E+00  0.21443581561E+04  0.21443581561E+04  0.25500000920E-02 0. -1.
       -2   -1    0    0    0  501  0.00000000000E+00  0.00000000000E+00 -0.91411591444E+03  0.91411591444E+03  0.25500000920E-02 0.  1.
    10030    2    1    2    0    0  0.00000000000E+00  0.00000000000E+00  0.12302422417E+04  0.30584740706E+04  0.28001370800E+04 0.  0.
        1    1    3    3  502    0  0.31080883068E+03 -0.68162443329E+03 -0.67678495361E+03  0.10095800467E+04  0.50400001928E-02 0.  1.
       -1    1    3    3    0  502 -0.31080883068E+03  0.68162443329E+03  0.19070271953E+04  0.20488940238E+04  0.50400001928E-02 0. -1.
</event>
<event>
 5   0  0.1235252E-06  0.2804566E+04  0.7818609E-02  0.8301852E-01
        1   -1    0    0  501    0  0.00000000000E+00  0.00000000000E+00  0.12057551666E+04  0.12057551666E+04  0.50400001928E-02 0. -1.
       -1   -1    0    0    0  501  0.00000000000E+00  0.00000000000E+00 -0.16308426466E+04  0.16308426466E+04  0.50400001928E-02 0.  1.
    10030    2    1    2    0    0  0.00000000000E+00  0.00000000000E+00 -0.42508748005E+03  0.28365978132E+04  0.28045655257E+04 0.  0.
        1    1    3    3  502    0  0.13044679912E+04 -0.34775500567E+03  0.17103265621E+03  0.13608168332E+04  0.50400001928E-02 0. -1.
       -1    1    3    3    0  502 -0.13044679912E+04  0.34775500567E+03 -0.59612013626E+03  0.14757809800E+04  0.50400001928E-02 0.  1.
</event>
<event>
 5   0  0.3167616E-06  0.2803267E+04  0.7818609E-02  0.8302255E-01
        2   -1    0    0  501    0  0.00000000000E+00  0.00000000000E+00  0.18824846826E+04  0.18824846826E+04  0.25500000920E-02 0.  1.
       -2   -1    0    0    0  501  0.00000000000E+00  0.00000000000E+00 -0.10436081719E+04  0.10436081719E+04  0.25500000920E-02 0. -1.
    10030    2    1    2    0    0  0.00000000000E+00  0.00000000000E+00  0.83887651070E+03  0.29260928546E+04  0.28032669501E+04 0.  0.
        3    1    3    3  502    0 -0.82980637772E+03  0.25216547644E+03 -0.72990158678E+03  0.11335441714E+04  0.10100000352E+00 0. -1.
       -3    1    3    3    0  502  0.82980637772E+03 -0.25216547644E+03  0.15687780975E+04  0.17925486831E+04  0.10100000352E+00 0.  1.
</event>
<event>
 5   0  0.3167616E-06  0.2790506E+04  0.7818609E-02  0.8306222E-01
        2   -1    0    0  501    0  0.00000000000E+00  0.00000000000E+00  0.10354309174E+04  0.10354309174E+04  0.25500000920E-02 0.  1.
       -2   -1    0    0    0  501  0.00000000000E+00  0.00000000000E+00 -0.18801171109E+04  0.18801171109E+04  0.25500000920E-02 0. -1.
    10030    2    1    2    0    0  0.00000000000E+00  0.00000000000E+00 -0.84468619351E+03  0.29155480284E+04  0.27905063233E+04 0.  0.
        3    1    3    3  502    0 -0.76839947375E+03 -0.43012664377E+02  0.79361229061E+03  0.11054900807E+04  0.10100000352E+00 0.  1.
       -3    1    3    3    0  502  0.76839947375E+03  0.43012664377E+02 -0.16382984841E+04  0.18100579476E+04  0.10100000352E+00 0. -1.
</event>
<event>
 5   0  0.3212679E-06  0.2803194E+04  0.7818609E-02  0.8302277E-01
       -2   -1    0    0    0  501  0.00000000000E+00  0.00000000000E+00  0.15876215966E+04  0.15876215966E+04  0.25500000920E-02 0. -1.
        2   -1    0    0  501    0  0.00000000000E+00  0.00000000000E+00 -0.12373696950E+04  0.12373696950E+04  0.25500000920E-02 0.  1.
    10030    2    1    2    0    0  0.00000000000E+00  0.00000000000E+00  0.35025190164E+03  0.28249912916E+04  0.28031944997E+04 0.  0.
        4    1    3    3  502    0 -0.10173994025E+04  0.62491258147E+03 -0.56465002941E+03  0.13207757369E+04  0.12699999809E+01 0.  1.
       -4    1    3    3    0  502  0.10173994025E+04 -0.62491258147E+03  0.91490193104E+03  0.15042155547E+04  0.12699999809E+01 0. -1.
</event>
<event>
 5   0  0.1243055E-06  0.2800343E+04  0.7818609E-02  0.8303162E-01
       -1   -1    0    0    0  501  0.00000000000E+00  0.00000000000E+00  0.20834325801E+04  0.20834325801E+04  0.50400001928E-02 0. -1.
        1   -1    0    0  501    0  0.00000000000E+00  0.00000000000E+00 -0.94098600411E+03  0.94098600412E+03  0.50400001928E-02 0.  1.
    10030    2    1    2    0    0  0.00000000000E+00  0.00000000000E+00  0.11424465760E+04  0.30244185842E+04  0.28003434778E+04 0.  0.
        5    1    3    3  502    0 -0.91514968012E+03  0.84541474041E+03 -0.11883387480E+03  0.12515464834E+04  0.46999998093E+01 0.  1.
       -5    1    3    3    0  502  0.91514968012E+03 -0.84541474041E+03  0.12612804508E+04  0.17728721008E+04  0.46999998093E+01 0. -1.
</event>
<event>
 5   0  0.3212679E-06  0.2810122E+04  0.7818609E-02  0.8300133E-01
        2   -1    0    0  501    0  0.00000000000E+00  0.00000000000E+00  0.19595361874E+04  0.19595361874E+04  0.25500000920E-02 0. -1.
       -2   -1    0    0    0  501  0.00000000000E+00  0.00000000000E+00 -0.10074814742E+04  0.10074814742E+04  0.25500000920E-02 0.  1.
    10030    2    1    2    0    0  0.00000000000E+00  0.00000000000E+00  0.95205471317E+03  0.29670176616E+04  0.28101219951E+04 0.  0.
        4    1    3    3  502    0 -0.18627145166E+03  0.13920038770E+04  0.52110715089E+03  0.14979740061E+04  0.12699999809E+01 0. -1.
       -4    1    3    3    0  502  0.18627145166E+03 -0.13920038770E+04  0.43094756228E+03  0.14690436555E+04  0.12699999809E+01 0.  1.
</event>
<event>
 5   0  0.1243055E-06  0.2743681E+04  0.7818609E-02  0.8320970E-01
       -1   -1    0    0    0  501  0.00000000000E+00  0.00000000000E+00  0.76074284330E+03  0.76074284332E+03  0.50400001928E-02 0. -1.
        1   -1    0    0  501    0  0.00000000000E+00  0.00000000000E+00 -0.24738270487E+04  0.24738270487E+04  0.50400001928E-02 0.  1.
    10030    2    1    2    0    0  0.00000000000E+00  0.00000000000E+00 -0.17130842054E+04  0.32345698920E+04  0.27436809019E+04 0.  0.
        5    1    3    3  502    0 -0.99841934013E+03  0.77010128344E+03 -0.14936227589E+04  0.19546938894E+04  0.46999998093E+01 0.  1.
       -5    1    3    3    0  502  0.99841934013E+03 -0.77010128344E+03 -0.21946144652E+03  0.12798760026E+04  0.46999998093E+01 0. -1.
</event>
<event>
 5   0  0.3162695E-06  0.2807598E+04  0.7818609E-02  0.8300913E-01
        2   -1    0    0  501    0  0.00000000000E+00  0.00000000000E+00  0.12425836919E+04  0.12425836919E+04  0.25500000920E-02 0.  1.
       -2   -1    0    0    0  501  0.00000000000E+00  0.00000000000E+00 -0.15859311744E+04  0.15859311744E+04  0.25500000920E-02 0. -1.
    10030    2    1    2    0    0  0.00000000000E+00  0.00000000000E+00 -0.34334748257E+03  0.28285148663E+04  0.28075984141E+04 0.  0.
        1    1    3    3  502    0  0.16188013028E+03  0.64683863986E+03 -0.14162095733E+04  0.15653290255E+04  0.50400001928E-02 0. -1.
       -1    1    3    3    0  502 -0.16188013028E+03 -0.64683863986E+03  0.10728620907E+04  0.12631858408E+04  0.50400001928E-02 0.  1.
</event>
<event>
 5   0  0.1246044E-06  0.2797311E+04  0.7818609E-02  0.8304104E-01
       -1   -1    0    0    0  501  0.00000000000E+00  0.00000000000E+00  0.78296250962E+03  0.78296250964E+03  0.50400001928E-02 0.  1.
        1   -1    0    0  501    0  0.00000000000E+00  0.00000000000E+00 -0.24985066043E+04  0.24985066043E+04  0.50400001928E-02 0. -1.
    10030    2    1    2    0    0  0.00000000000E+00  0.00000000000E+00 -0.17155440946E+04  0.32814691139E+04  0.27973108524E+04 0.  0.
        2    1    3    3  502    0  0.13662203126E+04 -0.10267454261E+02 -0.12088614311E+04  0.18242832354E+04  0.25500000920E-02 0. -1.
       -2    1    3    3    0  502 -0.13662203126E+04  0.10267454261E+02 -0.50668266348E+03  0.14571858785E+04  0.25500000920E-02 0.  1.
</event>
<event>
 5   0  0.3226364E-06  0.2807475E+04  0.7818609E-02  0.8300952E-01
        2   -1    0    0  501    0  0.00000000000E+00  0.00000000000E+00  0.16957578882E+04  0.16957578882E+04  0.25500000920E-02 0.  1.
       -2   -1    0    0    0  501  0.00000000000E+00  0.00000000000E+00 -0.11620046349E+04  0.11620046349E+04  0.25500000920E-02 0. -1.
    10030    2    1    2    0    0  0.00000000000E+00  0.00000000000E+00  0.53375325337E+03  0.28577625231E+04  0.28074746843E+04 0.  0.
        5    1    3    3  502    0 -0.48813467124E+03  0.71716084264E+03 -0.85645814847E+03  0.12190725087E+04  0.46999998093E+01 0. -1.
       -5    1    3    3    0  502  0.48813467124E+03 -0.71716084264E+03  0.13902114018E+04  0.16386900144E+04  0.46999998093E+01 0.  1.
</event>
<event>
 5   0  0.1263513E-06  0.2800098E+04  0.7818609E-02  0.8303238E-01
        1   -1    0    0  501    0  0.00000000000E+00  0.00000000000E+00  0.15921609177E+04  0.15921609178E+04  0.50400001928E-02 0. -1.
       -1   -1    0    0    0  501  0.00000000000E+00  0.00000000000E+00 -0.12311179586E+04  0.12311179586E+04  0.50400001928E-02 0.  1.
    10030    2    1    2    0    0  0.00000000000E+00  0.00000000000E+00  0.36104295916E+03  0.28232788763E+04  0.28000984974E+04 0.  0.
        3    1    3    3  502    0 -0.97137025244E+03  0.80252863952E+03  0.79592287367E+03  0.14903374167E+04  0.10100000352E+00 0.  1.
       -3    1    3    3    0  502  0.97137025244E+03 -0.80252863952E+03 -0.43487991451E+03  0.13329414596E+04  0.10100000352E+00 0. -1.
</event>
<event>
 5   0  0.1263513E-06  0.2799822E+04  0.7818609E-02  0.8303323E-01
        1   -1    0    0  501    0  0.00000000000E+00  0.00000000000E+00  0.87540498240E+03  0.87540498242E+03  0.50400001928E-02 0. -1.
       -1   -1    0    0    0  501  0.00000000000E+00  0.00000000000E+00 -0.22386798264E+04  0.22386798264E+04  0.50400001928E-02 0.  1.
    10030    2    1    2    0    0  0.00000000000E+00  0.00000000000E+00 -0.13632748440E+04  0.31140848088E+04  0.27998224759E+04 0.  0.
        3    1    3    3  502    0 -0.99348287612E+03 -0.26656186141E+02  0.41494271496E+03  0.10769847930E+04  0.10100000352E+00 0. -1.
       -3    1    3    3    0  502  0.99348287612E+03  0.26656186141E+02 -0.17782175590E+04  0.20371000159E+04  0.10100000352E+00 0.  1.
</event>
<event>
 5   0  0.1263513E-06  0.2798070E+04  0.7818609E-02  0.8303868E-01
       -1   -1    0    0    0  501  0.00000000000E+00  0.00000000000E+00  0.18364422225E+04  0.18364422225E+04  0.50400001928E-02 0. -1.
        1   -1    0    0  501    0  0.00000000000E+00  0.00000000000E+00 -0.10658105104E+04  0.10658105104E+04  0.50400001928E-02 0.  1.
    10030    2    1    2    0    0  0.00000000000E+00  0.00000000000E+00  0.77063171212E+03  0.29022527329E+04  0.27980703511E+04 0.  0.
        3    1    3    3  502    0 -0.33360298115E+03 -0.13315200374E+04  0.66568157703E+03  0.15255715425E+04  0.10100000352E+00 0. -1.
       -3    1    3    3    0  502  0.33360298115E+03  0.13315200374E+04  0.10495013510E+03  0.13766811904E+04  0.10100000352E+00 0.  1.
</event>
<event>
 5   0  0.1246044E-06  0.2795710E+04  0.7818609E-02  0.8304601E-01
       -1   -1    0    0    0  501  0.00000000000E+00  0.00000000000E+00  0.87389854955E+03  0.87389854957E+03  0.50400001928E-02 0. -1.
        1   -1    0    0  501    0  0.00000000000E+00  0.00000000000E+00 -0.22359566572E+04  0.22359566572E+04  0.50400001928E-02 0.  1.
    10030    2    1    2    0    0  0.00000000000E+00  0.00000000000E+00 -0.13620581077E+04  0.31098552068E+04  0.27957104855E+04 0.  0.
        2    1    3    3  502    0 -0.13372155755E+04  0.37342475549E+03 -0.86179372714E+03  0.16340991315E+04  0.25500000920E-02 0.  1.
       -2    1    3    3    0  502  0.13372155755E+04 -0.37342475549E+03 -0.50026438052E+03  0.14757560753E+04  0.25500000920E-02 0. -1.
</event>
<event>
 5   0  0.1243055E-06  0.2794548E+04  0.7818609E-02  0.8304963E-01
        1   -1    0    0  501    0  0.00000000000E+00  0.00000000000E+00  0.78768432840E+03  0.78768432841E+03  0.50400001928E-02 0.  1.
       -1   -1    0    0    0  501  0.00000000000E+00  0.00000000000E+00 -0.24786254773E+04  0.24786254773E+04  0.50400001928E-02 0. -1.
    10030    2    1    2    0    0  0.00000000000E+00  0.00000000000E+00 -0.16909411489E+04  0.32663098057E+04  0.27945478664E+04 0.  0.
        5    1    3    3  502    0 -0.50545815162E+03 -0.28478297411E+03  0.64024152616E+03  0.86401422859E+03  0.46999998093E+01 0.  1.
       -5    1    3    3    0  502  0.50545815162E+03  0.28478297411E+03 -0.23311826750E+04  0.24022955771E+04  0.46999998093E+01 0. -1.
</event>
<event>
 5   0  0.3226364E-06  0.2807546E+04  0.7818609E-02  0.8300929E-01
       -2   -1    0    0    0  501  0.00000000000E+00  0.00000000000E+00  0.14321804481E+04  0.14321804481E+04  0.25500000920E-02 0.  1.
        2   -1    0    0  501    0  0.00000000000E+00  0.00000000000E+00 -0.13759289836E+04  0.13759289836E+04  0.25500000920E-02 0. -1.
    10030    2    1    2    0    0  0.00000000000E+00  0.00000000000E+00  0.56251464452E+02  0.28081094317E+04  0.28075459664E+04 0.  0.
        5    1    3    3  502    0  0.77062545665E+03  0.10944932466E+04 -0.39477993611E+03  0.13955831574E+04  0.46999998093E+01 0. -1.
       -5    1    3    3    0  502 -0.77062545665E+03 -0.10944932466E+04  0.45103140056E+03  0.14125262743E+04  0.46999998093E+01 0.  1.
</event>
<event>
 5   0  0.1065675E-06  0.2800054E+04  0.7818609E-02  0.8303252E-01
        3   -1    0    0  501    0  0.00000000000E+00  0.00000000000E+00  0.13078438319E+04  0.13078438358E+04  0.10100000352E+00 0.  1.
       -3   -1    0    0    0  501  0.00000000000E+00  0.00000000000E+00 -0.14987073791E+04  0.14987073825E+04  0.10100000352E+00 0. -1.
    10030    2    1    2    0    0  0.00000000000E+00  0.00000000000E+00 -0.19086354725E+03  0.28065512183E+04  0.28000537222E+04 0.  0.
        1    1    3    3  502    0 -0.10405459719E+04  0.64556596856E+03 -0.77566990303E+03  0.14495361803E+04  0.50400001928E-02 0. -1.
       -1    1    3    3    0  502  0.10405459719E+04 -0.64556596856E+03  0.58480635578E+03  0.13570150380E+04  0.50400001928E-02 0.  1.
</event>
<event>
 5   0  0.3162695E-06  0.2790099E+04  0.7818609E-02  0.8306349E-01
        2   -1    0    0  501    0  0.00000000000E+00  0.00000000000E+00  0.12333982175E+04  0.12333982175E+04  0.25500000920E-02 0.  1.
       -2   -1    0    0    0  501  0.00000000000E+00  0.00000000000E+00 -0.15778870954E+04  0.15778870954E+04  0.25500000920E-02 0. -1.
    10030    2    1    2    0    0  0.00000000000E+00  0.00000000000E+00 -0.34448887790E+03  0.28112853129E+04  0.27900990168E+04 0.  0.
        1    1    3    3  502    0  0.11955726810E+04 -0.19323572513E+03 -0.86991031323E+03  0.14911331377E+04  0.50400001928E-02 0. -1.
       -1    1    3    3    0  502 -0.11955726810E+04  0.19323572513E+03  0.52542143532E+03  0.13201521753E+04  0.50400001928E-02 0.  1.
</event>
<event>
 5   0  0.1235252E-06  0.2805411E+04  0.7818609E-02  0.8301590E-01
        1   -1    0    0  501    0  0.00000000000E+00  0.00000000000E+00  0.15390077989E+04  0.15390077989E+04  0.50400001928E-02 0.  1.
       -1   -1    0    0    0  501  0.00000000000E+00  0.00000000000E+00 -0.12784750332E+04  0.12784750332E+04  0.50400001928E-02 0. -1.
    10030    2    1    2    0    0  0.00000000000E+00  0.00000000000E+00  0.26053276572E+03  0.28174828321E+04  0.28054112332E+04 0.  0.
        1    1    3    3  502    0  0.13943944452E+04 -0.38118083607E+02 -0.17997411608E+02  0.13950314563E+04  0.50400001928E-02 0.  1.
       -1    1    3    3    0  502 -0.13943944452E+04  0.38118083607E+02  0.27853017733E+03  0.14224513759E+04  0.50400001928E-02 0. -1.
</event>
<event>
 5   0  0.3212679E-06  0.2791384E+04  0.7818609E-02  0.8305948E-01
       -2   -1    0    0    0  501  0.00000000000E+00  0.00000000000E+00  0.99422915860E+03  0.99422915860E+03  0.25500000920E-02 0.  1.
        2   -1    0    0  501    0  0.00000000000E+00  0.00000000000E+00 -0.19592627947E+04  0.19592627947E+04  0.25500000920E-02 0. -1.
    10030    2    1    2    0    0  0.00000000000E+00  0.00000000000E+00 -0.96503363610E+03  0.29534919533E+04  0.27913840294E+04 0.  0.
        4    1    3    3  502    0  0.11586800823E+04  0.37970385117E+03  0.23607075555E+03  0.12419523188E+04  0.12699999809E+01 0.  1.
       -4    1    3    3    0  502 -0.11586800823E+04 -0.37970385117E+03 -0.12011043916E+04  0.17115396345E+04  0.12699999809E+01 0. -1.
</event>
<event>
 5   0  0.3167616E-06  0.2797838E+04  0.7818609E-02  0.8303940E-01
        2   -1    0    0  501    0  0.00000000000E+00  0.00000000000E+00  0.18588719109E+04  0.18588719109E+04  0.25500000920E-02 0. -1.
       -2   -1    0    0    0  501  0.00000000000E+00  0.00000000000E+00 -0.10527754875E+04  0.10527754876E+04  0.25500000920E-02 0.  1.
    10030    2    1    2    0    0  0.00000000000E+00  0.00000000000E+00  0.80609642335E+03  0.29116473985E+04  0.27978382958E+04 0.  0.
        3    1    3    3  502    0  0.12017455061E+04  0.69827812083E+03  0.23787798060E+03  0.14100959327E+04  0.10100000352E+00 0.  1.
       -3    1    3    3    0  502 -0.12017455061E+04 -0.69827812083E+03  0.56821844275E+03  0.15015514658E+04  0.10100000352E+00 0. -1.
</event>
<event>
 5   0  0.1263513E-06  0.2864144E+04  0.7818609E-02  0.8283626E-01
       -1   -1    0    0    0  501  0.00000000000E+00  0.00000000000E+00  0.19032923451E+04  0.19032923451E+04  0.50400001928E-02 0.  1.
        1   -1    0    0  501    0  0.00000000000E+00  0.00000000000E+00 -0.10775173392E+04  0.10775173393E+04  0.50400001928E-02 0. -1.
    10030    2    1    2    0    0  0.00000000000E+00  0.00000000000E+00  0.82577500587E+03  0.29808096844E+04  0.28641442028E+04 0.  0.
        3    1    3    3  502    0 -0.58285775232E+03 -0.35151398256E+03  0.17241886034E+04  0.18536751575E+04  0.10100000352E+00 0.  1.
       -3    1    3    3    0  502  0.58285775232E+03  0.35151398256E+03 -0.89841359748E+03  0.11271345269E+04  0.10100000352E+00 0. -1.
</event>
<event>
 5   0  0.1243055E-06  0.2808903E+04  0.7818609E-02  0.8300510E-01
        1   -1    0    0  501    0  0.00000000000E+00  0.00000000000E+00  0.17760137171E+04  0.17760137171E+04  0.50400001928E-02 0. -1.
       -1   -1    0    0    0  501  0.00000000000E+00  0.00000000000E+00 -0.11106244914E+04  0.11106244914E+04  0.50400001928E-02 0.  1.
    10030    2    1    2    0    0  0.00000000000E+00  0.00000000000E+00  0.66538922568E+03  0.28866382085E+04  0.28089032246E+04 0.  0.
        5    1    3    3  502    0 -0.57078585820E+03 -0.92339446295E+03 -0.58303683869E+03  0.12322369396E+04  0.46999998093E+01 0.  1.
       -5    1    3    3    0  502  0.57078585820E+03  0.92339446295E+03  0.12484260644E+04  0.16544012688E+04  0.46999998093E+01 0. -1.
</event>
<event>
 5   0  0.1220265E-06  0.2796417E+04  0.7818609E-02  0.8304382E-01
       -1   -1    0    0    0  501  0.00000000000E+00  0.00000000000E+00  0.10208205234E+04  0.10208205234E+04  0.50400001928E-02 0. -1.
        1   -1    0    0  501    0  0.00000000000E+00  0.00000000000E+00 -0.19151131473E+04  0.19151131473E+04  0.50400001928E-02 0.  1.
    10030    2    1    2    0    0  0.00000000000E+00  0.00000000000E+00 -0.89429262385E+03  0.29359336707E+04  0.27964168540E+04 0.  0.
        4    1    3    3  502    0 -0.11292069847E+04 -0.50742567984E+03  0.23519898950E+03  0.12601227767E+04  0.12699999809E+01 0.  1.
       -4    1    3    3    0  502  0.11292069847E+04  0.50742567984E+03 -0.11294916133E+04  0.16758108940E+04  0.12699999809E+01 0. -1.
</event>
<event>
 5   0  0.3226364E-06  0.2805810E+04  0.7818609E-02  0.8301467E-01
       -2   -1    0    0    0  501  0.00000000000E+00  0.00000000000E+00  0.13433758518E+04  0.13433758518E+04  0.25500000920E-02 0.  1.
        2   -1    0    0  501    0  0.00000000000E+00  0.00000000000E+00 -0.14650720415E+04  0.14650720415E+04  0.25500000920E-02 0. -1.
    10030    2    1    2    0    0  0.00000000000E+00  0.00000000000E+00 -0.12169618968E+03  0.28084478932E+04  0.28058099733E+04 0.  0.
        5    1    3    3  502    0  0.51685329769E+03  0.12538412901E+04 -0.42016330690E+03  0.14197938606E+04  0.46999998093E+01 0.  1.
       -5    1    3    3    0  502 -0.51685329769E+03 -0.12538412901E+04  0.29846711722E+03  0.13886540326E+04  0.46999998093E+01 0. -1.
</event>
<event>
 5   0  0.3345919E-06  0.2806900E+04  0.7818609E-02  0.8301129E-01
        2   -1    0    0  501    0  0.00000000000E+00  0.00000000000E+00  0.14557835486E+04  0.14557835486E+04  0.25500000920E-02 0.  1.
       -2   -1    0    0    0  501  0.00000000000E+00  0.00000000000E+00 -0.13529981786E+04  0.13529981786E+04  0.25500000920E-02 0. -1.
    10030    2    1    2    0    0  0.00000000000E+00  0.00000000000E+00  0.10278537001E+03  0.28087817271E+04  0.28069004183E+04 0.  0.
        2    1    3    3  502    0  0.55019180421E+02  0.13768353456E+04  0.31797283539E+03  0.14141461746E+04  0.25500000920E-02 0. -1.
       -2    1    3    3    0  502 -0.55019180421E+02 -0.13768353456E+04 -0.21518746538E+03  0.13946355525E+04  0.25500000920E-02 0.  1.
</event>
<event>
 5   0  0.3167616E-06  0.2807947E+04  0.7818609E-02  0.8300805E-01
        2   -1    0    0  501    0  0.00000000000E+00  0.00000000000E+00  0.13930554235E+04  0.13930554235E+04  0.25500000920E-02 0. -1.
       -2   -1    0    0    0  501  0.00000000000E+00  0.00000000000E+00 -0.14149773288E+04  0.14149773288E+04  0.25500000920E-02 0.  1.
    10030    2    1    2    0    0  0.00000000000E+00  0.00000000000E+00 -0.21921905337E+02  0.28080327523E+04  0.28079471804E+04 0.  0.
        3    1    3    3  502    0  0.82516771558E+03  0.11246199514E+04 -0.17055916784E+03  0.14052623363E+04  0.10100000352E+00 0.  1.
       -3    1    3    3    0  502 -0.82516771558E+03 -0.11246199514E+04  0.14863726250E+03  0.14027704160E+04  0.10100000352E+00 0. -1.
</event>
<event>
 5   0  0.3345919E-06  0.2774190E+04  0.7818609E-02  0.8311326E-01
       -2   -1    0    0    0  501  0.00000000000E+00  0.00000000000E+00  0.11591348956E+04  0.11591348956E+04  0.25500000920E-02 0. -1.
        2   -1    0    0  501    0  0.00000000000E+00  0.00000000000E+00 -0.16598863533E+04  0.16598863533E+04  0.25500000920E-02 0.  1.
    10030    2    1    2    0    0  0.00000000000E+00  0.00000000000E+00 -0.50075145769E+03  0.28190212490E+04  0.27741897519E+04 0.  0.
        2    1    3    3  502    0  0.61952833652E+03 -0.12369674386E+04 -0.35264199889E+03  0.14276764981E+04  0.25500000920E-02 0.  1.
       -2    1    3    3    0  502 -0.61952833652E+03  0.12369674386E+04 -0.14810945880E+03  0.13913447508E+04  0.25500000920E-02 0. -1.
</event>
<event>
 5   0  0.3167616E-06  0.2769984E+04  0.7818609E-02  0.8312648E-01
       -2   -1    0    0    0  501  0.00000000000E+00  0.00000000000E+00  0.14584953789E+04  0.14584953789E+04  0.25500000920E-02 0.  1.
        2   -1    0    0  501    0  0.00000000000E+00  0.00000000000E+00 -0.13151926618E+04  0.13151926618E+04  0.25500000920E-02 0. -1.
    10030    2    1    2    0    0  0.00000000000E+00  0.00000000000E+00  0.14330271718E+03  0.27736880407E+04  0.27699836964E+04 0.  0.
        3    1    3    3  502    0  0.73443833196E+03 -0.74512442467E+01 -0.11041195940E+04  0.13260977613E+04  0.10100000352E+00 0. -1.
       -3    1    3    3    0  502 -0.73443833196E+03  0.74512442467E+01  0.12474223112E+04  0.14475902794E+04  0.10100000352E+00 0.  1.
</event>
<event>
 5   0  0.3226364E-06  0.2796368E+04  0.7818609E-02  0.8304397E-01
       -2   -1    0    0    0  501  0.00000000000E+00  0.00000000000E+00  0.94191890163E+03  0.94191890163E+03  0.25500000920E-02 0.  1.
        2   -1    0    0  501    0  0.00000000000E+00  0.00000000000E+00 -0.20754643354E+04  0.20754643354E+04  0.25500000920E-02 0. -1.
    10030    2    1    2    0    0  0.00000000000E+00  0.00000000000E+00 -0.11335454338E+04  0.30173832370E+04  0.27963684215E+04 0.  0.
        5    1    3    3  502    0 -0.33071569969E+03 -0.79198673779E+03 -0.17577674556E+04  0.19561146144E+04  0.46999998093E+01 0. -1.
       -5    1    3    3    0  502  0.33071569969E+03  0.79198673779E+03  0.62422202180E+03  0.10612686226E+04  0.46999998093E+01 0.  1.
</event>
<event>
 5   0  0.3212679E-06  0.2796204E+04  0.7818609E-02  0.8304448E-01
        2   -1    0    0  501    0  0.00000000000E+00  0.00000000000E+00  0.94440396395E+03  0.94440396396E+03  0.25500000920E-02 0.  1.
       -2   -1    0    0    0  501  0.00000000000E+00  0.00000000000E+00 -0.20697596646E+04  0.20697596646E+04  0.25500000920E-02 0. -1.
    10030    2    1    2    0    0  0.00000000000E+00  0.00000000000E+00 -0.11253557007E+04  0.30141636286E+04  0.27962040209E+04 0.  0.
        4    1    3    3  502    0  0.95839502295E+03 -0.21526185938E+03  0.50977458728E+03  0.11066753954E+04  0.12699999809E+01 0.  1.
       -4    1    3    3    0  502 -0.95839502295E+03  0.21526185938E+03 -0.16351302879E+04  0.19074882331E+04  0.12699999809E+01 0. -1.
</event>
<event>
 5   0  0.3212679E-06  0.2792639E+04  0.7818609E-02  0.8305557E-01
       -2   -1    0    0    0  501  0.00000000000E+00  0.00000000000E+00  0.12146046399E+04  0.12146046399E+04  0.25500000920E-02 0. -1.
        2   -1    0    0  501    0  0.00000000000E+00  0.00000000000E+00 -0.16052208173E+04  0.16052208173E+04  0.25500000920E-02 0.  1.
    10030    2    1    2    0    0  0.00000000000E+00  0.00000000000E+00 -0.39061617740E+03  0.28198254571E+04  0.27926393628E+04 0.  0.
        4    1    3    3  502    0 -0.11569090685E+04 -0.76282510696E+03 -0.36834231291E+03  0.14338822856E+04  0.12699999809E+01 0. -1.
       -4    1    3    3    0  502  0.11569090685E+04  0.76282510696E+03 -0.22273864487E+02  0.13859431715E+04  0.12699999809E+01 0.  1.
</event>
<event>
 5   0  0.1235252E-06  0.2803550E+04  0.7818609E-02  0.8302167E-01
        1   -1    0    0  501    0  0.00000000000E+00  0.00000000000E+00  0.11860082555E+04  0.11860082555E+04  0.50400001928E-02 0.  1.
       -1   -1    0    0    0  501  0.00000000000E+00  0.00000000000E+00 -0.16567956392E+04  0.16567956392E+04  0.50400001928E-02 0. -1.
    10030    2    1    2    0    0  0.00000000000E+00  0.00000000000E+00 -0.47078738368E+03  0.28428038947E+04  0.28035501106E+04 0.  0.
        1    1    3    3  502    0 -0.17347240773E+03 -0.45768375034E+03  0.10965450692E+04  0.12008239589E+04  0.50400001928E-02 0.  1.
       -1    1    3    3    0  502  0.17347240773E+03  0.45768375034E+03 -0.15673324529E+04  0.16419799357E+04  0.50400001928E-02 0. -1.
</event>
<event>
 5   0  0.3345919E-06  0.2806213E+04  0.7818609E-02  0.8301342E-01
       -2   -1    0    0    0  501  0.00000000000E+00  0.00000000000E+00  0.13774595640E+04  0.13774595640E+04  0.25500000920E-02 0. -1.
        2   -1    0    0  501    0  0.00000000000E+00  0.00000000000E+00 -0.14292311996E+04  0.14292311996E+04  0.25500000920E-02 0.  1.
    10030    2    1    2    0    0  0.00000000000E+00  0.00000000000E+00 -0.51771635607E+02  0.28066907636E+04  0.28062132386E+04 0.  0.
        2    1    3    3  502    0  0.65738359586E+03 -0.12344274385E+04  0.87022239917E+02  0.14012627032E+04  0.25500000920E-02 0.  1.
       -2    1    3    3    0  502 -0.65738359586E+03  0.12344274385E+04 -0.13879387552E+03  0.14054280604E+04  0.25500000920E-02 0. -1.
</event>
<event>
 5   0  0.1243055E-06  0.2781890E+04  0.7818609E-02  0.8308913E-01
        1   -1    0    0  501    0  0.00000000000E+00  0.00000000000E+00  0.18286448177E+04  0.18286448177E+04  0.50400001928E-02 0. -1.
       -1   -1    0    0    0  501  0.00000000000E+00  0.00000000000E+00 -0.10580119638E+04  0.10580119638E+04  0.50400001928E-02 0.  1.
    10030    2    1    2    0    0  0.00000000000E+00  0.00000000000E+00  0.77063285392E+03  0.28866567816E+04  0.27818900732E+04 0.  0.
        5    1    3    3  502    0 -0.58761716512E+03  0.11149475337E+04 -0.22532179204E+03  0.12803100935E+04  0.46999998093E+01 0.  1.
       -5    1    3    3    0  502  0.58761716512E+03 -0.11149475337E+04  0.99595464596E+03  0.16063466881E+04  0.46999998093E+01 0. -1.
</event>
<event>
 5   0  0.1235252E-06  0.2798192E+04  0.7818609E-02  0.8303830E-01
        1   -1    0    0  501    0  0.00000000000E+00  0.00000000000E+00  0.15747131432E+04  0.15747131432E+04  0.50400001928E-02 0. -1.
       -1   -1    0    0    0  501  0.00000000000E+00  0.00000000000E+00 -0.12430641580E+04  0.12430641580E+04  0.50400001928E-02 0.  1.
    10030    2    1    2    0    0  0.00000000000E+00  0.00000000000E+00  0.33164898522E+03  0.28177773012E+04  0.27981918930E+04 0.  0.
        1    1    3    3  502    0 -0.10539669612E+04  0.67480092071E+03 -0.46406692043E+03  0.13347511920E+04  0.50400001928E-02 0. -1.
       -1    1    3    3    0  502  0.10539669612E+04 -0.67480092071E+03  0.79571590565E+03  0.14830261092E+04  0.50400001928E-02 0.  1.
</event>
<event>
 5   0  0.1243055E-06  0.2796635E+04  0.7818609E-02  0.8304314E-01
       -1   -1    0    0    0  501  0.00000000000E+00  0.00000000000E+00  0.15078237378E+04  0.15078237378E+04  0.50400001928E-02 0. -1.
        1   -1    0    0  501    0  0.00000000000E+00  0.00000000000E+00 -0.12967640875E+04  0.12967640875E+04  0.50400001928E-02 0.  1.
    10030    2    1    2    0    0  0.00000000000E+00  0.00000000000E+00  0.21105965030E+03  0.28045878253E+04  0.27966348875E+04 0.  0.
        5    1    3    3  502    0 -0.21386519807E+03  0.27403896882E+03  0.14637941925E+04  0.15045102882E+04  0.46999998093E+01 0. -1.
       -5    1    3    3    0  502  0.21386519807E+03 -0.27403896882E+03 -0.12527345422E+04  0.13000775371E+04  0.46999998093E+01 0.  1.
</event>
<event>
 5   0  0.3162695E-06  0.2791023E+04  0.7818609E-02  0.8306061E-01
        2   -1    0    0  501    0  0.00000000000E+00  0.00000000000E+00  0.14720761195E+04  0.14720761195E+04  0.25500000920E-02 0. -1.
       -2   -1    0    0    0  501  0.00000000000E+00  0.00000000000E+00 -0.13229295731E+04  0.13229295731E+04  0.25500000920E-02 0.  1.
    10030    2    1    2    0    0  0.00000000000E+00  0.00000000000E+00  0.14914654640E+03  0.27950056926E+04  0.27910234914E+04 0.  0.
        1    1    3    3  502    0 -0.16515926966E+03 -0.98605774051E+03  0.10495462565E+04  0.14495291637E+04  0.50400001928E-02 0. -1.
       -1    1    3    3    0  502  0.16515926966E+03  0.98605774051E+03 -0.90039971006E+03  0.13454765289E+04  0.50400001928E-02 0.  1.
</event>
<event>
 5   0  0.3167616E-06  0.2810103E+04  0.7818609E-02  0.8300139E-01
       -2   -1    0    0    0  501  0.00000000000E+00  0.00000000000E+00  0.81254284993E+03  0.81254284994E+03  0.25500000920E-02 0.  1.
        2   -1    0    0  501    0  0.00000000000E+00  0.00000000000E+00 -0.24296197246E+04  0.24296197246E+04  0.25500000920E-02 0. -1.
    10030    2    1    2    0    0  0.00000000000E+00  0.00000000000E+00 -0.16170768746E+04  0.32421625745E+04  0.28101032972E+04 0.  0.
        3    1    3    3  502    0 -0.34624988248E+03 -0.81544673483E+03 -0.20667778445E+04  0.22486469325E+04  0.10100000352E+00 0.  1.
       -3    1    3    3    0  502  0.34624988248E+03  0.81544673483E+03  0.44970096983E+03  0.99351564201E+03  0.10100000352E+00 0. -1.
</event>
<event>
 5   0  0.3226364E-06  0.2797213E+04  0.7818609E-02  0.8304134E-01
       -2   -1    0    0    0  501  0.00000000000E+00  0.00000000000E+00  0.12133158978E+04  0.12133158978E+04  0.25500000920E-02 0. -1.
        2   -1    0    0  501    0  0.00000000000E+00  0.00000000000E+00 -0.16121932438E+04  0.16121932438E+04  0.25500000920E-02 0.  1.
    10030    2    1    2    0    0  0.00000000000E+00  0.00000000000E+00 -0.39887734603E+03  0.28255091416E+04  0.27972126791E+04 0.  0.
        5    1    3    3  502    0 -0.99861524174E+02  0.13087663267E+04  0.28839188732E+03  0.13438874925E+04  0.46999998093E+01 0.  1.
       -5    1    3    3    0  502  0.99861524174E+02 -0.13087663267E+04 -0.68726923335E+03  0.14816216491E+04  0.46999998093E+01 0. -1.
</event>
<event>
 5   0  0.1243055E-06  0.2777062E+04  0.7818609E-02  0.8310425E-01
       -1   -1    0    0    0  501  0.00000000000E+00  0.00000000000E+00  0.75425756934E+03  0.75425756936E+03  0.50400001928E-02 0. -1.
        1   -1    0    0  501    0  0.00000000000E+00  0.00000000000E+00 -0.25561795989E+04  0.25561795989E+04  0.50400001928E-02 0.  1.
    10030    2    1    2    0    0  0.00000000000E+00  0.00000000000E+00 -0.18019220296E+04  0.33104371683E+04  0.27770616206E+04 0.  0.
        5    1    3    3  502    0  0.91862532376E+03  0.30843138433E+03  0.28452520861E+03  0.10099401411E+04  0.46999998093E+01 0. -1.
       -5    1    3    3    0  502 -0.91862532376E+03 -0.30843138433E+03 -0.20864472382E+04  0.23004970272E+04  0.46999998093E+01 0.  1.
</event>
<event>
 5   0  0.3167616E-06  0.2800950E+04  0.7818609E-02  0.8302974E-01
       -2   -1    0    0    0  501  0.00000000000E+00  0.00000000000E+00  0.16402370435E+04  0.16402370435E+04  0.25500000920E-02 0. -1.
        2   -1    0    0  501    0  0.00000000000E+00  0.00000000000E+00 -0.11957598503E+04  0.11957598503E+04  0.25500000920E-02 0.  1.
    10030    2    1    2    0    0  0.00000000000E+00  0.00000000000E+00  0.44447719320E+03  0.28359968938E+04  0.28009495544E+04 0.  0.
        3    1    3    3  502    0 -0.95037882352E+03 -0.25538436541E+03 -0.78666740604E+03  0.12598756686E+04  0.10100000352E+00 0.  1.
       -3    1    3    3    0  502  0.95037882352E+03  0.25538436541E+03  0.12311445992E+04  0.15761212253E+04  0.10100000352E+00 0. -1.
</event>
<event>
 5   0  0.3162695E-06  0.2800018E+04  0.7818609E-02  0.8303263E-01
       -2   -1    0    0    0  501  0.00000000000E+00  0.00000000000E+00  0.75639057541E+03  0.75639057542E+03  0.25500000920E-02 0. -1.
        2   -1    0    0  501    0  0.00000000000E+00  0.00000000000E+00 -0.25912872651E+04  0.25912872651E+04  0.25500000920E-02 0.  1.
    10030    2    1    2    0    0  0.00000000000E+00  0.00000000000E+00 -0.18348966897E+04  0.33476778405E+04  0.28000180467E+04 0.  0.
        1    1    3    3  502    0  0.92712884585E+03 -0.98994232407E+03 -0.13324263712E+04  0.19012926488E+04  0.50400001928E-02 0.  1.
       -1    1    3    3    0  502 -0.92712884585E+03  0.98994232407E+03 -0.50247031852E+03  0.14463851917E+04  0.50400001928E-02 0. -1.
</event>
<event>
 5   0  0.3226364E-06  0.2800084E+04  0.7818609E-02  0.8303242E-01
       -2   -1    0    0    0  501  0.00000000000E+00  0.00000000000E+00  0.13356360122E+04  0.13356360122E+04  0.25500000920E-02 0.  1.
        2   -1    0    0  501    0  0.00000000000E+00  0.00000000000E+00 -0.14675532257E+04  0.14675532257E+04  0.25500000920E-02 0. -1.
    10030    2    1    2    0    0  0.00000000000E+00  0.00000000000E+00 -0.13191721346E+03  0.28031892378E+04  0.28000835259E+04 0.  0.
        5    1    3    3  502    0  0.25603716029E+03 -0.99037164055E+03  0.89098017237E+03  0.13565613777E+04  0.46999998093E+01 0.  1.
       -5    1    3    3    0  502 -0.25603716029E+03  0.99037164055E+03 -0.10228973858E+04  0.14466278602E+04  0.46999998093E+01 0. -1.
</event>
<event>
 5   0  0.1243055E-06  0.2799682E+04  0.7818609E-02  0.8303367E-01
       -1   -1    0    0    0  501  0.00000000000E+00  0.00000000000E+00  0.16283826908E+04  0.16283826908E+04  0.50400001928E-02 0.  1.
        1   -1    0    0  501    0  0.00000000000E+00  0.00000000000E+00 -0.12033752388E+04  0.12033752388E+04  0.50400001928E-02 0. -1.
    10030    2    1    2    0    0  0.00000000000E+00  0.00000000000E+00  0.42500745203E+03  0.28317579296E+04  0.27996824172E+04 0.  0.
        5    1    3    3  502    0  0.90180063339E+03 -0.38950839461E+03  0.12212118113E+04  0.15672720089E+04  0.46999998093E+01 0.  1.
       -5    1    3    3    0  502 -0.90180063339E+03  0.38950839461E+03 -0.79620435925E+03  0.12644859207E+04  0.46999998093E+01 0. -1.
</event>
<event>
 5   0  0.3167616E-06  0.2818993E+04  0.7818609E-02  0.8297396E-01
       -2   -1    0    0    0  501  0.00000000000E+00  0.00000000000E+00  0.92046239851E+03  0.92046239851E+03  0.25500000920E-02 0. -1.
        2   -1    0    0  501    0  0.00000000000E+00  0.00000000000E+00 -0.21583502884E+04  0.21583502884E+04  0.25500000920E-02 0.  1.
    10030    2    1    2    0    0  0.00000000000E+00  0.00000000000E+00 -0.12378878899E+04  0.30788126869E+04  0.28189929289E+04 0.  0.
        3    1    3    3  502    0  0.77580984877E+03 -0.11634771796E+04 -0.81161234900E+03  0.16168718824E+04  0.10100000352E+00 0. -1.
       -3    1    3    3    0  502 -0.77580984877E+03  0.11634771796E+04 -0.42627554087E+03  0.14619408045E+04  0.10100000352E+00 0.  1.
</event>
<event>
 5   0  0.3162695E-06  0.2796439E+04  0.7818609E-02  0.8304375E-01
        2   -1    0    0  501    0  0.00000000000E+00  0.00000000000E+00  0.15187247224E+04  0.15187247224E+04  0.25500000920E-02 0.  1.
       -2   -1    0    0    0  501  0.00000000000E+00  0.00000000000E+00 -0.12872757053E+04  0.12872757053E+04  0.25500000920E-02 0. -1.
    10030    2    1    2    0    0  0.00000000000E+00  0.00000000000E+00  0.23144901704E+03  0.28060004277E+04  0.27964387625E+04 0.  0.
        1    1    3    3  502    0  0.10858370434E+04  0.12885991126E+03  0.99012274609E+03  0.14751237284E+04  0.50400001928E-02 0.  1.
       -1    1    3    3    0  502 -0.10858370434E+04 -0.12885991126E+03 -0.75867372905E+03  0.13308766993E+04  0.50400001928E-02 0. -1.
</event>
<event>
 5   0  0.3212679E-06  0.2796816E+04  0.7818609E-02  0.8304257E-01
        2   -1    0    0  501    0  0.00000000000E+00  0.00000000000E+00  0.12997546701E+04  0.12997546701E+04  0.25500000920E-02 0.  1.
       -2   -1    0    0    0  501  0.00000000000E+00  0.00000000000E+00 -0.15045495661E+04  0.15045495661E+04  0.25500000920E-02 0. -1.
    10030    2    1    2    0    0  0.00000000000E+00  0.00000000000E+00 -0.20479489603E+03  0.28043042362E+04  0.27968162793E+04 0.  0.
        4    1    3    3  502    0  0.42362389008E+03 -0.11738473683E+04 -0.73509308452E+03  0.14483571038E+04  0.12699999809E+01 0. -1.
       -4    1    3    3    0  502 -0.42362389008E+03  0.11738473683E+04  0.53029818849E+03  0.13559471324E+04  0.12699999809E+01 0.  1.
</event>
<event>
 5   0  0.3162695E-06  0.2776807E+04  0.7818609E-02  0.8310505E-01
       -2   -1    0    0    0  501  0.00000000000E+00  0.00000000000E+00  0.17338126974E+04  0.17338126974E+04  0.25500000920E-02 0.  1.
        2   -1    0    0  501    0  0.00000000000E+00  0.00000000000E+00 -0.11118062807E+04  0.11118062807E+04  0.25500000920E-02 0. -1.
    10030    2    1    2    0    0  0.00000000000E+00  0.00000000000E+00  0.62200641671E+03  0.28456189780E+04  0.27768066886E+04 0.  0.
        1    1    3    3  502    0 -0.85776920607E+03 -0.41432150586E+03  0.13460998442E+04  0.16490649204E+04  0.50400001928E-02 0.  1.
       -1    1    3    3    0  502  0.85776920607E+03  0.41432150586E+03 -0.72409342749E+03  0.11965540576E+04  0.50400001928E-02 0. -1.
</event>
<event>
 5   0  0.3167616E-06  0.2604168E+04  0.7818609E-02  0.8366787E-01
        2   -1    0    0  501    0  0.00000000000E+00  0.00000000000E+00  0.16843854889E+04  0.16843854889E+04  0.25500000920E-02 0.  1.
       -2   -1    0    0    0  501  0.00000000000E+00  0.00000000000E+00 -0.10065526704E+04  0.10065526704E+04  0.25500000920E-02 0. -1.
    10030    2    1    2    0    0  0.00000000000E+00  0.00000000000E+00  0.67783281850E+03  0.26909381594E+04  0.26041679761E+04 0.  0.
        3    1    3    3  502    0  0.10603979896E+04 -0.30204204289E+03 -0.37680160423E+03  0.11651835697E+04  0.10100000352E+00 0.  1.
       -3    1    3    3    0  502 -0.10603979896E+04  0.30204204289E+03  0.10546344227E+04  0.15257545896E+04  0.10100000352E+00 0. -1.
</event>
<event>
 5   0  0.3345919E-06  0.2655424E+04  0.7818609E-02  0.8349615E-01
       -2   -1    0    0    0  501  0.00000000000E+00  0.00000000000E+00  0.12969345407E+04  0.12969345407E+04  0.25500000920E-02 0. -1.
        2   -1    0    0  501    0  0.00000000000E+00  0.00000000000E+00 -0.13592195244E+04  0.13592195244E+04  0.25500000920E-02 0.  1.
    10030    2    1    2    0    0  0.00000000000E+00  0.00000000000E+00 -0.62284983762E+02  0.26561540651E+04  0.26554236947E+04 0.  0.
        2    1    3    3  502    0  0.10494118178E+04  0.18179570357E+03 -0.82414292946E+03  0.13466723467E+04  0.25500000920E-02 0.  1.
       -2    1    3    3    0  502 -0.10494118178E+04 -0.18179570357E+03  0.76185794570E+03  0.13094817183E+04  0.25500000920E-02 0. -1.
</event>
<event>
 5   0  0.3162695E-06  0.2803112E+04  0.7818609E-02  0.8302303E-01
       -2   -1    0    0    0  501  0.00000000000E+00  0.00000000000E+00  0.17424327779E+04  0.17424327779E+04  0.25500000920E-02 0.  1.
        2   -1    0    0  501    0  0.00000000000E+00  0.00000000000E+00 -0.11273658301E+04  0.11273658302E+04  0.25500000920E-02 0. -1.
    10030    2    1    2    0    0  0.00000000000E+00  0.00000000000E+00  0.61506694779E+03  0.28697986081E+04  0.28031119672E+04 0.  0.
        1    1    3    3  502    0 -0.76400894037E+03  0.38511622230E+03 -0.82898203995E+03  0.11913166616E+04  0.50400001928E-02 0. -1.
       -1    1    3    3    0  502  0.76400894037E+03 -0.38511622230E+03  0.14440489877E+04  0.16784819465E+04  0.50400001928E-02 0.  1.
</event>
<event>
 5   0  0.3345919E-06  0.2793308E+04  0.7818609E-02  0.8305349E-01
       -2   -1    0    0    0  501  0.00000000000E+00  0.00000000000E+00  0.17385823329E+04  0.17385823329E+04  0.25500000920E-02 0.  1.
        2   -1    0    0  501    0  0.00000000000E+00  0.00000000000E+00 -0.11219726711E+04  0.11219726711E+04  0.25500000920E-02 0. -1.
    10030    2    1    2    0    0  0.00000000000E+00  0.00000000000E+00  0.61660966185E+03  0.28605550040E+04  0.27933076193E+04 0.  0.
        2    1    3    3  502    0 -0.31092753881E+03  0.13117135964E+04  0.68230009285E+03  0.15108944073E+04  0.25500000920E-02 0.  1.
       -2    1    3    3    0  502  0.31092753881E+03 -0.13117135964E+04 -0.65690431002E+02  0.13496605967E+04  0.25500000920E-02 0. -1.
</event>
<event>
 5   0  0.1235252E-06  0.2798045E+04  0.7818609E-02  0.8303875E-01
        1   -1    0    0  501    0  0.00000000000E+00  0.00000000000E+00  0.16464527128E+04  0.16464527128E+04  0.50400001928E-02 0.  1.
       -1   -1    0    0    0  501  0.00000000000E+00  0.00000000000E+00 -0.11887764895E+04  0.11887764895E+04  0.50400001928E-02 0. -1.
    10030    2    1    2    0    0  0.00000000000E+00  0.00000000000E+00  0.45767622329E+03  0.28352292023E+04  0.27980452291E+04 0.  0.
        1    1    3    3  502    0  0.12487109415E+04  0.39674876574E+03 -0.26816522183E+03  0.13373859521E+04  0.50400001928E-02 0. -1.
       -1    1    3    3    0  502 -0.12487109415E+04 -0.39674876574E+03  0.72584144512E+03  0.14978432502E+04  0.50400001928E-02 0.  1.
</event>
<event>
 5   0  0.1246044E-06  0.2803428E+04  0.7818609E-02  0.8302205E-01
       -1   -1    0    0    0  501  0.00000000000E+00  0.00000000000E+00  0.12226606601E+04  0.12226606601E+04  0.50400001928E-02 0.  1.
        1   -1    0    0  501    0  0.00000000000E+00  0.00000000000E+00 -0.16069888506E+04  0.16069888506E+04  0.50400001928E-02 0. -1.
    10030    2    1    2    0    0  0.00000000000E+00  0.00000000000E+00 -0.38432819050E+03  0.28296495106E+04  0.28034279365E+04 0.  0.
        2    1    3    3  502    0 -0.93547986692E+02  0.47506126559E+03 -0.15199022585E+04  0.15951605898E+04  0.25500000920E-02 0. -1.
       -2    1    3    3    0  502  0.93547986692E+02 -0.47506126559E+03  0.11355740680E+04  0.12344889209E+04  0.25500000920E-02 0.  1.
</event>
<event>
 5   0  0.1220265E-06  0.2808427E+04  0.7818609E-02  0.8300657E-01
       -1   -1    0    0    0  501  0.00000000000E+00  0.00000000000E+00  0.17833296558E+04  0.17833296558E+04  0.50400001928E-02 0. -1.
        1   -1    0    0  501    0  0.00000000000E+00  0.00000000000E+00 -0.11056933421E+04  0.11056933422E+04  0.50400001928E-02 0.  1.
    10030    2    1    2    0    0  0.00000000000E+00  0.00000000000E+00  0.67763631366E+03  0.28890229980E+04  0.28084271237E+04 0.  0.
        4    1    3    3  502    0  0.55825802290E+03 -0.33020906002E+02  0.16638320126E+04  0.17553008231E+04  0.12699999809E+01 0. -1.
       -4    1    3    3    0  502 -0.55825802290E+03  0.33020906002E+02 -0.98619569894E+03  0.11337221749E+04  0.12699999809E+01 0.  1.
</event>
<event>
 5   0  0.1065675E-06  0.2789018E+04  0.7818609E-02  0.8306686E-01
       -3   -1    0    0    0  501  0.00000000000E+00  0.00000000000E+00  0.11391449211E+04  0.11391449256E+04  0.10100000352E+00 0. -1.
        3   -1    0    0  501    0  0.00000000000E+00  0.00000000000E+00 -0.17071188124E+04  0.17071188154E+04  0.10100000352E+00 0.  1.
    10030    2    1    2    0    0  0.00000000000E+00  0.00000000000E+00 -0.56797389123E+03  0.28462637410E+04  0.27890182757E+04 0.  0.
        4    1    3    3  502    0 -0.57576232864E+03  0.53557595397E+03 -0.14592804746E+04  0.16576625042E+04  0.12699999809E+01 0.  1.
       -4    1    3    3    0  502  0.57576232864E+03 -0.53557595397E+03  0.89130658335E+03  0.11886012367E+04  0.12699999809E+01 0. -1.
</event>
<event>
 5   0  0.3167616E-06  0.2799229E+04  0.7818609E-02  0.8303508E-01
       -2   -1    0    0    0  501  0.00000000000E+00  0.00000000000E+00  0.10830543305E+04  0.10830543305E+04  0.25500000920E-02 0.  1.
        2   -1    0    0  501    0  0.00000000000E+00  0.00000000000E+00 -0.18087006492E+04  0.18087006492E+04  0.25500000920E-02 0. -1.
    10030    2    1    2    0    0  0.00000000000E+00  0.00000000000E+00 -0.72564631870E+03  0.28917549797E+04  0.27992292301E+04 0.  0.
        3    1    3    3  502    0  0.10965729252E+04  0.85103957763E+03 -0.17750433360E+03  0.13993742679E+04  0.10100000352E+00 0. -1.
       -3    1    3    3    0  502 -0.10965729252E+04 -0.85103957763E+03 -0.54814198511E+03  0.14923807118E+04  0.10100000352E+00 0.  1.
</event>
<event>
 5   0  0.3167616E-06  0.2782016E+04  0.7818609E-02  0.8308874E-01
        2   -1    0    0  501    0  0.00000000000E+00  0.00000000000E+00  0.18599653157E+04  0.18599653157E+04  0.25500000920E-02 0. -1.
       -2   -1    0    0    0  501  0.00000000000E+00  0.00000000000E+00 -0.10402897031E+04  0.10402897031E+04  0.25500000920E-02 0.  1.
    10030    2    1    2    0    0  0.00000000000E+00  0.00000000000E+00  0.81967561254E+03  0.29002550188E+04  0.27820156478E+04 0.  0.
        3    1    3    3  502    0 -0.61960898552E+03  0.10902082901E+04 -0.21777340407E+03  0.12727508305E+04  0.10100000352E+00 0.  1.
       -3    1    3    3    0  502  0.61960898552E+03 -0.10902082901E+04  0.10374490166E+04  0.16275041883E+04  0.10100000352E+00 0. -1.
</event>
<event>
 5   0  0.1263513E-06  0.2803354E+04  0.7818609E-02  0.8302228E-01
       -1   -1    0    0    0  501  0.00000000000E+00  0.00000000000E+00  0.14391538576E+04  0.14391538576E+04  0.50400001928E-02 0.  1.
        1   -1    0    0  501    0  0.00000000000E+00  0.00000000000E+00 -0.13651761499E+04  0.13651761499E+04  0.50400001928E-02 0. -1.
    10030    2    1    2    0    0  0.00000000000E+00  0.00000000000E+00  0.73977707682E+02  0.28043300076E+04  0.28033540786E+04 0.  0.
        3    1    3    3  502    0 -0.13941291091E+04  0.13618709344E+03  0.87559543477E+02  0.14034990492E+04  0.10100000352E+00 0. -1.
       -3    1    3    3    0  502  0.13941291091E+04 -0.13618709344E+03 -0.13581835794E+02  0.14008309583E+04  0.10100000352E+00 0.  1.
</event>
<event>
 5   0  0.1220265E-06  0.2819493E+04  0.7818609E-02  0.8297242E-01
        1   -1    0    0  501    0  0.00000000000E+00  0.00000000000E+00  0.26944205891E+04  0.26944205891E+04  0.50400001928E-02 0.  1.
       -1   -1    0    0    0  501  0.00000000000E+00  0.00000000000E+00 -0.73759283024E+03  0.73759283026E+03  0.50400001928E-02 0. -1.
    10030    2    1    2    0    0  0.00000000000E+00  0.00000000000E+00  0.19568277589E+04  0.34320134194E+04  0.28194930808E+04 0.  0.
        4    1    3    3  502    0  0.57923631679E+03 -0.18986032075E+03  0.25257145310E+04  0.25982296198E+04  0.12699999809E+01 0.  1.
       -4    1    3    3    0  502 -0.57923631679E+03  0.18986032075E+03 -0.56888677212E+03  0.83378379960E+03  0.12699999809E+01 0. -1.
</event>
<event>
 5   0  0.1065675E-06  0.2799021E+04  0.7818609E-02  0.8303572E-01
       -3   -1    0    0    0  501  0.00000000000E+00  0.00000000000E+00  0.11493393638E+04  0.11493393682E+04  0.10100000352E+00 0.  1.
        3   -1    0    0  501    0  0.00000000000E+00  0.00000000000E+00 -0.17041347441E+04  0.17041347471E+04  0.10100000352E+00 0. -1.
    10030    2    1    2    0    0  0.00000000000E+00  0.00000000000E+00 -0.55479538036E+03  0.28534741153E+04  0.27990206524E+04 0.  0.
        2    1    3    3  502    0  0.10206189840E+04 -0.89827801722E+03 -0.61560875352E+03  0.14924947719E+04  0.25500000920E-02 0. -1.
       -2    1    3    3    0  502 -0.10206189840E+04  0.89827801722E+03  0.60813373168E+02  0.13609793434E+04  0.25500000920E-02 0.  1.
</event>
<event>
 5   0  0.3212679E-06  0.2792328E+04  0.7818609E-02  0.8305654E-01
       -2   -1    0    0    0  501  0.00000000000E+00  0.00000000000E+00  0.92590060169E+03  0.92590060169E+03  0.25500000920E-02 0. -1.
        2   -1    0    0  501    0  0.00000000000E+00  0.00000000000E+00 -0.21052732768E+04  0.21052732768E+04  0.25500000920E-02 0.  1.
    10030    2    1    2    0    0  0.00000000000E+00  0.00000000000E+00 -0.11793726752E+04  0.30311738785E+04  0.27923279132E+04 0.  0.
        4    1    3    3  502    0  0.71393471682E+02 -0.13481084073E+04 -0.20316997932E+03  0.13652007029E+04  0.12699999809E+01 0.  1.
       -4    1    3    3    0  502 -0.71393471682E+02  0.13481084073E+04 -0.97620269584E+03  0.16659731757E+04  0.12699999809E+01 0. -1.
</event>
<event>
 5   0  0.3212679E-06  0.2730774E+04  0.7818609E-02  0.8325088E-01
       -2   -1    0    0    0  501  0.00000000000E+00  0.00000000000E+00  0.83247376107E+03  0.83247376107E+03  0.25500000920E-02 0. -1.
        2   -1    0    0  501    0  0.00000000000E+00  0.00000000000E+00 -0.22394481944E+04  0.22394481944E+04  0.25500000920E-02 0.  1.
    10030    2    1    2    0    0  0.00000000000E+00  0.00000000000E+00 -0.14069744334E+04  0.30719219555E+04  0.27307741475E+04 0.  0.
        4    1    3    3  502    0 -0.10682089230E+04  0.45266333827E+03 -0.15133612031E+04  0.19068922741E+04  0.12699999809E+01 0.  1.
       -4    1    3    3    0  502  0.10682089230E+04 -0.45266333827E+03  0.10638676971E+03  0.11650296814E+04  0.12699999809E+01 0. -1.
</event>
<event>
 5   0  0.3167616E-06  0.2797453E+04  0.7818609E-02  0.8304059E-01
        2   -1    0    0  501    0  0.00000000000E+00  0.00000000000E+00  0.20372826937E+04  0.20372826937E+04  0.25500000920E-02 0. -1.
       -2   -1    0    0    0  501  0.00000000000E+00  0.00000000000E+00 -0.96031662920E+03  0.96031662921E+03  0.25500000920E-02 0.  1.
    10030    2    1    2    0    0  0.00000000000E+00  0.00000000000E+00  0.10769660645E+04  0.29975993229E+04  0.27974534485E+04 0.  0.
        3    1    3    3  502    0  0.12778026360E+04 -0.56089958036E+03  0.43655360986E+03  0.14621788469E+04  0.10100000352E+00 0.  1.
       -3    1    3    3    0  502 -0.12778026360E+04  0.56089958036E+03  0.64041245467E+03  0.15354204760E+04  0.10100000352E+00 0. -1.
</event>
<event>
 5   0  0.1235252E-06  0.2792843E+04  0.7818609E-02  0.8305494E-01
        1   -1    0    0  501    0  0.00000000000E+00  0.00000000000E+00  0.10517484031E+04  0.10517484031E+04  0.50400001928E-02 0.  1.
       -1   -1    0    0    0  501  0.00000000000E+00  0.00000000000E+00 -0.18540482794E+04  0.18540482794E+04  0.50400001928E-02 0. -1.
    10030    2    1    2    0    0  0.00000000000E+00  0.00000000000E+00 -0.80229987627E+03  0.29057966825E+04  0.27928425070E+04 0.  0.
        1    1    3    3  502    0  0.62193417999E+02 -0.75705728563E+03 -0.16202861674E+04  0.17895058031E+04  0.50400001928E-02 0. -1.
       -1    1    3    3    0  502 -0.62193417999E+02  0.75705728563E+03  0.81798629116E+03  0.11162908794E+04  0.50400001928E-02 0.  1.
</event>
<event>
 5   0  0.3212679E-06  0.2799920E+04  0.7818609E-02  0.8303293E-01
        2   -1    0    0  501    0  0.00000000000E+00  0.00000000000E+00  0.14087561029E+04  0.14087561029E+04  0.25500000920E-02 0. -1.
       -2   -1    0    0    0  501  0.00000000000E+00  0.00000000000E+00 -0.13912186109E+04  0.13912186109E+04  0.25500000920E-02 0.  1.
    10030    2    1    2    0    0  0.00000000000E+00  0.00000000000E+00  0.17537491999E+02  0.27999747138E+04  0.27999197907E+04 0.  0.
        4    1    3    3  502    0  0.50318014845E+03  0.95623168187E+03 -0.88137050650E+03  0.13944120172E+04  0.12699999809E+01 0.  1.
       -4    1    3    3    0  502 -0.50318014845E+03 -0.95623168187E+03  0.89890799850E+03  0.14055626965E+04  0.12699999809E+01 0. -1.
</event>
<event>
 5   0  0.1220265E-06  0.2766960E+04  0.7818609E-02  0.8313600E-01
       -1   -1    0    0    0  501  0.00000000000E+00  0.00000000000E+00  0.99411803303E+03  0.99411803304E+03  0.50400001928E-02 0.  1.
        1   -1    0    0  501    0  0.00000000000E+00  0.00000000000E+00 -0.19253423646E+04  0.19253423646E+04  0.50400001928E-02 0. -1.
    10030    2    1    2    0    0  0.00000000000E+00  0.00000000000E+00 -0.93122433153E+03  0.29194603976E+04  0.27669604727E+04 0.  0.
        4    1    3    3  502    0  0.14697670346E+03 -0.53632315807E+03 -0.18022267751E+04  0.18860720143E+04  0.12699999809E+01 0. -1.
       -4    1    3    3    0  502 -0.14697670346E+03  0.53632315807E+03  0.87100244356E+03  0.10333883833E+04  0.12699999809E+01 0.  1.
</event>
<event>
 5   0  0.3162695E-06  0.2804083E+04  0.7818609E-02  0.8302002E-01
        2   -1    0    0  501    0  0.00000000000E+00  0.00000000000E+00  0.16040034721E+04  0.16040034722E+04  0.25500000920E-02 0.  1.
       -2   -1    0    0    0  501  0.00000000000E+00  0.00000000000E+00 -0.12255087781E+04  0.12255087781E+04  0.25500000920E-02 0. -1.
    10030    2    1    2    0    0  0.00000000000E+00  0.00000000000E+00  0.37849469410E+03  0.28295122502E+04  0.28040829768E+04 0.  0.
        1    1    3    3  502    0  0.59945129973E+02 -0.34829660060E+03 -0.11798236000E+04  0.12316199364E+04  0.50400001928E-02 0. -1.
       -1    1    3    3    0  502 -0.59945129973E+02  0.34829660060E+03  0.15583182941E+04  0.15978923138E+04  0.50400001928E-02 0.  1.
</event>
<event>
 5   0  0.3226364E-06  0.2799560E+04  0.7818609E-02  0.8303405E-01
       -2   -1    0    0    0  501  0.00000000000E+00  0.00000000000E+00  0.10732300937E+04  0.10732300937E+04  0.25500000920E-02 0.  1.
        2   -1    0    0  501    0  0.00000000000E+00  0.00000000000E+00 -0.18256890968E+04  0.18256890968E+04  0.25500000920E-02 0. -1.
    10030    2    1    2    0    0  0.00000000000E+00  0.00000000000E+00 -0.75245900318E+03  0.28989191905E+04  0.27995603086E+04 0.  0.
        5    1    3    3  502    0  0.11892239244E+04 -0.58803311560E+03 -0.83853403445E+03  0.15694578377E+04  0.46999998093E+01 0. -1.
       -5    1    3    3    0  502 -0.11892239244E+04  0.58803311560E+03  0.86075031275E+02  0.13294613528E+04  0.46999998093E+01 0.  1.
</event>
<event>
 5   0  0.1235252E-06  0.2785102E+04  0.7818609E-02  0.8307908E-01
        1   -1    0    0  501    0  0.00000000000E+00  0.00000000000E+00  0.98068846162E+03  0.98068846163E+03  0.50400001928E-02 0.  1.
       -1   -1    0    0    0  501  0.00000000000E+00  0.00000000000E+00 -0.19773852594E+04  0.19773852594E+04  0.50400001928E-02 0. -1.
    10030    2    1    2    0    0  0.00000000000E+00  0.00000000000E+00 -0.99669679782E+03  0.29580737211E+04  0.27851024456E+04 0.  0.
        1    1    3    3  502    0  0.89801628702E+02  0.58713370603E+03  0.83940278686E+03  0.10282934211E+04  0.50400001928E-02 0.  1.
       -1    1    3    3    0  502 -0.89801628702E+02 -0.58713370603E+03 -0.18360995847E+04  0.19297803000E+04  0.50400001928E-02 0. -1.
</event>
<event>
 5   0  0.1235252E-06  0.2804710E+04  0.7818609E-02  0.8301807E-01
        1   -1    0    0  501    0  0.00000000000E+00  0.00000000000E+00  0.17833240194E+04  0.17833240194E+04  0.50400001928E-02 0.  1.
       -1   -1    0    0    0  501  0.00000000000E+00  0.00000000000E+00 -0.11027721572E+04  0.11027721572E+04  0.50400001928E-02 0. -1.
    10030    2    1    2    0    0  0.00000000000E+00  0.00000000000E+00  0.68055186224E+03  0.28860961767E+04  0.28047103779E+04 0.  0.
        1    1    3    3  502    0  0.11908732159E+04 -0.51207786863E+03 -0.21022182901E+03  0.13132387359E+04  0.50400001928E-02 0. -1.
       -1    1    3    3    0  502 -0.11908732159E+04  0.51207786863E+03  0.89077369125E+03  0.15728574408E+04  0.50400001928E-02 0.  1.
</event>
<event>
 5   0  0.1220265E-06  0.2798312E+04  0.7818609E-02  0.8303793E-01
       -1   -1    0    0    0  501  0.00000000000E+00  0.00000000000E+00  0.65176008395E+03  0.65176008397E+03  0.50400001928E-02 0.  1.
        1   -1    0    0  501    0  0.00000000000E+00  0.00000000000E+00 -0.30036173054E+04  0.30036173054E+04  0.50400001928E-02 0. -1.
    10030    2    1    2    0    0  0.00000000000E+00  0.00000000000E+00 -0.23518572214E+04  0.36553773894E+04  0.27983122536E+04 0.  0.
        4    1    3    3  502    0 -0.46149555423E+02 -0.75124761752E+02  0.64812696958E+03  0.65409761725E+03  0.12699999809E+01 0.  1.
       -4    1    3    3    0  502  0.46149555423E+02  0.75124761752E+02 -0.29999841910E+04  0.30012797721E+04  0.12699999809E+01 0. -1.
</event>
<event>
 5   0  0.3212679E-06  0.2810714E+04  0.7818609E-02  0.8299950E-01
       -2   -1    0    0    0  501  0.00000000000E+00  0.00000000000E+00  0.84592229006E+03  0.84592229006E+03  0.25500000920E-02 0.  1.
        2   -1    0    0  501    0  0.00000000000E+00  0.00000000000E+00 -0.23347636100E+04  0.23347636100E+04  0.25500000920E-02 0. -1.
    10030    2    1    2    0    0  0.00000000000E+00  0.00000000000E+00 -0.14888413199E+04  0.31806859001E+04  0.28107142009E+04 0.  0.
        4    1    3    3  502    0  0.10466432722E+04 -0.52887139560E+02 -0.18040314843E+04  0.20863342009E+04  0.12699999809E+01 0. -1.
       -4    1    3    3    0  502 -0.10466432722E+04  0.52887139560E+02  0.31519016431E+03  0.10943516991E+04  0.12699999809E+01 0.  1.
</event>
<event>
 5   0  0.1235252E-06  0.2796492E+04  0.7818609E-02  0.8304358E-01
       -1   -1    0    0    0  501  0.00000000000E+00  0.00000000000E+00  0.12405449699E+04  0.12405449699E+04  0.50400001928E-02 0.  1.
        1   -1    0    0  501    0  0.00000000000E+00  0.00000000000E+00 -0.15759941041E+04  0.15759941041E+04  0.50400001928E-02 0. -1.
    10030    2    1    2    0    0  0.00000000000E+00  0.00000000000E+00 -0.33544913425E+03  0.28165390740E+04  0.27964917726E+04 0.  0.
        1    1    3    3  502    0  0.84664973672E+03 -0.75854534001E+03  0.65228939737E+03  0.13106060688E+04  0.50400001928E-02 0.  1.
       -1    1    3    3    0  502 -0.84664973672E+03  0.75854534001E+03 -0.98773853162E+03  0.15059330053E+04  0.50400001928E-02 0. -1.
</event>
<event>
 5   0  0.3162695E-06  0.2793972E+04  0.7818609E-02  0.8305142E-01
        2   -1    0    0  501    0  0.00000000000E+00  0.00000000000E+00  0.12573821516E+04  0.12573821516E+04  0.25500000920E-02 0. -1.
       -2   -1    0    0    0  501  0.00000000000E+00  0.00000000000E+00 -0.15520901608E+04  0.15520901608E+04  0.25500000920E-02 0.  1.
    10030    2    1    2    0    0  0.00000000000E+00  0.00000000000E+00 -0.29470800918E+03  0.28094723124E+04  0.27939724164E+04 0.  0.
        1    1    3    3  502    0 -0.97999192690E+03 -0.19421397135E+03  0.83451946651E+03  0.13017395989E+04  0.50400001928E-02 0. -1.
       -1    1    3    3    0  502  0.97999192690E+03  0.19421397135E+03 -0.11292274757E+04  0.15077327135E+04  0.50400001928E-02 0.  1.
</event>
<event>
 5   0  0.1065675E-06  0.2790209E+04  0.7818609E-02  0.8306315E-01
       -3   -1    0    0    0  501  0.00000000000E+00  0.00000000000E+00  0.11443802598E+04  0.11443802643E+04  0.10100000352E+00 0.  1.
        3   -1    0    0  501    0  0.00000000000E+00  0.00000000000E+00 -0.17007599274E+04  0.17007599304E+04  0.10100000352E+00 0. -1.
    10030    2    1    2    0    0  0.00000000000E+00  0.00000000000E+00 -0.55637966757E+03  0.28451401947E+04  0.27902086648E+04 0.  0.
        4    1    3    3  502    0  0.58475671330E+03  0.12662635324E+04 -0.30963091355E+03  0.14287185387E+04  0.12699999809E+01 0.  1.
       -4    1    3    3    0  502 -0.58475671330E+03 -0.12662635324E+04 -0.24674875402E+03  0.14164216560E+04  0.12699999809E+01 0. -1.
</event>
<event>
 5   0  0.3167616E-06  0.2788327E+04  0.7818609E-02  0.8306902E-01
        2   -1    0    0  501    0  0.00000000000E+00  0.00000000000E+00  0.11990150177E+04  0.11990150177E+04  0.25500000920E-02 0. -1.
       -2   -1    0    0    0  501  0.00000000000E+00  0.00000000000E+00 -0.16210734773E+04  0.16210734773E+04  0.25500000920E-02 0.  1.
    10030    2    1    2    0    0  0.00000000000E+00  0.00000000000E+00 -0.42205845960E+03  0.28200884951E+04  0.27883266983E+04 0.  0.
        3    1    3    3  502    0 -0.12769944175E+04 -0.48613878072E+03  0.68974100340E+02  0.13681385505E+04  0.10100000352E+00 0.  1.
       -3    1    3    3    0  502  0.12769944175E+04  0.48613878072E+03 -0.49103255994E+03  0.14519499446E+04  0.10100000352E+00 0. -1.
</event>
<event>
 5   0  0.1235252E-06  0.2802950E+04  0.7818609E-02  0.8302353E-01
       -1   -1    0    0    0  501  0.00000000000E+00  0.00000000000E+00  0.16849104447E+04  0.16849104447E+04  0.50400001928E-02 0. -1.
        1   -1    0    0  501    0  0.00000000000E+00  0.00000000000E+00 -0.11657191388E+04  0.11657191388E+04  0.50400001928E-02 0.  1.
    10030    2    1    2    0    0  0.00000000000E+00  0.00000000000E+00  0.51919130595E+03  0.28506295835E+04  0.28029501263E+04 0.  0.
        1    1    3    3  502    0 -0.13586065855E+03 -0.49708490335E+03 -0.10658701492E+04  0.11839048503E+04  0.50400001928E-02 0.  1.
       -1    1    3    3    0  502  0.13586065855E+03  0.49708490335E+03  0.15850614551E+04  0.16667247332E+04  0.50400001928E-02 0. -1.
</event>
<event>
 5   0  0.1065675E-06  0.2780612E+04  0.7818609E-02  0.8309313E-01
       -3   -1    0    0    0  501  0.00000000000E+00  0.00000000000E+00  0.17299306980E+04  0.17299307010E+04  0.10100000352E+00 0. -1.
        3   -1    0    0  501    0  0.00000000000E+00  0.00000000000E+00 -0.11173572055E+04  0.11173572101E+04  0.10100000352E+00 0.  1.
    10030    2    1    2    0    0  0.00000000000E+00  0.00000000000E+00  0.61257349252E+03  0.28472879110E+04  0.27806118328E+04 0.  0.
        4    1    3    3  502    0 -0.94956046837E+03 -0.10122493194E+04  0.22287701264E+03  0.14056989519E+04  0.12699999809E+01 0. -1.
       -4    1    3    3    0  502  0.94956046837E+03  0.10122493194E+04  0.38969647988E+03  0.14415889591E+04  0.12699999809E+01 0.  1.
</event>
<event>
 5   0  0.3226364E-06  0.2783397E+04  0.7818609E-02  0.8308441E-01
       -2   -1    0    0    0  501  0.00000000000E+00  0.00000000000E+00  0.14515577625E+04  0.14515577625E+04  0.25500000920E-02 0. -1.
        2   -1    0    0  501    0  0.00000000000E+00  0.00000000000E+00 -0.13343079442E+04  0.13343079442E+04  0.25500000920E-02 0.  1.
    10030    2    1    2    0    0  0.00000000000E+00  0.00000000000E+00  0.11724981836E+03  0.27858657067E+04  0.27833972437E+04 0.  0.
        5    1    3    3  502    0  0.10336278168E+04 -0.48980888040E+02  0.99005075897E+03  0.14321341370E+04  0.46999998093E+01 0. -1.
       -5    1    3    3    0  502 -0.10336278168E+04  0.48980888040E+02 -0.87280094061E+03  0.13537315697E+04  0.46999998093E+01 0.  1.
</event>
<event>
 5   0  0.1235252E-06  0.2802008E+04  0.7818609E-02  0.8302645E-01
        1   -1    0    0  501    0  0.00000000000E+00  0.00000000000E+00  0.15336689877E+04  0.15336689877E+04  0.50400001928E-02 0.  1.
       -1   -1    0    0    0  501  0.00000000000E+00  0.00000000000E+00 -0.12798146785E+04  0.12798146785E+04  0.50400001928E-02 0. -1.
    10030    2    1    2    0    0  0.00000000000E+00  0.00000000000E+00  0.25385430921E+03  0.28134836662E+04  0.28020079103E+04 0.  0.
        1    1    3    3  502    0 -0.84573201085E+03 -0.27868295432E+03 -0.95911498224E+03  0.13087506915E+04  0.50400001928E-02 0. -1.
       -1    1    3    3    0  502  0.84573201085E+03  0.27868295432E+03  0.12129692915E+04  0.15047329747E+04  0.50400001928E-02 0.  1.
</event>
<event>
 5   0  0.1243055E-06  0.2787076E+04  0.7818609E-02  0.8307292E-01
       -1   -1    0    0    0  501  0.00000000000E+00  0.00000000000E+00  0.70280421896E+03  0.70280421897E+03  0.50400001928E-02 0.  1.
        1   -1    0    0  501    0  0.00000000000E+00  0.00000000000E+00 -0.27631427304E+04  0.27631427304E+04  0.50400001928E-02 0. -1.
    10030    2    1    2    0    0  0.00000000000E+00  0.00000000000E+00 -0.20603385115E+04  0.34659469494E+04  0.27870761515E+04 0.  0.
        5    1    3    3  502    0 -0.10594332152E+03  0.12193672226E+04 -0.18586628717E+04  0.22254730220E+04  0.46999998093E+01 0. -1.
       -5    1    3    3    0  502  0.10594332152E+03 -0.12193672226E+04 -0.20167563973E+03  0.12404739274E+04  0.46999998093E+01 0.  1.
</event>
<event>
 5   0  0.1263513E-06  0.2842149E+04  0.7818609E-02  0.8290301E-01
       -1   -1    0    0    0  501  0.00000000000E+00  0.00000000000E+00  0.94216681152E+03  0.94216681153E+03  0.50400001928E-02 0. -1.
        1   -1    0    0  501    0  0.00000000000E+00  0.00000000000E+00 -0.21434131172E+04  0.21434131172E+04  0.50400001928E-02 0.  1.
    10030    2    1    2    0    0  0.00000000000E+00  0.00000000000E+00 -0.12012463057E+04  0.30855799287E+04  0.28421489774E+04 0.  0.
        3    1    3    3  502    0 -0.10972955369E+04 -0.60175487255E+03 -0.13315539225E+04  0.18273484289E+04  0.10100000352E+00 0. -1.
       -3    1    3    3    0  502  0.10972955369E+04  0.60175487255E+03  0.13030761686E+03  0.12582314998E+04  0.10100000352E+00 0.  1.
</event>
<event>
 5   0  0.3212679E-06  0.2825854E+04  0.7818609E-02  0.8295286E-01
       -2   -1    0    0    0  501  0.00000000000E+00  0.00000000000E+00  0.13174870160E+04  0.13174870160E+04  0.25500000920E-02 0. -1.
        2   -1    0    0  501    0  0.00000000000E+00  0.00000000000E+00 -0.15152805420E+04  0.15152805420E+04  0.25500000920E-02 0.  1.
    10030    2    1    2    0    0  0.00000000000E+00  0.00000000000E+00 -0.19779352602E+03  0.28327675580E+04  0.28258538106E+04 0.  0.
        4    1    3    3  502    0  0.23092038538E+02  0.38314174365E+03  0.12642205277E+04  0.13212062645E+04  0.12699999809E+01 0. -1.
       -4    1    3    3    0  502 -0.23092038538E+02 -0.38314174365E+03 -0.14620140537E+04  0.15115612935E+04  0.12699999809E+01 0.  1.
</event>
<event>
 5   0  0.1246044E-06  0.2798512E+04  0.7818609E-02  0.8303731E-01
        1   -1    0    0  501    0  0.00000000000E+00  0.00000000000E+00  0.15167896732E+04  0.15167896732E+04  0.50400001928E-02 0.  1.
       -1   -1    0    0    0  501  0.00000000000E+00  0.00000000000E+00 -0.12908294662E+04  0.12908294662E+04  0.50400001928E-02 0. -1.
    10030    2    1    2    0    0  0.00000000000E+00  0.00000000000E+00  0.22596020699E+03  0.28076191394E+04  0.27985116074E+04 0.  0.
        2    1    3    3  502    0  0.61265950708E+02 -0.10940314189E+04  0.98601815354E+03  0.14740726106E+04  0.25500000920E-02 0.  1.
       -2    1    3    3    0  502 -0.61265950708E+02  0.10940314189E+04 -0.76005794655E+03  0.13335465288E+04  0.25500000920E-02 0. -1.
</event>
<event>
 5   0  0.3162695E-06  0.2816486E+04  0.7818609E-02  0.8298168E-01
        2   -1    0    0  501    0  0.00000000000E+00  0.00000000000E+00  0.96725687230E+03  0.96725687231E+03  0.25500000920E-02 0.  1.
       -2   -1    0    0    0  501  0.00000000000E+00  0.00000000000E+00 -0.20502810812E+04  0.20502810812E+04  0.25500000920E-02 0. -1.
    10030    2    1    2    0    0  0.00000000000E+00  0.00000000000E+00 -0.10830242089E+04  0.30175379535E+04  0.28164860845E+04 0.  0.
        1    1    3    3  502    0 -0.11097534642E+04  0.76462638842E+03 -0.10376004443E+03  0.13516554339E+04  0.50400001928E-02 0.  1.
       -1    1    3    3    0  502  0.11097534642E+04 -0.76462638842E+03 -0.97926416449E+03  0.16658825196E+04  0.50400001928E-02 0. -1.
</event>
<event>
 5   0  0.3162695E-06  0.2798745E+04  0.7818609E-02  0.8303658E-01
        2   -1    0    0  501    0  0.00000000000E+00  0.00000000000E+00  0.23689498003E+04  0.23689498003E+04  0.25500000920E-02 0. -1.
       -2   -1    0    0    0  501  0.00000000000E+00  0.00000000000E+00 -0.82662926360E+03  0.82662926361E+03  0.25500000920E-02 0.  1.
    10030    2    1    2    0    0  0.00000000000E+00  0.00000000000E+00  0.15423205367E+04  0.31955790639E+04  0.27987448822E+04 0.  0.
        1    1    3    3  502    0 -0.64312259601E+03 -0.46704813630E+03 -0.54388379947E+03  0.96309408807E+03  0.50400001928E-02 0.  1.
       -1    1    3    3    0  502  0.64312259601E+03  0.46704813630E+03  0.20862043362E+04  0.22324849759E+04  0.50400001928E-02 0. -1.
</event>
<event>
 5   0  0.3212679E-06  0.2761975E+04  0.7818609E-02  0.8315172E-01
       -2   -1    0    0    0  501  0.00000000000E+00  0.00000000000E+00  0.11103846000E+04  0.11103846000E+04  0.25500000920E-02 0.  1.
        2   -1    0    0  501    0  0.00000000000E+00  0.00000000000E+00 -0.17175369557E+04  0.17175369557E+04  0.25500000920E-02 0. -1.
    10030    2    1    2    0    0  0.00000000000E+00  0.00000000000E+00 -0.60715235569E+03  0.28279215556E+04  0.27619750799E+04 0.  0.
        4    1    3    3  502    0  0.16152646529E+03 -0.66471065161E+03 -0.15318841223E+04  0.16776774500E+04  0.12699999809E+01 0. -1.
       -4    1    3    3    0  502 -0.16152646529E+03  0.66471065161E+03  0.92473176661E+03  0.11502441056E+04  0.12699999809E+01 0.  1.
</event>
<event>
 5   0  0.3212679E-06  0.2802362E+04  0.7818609E-02  0.8302536E-01
       -2   -1    0    0    0  501  0.00000000000E+00  0.00000000000E+00  0.15115281666E+04  0.15115281666E+04  0.25500000920E-02 0. -1.
        2   -1    0    0  501    0  0.00000000000E+00  0.00000000000E+00 -0.12988891851E+04  0.12988891851E+04  0.25500000920E-02 0.  1.
    10030    2    1    2    0    0  0.00000000000E+00  0.00000000000E+00  0.21263898149E+03  0.28104173517E+04  0.28023615674E+04 0.  0.
        4    1    3    3  502    0 -0.82286659346E+03 -0.84627400860E+03  0.86348443037E+03  0.14624965308E+04  0.12699999809E+01 0. -1.
       -4    1    3    3    0  502  0.82286659346E+03  0.84627400860E+03 -0.65084544888E+03  0.13479208209E+04  0.12699999809E+01 0.  1.
</event>
<event>
 5   0  0.3167616E-06  0.2796638E+04  0.7818609E-02  0.8304313E-01
        2   -1    0    0  501    0  0.00000000000E+00  0.00000000000E+00  0.15438598362E+04  0.15438598362E+04  0.25500000920E-02 0.  1.
       -2   -1    0    0    0  501  0.00000000000E+00  0.00000000000E+00 -0.12664981178E+04  0.12664981178E+04  0.25500000920E-02 0. -1.
    10030    2    1    2    0    0  0.00000000000E+00  0.00000000000E+00  0.27736171832E+03  0.28103579540E+04  0.27966376789E+04 0.  0.
        3    1    3    3  502    0  0.11337644228E+04  0.74859566884E+03  0.47117921817E+03  0.14379941264E+04  0.10100000352E+00 0.  1.
       -3    1    3    3    0  502 -0.11337644228E+04 -0.74859566884E+03 -0.19381749985E+03  0.13723638276E+04  0.10100000352E+00 0. -1.
</event>
<event>
 5   0  0.1263513E-06  0.2791901E+04  0.7818609E-02  0.8305787E-01
       -1   -1    0    0    0  501  0.00000000000E+00  0.00000000000E+00  0.11423559002E+04  0.11423559002E+04  0.50400001928E-02 0.  1.
        1   -1    0    0  501    0  0.00000000000E+00  0.00000000000E+00 -0.17058417009E+04  0.17058417009E+04  0.50400001928E-02 0. -1.
    10030    2    1    2    0    0  0.00000000000E+00  0.00000000000E+00 -0.56348580068E+03  0.28481976011E+04  0.27919013820E+04 0.  0.
        3    1    3    3  502    0 -0.75964165918E+03 -0.18790028132E+03  0.89755814784E+03  0.11907865489E+04  0.10100000352E+00 0.  1.
       -3    1    3    3    0  502  0.75964165918E+03  0.18790028132E+03 -0.14610439485E+04  0.16574110522E+04  0.10100000352E+00 0. -1.
</event>
<event>
 5   0  0.1220265E-06  0.2802791E+04  0.7818609E-02  0.8302402E-01
       -1   -1    0    0    0  501  0.00000000000E+00  0.00000000000E+00  0.14696449482E+04  0.14696449482E+04  0.50400001928E-02 0.  1.
        1   -1    0    0  501    0  0.00000000000E+00  0.00000000000E+00 -0.13363151985E+04  0.13363151985E+04  0.50400001928E-02 0. -1.
    10030    2    1    2    0    0  0.00000000000E+00  0.00000000000E+00  0.13332974970E+03  0.28059601467E+04  0.28027906670E+04 0.  0.
        4    1    3    3  502    0  0.69984103507E+03 -0.21236011940E+01  0.12821734676E+04  0.14607369366E+04  0.12699999809E+01 0.  1.
       -4    1    3    3    0  502 -0.69984103507E+03  0.21236011940E+01 -0.11488437179E+04  0.13452232101E+04  0.12699999809E+01 0. -1.
</event>
<event>
 5   0  0.3167616E-06  0.2794725E+04  0.7818609E-02  0.8304908E-01
        2   -1    0    0  501    0  0.00000000000E+00  0.00000000000E+00  0.11545099886E+04  0.11545099886E+04  0.25500000920E-02 0. -1.
       -2   -1    0    0    0  501  0.00000000000E+00  0.00000000000E+00 -0.16912993603E+04  0.16912993603E+04  0.25500000920E-02 0.  1.
    10030    2    1    2    0    0  0.00000000000E+00  0.00000000000E+00 -0.53678937176E+03  0.28458093489E+04  0.27947250349E+04 0.  0.
        3    1    3    3  502    0  0.12415131286E+04 -0.20919304187E+03 -0.88569797268E+03  0.15393431996E+04  0.10100000352E+00 0.  1.
       -3    1    3    3    0  502 -0.12415131286E+04  0.20919304187E+03  0.34890860092E+03  0.13064661493E+04  0.10100000352E+00 0. -1.
</event>
<event>
 5   0  0.3345919E-06  0.2805009E+04  0.7818609E-02  0.8301715E-01
        2   -1    0    0  501    0  0.00000000000E+00  0.00000000000E+00  0.10665986942E+04  0.10665986942E+04  0.25500000920E-02 0. -1.
       -2   -1    0    0    0  501  0.00000000000E+00  0.00000000000E+00 -0.18441970922E+04  0.18441970922E+04  0.25500000920E-02 0.  1.
    10030    2    1    2    0    0  0.00000000000E+00  0.00000000000E+00 -0.77759839793E+03  0.29107957864E+04  0.28050085279E+04 0.  0.
        2    1    3    3  502    0 -0.13944230837E+04 -0.13867550560E+03 -0.32854404924E+03  0.14393011584E+04  0.25500000920E-02 0. -1.
       -2    1    3    3    0  502  0.13944230837E+04  0.13867550560E+03 -0.44905434869E+03  0.14714946280E+04  0.25500000920E-02 0.  1.
</event>
<event>
 5   0  0.1235252E-06  0.2789730E+04  0.7818609E-02  0.8306464E-01
       -1   -1    0    0    0  501  0.00000000000E+00  0.00000000000E+00  0.76196203406E+03  0.76196203408E+03  0.50400001928E-02 0.  1.
        1   -1    0    0  501    0  0.00000000000E+00  0.00000000000E+00 -0.25534712366E+04  0.25534712366E+04  0.50400001928E-02 0. -1.
    10030    2    1    2    0    0  0.00000000000E+00  0.00000000000E+00 -0.17915092026E+04  0.33154332707E+04  0.27897298345E+04 0.  0.
        1    1    3    3  502    0 -0.54321389025E+03 -0.25976916571E+02  0.63077736694E+03  0.83284825594E+03  0.50400001928E-02 0.  1.
       -1    1    3    3    0  502  0.54321389025E+03  0.25976916571E+02 -0.24222865695E+04  0.24825850148E+04  0.50400001928E-02 0. -1.
</event>
<event>
 5   0  0.3162695E-06  0.2782559E+04  0.7818609E-02  0.8308704E-01
       -2   -1    0    0    0  501  0.00000000000E+00  0.00000000000E+00  0.93559650475E+03  0.93559650475E+03  0.25500000920E-02 0.  1.
        2   -1    0    0  501    0  0.00000000000E+00  0.00000000000E+00 -0.20689031525E+04  0.20689031525E+04  0.25500000920E-02 0. -1.
    10030    2    1    2    0    0  0.00000000000E+00  0.00000000000E+00 -0.11333066477E+04  0.30044996572E+04  0.27825589360E+04 0.  0.
        1    1    3    3  502    0 -0.35879056387E+03  0.13378534865E+04 -0.42555557873E+03  0.14490273188E+04  0.50400001928E-02 0.  1.
       -1    1    3    3    0  502  0.35879056387E+03 -0.13378534865E+04 -0.70775106897E+03  0.15554723384E+04  0.50400001928E-02 0. -1.
</event>
<event>
 5   0  0.1246044E-06  0.2811809E+04  0.7818609E-02  0.8299612E-01
       -1   -1    0    0    0  501  0.00000000000E+00  0.00000000000E+00  0.34053177829E+04  0.34053177829E+04  0.50400001928E-02 0. -1.
        1   -1    0    0  501    0  0.00000000000E+00  0.00000000000E+00 -0.58043533898E+03  0.58043533900E+03  0.50400001928E-02 0.  1.
    10030    2    1    2    0    0  0.00000000000E+00  0.00000000000E+00  0.28248824439E+04  0.39857531219E+04  0.28118085153E+04 0.  0.
        2    1    3    3  502    0  0.61638208818E+03 -0.37363773921E+02 -0.37790981781E+03  0.72397428175E+03  0.25500000920E-02 0.  1.
       -2    1    3    3    0  502 -0.61638208818E+03  0.37363773921E+02  0.32027922617E+04  0.32617788401E+04  0.25500000920E-02 0. -1.
</event>
<event>
 5   0  0.3226364E-06  0.2792753E+04  0.7818609E-02  0.8305522E-01
       -2   -1    0    0    0  501  0.00000000000E+00  0.00000000000E+00  0.15053840328E+04  0.15053840328E+04  0.25500000920E-02 0.  1.
        2   -1    0    0  501    0  0.00000000000E+00  0.00000000000E+00 -0.12952626228E+04  0.12952626228E+04  0.25500000920E-02 0. -1.
    10030    2    1    2    0    0  0.00000000000E+00  0.00000000000E+00  0.21012141007E+03  0.28006466556E+04  0.27927532441E+04 0.  0.
        5    1    3    3  502    0 -0.49672446099E+03 -0.12692980505E+04  0.40922118865E+03  0.14231432825E+04  0.46999998093E+01 0.  1.
       -5    1    3    3    0  502  0.49672446099E+03  0.12692980505E+04 -0.19909977858E+03  0.13775033731E+04  0.46999998093E+01 0. -1.
</event>
<event>
 5   0  0.1246044E-06  0.2799731E+04  0.7818609E-02  0.8303352E-01
       -1   -1    0    0    0  501  0.00000000000E+00  0.00000000000E+00  0.80428732968E+03  0.80428732969E+03  0.50400001928E-02 0. -1.
        1   -1    0    0  501    0  0.00000000000E+00  0.00000000000E+00 -0.24364725747E+04  0.24364725747E+04  0.50400001928E-02 0.  1.
    10030    2    1    2    0    0  0.00000000000E+00  0.00000000000E+00 -0.16321852450E+04  0.32407599044E+04  0.27997314307E+04 0.  0.
        2    1    3    3  502    0 -0.62192474223E+03  0.24731737876E+03 -0.22392687758E+04  0.23371523102E+04  0.25500000920E-02 0.  1.
       -2    1    3    3    0  502  0.62192474223E+03 -0.24731737876E+03  0.60708353081E+03  0.90360759416E+03  0.25500000920E-02 0. -1.
</event>
<event>
 5   0  0.1263513E-06  0.2802839E+04  0.7818609E-02  0.8302387E-01
       -1   -1    0    0    0  501  0.00000000000E+00  0.00000000000E+00  0.11588540895E+04  0.11588540895E+04  0.50400001928E-02 0. -1.
        1   -1    0    0  501    0  0.00000000000E+00  0.00000000000E+00 -0.16947575347E+04  0.16947575347E+04  0.50400001928E-02 0.  1.
    10030    2    1    2    0    0  0.00000000000E+00  0.00000000000E+00 -0.53590344521E+03  0.28536116242E+04  0.28028390605E+04 0.  0.
        3    1    3    3  502    0 -0.12701290858E+03 -0.61341444661E+03 -0.15442822952E+04  0.16664985388E+04  0.10100000352E+00 0.  1.
       -3    1    3    3    0  502  0.12701290858E+03  0.61341444661E+03  0.10083788500E+04  0.11871130854E+04  0.10100000352E+00 0. -1.
</event>
<event>
 5   0  0.1243055E-06  0.2684796E+04  0.7818609E-02  0.8339955E-01
       -1   -1    0    0    0  501  0.00000000000E+00  0.00000000000E+00  0.22646201294E+04  0.22646201294E+04  0.50400001928E-02 0. -1.
        1   -1    0    0  501    0  0.00000000000E+00  0.00000000000E+00 -0.79573289949E+03  0.79573289951E+03  0.50400001928E-02 0.  1.
    10030    2    1    2    0    0  0.00000000000E+00  0.00000000000E+00  0.14688872299E+04  0.30603530289E+04  0.26847962618E+04 0.  0.
        5    1    3    3  502    0 -0.66166360096E+03  0.11615498668E+04  0.87411455438E+03  0.15972148128E+04  0.46999998093E+01 0.  1.
       -5    1    3    3    0  502  0.66166360096E+03 -0.11615498668E+04  0.59477267553E+03  0.14631382161E+04  0.46999998093E+01 0. -1.
</event>
<event>
 5   0  0.3162695E-06  0.2724418E+04  0.7818609E-02  0.8327125E-01
       -2   -1    0    0    0  501  0.00000000000E+00  0.00000000000E+00  0.21550245685E+04  0.21550245685E+04  0.25500000920E-02 0.  1.
        2   -1    0    0  501    0  0.00000000000E+00  0.00000000000E+00 -0.86106375809E+03  0.86106375809E+03  0.25500000920E-02 0. -1.
    10030    2    1    2    0    0  0.00000000000E+00  0.00000000000E+00  0.12939608105E+04  0.30160883266E+04  0.27244181425E+04 0.  0.
        1    1    3    3  502    0  0.78902003972E+03 -0.76875802631E+03  0.15340591373E+04  0.18886182682E+04  0.50400001928E-02 0.  1.
       -1    1    3    3    0  502 -0.78902003972E+03  0.76875802631E+03 -0.24009832688E+03  0.11274700584E+04  0.50400001928E-02 0. -1.
</event>
<event>
 5   0  0.1263513E-06  0.2853600E+04  0.7818609E-02  0.8286818E-01
       -1   -1    0    0    0  501  0.00000000000E+00  0.00000000000E+00  0.13129897315E+04  0.13129897316E+04  0.50400001928E-02 0. -1.
        1   -1    0    0  501    0  0.00000000000E+00  0.00000000000E+00 -0.15504758819E+04  0.15504758819E+04  0.50400001928E-02 0.  1.
    10030    2    1    2    0    0  0.00000000000E+00  0.00000000000E+00 -0.23748615039E+03  0.28634656135E+04  0.28536004710E+04 0.  0.
        3    1    3    3  502    0  0.12953521228E+04  0.59481465785E+03 -0.18234438648E+03  0.14370076843E+04  0.10100000352E+00 0.  1.
       -3    1    3    3    0  502 -0.12953521228E+04 -0.59481465785E+03 -0.55141763910E+02  0.14264579292E+04  0.10100000352E+00 0. -1.
</event>
<event>
 5   0  0.3345919E-06  0.2801913E+04  0.7818609E-02  0.8302675E-01
        2   -1    0    0  501    0  0.00000000000E+00  0.00000000000E+00  0.92508992093E+03  0.92508992094E+03  0.25500000920E-02 0.  1.
       -2   -1    0    0    0  501  0.00000000000E+00  0.00000000000E+00 -0.21216091595E+04  0.21216091595E+04  0.25500000920E-02 0. -1.
    10030    2    1    2    0    0  0.00000000000E+00  0.00000000000E+00 -0.11965192385E+04  0.30466990804E+04  0.28019130961E+04 0.  0.
        2    1    3    3  502    0  0.50912528895E+03  0.12043279810E+04 -0.51255276416E+02  0.13085264801E+04  0.25500000920E-02 0. -1.
       -2    1    3    3    0  502 -0.50912528895E+03 -0.12043279810E+04 -0.11452639621E+04  0.17381726003E+04  0.25500000920E-02 0.  1.
</event>
<event>
 5   0  0.1220265E-06  0.2806846E+04  0.7818609E-02  0.8301146E-01
        1   -1    0    0  501    0  0.00000000000E+00  0.00000000000E+00  0.19939627889E+04  0.19939627889E+04  0.50400001928E-02 0.  1.
       -1   -1    0    0    0  501  0.00000000000E+00  0.00000000000E+00 -0.98778008543E+03  0.98778008545E+03  0.50400001928E-02 0. -1.
    10030    2    1    2    0    0  0.00000000000E+00  0.00000000000E+00  0.10061827035E+04  0.29817428743E+04  0.28068464397E+04 0.  0.
        4    1    3    3  502    0  0.10575826691E+04 -0.91883887950E+03  0.59100763542E+03  0.15205385975E+04  0.12699999809E+01 0.  1.
       -4    1    3    3    0  502 -0.10575826691E+04  0.91883887950E+03  0.41517506803E+03  0.14612042768E+04  0.12699999809E+01 0. -1.
</event>
<event>
 5   0  0.1243055E-06  0.2791681E+04  0.7818609E-02  0.8305856E-01
       -1   -1    0    0    0  501  0.00000000000E+00  0.00000000000E+00  0.16172456756E+04  0.16172456756E+04  0.50400001928E-02 0. -1.
        1   -1    0    0  501    0  0.00000000000E+00  0.00000000000E+00 -0.12047465497E+04  0.12047465498E+04  0.50400001928E-02 0.  1.
    10030    2    1    2    0    0  0.00000000000E+00  0.00000000000E+00  0.41249912588E+03  0.28219922254E+04  0.27916813198E+04 0.  0.
        5    1    3    3  502    0  0.15622455822E+03 -0.81860049291E+03  0.13381555858E+04  0.15764502344E+04  0.46999998093E+01 0. -1.
       -5    1    3    3    0  502 -0.15622455822E+03  0.81860049291E+03 -0.92565645993E+03  0.12455419910E+04  0.46999998093E+01 0.  1.
</event>
<event>
 5   0  0.3226364E-06  0.2796766E+04  0.7818609E-02  0.8304273E-01
        2   -1    0    0  501    0  0.00000000000E+00  0.00000000000E+00  0.15213364238E+04  0.15213364238E+04  0.25500000920E-02 0.  1.
       -2   -1    0    0    0  501  0.00000000000E+00  0.00000000000E+00 -0.12853669275E+04  0.12853669275E+04  0.25500000920E-02 0. -1.
    10030    2    1    2    0    0  0.00000000000E+00  0.00000000000E+00  0.23596949639E+03  0.28067033513E+04  0.27967663647E+04 0.  0.
        5    1    3    3  502    0 -0.43883123641E+03  0.40775111643E+03 -0.11500789051E+04  0.12967410709E+04  0.46999998093E+01 0. -1.
       -5    1    3    3    0  502  0.43883123641E+03 -0.40775111643E+03  0.13860484015E+04  0.15099622804E+04  0.46999998093E+01 0.  1.
</event>
<event>
 5   0  0.1243055E-06  0.2820372E+04  0.7818609E-02  0.8296972E-01
       -1   -1    0    0    0  501  0.00000000000E+00  0.00000000000E+00  0.11408754794E+04  0.11408754795E+04  0.50400001928E-02 0.  1.
        1   -1    0    0  501    0  0.00000000000E+00  0.00000000000E+00 -0.17430684620E+04  0.17430684620E+04  0.50400001928E-02 0. -1.
    10030    2    1    2    0    0  0.00000000000E+00  0.00000000000E+00 -0.60219298253E+03  0.28839439414E+04  0.28203716544E+04 0.  0.
        5    1    3    3  502    0  0.10894415898E+04 -0.57042029941E+01 -0.12166479266E+04  0.16331472018E+04  0.46999998093E+01 0. -1.
       -5    1    3    3    0  502 -0.10894415898E+04  0.57042029941E+01  0.61445494406E+03  0.12507967396E+04  0.46999998093E+01 0.  1.
</event>
<event>
 5   0  0.1246044E-06  0.2807569E+04  0.7818609E-02  0.8300922E-01
       -1   -1    0    0    0  501  0.00000000000E+00  0.00000000000E+00  0.13538621357E+04  0.13538621357E+04  0.50400001928E-02 0. -1.
        1   -1    0    0  501    0  0.00000000000E+00  0.00000000000E+00 -0.14555480002E+04  0.14555480002E+04  0.50400001928E-02 0.  1.
    10030    2    1    2    0    0  0.00000000000E+00  0.00000000000E+00 -0.10168586449E+03  0.28094101359E+04  0.28075692862E+04 0.  0.
        2    1    3    3  502    0 -0.78183409122E+03  0.21912350547E+03 -0.11967276746E+04  0.14461800663E+04  0.25500000920E-02 0.  1.
       -2    1    3    3    0  502  0.78183409122E+03 -0.21912350547E+03  0.10950418101E+04  0.13632300697E+04  0.25500000920E-02 0. -1.
</event>
<event>
 5   0  0.3162695E-06  0.2802651E+04  0.7818609E-02  0.8302446E-01
        2   -1    0    0  501    0  0.00000000000E+00  0.00000000000E+00  0.11229755344E+04  0.11229755344E+04  0.25500000920E-02 0.  1.
       -2   -1    0    0    0  501  0.00000000000E+00  0.00000000000E+00 -0.17486699104E+04  0.17486699104E+04  0.25500000920E-02 0. -1.
    10030    2    1    2    0    0  0.00000000000E+00  0.00000000000E+00 -0.62569437596E+03  0.28716454449E+04  0.28026512642E+04 0.  0.
        1    1    3    3  502    0 -0.11149687654E+04 -0.40647824725E+03  0.45070501912E+03  0.12694545788E+04  0.50400001928E-02 0.  1.
       -1    1    3    3    0  502  0.11149687654E+04  0.40647824725E+03 -0.10763993951E+04  0.16021908660E+04  0.50400001928E-02 0. -1.
</event>
<event>
 5   0  0.1220265E-06  0.2787156E+04  0.7818609E-02  0.8307267E-01
        1   -1    0    0  501    0  0.00000000000E+00  0.00000000000E+00  0.22348107790E+04  0.22348107790E+04  0.50400001928E-02 0.  1.
       -1   -1    0    0    0  501  0.00000000000E+00  0.00000000000E+00 -0.86900395248E+03  0.86900395249E+03  0.50400001928E-02 0. -1.
    10030    2    1    2    0    0  0.00000000000E+00  0.00000000000E+00  0.13658068265E+04  0.31038147315E+04  0.27871558263E+04 0.  0.
        4    1    3    3  502    0 -0.25355156054E+03  0.38506075234E+03 -0.78161394305E+03  0.90745917027E+03  0.12699999809E+01 0. -1.
       -4    1    3    3    0  502  0.25355156054E+03 -0.38506075234E+03  0.21474207696E+04  0.21963555612E+04  0.12699999809E+01 0.  1.
</event>
<event>
 5   0  0.3162695E-06  0.2747646E+04  0.7818609E-02  0.8319709E-01
       -2   -1    0    0    0  501  0.00000000000E+00  0.00000000000E+00  0.11546494873E+04  0.11546494873E+04  0.25500000920E-02 0.  1.
        2   -1    0    0  501    0  0.00000000000E+00  0.00000000000E+00 -0.16345992859E+04  0.16345992859E+04  0.25500000920E-02 0. -1.
    10030    2    1    2    0    0  0.00000000000E+00  0.00000000000E+00 -0.47994979861E+03  0.27892487732E+04  0.27476457031E+04 0.  0.
        1    1    3    3  502    0  0.63700243810E+03 -0.91027557531E+03  0.58035447580E+03  0.12534692046E+04  0.50400001928E-02 0.  1.
       -1    1    3    3    0  502 -0.63700243810E+03  0.91027557531E+03 -0.10603042744E+04  0.15357795687E+04  0.50400001928E-02 0. -1.
</event>
<event>
 5   0  0.3162695E-06  0.2819249E+04  0.7818609E-02  0.8297317E-01
        2   -1    0    0  501    0  0.00000000000E+00  0.00000000000E+00  0.19391182736E+04  0.19391182736E+04  0.25500000920E-02 0. -1.
       -2   -1    0    0    0  501  0.00000000000E+00  0.00000000000E+00 -0.10247135763E+04  0.10247135763E+04  0.25500000920E-02 0.  1.
    10030    2    1    2    0    0  0.00000000000E+00  0.00000000000E+00  0.91440469727E+03  0.29638318499E+04  0.28192487091E+04 0.  0.
        1    1    3    3  502    0 -0.67031204007E+03  0.86222981710E+03  0.13941333769E+04  0.17709789274E+04  0.50400001928E-02 0. -1.
       -1    1    3    3    0  502  0.67031204007E+03 -0.86222981710E+03 -0.47972867967E+03  0.11928529225E+04  0.50400001928E-02 0.  1.
</event>
<event>
 5   0  0.1220265E-06  0.2801911E+04  0.7818609E-02  0.8302675E-01
        1   -1    0    0  501    0  0.00000000000E+00  0.00000000000E+00  0.67229720827E+03  0.67229720829E+03  0.50400001928E-02 0. -1.
       -1   -1    0    0    0  501  0.00000000000E+00  0.00000000000E+00 -0.29193590759E+04  0.29193590759E+04  0.50400001928E-02 0.  1.
    10030    2    1    2    0    0  0.00000000000E+00  0.00000000000E+00 -0.22470618676E+04  0.35916562842E+04  0.28019114595E+04 0.  0.
        4    1    3    3  502    0  0.51854842503E+03  0.99402485156E+03 -0.46694747654E+02  0.11221229376E+04  0.12699999809E+01 0. -1.
       -4    1    3    3    0  502 -0.51854842503E+03 -0.99402485156E+03 -0.22003671200E+04  0.24695333466E+04  0.12699999809E+01 0.  1.
</event>
<event>
 5   0  0.1243055E-06  0.2813540E+04  0.7818609E-02  0.8299077E-01
        1   -1    0    0  501    0  0.00000000000E+00  0.00000000000E+00  0.13545297874E+04  0.13545297874E+04  0.50400001928E-02 0. -1.
       -1   -1    0    0    0  501  0.00000000000E+00  0.00000000000E+00 -0.14610254390E+04  0.14610254390E+04  0.50400001928E-02 0.  1.
    10030    2    1    2    0    0  0.00000000000E+00  0.00000000000E+00 -0.10649565163E+03  0.28155552265E+04  0.28135404581E+04 0.  0.
        5    1    3    3  502    0  0.26931067236E+03 -0.89195264390E+03  0.10014863517E+04  0.13678833137E+04  0.46999998093E+01 0. -1.
       -5    1    3    3    0  502 -0.26931067236E+03  0.89195264390E+03 -0.11079820034E+04  0.14476719128E+04  0.46999998093E+01 0.  1.
</event>
<event>
 5   0  0.3162695E-06  0.2865098E+04  0.7818609E-02  0.8283338E-01
       -2   -1    0    0    0  501  0.00000000000E+00  0.00000000000E+00  0.14832430631E+04  0.14832430631E+04  0.25500000920E-02 0. -1.
        2   -1    0    0  501    0  0.00000000000E+00  0.00000000000E+00 -0.13835875531E+04  0.13835875531E+04  0.25500000920E-02 0.  1.
    10030    2    1    2    0    0  0.00000000000E+00  0.00000000000E+00  0.99655510026E+02  0.28668306162E+04  0.28650980021E+04 0.  0.
        1    1    3    3  502    0 -0.74840660683E+03 -0.74330238238E+03 -0.92008074416E+03  0.13996997737E+04  0.50400001928E-02 0.  1.
       -1    1    3    3    0  502  0.74840660683E+03  0.74330238238E+03  0.10197362542E+04  0.14671308425E+04  0.50400001928E-02 0. -1.
</event>
<event>
 5   0  0.1220265E-06  0.2792362E+04  0.7818609E-02  0.8305644E-01
        1   -1    0    0  501    0  0.00000000000E+00  0.00000000000E+00  0.13962476518E+04  0.13962476518E+04  0.50400001928E-02 0. -1.
       -1   -1    0    0    0  501  0.00000000000E+00  0.00000000000E+00 -0.13961145704E+04  0.13961145704E+04  0.50400001928E-02 0.  1.
    10030    2    1    2    0    0  0.00000000000E+00  0.00000000000E+00  0.13308141403E+00  0.27923622222E+04  0.27923622191E+04 0.  0.
        4    1    3    3  502    0  0.63321351266E+03 -0.11359999998E+04  0.50787036723E+03  0.13962053126E+04  0.12699999809E+01 0. -1.
       -4    1    3    3    0  502 -0.63321351266E+03  0.11359999998E+04 -0.50773728582E+03  0.13961569097E+04  0.12699999809E+01 0.  1.
</event>
<event>
 5   0  0.1235252E-06  0.2801286E+04  0.7818609E-02  0.8302869E-01
        1   -1    0    0  501    0  0.00000000000E+00  0.00000000000E+00  0.13662604241E+04  0.13662604241E+04  0.50400001928E-02 0. -1.
       -1   -1    0    0    0  501  0.00000000000E+00  0.00000000000E+00 -0.14358912725E+04  0.14358912725E+04  0.50400001928E-02 0.  1.
    10030    2    1    2    0    0  0.00000000000E+00  0.00000000000E+00 -0.69630848399E+02  0.28021516966E+04  0.28012864323E+04 0.  0.
        1    1    3    3  502    0  0.42359737503E+03  0.13142544824E+04 -0.26962573762E+03  0.14069106649E+04  0.50400001928E-02 0.  1.
       -1    1    3    3    0  502 -0.42359737503E+03 -0.13142544824E+04  0.19999488922E+03  0.13952410317E+04  0.50400001928E-02 0. -1.
</event>
<event>
 5   0  0.1243055E-06  0.2742755E+04  0.7818609E-02  0.8321264E-01
       -1   -1    0    0    0  501  0.00000000000E+00  0.00000000000E+00  0.75193903191E+03  0.75193903192E+03  0.50400001928E-02 0.  1.
        1   -1    0    0  501    0  0.00000000000E+00  0.00000000000E+00 -0.25011022505E+04  0.25011022505E+04  0.50400001928E-02 0. -1.
    10030    2    1    2    0    0  0.00000000000E+00  0.00000000000E+00 -0.17491632185E+04  0.32530412824E+04  0.27427551148E+04 0.  0.
        5    1    3    3  502    0 -0.73976170425E+03  0.30538842893E+03  0.44622352041E+03  0.91632253697E+03  0.46999998093E+01 0.  1.
       -5    1    3    3    0  502  0.73976170425E+03 -0.30538842893E+03 -0.21953867389E+04  0.23367187454E+04  0.46999998093E+01 0. -1.
</event>
<event>
 5   0  0.3212679E-06  0.2778352E+04  0.7818609E-02  0.8310021E-01
       -2   -1    0    0    0  501  0.00000000000E+00  0.00000000000E+00  0.93690355564E+03  0.93690355564E+03  0.25500000920E-02 0.  1.
        2   -1    0    0  501    0  0.00000000000E+00  0.00000000000E+00 -0.20597737175E+04  0.20597737175E+04  0.25500000920E-02 0. -1.
    10030    2    1    2    0    0  0.00000000000E+00  0.00000000000E+00 -0.11228701619E+04  0.29966772731E+04  0.27783515398E+04 0.  0.
        4    1    3    3  502    0  0.89012821399E+03  0.70239829929E+03  0.30420001441E+03  0.11739807792E+04  0.12699999809E+01 0.  1.
       -4    1    3    3    0  502 -0.89012821399E+03 -0.70239829929E+03 -0.14270701763E+04  0.18226964940E+04  0.12699999809E+01 0. -1.
</event>
<event>
 5   0  0.3345919E-06  0.2803731E+04  0.7818609E-02  0.8302111E-01
        2   -1    0    0  501    0  0.00000000000E+00  0.00000000000E+00  0.18343279494E+04  0.18343279494E+04  0.25500000920E-02 0.  1.
       -2   -1    0    0    0  501  0.00000000000E+00  0.00000000000E+00 -0.10713609643E+04  0.10713609643E+04  0.25500000920E-02 0. -1.
    10030    2    1    2    0    0  0.00000000000E+00  0.00000000000E+00  0.76296698505E+03  0.29056889137E+04  0.28037313428E+04 0.  0.
        2    1    3    3  502    0 -0.10416304517E+04 -0.19829427950E+03 -0.56887658924E+03  0.12033017880E+04  0.25500000920E-02 0. -1.
       -2    1    3    3    0  502  0.10416304517E+04  0.19829427950E+03  0.13318435743E+04  0.17023871257E+04  0.25500000920E-02 0.  1.
</event>
<event>
 5   0  0.1243055E-06  0.2919539E+04  0.7818609E-02  0.8267088E-01
       -1   -1    0    0    0  501  0.00000000000E+00  0.00000000000E+00  0.11363993860E+04  0.11363993861E+04  0.50400001928E-02 0. -1.
        1   -1    0    0  501    0  0.00000000000E+00  0.00000000000E+00 -0.18751563854E+04  0.18751563854E+04  0.50400001928E-02 0.  1.
    10030    2    1    2    0    0  0.00000000000E+00  0.00000000000E+00 -0.73875699934E+03  0.30115557715E+04  0.29195387068E+04 0.  0.
        5    1    3    3  502    0  0.11015726537E+04  0.95777460685E+03 -0.35856151371E+03  0.15031243987E+04  0.46999998093E+01 0. -1.
       -5    1    3    3    0  502 -0.11015726537E+04 -0.95777460685E+03 -0.38019548563E+03  0.15084313727E+04  0.46999998093E+01 0.  1.
</event>
<event>
 5   0  0.1235252E-06  0.2801636E+04  0.7818609E-02  0.8302761E-01
        1   -1    0    0  501    0  0.00000000000E+00  0.00000000000E+00  0.14324866436E+04  0.14324866436E+04  0.50400001928E-02 0.  1.
       -1   -1    0    0    0  501  0.00000000000E+00  0.00000000000E+00 -0.13698495210E+04  0.13698495210E+04  0.50400001928E-02 0. -1.
    10030    2    1    2    0    0  0.00000000000E+00  0.00000000000E+00  0.62637122625E+02  0.28023361647E+04  0.28016360525E+04 0.  0.
        1    1    3    3  502    0  0.57985604656E+03  0.76593083384E+03  0.10510869734E+04  0.14239616929E+04  0.50400001928E-02 0.  1.
       -1    1    3    3    0  502 -0.57985604656E+03 -0.76593083384E+03 -0.98844985081E+03  0.13783744718E+04  0.50400001928E-02 0. -1.
</event>
<event>
 5   0  0.3167616E-06  0.2830056E+04  0.7818609E-02  0.8293997E-01
        2   -1    0    0  501    0  0.00000000000E+00  0.00000000000E+00  0.16602404272E+04  0.16602404272E+04  0.25500000920E-02 0.  1.
       -2   -1    0    0    0  501  0.00000000000E+00  0.00000000000E+00 -0.12060326192E+04  0.12060326192E+04  0.25500000920E-02 0. -1.
    10030    2    1    2    0    0  0.00000000000E+00  0.00000000000E+00  0.45420780799E+03  0.28662730464E+04  0.28300559082E+04 0.  0.
        3    1    3    3  502    0 -0.32348435828E+02 -0.91620992788E+03  0.13187740075E+04  0.16061294924E+04  0.10100000352E+00 0.  1.
       -3    1    3    3    0  502  0.32348435828E+02  0.91620992788E+03 -0.86456619949E+03  0.12601435540E+04  0.10100000352E+00 0. -1.
</event>
<event>
 5   0  0.3212679E-06  0.2794519E+04  0.7818609E-02  0.8304972E-01
       -2   -1    0    0    0  501  0.00000000000E+00  0.00000000000E+00  0.96991807664E+03  0.96991807664E+03  0.25500000920E-02 0.  1.
        2   -1    0    0  501    0  0.00000000000E+00  0.00000000000E+00 -0.20128858427E+04  0.20128858427E+04  0.25500000920E-02 0. -1.
    10030    2    1    2    0    0  0.00000000000E+00  0.00000000000E+00 -0.10429677660E+04  0.29828039193E+04  0.27945191823E+04 0.  0.
        4    1    3    3  502    0 -0.12193177303E+03  0.12135270947E+04  0.20622686886E+03  0.12369504846E+04  0.12699999809E+01 0.  1.
       -4    1    3    3    0  502  0.12193177303E+03 -0.12135270947E+04 -0.12491946349E+04  0.17458534347E+04  0.12699999809E+01 0. -1.
</event>
<event>
 5   0  0.3212679E-06  0.2801281E+04  0.7818609E-02  0.8302871E-01
       -2   -1    0    0    0  501  0.00000000000E+00  0.00000000000E+00  0.11266914924E+04  0.11266914924E+04  0.25500000920E-02 0. -1.
        2   -1    0    0  501    0  0.00000000000E+00  0.00000000000E+00 -0.17411989918E+04  0.17411989918E+04  0.25500000920E-02 0.  1.
    10030    2    1    2    0    0  0.00000000000E+00  0.00000000000E+00 -0.61450749932E+03  0.28678904842E+04  0.28012812002E+04 0.  0.
        4    1    3    3  502    0 -0.11985002981E+03  0.13521225260E+04 -0.66070657309E+03  0.15096801461E+04  0.12699999809E+01 0.  1.
       -4    1    3    3    0  502  0.11985002981E+03 -0.13521225260E+04  0.46199073766E+02  0.13582103380E+04  0.12699999809E+01 0. -1.
</event>
<event>
 5   0  0.1263513E-06  0.2794035E+04  0.7818609E-02  0.8305123E-01
       -1   -1    0    0    0  501  0.00000000000E+00  0.00000000000E+00  0.12851534087E+04  0.12851534087E+04  0.50400001928E-02 0. -1.
        1   -1    0    0  501    0  0.00000000000E+00  0.00000000000E+00 -0.15186183167E+04  0.15186183167E+04  0.50400001928E-02 0.  1.
    10030    2    1    2    0    0  0.00000000000E+00  0.00000000000E+00 -0.23346490808E+03  0.28037717254E+04  0.27940347215E+04 0.  0.
        3    1    3    3  502    0 -0.55511046400E+03  0.10043221488E+04  0.68281703722E+03  0.13353088490E+04  0.10100000352E+00 0. -1.
       -3    1    3    3    0  502  0.55511046400E+03 -0.10043221488E+04 -0.91628194529E+03  0.14684628764E+04  0.10100000352E+00 0.  1.
</event>
<event>
 5   0  0.1243055E-06  0.2794633E+04  0.7818609E-02  0.8304936E-01
       -1   -1    0    0    0  501  0.00000000000E+00  0.00000000000E+00  0.73178592637E+03  0.73178592638E+03  0.50400001928E-02 0. -1.
        1   -1    0    0  501    0  0.00000000000E+00  0.00000000000E+00 -0.26681213289E+04  0.26681213289E+04  0.50400001928E-02 0.  1.
    10030    2    1    2    0    0  0.00000000000E+00  0.00000000000E+00 -0.19363354025E+04  0.33999072552E+04  0.27946331697E+04 0.  0.
        5    1    3    3  502    0 -0.77171518693E+03  0.48407557152E+03  0.32083671250E+03  0.96583216697E+03  0.46999998093E+01 0. -1.
       -5    1    3    3    0  502  0.77171518693E+03 -0.48407557152E+03 -0.22571721150E+04  0.24340750883E+04  0.46999998093E+01 0.  1.
</event>
<event>
 5   0  0.1263513E-06  0.2819254E+04  0.7818609E-02  0.8297316E-01
       -1   -1    0    0    0  501  0.00000000000E+00  0.00000000000E+00  0.11805507809E+04  0.11805507809E+04  0.50400001928E-02 0.  1.
        1   -1    0    0  501    0  0.00000000000E+00  0.00000000000E+00 -0.16831530202E+04  0.16831530202E+04  0.50400001928E-02 0. -1.
    10030    2    1    2    0    0  0.00000000000E+00  0.00000000000E+00 -0.50260223930E+03  0.28637038012E+04  0.28192535271E+04 0.  0.
        3    1    3    3  502    0  0.10996730267E+04 -0.25566021011E+03  0.60604729590E+03  0.12813806007E+04  0.10100000352E+00 0.  1.
       -3    1    3    3    0  502 -0.10996730267E+04  0.25566021011E+03 -0.11086495352E+04  0.15823232005E+04  0.10100000352E+00 0. -1.
</event>
<event>
 5   0  0.1246044E-06  0.2784393E+04  0.7818609E-02  0.8308130E-01
        1   -1    0    0  501    0  0.00000000000E+00  0.00000000000E+00  0.27489306374E+04  0.27489306374E+04  0.50400001928E-02 0. -1.
       -1   -1    0    0    0  501  0.00000000000E+00  0.00000000000E+00 -0.70507823963E+03  0.70507823965E+03  0.50400001928E-02 0.  1.
    10030    2    1    2    0    0  0.00000000000E+00  0.00000000000E+00  0.20438523977E+04  0.34540088770E+04  0.27843930575E+04 0.  0.
        2    1    3    3  502    0 -0.11095930640E+04  0.84078295778E+03  0.10342330038E+04  0.17342867860E+04  0.25500000920E-02 0. -1.
       -2    1    3    3    0  502  0.11095930640E+04 -0.84078295778E+03  0.10096193939E+04  0.17197220911E+04  0.25500000920E-02 0.  1.
</event>
<event>
 5   0  0.3167616E-06  0.2813002E+04  0.7818609E-02  0.8299243E-01
        2   -1    0    0  501    0  0.00000000000E+00  0.00000000000E+00  0.15765744380E+04  0.15765744380E+04  0.25500000920E-02 0. -1.
       -2   -1    0    0    0  501  0.00000000000E+00  0.00000000000E+00 -0.12547739074E+04  0.12547739074E+04  0.25500000920E-02 0.  1.
    10030    2    1    2    0    0  0.00000000000E+00  0.00000000000E+00  0.32180053060E+03  0.28313483454E+04  0.28130015769E+04 0.  0.
        3    1    3    3  502    0 -0.61128381842E+03  0.94385907834E+03 -0.68942127900E+03  0.13190297861E+04  0.10100000352E+00 0.  1.
       -3    1    3    3    0  502  0.61128381842E+03 -0.94385907834E+03  0.10112218096E+04  0.15123185593E+04  0.10100000352E+00 0. -1.
</event>
<event>
 5   0  0.3167616E-06  0.2792870E+04  0.7818609E-02  0.8305485E-01
       -2   -1    0    0    0  501  0.00000000000E+00  0.00000000000E+00  0.11525300615E+04  0.11525300615E+04  0.25500000920E-02 0.  1.
        2   -1    0    0  501    0  0.00000000000E+00  0.00000000000E+00 -0.16919566410E+04  0.16919566410E+04  0.25500000920E-02 0. -1.
    10030    2    1    2    0    0  0.00000000000E+00  0.00000000000E+00 -0.53942657946E+03  0.28444867025E+04  0.27928701305E+04 0.  0.
        3    1    3    3  502    0  0.10362425044E+04  0.32547384756E+03 -0.11636008008E+04  0.15917595884E+04  0.10100000352E+00 0.  1.
       -3    1    3    3    0  502 -0.10362425044E+04 -0.32547384756E+03  0.62417422137E+03  0.12527271140E+04  0.10100000352E+00 0. -1.
</event>
<event>
 5   0  0.1263513E-06  0.2789662E+04  0.7818609E-02  0.8306485E-01
        1   -1    0    0  501    0  0.00000000000E+00  0.00000000000E+00  0.18146563426E+04  0.18146563426E+04  0.50400001928E-02 0. -1.
       -1   -1    0    0    0  501  0.00000000000E+00  0.00000000000E+00 -0.10721332781E+04  0.10721332781E+04  0.50400001928E-02 0.  1.
    10030    2    1    2    0    0  0.00000000000E+00  0.00000000000E+00  0.74252306453E+03  0.28867896207E+04  0.27896619532E+04 0.  0.
        3    1    3    3  502    0  0.93255061139E+03 -0.10371633255E+04  0.35680974746E+03  0.14396776072E+04  0.10100000352E+00 0.  1.
       -3    1    3    3    0  502 -0.93255061139E+03  0.10371633255E+04  0.38571331707E+03  0.14471120135E+04  0.10100000352E+00 0. -1.
</event>
<event>
 5   0  0.3212679E-06  0.2795209E+04  0.7818609E-02  0.8304757E-01
        2   -1    0    0  501    0  0.00000000000E+00  0.00000000000E+00  0.19862539201E+04  0.19862539201E+04  0.25500000920E-02 0. -1.
       -2   -1    0    0    0  501  0.00000000000E+00  0.00000000000E+00 -0.98340832882E+03  0.98340832882E+03  0.25500000920E-02 0.  1.
    10030    2    1    2    0    0  0.00000000000E+00  0.00000000000E+00  0.10028455913E+04  0.29696622489E+04  0.27952092216E+04 0.  0.
        4    1    3    3  502    0 -0.13547558402E+04 -0.33088000665E+02  0.13827254954E+03  0.13621964298E+04  0.12699999809E+01 0.  1.
       -4    1    3    3    0  502  0.13547558402E+04  0.33088000665E+02  0.86457304172E+03  0.16074658192E+04  0.12699999809E+01 0. -1.
</event>
<event>
 5   0  0.3162695E-06  0.2794819E+04  0.7818609E-02  0.8304879E-01
       -2   -1    0    0    0  501  0.00000000000E+00  0.00000000000E+00  0.12934022231E+04  0.12934022231E+04  0.25500000920E-02 0. -1.
        2   -1    0    0  501    0  0.00000000000E+00  0.00000000000E+00 -0.15097801620E+04  0.15097801620E+04  0.25500000920E-02 0.  1.
    10030    2    1    2    0    0  0.00000000000E+00  0.00000000000E+00 -0.21637793889E+03  0.28031823852E+04  0.27948187906E+04 0.  0.
        1    1    3    3  502    0  0.15881030555E+03  0.13807019156E+04 -0.25420802895E+03  0.14128624189E+04  0.50400001928E-02 0.  1.
       -1    1    3    3    0  502 -0.15881030555E+03 -0.13807019156E+04  0.37830090059E+02  0.13903199662E+04  0.50400001928E-02 0. -1.
</event>
<event>
 5   0  0.3212679E-06  0.2624549E+04  0.7818609E-02  0.8359910E-01
       -2   -1    0    0    0  501  0.00000000000E+00  0.00000000000E+00  0.76945371108E+03  0.76945371108E+03  0.25500000920E-02 0.  1.
        2   -1    0    0  501    0  0.00000000000E+00  0.00000000000E+00 -0.22380355380E+04  0.22380355380E+04  0.25500000920E-02 0. -1.
    10030    2    1    2    0    0  0.00000000000E+00  0.00000000000E+00 -0.14685818269E+04  0.30074892491E+04  0.26245492948E+04 0.  0.
        4    1    3    3  502    0  0.20377597361E+03  0.12863280576E+04 -0.54987956386E+03  0.14136950402E+04  0.12699999809E+01 0. -1.
       -4    1    3    3    0  502 -0.20377597361E+03 -0.12863280576E+04 -0.91870226305E+03  0.15937942088E+04  0.12699999809E+01 0.  1.
</event>
<event>
 5   0  0.1243055E-06  0.2804926E+04  0.7818609E-02  0.8301741E-01
       -1   -1    0    0    0  501  0.00000000000E+00  0.00000000000E+00  0.93832719330E+03  0.93832719331E+03  0.50400001928E-02 0.  1.
        1   -1    0    0  501    0  0.00000000000E+00  0.00000000000E+00 -0.20961795037E+04  0.20961795037E+04  0.50400001928E-02 0. -1.
    10030    2    1    2    0    0  0.00000000000E+00  0.00000000000E+00 -0.11578523104E+04  0.30345066970E+04  0.28049258318E+04 0.  0.
        5    1    3    3  502    0  0.37778714535E+03  0.18817613372E+03  0.86798261079E+03  0.96516800979E+03  0.46999998093E+01 0.  1.
       -5    1    3    3    0  502 -0.37778714535E+03 -0.18817613372E+03 -0.20258349212E+04  0.20693386872E+04  0.46999998093E+01 0. -1.
</event>
<event>
 5   0  0.3162695E-06  0.2797916E+04  0.7818609E-02  0.8303916E-01
        2   -1    0    0  501    0  0.00000000000E+00  0.00000000000E+00  0.19080597376E+04  0.19080597376E+04  0.25500000920E-02 0.  1.
       -2   -1    0    0    0  501  0.00000000000E+00  0.00000000000E+00 -0.10256927483E+04  0.10256927483E+04  0.25500000920E-02 0. -1.
    10030    2    1    2    0    0  0.00000000000E+00  0.00000000000E+00  0.88236698933E+03  0.29337524859E+04  0.27979156786E+04 0.  0.
        1    1    3    3  502    0  0.23127556560E+03 -0.13795335330E+04  0.46420100494E+03  0.14737990803E+04  0.50400001928E-02 0. -1.
       -1    1    3    3    0  502 -0.23127556560E+03  0.13795335330E+04  0.41816598439E+03  0.14599534056E+04  0.50400001928E-02 0.  1.
</event>
<event>
 5   0  0.3167616E-06  0.2799738E+04  0.7818609E-02  0.8303350E-01
        2   -1    0    0  501    0  0.00000000000E+00  0.00000000000E+00  0.22948962265E+04  0.22948962265E+04  0.25500000920E-02 0.  1.
       -2   -1    0    0    0  501  0.00000000000E+00  0.00000000000E+00 -0.85390906421E+03  0.85390906422E+03  0.25500000920E-02 0. -1.
    10030    2    1    2    0    0  0.00000000000E+00  0.00000000000E+00  0.14409871623E+04  0.31488052907E+04  0.27997376229E+04 0.  0.
        3    1    3    3  502    0 -0.45606698397E+03 -0.10254609771E+04 -0.22052407144E+03  0.11437649172E+04  0.10100000352E+00 0. -1.
       -3    1    3    3    0  502  0.45606698397E+03  0.10254609771E+04  0.16615112337E+04  0.20050403735E+04  0.10100000352E+00 0.  1.
</event>
<event>
 5   0  0.1220265E-06  0.2797133E+04  0.7818609E-02  0.8304159E-01
        1   -1    0    0  501    0  0.00000000000E+00  0.00000000000E+00  0.24810006781E+04  0.24810006781E+04  0.50400001928E-02 0.  1.
       -1   -1    0    0    0  501  0.00000000000E+00  0.00000000000E+00 -0.78838709674E+03  0.78838709675E+03  0.50400001928E-02 0. -1.
    10030    2    1    2    0    0  0.00000000000E+00  0.00000000000E+00  0.16926135814E+04  0.32693877749E+04  0.27971334767E+04 0.  0.
        4    1    3    3  502    0  0.13220119882E+04  0.66856117854E+02  0.13739706226E+04  0.19078737700E+04  0.12699999809E+01 0.  1.
       -4    1    3    3    0  502 -0.13220119882E+04 -0.66856117854E+02  0.31864295881E+03  0.13615140049E+04  0.12699999809E+01 0. -1.
</event>
<event>
 5   0  0.3226364E-06  0.2809730E+04  0.7818609E-02  0.8300254E-01
        2   -1    0    0  501    0  0.00000000000E+00  0.00000000000E+00  0.14394859279E+04  0.14394859279E+04  0.25500000920E-02 0. -1.
       -2   -1    0    0    0  501  0.00000000000E+00  0.00000000000E+00 -0.13710765432E+04  0.13710765432E+04  0.25500000920E-02 0.  1.
    10030    2    1    2    0    0  0.00000000000E+00  0.00000000000E+00  0.68409384762E+02  0.28105624711E+04  0.28097298020E+04 0.  0.
        5    1    3    3  502    0 -0.12448757660E+04 -0.64969446039E+03  0.76699458013E+02  0.14063155626E+04  0.46999998093E+01 0. -1.
       -5    1    3    3    0  502  0.12448757660E+04  0.64969446039E+03 -0.82900732504E+01  0.14042469085E+04  0.46999998093E+01 0.  1.
</event>
<event>
 5   0  0.3345919E-06  0.2781433E+04  0.7818609E-02  0.8309056E-01
        2   -1    0    0  501    0  0.00000000000E+00  0.00000000000E+00  0.22765000182E+04  0.22765000182E+04  0.25500000920E-02 0.  1.
       -2   -1    0    0    0  501  0.00000000000E+00  0.00000000000E+00 -0.84959057177E+03  0.84959057178E+03  0.25500000920E-02 0. -1.
    10030    2    1    2    0    0  0.00000000000E+00  0.00000000000E+00  0.14269094464E+04  0.31260905900E+04  0.27814334090E+04 0.  0.
        2    1    3    3  502    0 -0.64228798071E+03 -0.77805539804E+03 -0.36233008014E+03  0.10720014644E+04  0.25500000920E-02 0. -1.
       -2    1    3    3    0  502  0.64228798071E+03  0.77805539804E+03  0.17892395266E+04  0.20540891256E+04  0.25500000920E-02 0.  1.
</event>
<event>
 5   0  0.3345919E-06  0.2810446E+04  0.7818609E-02  0.8300033E-01
        2   -1    0    0  501    0  0.00000000000E+00  0.00000000000E+00  0.27481581081E+04  0.27481581081E+04  0.25500000920E-02 0. -1.
       -2   -1    0    0    0  501  0.00000000000E+00  0.00000000000E+00 -0.71853632118E+03  0.71853632118E+03  0.25500000920E-02 0.  1.
    10030    2    1    2    0    0  0.00000000000E+00  0.00000000000E+00  0.20296217869E+04  0.34666944293E+04  0.28104458131E+04 0.  0.
        2    1    3    3  502    0 -0.10321244285E+04  0.87047393864E+03  0.53446354127E+03  0.14521215482E+04  0.25500000920E-02 0.  1.
       -2    1    3    3    0  502  0.10321244285E+04 -0.87047393864E+03  0.14951582457E+04  0.20145728811E+04  0.25500000920E-02 0. -1.
</event>
<event>
 5   0  0.1263513E-06  0.2791374E+04  0.7818609E-02  0.8305951E-01
       -1   -1    0    0    0  501  0.00000000000E+00  0.00000000000E+00  0.80937302694E+03  0.80937302695E+03  0.50400001928E-02 0. -1.
        1   -1    0    0  501    0  0.00000000000E+00  0.00000000000E+00 -0.24067294463E+04  0.24067294463E+04  0.50400001928E-02 0.  1.
    10030    2    1    2    0    0  0.00000000000E+00  0.00000000000E+00 -0.15973564193E+04  0.32161024732E+04  0.27913737815E+04 0.  0.
        3    1    3    3  502    0  0.10087219747E+04  0.49575432448E+03  0.15465788260E+03  0.11345534114E+04  0.10100000352E+00 0. -1.
       -3    1    3    3    0  502 -0.10087219747E+04 -0.49575432448E+03 -0.17520143019E+04  0.20815490618E+04  0.10100000352E+00 0.  1.
</event>
<event>
 5   0  0.1246044E-06  0.2802960E+04  0.7818609E-02  0.8302350E-01
       -1   -1    0    0    0  501  0.00000000000E+00  0.00000000000E+00  0.22861877166E+04  0.22861877166E+04  0.50400001928E-02 0. -1.
        1   -1    0    0  501    0  0.00000000000E+00  0.00000000000E+00 -0.85913580589E+03  0.85913580591E+03  0.50400001928E-02 0.  1.
    10030    2    1    2    0    0  0.00000000000E+00  0.00000000000E+00  0.14270519107E+04  0.31453235225E+04  0.28029596689E+04 0.  0.
        2    1    3    3  502    0  0.91536108119E+03 -0.21555907440E+02  0.19041596331E+04  0.21128593125E+04  0.25500000920E-02 0. -1.
       -2    1    3    3    0  502 -0.91536108119E+03  0.21555907440E+02 -0.47710772242E+03  0.10324642100E+04  0.25500000920E-02 0.  1.
</event>
<event>
 5   0  0.3162695E-06  0.2794071E+04  0.7818609E-02  0.8305111E-01
       -2   -1    0    0    0  501  0.00000000000E+00  0.00000000000E+00  0.11548081531E+04  0.11548081531E+04  0.25500000920E-02 0.  1.
        2   -1    0    0  501    0  0.00000000000E+00  0.00000000000E+00 -0.16900715765E+04  0.16900715765E+04  0.25500000920E-02 0. -1.
    10030    2    1    2    0    0  0.00000000000E+00  0.00000000000E+00 -0.53526342341E+03  0.28448797296E+04  0.27940711773E+04 0.  0.
        1    1    3    3  502    0 -0.24804394262E+03 -0.26171784537E+03  0.11066104056E+04  0.11638765475E+04  0.50400001928E-02 0.  1.
       -1    1    3    3    0  502  0.24804394262E+03  0.26171784537E+03 -0.16418738290E+04  0.16810031821E+04  0.50400001928E-02 0. -1.
</event>
<event>
 5   0  0.1246044E-06  0.2803222E+04  0.7818609E-02  0.8302269E-01
        1   -1    0    0  501    0  0.00000000000E+00  0.00000000000E+00  0.14214220965E+04  0.14214220965E+04  0.50400001928E-02 0.  1.
       -1   -1    0    0    0  501  0.00000000000E+00  0.00000000000E+00 -0.13820756910E+04  0.13820756911E+04  0.50400001928E-02 0. -1.
    10030    2    1    2    0    0  0.00000000000E+00  0.00000000000E+00  0.39346405486E+02  0.28034977876E+04  0.28032216654E+04 0.  0.
        2    1    3    3  502    0 -0.88668549209E+03  0.69940493896E+03 -0.81054981813E+03  0.13900969168E+04  0.25500000920E-02 0. -1.
       -2    1    3    3    0  502  0.88668549209E+03 -0.69940493896E+03  0.84989622362E+03  0.14134008708E+04  0.25500000920E-02 0.  1.
</event>
<event>
 5   0  0.1243055E-06  0.2792137E+04  0.7818609E-02  0.8305714E-01
        1   -1    0    0  501    0  0.00000000000E+00  0.00000000000E+00  0.17203866975E+04  0.17203866975E+04  0.50400001928E-02 0. -1.
       -1   -1    0    0    0  501  0.00000000000E+00  0.00000000000E+00 -0.11328891975E+04  0.11328891975E+04  0.50400001928E-02 0.  1.
    10030    2    1    2    0    0  0.00000000000E+00  0.00000000000E+00  0.58749750002E+03  0.28532758950E+04  0.27921371779E+04 0.  0.
        5    1    3    3  502    0 -0.46644776966E+03  0.70729741425E+03  0.14276131913E+04  0.16601038124E+04  0.46999998093E+01 0. -1.
       -5    1    3    3    0  502  0.46644776966E+03 -0.70729741425E+03 -0.84011569124E+03  0.11931720826E+04  0.46999998093E+01 0.  1.
</event>
<event>
 5   0  0.3226364E-06  0.2795340E+04  0.7818609E-02  0.8304716E-01
        2   -1    0    0  501    0  0.00000000000E+00  0.00000000000E+00  0.11906741754E+04  0.11906741754E+04  0.25500000920E-02 0. -1.
       -2   -1    0    0    0  501  0.00000000000E+00  0.00000000000E+00 -0.16406520168E+04  0.16406520168E+04  0.25500000920E-02 0.  1.
    10030    2    1    2    0    0  0.00000000000E+00  0.00000000000E+00 -0.44997784134E+03  0.28313261922E+04  0.27953403995E+04 0.  0.
        5    1    3    3  502    0 -0.12940505097E+04 -0.30022059934E+03 -0.66504808786E+03  0.14856009488E+04  0.46999998093E+01 0.  1.
       -5    1    3    3    0  502  0.12940505097E+04  0.30022059934E+03  0.21507024652E+03  0.13457252434E+04  0.46999998093E+01 0. -1.
</event>
<event>
 5   0  0.1246044E-06  0.2795862E+04  0.7818609E-02  0.8304554E-01
        1   -1    0    0  501    0  0.00000000000E+00  0.00000000000E+00  0.17423683015E+04  0.17423683015E+04  0.50400001928E-02 0.  1.
       -1   -1    0    0    0  501  0.00000000000E+00  0.00000000000E+00 -0.11215828377E+04  0.11215828377E+04  0.50400001928E-02 0. -1.
    10030    2    1    2    0    0  0.00000000000E+00  0.00000000000E+00  0.62078546380E+03  0.28639511391E+04  0.27958615015E+04 0.  0.
        2    1    3    3  502    0 -0.80776156885E+03 -0.87344925773E+01  0.14790790309E+04  0.16852981407E+04  0.25500000920E-02 0.  1.
       -2    1    3    3    0  502  0.80776156885E+03  0.87344925773E+01 -0.85829356707E+03  0.11786529984E+04  0.25500000920E-02 0. -1.
</event>
<event>
 5   0  0.1263513E-06  0.2791485E+04  0.7818609E-02  0.8305917E-01
        1   -1    0    0  501    0  0.00000000000E+00  0.00000000000E+00  0.17731548455E+04  0.17731548455E+04  0.50400001928E-02 0.  1.
       -1   -1    0    0    0  501  0.00000000000E+00  0.00000000000E+00 -0.10986617833E+04  0.10986617833E+04  0.50400001928E-02 0. -1.
    10030    2    1    2    0    0  0.00000000000E+00  0.00000000000E+00  0.67449306222E+03  0.28718166288E+04  0.27914852424E+04 0.  0.
        3    1    3    3  502    0  0.62465802691E+03 -0.74014757530E+03  0.13711965615E+04  0.16787483743E+04  0.10100000352E+00 0.  1.
       -3    1    3    3    0  502 -0.62465802691E+03  0.74014757530E+03 -0.69670349925E+03  0.11930682545E+04  0.10100000352E+00 0. -1.
</event>
<event>
 5   0  0.1243055E-06  0.2793745E+04  0.7818609E-02  0.8305213E-01
        1   -1    0    0  501    0  0.00000000000E+00  0.00000000000E+00  0.24347501821E+04  0.24347501821E+04  0.50400001928E-02 0. -1.
       -1   -1    0    0    0  501  0.00000000000E+00  0.00000000000E+00 -0.80141823730E+03  0.80141823732E+03  0.50400001928E-02 0.  1.
    10030    2    1    2    0    0  0.00000000000E+00  0.00000000000E+00  0.16333319448E+04  0.32361684194E+04  0.27937452992E+04 0.  0.
        5    1    3    3  502    0 -0.37633308281E+03  0.10906609086E+04 -0.95475747763E+02  0.11577156452E+04  0.46999998093E+01 0.  1.
       -5    1    3    3    0  502  0.37633308281E+03 -0.10906609086E+04  0.17288076926E+04  0.20784527742E+04  0.46999998093E+01 0. -1.
</event>
<event>
 5   0  0.3345919E-06  0.2801159E+04  0.7818609E-02  0.8302909E-01
       -2   -1    0    0    0  501  0.00000000000E+00  0.00000000000E+00  0.14440651147E+04  0.14440651147E+04  0.25500000920E-02 0. -1.
        2   -1    0    0  501    0  0.00000000000E+00  0.00000000000E+00 -0.13584030625E+04  0.13584030625E+04  0.25500000920E-02 0.  1.
    10030    2    1    2    0    0  0.00000000000E+00  0.00000000000E+00  0.85662052181E+02  0.28024681772E+04  0.28011586704E+04 0.  0.
        2    1    3    3  502    0  0.10757616368E+04 -0.31730401785E+03  0.88207807551E+03  0.14268870559E+04  0.25500000920E-02 0. -1.
       -2    1    3    3    0  502 -0.10757616368E+04  0.31730401785E+03 -0.79641602333E+03  0.13755811213E+04  0.25500000920E-02 0.  1.
</event>
<event>
 5   0  0.3167616E-06  0.2806612E+04  0.7818609E-02  0.8301218E-01
       -2   -1    0    0    0  501  0.00000000000E+00  0.00000000000E+00  0.88919688618E+03  0.88919688618E+03  0.25500000920E-02 0.  1.
        2   -1    0    0  501    0  0.00000000000E+00  0.00000000000E+00 -0.22146590359E+04  0.22146590359E+04  0.25500000920E-02 0. -1.
    10030    2    1    2    0    0  0.00000000000E+00  0.00000000000E+00 -0.13254621497E+04  0.31038559221E+04  0.28066121347E+04 0.  0.
        3    1    3    3  502    0 -0.36890808738E+03 -0.21579895107E+03 -0.21409320813E+04  0.21831748787E+04  0.10100000352E+00 0. -1.
       -3    1    3    3    0  502  0.36890808738E+03  0.21579895107E+03  0.81546993154E+03  0.92068104339E+03  0.10100000352E+00 0.  1.
</event>
<event>
 5   0  0.1263513E-06  0.2783324E+04  0.7818609E-02  0.8308464E-01
       -1   -1    0    0    0  501  0.00000000000E+00  0.00000000000E+00  0.91602717151E+03  0.91602717153E+03  0.50400001928E-02 0. -1.
        1   -1    0    0  501    0  0.00000000000E+00  0.00000000000E+00 -0.21142642963E+04  0.21142642963E+04  0.50400001928E-02 0.  1.
    10030    2    1    2    0    0  0.00000000000E+00  0.00000000000E+00 -0.11982371248E+04  0.30302914678E+04  0.27833243025E+04 0.  0.
        3    1    3    3  502    0 -0.14082028479E+03 -0.77311426826E+03  0.65135310615E+03  0.10206845269E+04  0.10100000352E+00 0. -1.
       -3    1    3    3    0  502  0.14082028479E+03  0.77311426826E+03 -0.18495902309E+04  0.20096069409E+04  0.10100000352E+00 0.  1.
</event>
<event>
 5   0  0.3162695E-06  0.2797487E+04  0.7818609E-02  0.8304049E-01
       -2   -1    0    0    0  501  0.00000000000E+00  0.00000000000E+00  0.11049046268E+04  0.11049046268E+04  0.25500000920E-02 0.  1.
        2   -1    0    0  501    0  0.00000000000E+00  0.00000000000E+00 -0.17707255099E+04  0.17707255099E+04  0.25500000920E-02 0. -1.
    10030    2    1    2    0    0  0.00000000000E+00  0.00000000000E+00 -0.66582088308E+03  0.28756301367E+04  0.27974865924E+04 0.  0.
        1    1    3    3  502    0 -0.97380160524E+03  0.54534425191E+03 -0.11995460908E+04  0.16384751275E+04  0.50400001928E-02 0. -1.
       -1    1    3    3    0  502  0.97380160524E+03 -0.54534425191E+03  0.53372520770E+03  0.12371550092E+04  0.50400001928E-02 0.  1.
</event>
<event>
 5   0  0.3162695E-06  0.2788746E+04  0.7818609E-02  0.8306771E-01
        2   -1    0    0  501    0  0.00000000000E+00  0.00000000000E+00  0.20834104074E+04  0.20834104074E+04  0.25500000920E-02 0. -1.
       -2   -1    0    0    0  501  0.00000000000E+00  0.00000000000E+00 -0.93321793393E+03  0.93321793393E+03  0.25500000920E-02 0.  1.
    10030    2    1    2    0    0  0.00000000000E+00  0.00000000000E+00  0.11501924735E+04  0.30166283414E+04  0.27887459231E+04 0.  0.
        1    1    3    3  502    0 -0.50192784747E+03 -0.23801963955E+03  0.19585463279E+04  0.20358017171E+04  0.50400001928E-02 0. -1.
       -1    1    3    3    0  502  0.50192784747E+03  0.23801963955E+03 -0.80835385440E+03  0.98082662424E+03  0.50400001928E-02 0.  1.
</event>
<event>
 5   0  0.3226364E-06  0.2783280E+04  0.7818609E-02  0.8308478E-01
        2   -1    0    0  501    0  0.00000000000E+00  0.00000000000E+00  0.22722441821E+04  0.22722441821E+04  0.25500000920E-02 0.  1.
       -2   -1    0    0    0  501  0.00000000000E+00  0.00000000000E+00 -0.85231209690E+03  0.85231209691E+03  0.25500000920E-02 0. -1.
    10030    2    1    2    0    0  0.00000000000E+00  0.00000000000E+00  0.14199320852E+04  0.31245562790E+04  0.27832795070E+04 0.  0.
        5    1    3    3  502    0  0.40256866083E+03  0.68916402032E+03  0.19897642092E+04  0.21438731940E+04  0.46999998093E+01 0.  1.
       -5    1    3    3    0  502 -0.40256866083E+03 -0.68916402032E+03 -0.56983212405E+03  0.98068308499E+03  0.46999998093E+01 0. -1.
</event>
<event>
 5   0  0.3167616E-06  0.2814981E+04  0.7818609E-02  0.8298633E-01
        2   -1    0    0  501    0  0.00000000000E+00  0.00000000000E+00  0.19797590618E+04  0.19797590618E+04  0.25500000920E-02 0.  1.
       -2   -1    0    0    0  501  0.00000000000E+00  0.00000000000E+00 -0.10006414929E+04  0.10006414929E+04  0.25500000920E-02 0. -1.
    10030    2    1    2    0    0  0.00000000000E+00  0.00000000000E+00  0.97911756887E+03  0.29804005547E+04  0.28149806842E+04 0.  0.
        3    1    3    3  502    0 -0.24643728636E+03  0.13284445132E+04  0.90711056533E+03  0.16273738811E+04  0.10100000352E+00 0. -1.
       -3    1    3    3    0  502  0.24643728636E+03 -0.13284445132E+04  0.72007003534E+02  0.13530266736E+04  0.10100000352E+00 0.  1.
</event>
<event>
 5   0  0.1235252E-06  0.2680584E+04  0.7818609E-02  0.8341332E-01
        1   -1    0    0  501    0  0.00000000000E+00  0.00000000000E+00  0.16258345689E+04  0.16258345689E+04  0.50400001928E-02 0. -1.
       -1   -1    0    0    0  501  0.00000000000E+00  0.00000000000E+00 -0.11048991559E+04  0.11048991559E+04  0.50400001928E-02 0.  1.
    10030    2    1    2    0    0  0.00000000000E+00  0.00000000000E+00  0.52093541303E+03  0.27307337248E+04  0.26805844458E+04 0.  0.
        1    1    3    3  502    0  0.52107151034E+03  0.80714802561E+03 -0.69156403728E+03  0.11837500884E+04  0.50400001928E-02 0.  1.
       -1    1    3    3    0  502 -0.52107151034E+03 -0.80714802561E+03  0.12124994503E+04  0.15469836364E+04  0.50400001928E-02 0. -1.
</event>
<event>
 5   0  0.1235252E-06  0.2759881E+04  0.7818609E-02  0.8315833E-01
       -1   -1    0    0    0  501  0.00000000000E+00  0.00000000000E+00  0.11157090551E+04  0.11157090551E+04  0.50400001928E-02 0.  1.
        1   -1    0    0  501    0  0.00000000000E+00  0.00000000000E+00 -0.17067495655E+04  0.17067495655E+04  0.50400001928E-02 0. -1.
    10030    2    1    2    0    0  0.00000000000E+00  0.00000000000E+00 -0.59104051042E+03  0.28224586206E+04  0.27598811170E+04 0.  0.
        1    1    3    3  502    0  0.10019829852E+04  0.19213666194E+03 -0.12457542007E+04  0.16102142492E+04  0.50400001928E-02 0. -1.
       -1    1    3    3    0  502 -0.10019829852E+04 -0.19213666194E+03  0.65471369032E+03  0.12122443714E+04  0.50400001928E-02 0.  1.
</event>
<event>
 5   0  0.1263513E-06  0.2796639E+04  0.7818609E-02  0.8304313E-01
       -1   -1    0    0    0  501  0.00000000000E+00  0.00000000000E+00  0.11965358086E+04  0.11965358086E+04  0.50400001928E-02 0. -1.
        1   -1    0    0  501    0  0.00000000000E+00  0.00000000000E+00 -0.16341318472E+04  0.16341318472E+04  0.50400001928E-02 0.  1.
    10030    2    1    2    0    0  0.00000000000E+00  0.00000000000E+00 -0.43759603859E+03  0.28306676558E+04  0.27966388907E+04 0.  0.
        3    1    3    3  502    0  0.78635331009E+03 -0.10960886741E+04  0.15383280943E+03  0.13577284166E+04  0.10100000352E+00 0. -1.
       -3    1    3    3    0  502 -0.78635331009E+03  0.10960886741E+04 -0.59142884802E+03  0.14729392392E+04  0.10100000352E+00 0.  1.
</event>
<event>
 5   0  0.3226364E-06  0.2893283E+04  0.7818609E-02  0.8274879E-01
        2   -1    0    0  501    0  0.00000000000E+00  0.00000000000E+00  0.18239922752E+04  0.18239922752E+04  0.25500000920E-02 0.  1.
       -2   -1    0    0    0  501  0.00000000000E+00  0.00000000000E+00 -0.11473576025E+04  0.11473576025E+04  0.25500000920E-02 0. -1.
    10030    2    1    2    0    0  0.00000000000E+00  0.00000000000E+00  0.67663467273E+03  0.29713498777E+04  0.28932828440E+04 0.  0.
        5    1    3    3  502    0  0.41191142134E+03  0.47267548888E+03  0.16772028412E+04  0.17905654407E+04  0.46999998093E+01 0.  1.
       -5    1    3    3    0  502 -0.41191142134E+03 -0.47267548888E+03 -0.10005681685E+04  0.11807844370E+04  0.46999998093E+01 0. -1.
</event>
<event>
 5   0  0.3162695E-06  0.2728527E+04  0.7818609E-02  0.8325808E-01
       -2   -1    0    0    0  501  0.00000000000E+00  0.00000000000E+00  0.11654768816E+04  0.11654768816E+04  0.25500000920E-02 0. -1.
        2   -1    0    0  501    0  0.00000000000E+00  0.00000000000E+00 -0.15969551454E+04  0.15969551454E+04  0.25500000920E-02 0.  1.
    10030    2    1    2    0    0  0.00000000000E+00  0.00000000000E+00 -0.43147826374E+03  0.27624320270E+04  0.27285265642E+04 0.  0.
        1    1    3    3  502    0  0.10637671591E+04  0.71848860625E+03 -0.68341855781E+03  0.14542652342E+04  0.50400001928E-02 0.  1.
       -1    1    3    3    0  502 -0.10637671591E+04 -0.71848860625E+03  0.25194029407E+03  0.13081667928E+04  0.50400001928E-02 0. -1.
</event>
<event>
 5   0  0.1243055E-06  0.2798005E+04  0.7818609E-02  0.8303888E-01
       -1   -1    0    0    0  501  0.00000000000E+00  0.00000000000E+00  0.84081527461E+03  0.84081527463E+03  0.50400001928E-02 0.  1.
        1   -1    0    0  501    0  0.00000000000E+00  0.00000000000E+00 -0.23277499312E+04  0.23277499312E+04  0.50400001928E-02 0. -1.
    10030    2    1    2    0    0  0.00000000000E+00  0.00000000000E+00 -0.14869346566E+04  0.31685652058E+04  0.27980047875E+04 0.  0.
        5    1    3    3  502    0  0.68581383200E+03 -0.12094994550E+04 -0.56819154073E+03  0.15020297137E+04  0.46999998093E+01 0.  1.
       -5    1    3    3    0  502 -0.68581383200E+03  0.12094994550E+04 -0.91874311587E+03  0.16665354922E+04  0.46999998093E+01 0. -1.
</event>
<event>
 5   0  0.1243055E-06  0.2801248E+04  0.7818609E-02  0.8302881E-01
        1   -1    0    0  501    0  0.00000000000E+00  0.00000000000E+00  0.17088716537E+04  0.17088716537E+04  0.50400001928E-02 0. -1.
       -1   -1    0    0    0  501  0.00000000000E+00  0.00000000000E+00 -0.11479783811E+04  0.11479783811E+04  0.50400001928E-02 0.  1.
    10030    2    1    2    0    0  0.00000000000E+00  0.00000000000E+00  0.56089327255E+03  0.28568500348E+04  0.28012480894E+04 0.  0.
        5    1    3    3  502    0  0.68621039950E+03  0.54946689954E+03  0.13924688738E+04  0.16467514204E+04  0.46999998093E+01 0. -1.
       -5    1    3    3    0  502 -0.68621039950E+03 -0.54946689954E+03 -0.83157560124E+03  0.12100986144E+04  0.46999998093E+01 0.  1.
</event>
<event>
 5   0  0.3162695E-06  0.2792497E+04  0.7818609E-02  0.8305602E-01
       -2   -1    0    0    0  501  0.00000000000E+00  0.00000000000E+00  0.86759638033E+03  0.86759638033E+03  0.25500000920E-02 0. -1.
        2   -1    0    0  501    0  0.00000000000E+00  0.00000000000E+00 -0.22470238724E+04  0.22470238724E+04  0.25500000920E-02 0.  1.
    10030    2    1    2    0    0  0.00000000000E+00  0.00000000000E+00 -0.13794274921E+04  0.31146202527E+04  0.27924969316E+04 0.  0.
        1    1    3    3  502    0 -0.52976811542E+03  0.53431588951E+03  0.62212461886E+03  0.97631284296E+03  0.50400001928E-02 0. -1.
       -1    1    3    3    0  502  0.52976811542E+03 -0.53431588951E+03 -0.20015521109E+04  0.21383074098E+04  0.50400001928E-02 0.  1.
</event>
<event>
 5   0  0.1263513E-06  0.2804802E+04  0.7818609E-02  0.8301779E-01
       -1   -1    0    0    0  501  0.00000000000E+00  0.00000000000E+00  0.11066641804E+04  0.11066641804E+04  0.50400001928E-02 0. -1.
        1   -1    0    0  501    0  0.00000000000E+00  0.00000000000E+00 -0.17771687743E+04  0.17771687743E+04  0.50400001928E-02 0.  1.
    10030    2    1    2    0    0  0.00000000000E+00  0.00000000000E+00 -0.67050459394E+03  0.28838329547E+04  0.28048023282E+04 0.  0.
        3    1    3    3  502    0 -0.25995726618E+03 -0.62987640880E+02 -0.17506989567E+04  0.17710144184E+04  0.10100000352E+00 0.  1.
       -3    1    3    3    0  502  0.25995726618E+03  0.62987640880E+02  0.10801943627E+04  0.11128185363E+04  0.10100000352E+00 0. -1.
</event>
<event>
 5   0  0.1246044E-06  0.2804524E+04  0.7818609E-02  0.8301865E-01
       -1   -1    0    0    0  501  0.00000000000E+00  0.00000000000E+00  0.14524913905E+04  0.14524913905E+04  0.50400001928E-02 0. -1.
        1   -1    0    0  501    0  0.00000000000E+00  0.00000000000E+00 -0.13537698380E+04  0.13537698380E+04  0.50400001928E-02 0.  1.
    10030    2    1    2    0    0  0.00000000000E+00  0.00000000000E+00  0.98721552542E+02  0.28062612285E+04  0.28045242266E+04 0.  0.
        2    1    3    3  502    0 -0.86653074120E+03  0.10167793289E+04 -0.37707603537E+03  0.13881289802E+04  0.25500000920E-02 0. -1.
       -2    1    3    3    0  502  0.86653074120E+03 -0.10167793289E+04  0.47579758792E+03  0.14181322483E+04  0.25500000920E-02 0.  1.
</event>
<event>
 5   0  0.1220265E-06  0.2863846E+04  0.7818609E-02  0.8283716E-01
       -1   -1    0    0    0  501  0.00000000000E+00  0.00000000000E+00  0.11556903699E+04  0.11556903699E+04  0.50400001928E-02 0.  1.
        1   -1    0    0  501    0  0.00000000000E+00  0.00000000000E+00 -0.17741801231E+04  0.17741801232E+04  0.50400001928E-02 0. -1.
    10030    2    1    2    0    0  0.00000000000E+00  0.00000000000E+00 -0.61848975328E+03  0.29298704930E+04  0.28638455844E+04 0.  0.
        4    1    3    3  502    0  0.12189869331E+04 -0.35191844755E+03  0.36985500732E+03  0.13215786304E+04  0.12699999809E+01 0.  1.
       -4    1    3    3    0  502 -0.12189869331E+04  0.35191844755E+03 -0.98834476060E+03  0.16082918627E+04  0.12699999809E+01 0. -1.
</event>
<event>
 5   0  0.1220265E-06  0.2789477E+04  0.7818609E-02  0.8306543E-01
        1   -1    0    0  501    0  0.00000000000E+00  0.00000000000E+00  0.19814356929E+04  0.19814356929E+04  0.50400001928E-02 0.  1.
       -1   -1    0    0    0  501  0.00000000000E+00  0.00000000000E+00 -0.98176045976E+03  0.98176045977E+03  0.50400001928E-02 0. -1.
    10030    2    1    2    0    0  0.00000000000E+00  0.00000000000E+00  0.99967523316E+03  0.29631961527E+04  0.27894768089E+04 0.  0.
        4    1    3    3  502    0 -0.29287616755E+03 -0.12169214191E+04 -0.15380308214E+03  0.12610833402E+04  0.12699999809E+01 0. -1.
       -4    1    3    3    0  502  0.29287616755E+03  0.12169214191E+04  0.11534783153E+04  0.17021128125E+04  0.12699999809E+01 0.  1.
</event>
<event>
 5   0  0.1235252E-06  0.2798568E+04  0.7818609E-02  0.8303713E-01
        1   -1    0    0  501    0  0.00000000000E+00  0.00000000000E+00  0.17018198658E+04  0.17018198658E+04  0.50400001928E-02 0. -1.
       -1   -1    0    0    0  501  0.00000000000E+00  0.00000000000E+00 -0.11505303930E+04  0.11505303931E+04  0.50400001928E-02 0.  1.
    10030    2    1    2    0    0  0.00000000000E+00  0.00000000000E+00  0.55128947272E+03  0.28523502588E+04  0.27985678331E+04 0.  0.
        1    1    3    3  502    0  0.82598834170E+03  0.44571060625E+03 -0.78212504837E+03  0.12217341267E+04  0.50400001928E-02 0.  1.
       -1    1    3    3    0  502 -0.82598834170E+03 -0.44571060625E+03  0.13334145211E+04  0.16306161321E+04  0.50400001928E-02 0. -1.
</event>
<event>
 5   0  0.1263513E-06  0.2779220E+04  0.7818609E-02  0.8309749E-01
        1   -1    0    0  501    0  0.00000000000E+00  0.00000000000E+00  0.20955785344E+04  0.20955785344E+04  0.50400001928E-02 0. -1.
       -1   -1    0    0    0  501  0.00000000000E+00  0.00000000000E+00 -0.92147144240E+03  0.92147144242E+03  0.50400001928E-02 0.  1.
    10030    2    1    2    0    0  0.00000000000E+00  0.00000000000E+00  0.11741070920E+04  0.30170499768E+04  0.27792198724E+04 0.  0.
        3    1    3    3  502    0  0.13652403034E+03 -0.10714147890E+03 -0.90966095195E+03  0.92606758126E+03  0.10100000352E+00 0.  1.
       -3    1    3    3    0  502 -0.13652403034E+03  0.10714147890E+03  0.20837680439E+04  0.20909823955E+04  0.10100000352E+00 0. -1.
</event>
<event>
 5   0  0.1220265E-06  0.2714973E+04  0.7818609E-02  0.8330163E-01
       -1   -1    0    0    0  501  0.00000000000E+00  0.00000000000E+00  0.85493716559E+03  0.85493716560E+03  0.50400001928E-02 0.  1.
        1   -1    0    0  501    0  0.00000000000E+00  0.00000000000E+00 -0.21554450769E+04  0.21554450769E+04  0.50400001928E-02 0. -1.
    10030    2    1    2    0    0  0.00000000000E+00  0.00000000000E+00 -0.13005079113E+04  0.30103822425E+04  0.27149733735E+04 0.  0.
        4    1    3    3  502    0 -0.80794722789E+03  0.42122852190E+02  0.55840469140E+03  0.98304143860E+03  0.12699999809E+01 0.  1.
       -4    1    3    3    0  502  0.80794722789E+03 -0.42122852190E+02 -0.18589126027E+04  0.20273408039E+04  0.12699999809E+01 0. -1.
</event>
<event>
 5   0  0.3226364E-06  0.2801102E+04  0.7818609E-02  0.8302926E-01
       -2   -1    0    0    0  501  0.00000000000E+00  0.00000000000E+00  0.14257141504E+04  0.14257141504E+04  0.25500000920E-02 0. -1.
        2   -1    0    0  501    0  0.00000000000E+00  0.00000000000E+00 -0.13758317583E+04  0.13758317584E+04  0.25500000920E-02 0.  1.
    10030    2    1    2    0    0  0.00000000000E+00  0.00000000000E+00  0.49882392099E+02  0.28015459088E+04  0.28011017879E+04 0.  0.
        5    1    3    3  502    0  0.43753056968E+02 -0.62587078516E+03 -0.12274123370E+04  0.13784744121E+04  0.46999998093E+01 0. -1.
       -5    1    3    3    0  502 -0.43753056968E+02  0.62587078516E+03  0.12772947291E+04  0.14230714967E+04  0.46999998093E+01 0.  1.
</event>
<event>
 5   0  0.1246044E-06  0.2800472E+04  0.7818609E-02  0.8303122E-01
        1   -1    0    0  501    0  0.00000000000E+00  0.00000000000E+00  0.15118922408E+04  0.15118922408E+04  0.50400001928E-02 0.  1.
       -1   -1    0    0    0  501  0.00000000000E+00  0.00000000000E+00 -0.12968257481E+04  0.12968257481E+04  0.50400001928E-02 0. -1.
    10030    2    1    2    0    0  0.00000000000E+00  0.00000000000E+00  0.21506649268E+03  0.28087179889E+04  0.28004719503E+04 0.  0.
        2    1    3    3  502    0 -0.55639945574E+03 -0.12837225731E+04  0.16370518726E+03  0.14086601391E+04  0.25500000920E-02 0. -1.
       -2    1    3    3    0  502  0.55639945574E+03  0.12837225731E+04  0.51361305418E+02  0.14000578498E+04  0.25500000920E-02 0.  1.
</event>
<event>
 5   0  0.1263513E-06  0.2755417E+04  0.7818609E-02  0.8317245E-01
       -1   -1    0    0    0  501  0.00000000000E+00  0.00000000000E+00  0.10910789031E+04  0.10910789031E+04  0.50400001928E-02 0.  1.
        1   -1    0    0  501    0  0.00000000000E+00  0.00000000000E+00 -0.17396364201E+04  0.17396364201E+04  0.50400001928E-02 0. -1.
    10030    2    1    2    0    0  0.00000000000E+00  0.00000000000E+00 -0.64855751696E+03  0.28307153233E+04  0.27554169174E+04 0.  0.
        3    1    3    3  502    0 -0.96353586992E+03  0.29453189115E+03  0.64104291289E+03  0.11941886090E+04  0.10100000352E+00 0.  1.
       -3    1    3    3    0  502  0.96353586992E+03 -0.29453189115E+03 -0.12896004299E+04  0.16365267142E+04  0.10100000352E+00 0. -1.
</event>
<event>
 5   0  0.1246044E-06  0.2773499E+04  0.7818609E-02  0.8311543E-01
        1   -1    0    0  501    0  0.00000000000E+00  0.00000000000E+00  0.15934669358E+04  0.15934669358E+04  0.50400001928E-02 0.  1.
       -1   -1    0    0    0  501  0.00000000000E+00  0.00000000000E+00 -0.12068495146E+04  0.12068495146E+04  0.50400001928E-02 0. -1.
    10030    2    1    2    0    0  0.00000000000E+00  0.00000000000E+00  0.38661742115E+03  0.28003164504E+04  0.27734994487E+04 0.  0.
        2    1    3    3  502    0  0.14112786889E+03  0.70748336972E+03  0.13890846652E+04  0.15652495012E+04  0.25500000920E-02 0.  1.
       -2    1    3    3    0  502 -0.14112786889E+03 -0.70748336972E+03 -0.10024672440E+04  0.12350669493E+04  0.25500000920E-02 0. -1.
</event>
<event>
 5   0  0.3162695E-06  0.2810593E+04  0.7818609E-02  0.8299987E-01
       -2   -1    0    0    0  501  0.00000000000E+00  0.00000000000E+00  0.88118794281E+03  0.88118794282E+03  0.25500000920E-02 0. -1.
        2   -1    0    0  501    0  0.00000000000E+00  0.00000000000E+00 -0.22411318272E+04  0.22411318272E+04  0.25500000920E-02 0.  1.
    10030    2    1    2    0    0  0.00000000000E+00  0.00000000000E+00 -0.13599438844E+04  0.31223197700E+04  0.28105930651E+04 0.  0.
        1    1    3    3  502    0  0.52146244537E+03 -0.12292611298E+04 -0.11665616915E+04  0.17730967789E+04  0.50400001928E-02 0.  1.
       -1    1    3    3    0  502 -0.52146244537E+03  0.12292611298E+04 -0.19338219284E+03  0.13492229911E+04  0.50400001928E-02 0. -1.
</event>
<event>
 5   0  0.1235252E-06  0.2808489E+04  0.7818609E-02  0.8300638E-01
        1   -1    0    0  501    0  0.00000000000E+00  0.00000000000E+00  0.10278896067E+04  0.10278896067E+04  0.50400001928E-02 0.  1.
       -1   -1    0    0    0  501  0.00000000000E+00  0.00000000000E+00 -0.19183997050E+04  0.19183997050E+04  0.50400001928E-02 0. -1.
    10030    2    1    2    0    0  0.00000000000E+00  0.00000000000E+00 -0.89051009824E+03  0.29462893117E+04  0.28084893579E+04 0.  0.
        1    1    3    3  502    0 -0.11758014414E+04  0.26714129622E+03  0.30980223665E+03  0.12449300895E+04  0.50400001928E-02 0.  1.
       -1    1    3    3    0  502  0.11758014414E+04 -0.26714129622E+03 -0.12003123349E+04  0.17013592222E+04  0.50400001928E-02 0. -1.
</event>
<event>
 5   0  0.3345919E-06  0.2795936E+04  0.7818609E-02  0.8304531E-01
       -2   -1    0    0    0  501  0.00000000000E+00  0.00000000000E+00  0.12189314628E+04  0.12189314628E+04  0.25500000920E-02 0. -1.
        2   -1    0    0  501    0  0.00000000000E+00  0.00000000000E+00 -0.16033012943E+04  0.16033012943E+04  0.25500000920E-02 0.  1.
    10030    2    1    2    0    0  0.00000000000E+00  0.00000000000E+00 -0.38436983153E+03  0.28222327571E+04  0.27959359019E+04 0.  0.
        2    1    3    3  502    0  0.10055453936E+04 -0.19443885826E+03  0.76828241396E+03  0.12803069459E+04  0.25500000920E-02 0. -1.
       -2    1    3    3    0  502 -0.10055453936E+04  0.19443885826E+03 -0.11526522455E+04  0.15419258112E+04  0.25500000920E-02 0.  1.
</event>
<event>
 5   0  0.1065675E-06  0.2800736E+04  0.7818609E-02  0.8303040E-01
        3   -1    0    0  501    0  0.00000000000E+00  0.00000000000E+00  0.96079703445E+03  0.96079703975E+03  0.10100000352E+00 0.  1.
       -3   -1    0    0    0  501  0.00000000000E+00  0.00000000000E+00 -0.20410450727E+04  0.20410450752E+04  0.10100000352E+00 0. -1.
    10030    2    1    2    0    0  0.00000000000E+00  0.00000000000E+00 -0.10802480382E+04  0.30018421149E+04  0.28007356639E+04 0.  0.
        3    1    3    3  502    0 -0.73447947284E+03  0.23136639418E+03  0.71349349575E+03  0.10497921142E+04  0.10100000352E+00 0.  1.
       -3    1    3    3    0  502  0.73447947284E+03 -0.23136639418E+03 -0.17937415340E+04  0.19520500007E+04  0.10100000352E+00 0. -1.
</event>
<event>
 5   0  0.1235252E-06  0.2796390E+04  0.7818609E-02  0.8304390E-01
        1   -1    0    0  501    0  0.00000000000E+00  0.00000000000E+00  0.78929200430E+03  0.78929200432E+03  0.50400001928E-02 0. -1.
       -1   -1    0    0    0  501  0.00000000000E+00  0.00000000000E+00 -0.24768396285E+04  0.24768396285E+04  0.50400001928E-02 0.  1.
    10030    2    1    2    0    0  0.00000000000E+00  0.00000000000E+00 -0.16875476242E+04  0.32661316329E+04  0.27963903267E+04 0.  0.
        1    1    3    3  502    0  0.10085925080E+04  0.45620633469E+03  0.15385361107E+03  0.11176108449E+04  0.50400001928E-02 0. -1.
       -1    1    3    3    0  502 -0.10085925080E+04 -0.45620633469E+03 -0.18414012353E+04  0.21485207880E+04  0.50400001928E-02 0.  1.
</event>
<event>
 5   0  0.1263513E-06  0.2788632E+04  0.7818609E-02  0.8306806E-01
       -1   -1    0    0    0  501  0.00000000000E+00  0.00000000000E+00  0.15135628066E+04  0.15135628066E+04  0.50400001928E-02 0.  1.
        1   -1    0    0  501    0  0.00000000000E+00  0.00000000000E+00 -0.12844644904E+04  0.12844644904E+04  0.50400001928E-02 0. -1.
    10030    2    1    2    0    0  0.00000000000E+00  0.00000000000E+00  0.22909831618E+03  0.27980272970E+04  0.27886324096E+04 0.  0.
        3    1    3    3  502    0 -0.90497034328E+03 -0.41674303747E+03 -0.86417112462E+03  0.13188774865E+04  0.10100000352E+00 0. -1.
       -3    1    3    3    0  502  0.90497034328E+03  0.41674303747E+03  0.10932694408E+04  0.14791498105E+04  0.10100000352E+00 0.  1.
</event>
<event>
 5   0  0.3167616E-06  0.2801017E+04  0.7818609E-02  0.8302953E-01
        2   -1    0    0  501    0  0.00000000000E+00  0.00000000000E+00  0.10924057722E+04  0.10924057722E+04  0.25500000920E-02 0.  1.
       -2   -1    0    0    0  501  0.00000000000E+00  0.00000000000E+00 -0.17955087450E+04  0.17955087450E+04  0.25500000920E-02 0. -1.
    10030    2    1    2    0    0  0.00000000000E+00  0.00000000000E+00 -0.70310297283E+03  0.28879145171E+04  0.28010170417E+04 0.  0.
        3    1    3    3  502    0  0.69294764213E+02  0.68444788120E+03 -0.16092960218E+04  0.17501726665E+04  0.10100000352E+00 0. -1.
       -3    1    3    3    0  502 -0.69294764213E+02 -0.68444788120E+03  0.90619304901E+03  0.11377418506E+04  0.10100000352E+00 0.  1.
</event>
<event>
 5   0  0.3212679E-06  0.2810160E+04  0.7818609E-02  0.8300121E-01
        2   -1    0    0  501    0  0.00000000000E+00  0.00000000000E+00  0.91471793576E+03  0.91471793576E+03  0.25500000920E-02 0.  1.
       -2   -1    0    0    0  501  0.00000000000E+00  0.00000000000E+00 -0.21583161133E+04  0.21583161133E+04  0.25500000920E-02 0. -1.
    10030    2    1    2    0    0  0.00000000000E+00  0.00000000000E+00 -0.12435981775E+04  0.30730340490E+04  0.28101604651E+04 0.  0.
        4    1    3    3  502    0 -0.60383701735E+03 -0.29275972382E+03  0.72815047638E+03  0.99021822270E+03  0.12699999809E+01 0.  1.
       -4    1    3    3    0  502  0.60383701735E+03  0.29275972382E+03 -0.19717486539E+04  0.20828158263E+04  0.12699999809E+01 0. -1.
</event>
<event>
 5   0  0.1235252E-06  0.2795015E+04  0.7818609E-02  0.8304818E-01
        1   -1    0    0  501    0  0.00000000000E+00  0.00000000000E+00  0.18739166374E+04  0.18739166374E+04  0.50400001928E-02 0.  1.
       -1   -1    0    0    0  501  0.00000000000E+00  0.00000000000E+00 -0.10422163752E+04  0.10422163752E+04  0.50400001928E-02 0. -1.
    10030    2    1    2    0    0  0.00000000000E+00  0.00000000000E+00  0.83170026221E+03  0.29161330126E+04  0.27950145654E+04 0.  0.
        1    1    3    3  502    0  0.11783946634E+04  0.66171820921E+03  0.78699201961E+03  0.15639186072E+04  0.50400001928E-02 0. -1.
       -1    1    3    3    0  502 -0.11783946634E+04 -0.66171820921E+03  0.44708242592E+02  0.13522144053E+04  0.50400001928E-02 0.  1.
</event>
<event>
 5   0  0.1243055E-06  0.2804872E+04  0.7818609E-02  0.8301757E-01
        1   -1    0    0  501    0  0.00000000000E+00  0.00000000000E+00  0.18591804320E+04  0.18591804320E+04  0.50400001928E-02 0.  1.
       -1   -1    0    0    0  501  0.00000000000E+00  0.00000000000E+00 -0.10578998901E+04  0.10578998901E+04  0.50400001928E-02 0. -1.
    10030    2    1    2    0    0  0.00000000000E+00  0.00000000000E+00  0.80128054195E+03  0.29170803221E+04  0.28048720289E+04 0.  0.
        5    1    3    3  502    0 -0.69161982589E+03 -0.89741855233E+03 -0.45892644503E+03  0.12224293900E+04  0.46999998093E+01 0. -1.
       -5    1    3    3    0  502  0.69161982589E+03  0.89741855233E+03  0.12602069870E+04  0.16946509321E+04  0.46999998093E+01 0.  1.
</event>
<event>
 5   0  0.3167616E-06  0.2799630E+04  0.7818609E-02  0.8303383E-01
       -2   -1    0    0    0  501  0.00000000000E+00  0.00000000000E+00  0.11241191044E+04  0.11241191044E+04  0.25500000920E-02 0. -1.
        2   -1    0    0  501    0  0.00000000000E+00  0.00000000000E+00 -0.17431264442E+04  0.17431264442E+04  0.25500000920E-02 0.  1.
    10030    2    1    2    0    0  0.00000000000E+00  0.00000000000E+00 -0.61900733985E+03  0.28672455486E+04  0.27996297879E+04 0.  0.
        3    1    3    3  502    0  0.63591149989E+03 -0.11720070234E+04  0.12681118378E+03  0.13394271108E+04  0.10100000352E+00 0. -1.
       -3    1    3    3    0  502 -0.63591149989E+03  0.11720070234E+04 -0.74581852363E+03  0.15278184378E+04  0.10100000352E+00 0.  1.
</event>
<event>
 5   0  0.1220265E-06  0.2796734E+04  0.7818609E-02  0.8304283E-01
        1   -1    0    0  501    0  0.00000000000E+00  0.00000000000E+00  0.19600141490E+04  0.19600141490E+04  0.50400001928E-02 0.  1.
       -1   -1    0    0    0  501  0.00000000000E+00  0.00000000000E+00 -0.99766156536E+03  0.99766156537E+03  0.50400001928E-02 0. -1.
    10030    2    1    2    0    0  0.00000000000E+00  0.00000000000E+00  0.96235258365E+03  0.29576757144E+04  0.27967343700E+04 0.  0.
        4    1    3    3  502    0  0.11194889627E+04 -0.46531102555E+03  0.12181723803E+04  0.17186376725E+04  0.12699999809E+01 0.  1.
       -4    1    3    3    0  502 -0.11194889627E+04  0.46531102555E+03 -0.25581979670E+03  0.12390380419E+04  0.12699999809E+01 0. -1.
</event>
<event>
 5   0  0.3167616E-06  0.2812145E+04  0.7818609E-02  0.8299508E-01
        2   -1    0    0  501    0  0.00000000000E+00  0.00000000000E+00  0.86617977766E+03  0.86617977767E+03  0.25500000920E-02 0.  1.
       -2   -1    0    0    0  501  0.00000000000E+00  0.00000000000E+00 -0.22824817105E+04  0.22824817105E+04  0.25500000920E-02 0. -1.
    10030    2    1    2    0    0  0.00000000000E+00  0.00000000000E+00 -0.14163019329E+04  0.31486614882E+04  0.28121447335E+04 0.  0.
        3    1    3    3  502    0 -0.39389312691E+03  0.33213444751E+03 -0.21729774893E+04  0.22332255295E+04  0.10100000352E+00 0. -1.
       -3    1    3    3    0  502  0.39389312691E+03 -0.33213444751E+03  0.75667555638E+03  0.91543595869E+03  0.10100000352E+00 0.  1.
</event>
<event>
 5   0  0.1065675E-06  0.2765776E+04  0.7818609E-02  0.8313973E-01
       -3   -1    0    0    0  501  0.00000000000E+00  0.00000000000E+00  0.16428410489E+04  0.16428410520E+04  0.10100000352E+00 0.  1.
        3   -1    0    0  501    0  0.00000000000E+00  0.00000000000E+00 -0.11640683438E+04  0.11640683482E+04  0.10100000352E+00 0. -1.
    10030    2    1    2    0    0  0.00000000000E+00  0.00000000000E+00  0.47877270511E+03  0.28069094002E+04  0.27657760354E+04 0.  0.
        1    1    3    3  502    0  0.44866077261E+03  0.11982304966E+04  0.77190566078E+03  0.14942861711E+04  0.50400001928E-02 0.  1.
       -1    1    3    3    0  502 -0.44866077261E+03 -0.11982304966E+04 -0.29313295567E+03  0.13126232291E+04  0.50400001928E-02 0. -1.
</event>
<event>
 5   0  0.1246044E-06  0.2824029E+04  0.7818609E-02  0.8295847E-01
       -1   -1    0    0    0  501  0.00000000000E+00  0.00000000000E+00  0.15492771555E+04  0.15492771555E+04  0.50400001928E-02 0. -1.
        1   -1    0    0  501    0  0.00000000000E+00  0.00000000000E+00 -0.12869126205E+04  0.12869126205E+04  0.50400001928E-02 0.  1.
    10030    2    1    2    0    0  0.00000000000E+00  0.00000000000E+00  0.26236453499E+03  0.28361897761E+04  0.28240285581E+04 0.  0.
        2    1    3    3  502    0 -0.42170657102E+03 -0.56545473486E+03 -0.10972813826E+04  0.13044546454E+04  0.25500000920E-02 0.  1.
       -2    1    3    3    0  502  0.42170657102E+03  0.56545473486E+03  0.13596459176E+04  0.15317351307E+04  0.25500000920E-02 0. -1.
</event>
<event>
 5   0  0.3226364E-06  0.2798494E+04  0.7818609E-02  0.8303736E-01
        2   -1    0    0  501    0  0.00000000000E+00  0.00000000000E+00  0.14960301130E+04  0.14960301130E+04  0.25500000920E-02 0.  1.
       -2   -1    0    0    0  501  0.00000000000E+00  0.00000000000E+00 -0.13087250809E+04  0.13087250809E+04  0.25500000920E-02 0. -1.
    10030    2    1    2    0    0  0.00000000000E+00  0.00000000000E+00  0.18730503215E+03  0.28047551939E+04  0.27984939740E+04 0.  0.
        5    1    3    3  502    0  0.12687471052E+04  0.50546104058E+03 -0.21142952246E+03  0.13820038399E+04  0.46999998093E+01 0. -1.
       -5    1    3    3    0  502 -0.12687471052E+04 -0.50546104058E+03  0.39873455460E+03  0.14227513540E+04  0.46999998093E+01 0.  1.
</event>
<event>
 5   0  0.1235252E-06  0.2802391E+04  0.7818609E-02  0.8302526E-01
       -1   -1    0    0    0  501  0.00000000000E+00  0.00000000000E+00  0.10190661032E+04  0.10190661032E+04  0.50400001928E-02 0. -1.
        1   -1    0    0  501    0  0.00000000000E+00  0.00000000000E+00 -0.19266162596E+04  0.19266162596E+04  0.50400001928E-02 0.  1.
    10030    2    1    2    0    0  0.00000000000E+00  0.00000000000E+00 -0.90755015642E+03  0.29456823629E+04  0.28023913532E+04 0.  0.
        1    1    3    3  502    0  0.53296671521E+03 -0.57167622850E+03  0.76865180505E+03  0.10962175091E+04  0.50400001928E-02 0. -1.
       -1    1    3    3    0  502 -0.53296671521E+03  0.57167622850E+03 -0.16762019615E+04  0.18494648538E+04  0.50400001928E-02 0.  1.
</event>
<event>
 5   0  0.1235252E-06  0.2802782E+04  0.7818609E-02  0.8302405E-01
        1   -1    0    0  501    0  0.00000000000E+00  0.00000000000E+00  0.10520046619E+04  0.10520046619E+04  0.50400001928E-02 0. -1.
       -1   -1    0    0    0  501  0.00000000000E+00  0.00000000000E+00 -0.18668138860E+04  0.18668138860E+04  0.50400001928E-02 0.  1.
    10030    2    1    2    0    0  0.00000000000E+00  0.00000000000E+00 -0.81480922407E+03  0.29188185479E+04  0.28027821257E+04 0.  0.
        1    1    3    3  502    0  0.26463712929E+03 -0.12602342467E+04  0.16836246323E+03  0.12986797472E+04  0.50400001928E-02 0. -1.
       -1    1    3    3    0  502 -0.26463712929E+03  0.12602342467E+04 -0.98317168731E+03  0.16201388007E+04  0.50400001928E-02 0.  1.
</event>
<event>
 5   0  0.3167616E-06  0.2813138E+04  0.7818609E-02  0.8299201E-01
        2   -1    0    0  501    0  0.00000000000E+00  0.00000000000E+00  0.19154487929E+04  0.19154487929E+04  0.25500000920E-02 0.  1.
       -2   -1    0    0    0  501  0.00000000000E+00  0.00000000000E+00 -0.10328841245E+04  0.10328841245E+04  0.25500000920E-02 0. -1.
    10030    2    1    2    0    0  0.00000000000E+00  0.00000000000E+00  0.88256466845E+03  0.29483329174E+04  0.28131382117E+04 0.  0.
        3    1    3    3  502    0 -0.12697862559E+04  0.52014136132E+03  0.11734504034E+03  0.13771978943E+04  0.10100000352E+00 0.  1.
       -3    1    3    3    0  502  0.12697862559E+04 -0.52014136132E+03  0.76521962810E+03  0.15711350231E+04  0.10100000352E+00 0. -1.
</event>
<event>
 5   0  0.1220265E-06  0.2805482E+04  0.7818609E-02  0.8301569E-01
        1   -1    0    0  501    0  0.00000000000E+00  0.00000000000E+00  0.83319993907E+03  0.83319993908E+03  0.50400001928E-02 0. -1.
       -1   -1    0    0    0  501  0.00000000000E+00  0.00000000000E+00 -0.23615960234E+04  0.23615960235E+04  0.50400001928E-02 0.  1.
    10030    2    1    2    0    0  0.00000000000E+00  0.00000000000E+00 -0.15283960844E+04  0.31947959625E+04  0.28054815365E+04 0.  0.
        4    1    3    3  502    0 -0.65119752242E+03 -0.37310307215E+03 -0.21137312827E+04  0.22430170896E+04  0.12699999809E+01 0.  1.
       -4    1    3    3    0  502  0.65119752242E+03  0.37310307215E+03  0.58533519835E+03  0.95177887295E+03  0.12699999809E+01 0. -1.
</event>
<event>
 5   0  0.1235252E-06  0.2807298E+04  0.7818609E-02  0.8301006E-01
        1   -1    0    0  501    0  0.00000000000E+00  0.00000000000E+00  0.23035094073E+04  0.23035094073E+04  0.50400001928E-02 0. -1.
       -1   -1    0    0    0  501  0.00000000000E+00  0.00000000000E+00 -0.85531661551E+03  0.85531661552E+03  0.50400001928E-02 0.  1.
    10030    2    1    2    0    0  0.00000000000E+00  0.00000000000E+00  0.14481927918E+04  0.31588260228E+04  0.28072975404E+04 0.  0.
        1    1    3    3  502    0 -0.69213978111E+02  0.67789102316E+03 -0.65671947235E+03  0.94636529915E+03  0.50400001928E-02 0.  1.
       -1    1    3    3    0  502  0.69213978111E+02 -0.67789102316E+03  0.21049122641E+04  0.22124607237E+04  0.50400001928E-02 0. -1.
</event>
<event>
 5   0  0.3226364E-06  0.2793098E+04  0.7818609E-02  0.8305414E-01
       -2   -1    0    0    0  501  0.00000000000E+00  0.00000000000E+00  0.69849379502E+03  0.69849379502E+03  0.25500000920E-02 0.  1.
        2   -1    0    0  501    0  0.00000000000E+00  0.00000000000E+00 -0.27922217157E+04  0.27922217157E+04  0.25500000920E-02 0. -1.
    10030    2    1    2    0    0  0.00000000000E+00  0.00000000000E+00 -0.20937279206E+04  0.34907155107E+04  0.27930983103E+04 0.  0.
        5    1    3    3  502    0  0.13496232084E+04 -0.35663690253E+03 -0.99602498724E+03  0.17148645865E+04  0.46999998093E+01 0. -1.
       -5    1    3    3    0  502 -0.13496232084E+04  0.35663690253E+03 -0.10977029334E+04  0.17758509242E+04  0.46999998093E+01 0.  1.
</event>
<event>
 5   0  0.1243055E-06  0.2803044E+04  0.7818609E-02  0.8302324E-01
       -1   -1    0    0    0  501  0.00000000000E+00  0.00000000000E+00  0.11756711890E+04  0.11756711890E+04  0.50400001928E-02 0.  1.
        1   -1    0    0  501    0  0.00000000000E+00  0.00000000000E+00 -0.16707600721E+04  0.16707600721E+04  0.50400001928E-02 0. -1.
    10030    2    1    2    0    0  0.00000000000E+00  0.00000000000E+00 -0.49508888307E+03  0.28464312611E+04  0.28030444024E+04 0.  0.
        5    1    3    3  502    0 -0.36568103465E+03 -0.12822855400E+04 -0.68580731193E+03  0.14994440918E+04  0.46999998093E+01 0.  1.
       -5    1    3    3    0  502  0.36568103465E+03  0.12822855400E+04  0.19071842885E+03  0.13469871693E+04  0.46999998093E+01 0. -1.
</event>
<event>
 5   0  0.3167616E-06  0.2836479E+04  0.7818609E-02  0.8292032E-01
        2   -1    0    0  501    0  0.00000000000E+00  0.00000000000E+00  0.11919139449E+04  0.11919139449E+04  0.25500000920E-02 0.  1.
       -2   -1    0    0    0  501  0.00000000000E+00  0.00000000000E+00 -0.16875405139E+04  0.16875405139E+04  0.25500000920E-02 0. -1.
    10030    2    1    2    0    0  0.00000000000E+00  0.00000000000E+00 -0.49562656902E+03  0.28794544588E+04  0.28364788531E+04 0.  0.
        3    1    3    3  502    0  0.88428898535E+03 -0.11049190172E+04 -0.15372670750E+03  0.14235325620E+04  0.10100000352E+00 0.  1.
       -3    1    3    3    0  502 -0.88428898535E+03  0.11049190172E+04 -0.34189986152E+03  0.14559218968E+04  0.10100000352E+00 0. -1.
</event>
<event>
 5   0  0.1246044E-06  0.2773382E+04  0.7818609E-02  0.8311580E-01
       -1   -1    0    0    0  501  0.00000000000E+00  0.00000000000E+00  0.13442933188E+04  0.13442933189E+04  0.50400001928E-02 0. -1.
        1   -1    0    0  501    0  0.00000000000E+00  0.00000000000E+00 -0.14304260889E+04  0.14304260889E+04  0.50400001928E-02 0.  1.
    10030    2    1    2    0    0  0.00000000000E+00  0.00000000000E+00 -0.86132770014E+02  0.27747194077E+04  0.27733822199E+04 0.  0.
        2    1    3    3  502    0 -0.10107426481E+04  0.78085238711E+03 -0.58330922203E+03  0.14041299084E+04  0.25500000920E-02 0.  1.
       -2    1    3    3    0  502  0.10107426481E+04 -0.78085238711E+03  0.49717645201E+03  0.13705894993E+04  0.25500000920E-02 0. -1.
</event>
<event>
 5   0  0.1220265E-06  0.2728908E+04  0.7818609E-02  0.8325686E-01
        1   -1    0    0  501    0  0.00000000000E+00  0.00000000000E+00  0.17490679017E+04  0.17490679017E+04  0.50400001928E-02 0. -1.
       -1   -1    0    0    0  501  0.00000000000E+00  0.00000000000E+00 -0.10644151844E+04  0.10644151844E+04  0.50400001928E-02 0.  1.
    10030    2    1    2    0    0  0.00000000000E+00  0.00000000000E+00  0.68465271726E+03  0.28134830861E+04  0.27289077911E+04 0.  0.
        4    1    3    3  502    0  0.17217607519E+03  0.10131697975E+04  0.12676815933E+04  0.16319239794E+04  0.12699999809E+01 0. -1.
       -4    1    3    3    0  502 -0.17217607519E+03 -0.10131697975E+04 -0.58302887606E+03  0.11815591067E+04  0.12699999809E+01 0.  1.
</event>
<event>
 5   0  0.1235252E-06  0.2796336E+04  0.7818609E-02  0.8304407E-01
        1   -1    0    0  501    0  0.00000000000E+00  0.00000000000E+00  0.13279916258E+04  0.13279916258E+04  0.50400001928E-02 0.  1.
       -1   -1    0    0    0  501  0.00000000000E+00  0.00000000000E+00 -0.14720525030E+04  0.14720525031E+04  0.50400001928E-02 0. -1.
    10030    2    1    2    0    0  0.00000000000E+00  0.00000000000E+00 -0.14406087721E+03  0.28000441289E+04  0.27963357430E+04 0.  0.
        1    1    3    3  502    0 -0.74067143118E+03 -0.86811491532E+03  0.73691203159E+03  0.13584023769E+04  0.50400001928E-02 0.  1.
       -1    1    3    3    0  502  0.74067143118E+03  0.86811491532E+03 -0.88097290880E+03  0.14416417520E+04  0.50400001928E-02 0. -1.
</event>
<event>
 5   0  0.1220265E-06  0.2796120E+04  0.7818609E-02  0.8304474E-01
       -1   -1    0    0    0  501  0.00000000000E+00  0.00000000000E+00  0.12983802786E+04  0.12983802786E+04  0.50400001928E-02 0.  1.
        1   -1    0    0  501    0  0.00000000000E+00  0.00000000000E+00 -0.15053918864E+04  0.15053918864E+04  0.50400001928E-02 0. -1.
    10030    2    1    2    0    0  0.00000000000E+00  0.00000000000E+00 -0.20701160778E+03  0.28037721650E+04  0.27961195517E+04 0.  0.
        4    1    3    3  502    0  0.50436333373E+03 -0.11549066544E+04 -0.71045388376E+03  0.14466990311E+04  0.12699999809E+01 0. -1.
       -4    1    3    3    0  502 -0.50436333373E+03  0.11549066544E+04  0.50344227597E+03  0.13570731339E+04  0.12699999809E+01 0.  1.
</event>
<event>
 5   0  0.3345919E-06  0.2802310E+04  0.7818609E-02  0.8302552E-01
       -2   -1    0    0    0  501  0.00000000000E+00  0.00000000000E+00  0.11483785761E+04  0.11483785762E+04  0.25500000920E-02 0.  1.
        2   -1    0    0  501    0  0.00000000000E+00  0.00000000000E+00 -0.17095709606E+04  0.17095709606E+04  0.25500000920E-02 0. -1.
    10030    2    1    2    0    0  0.00000000000E+00  0.00000000000E+00 -0.56119238446E+03  0.28579495368E+04  0.28023095229E+04 0.  0.
        2    1    3    3  502    0 -0.88617026428E+03  0.10263823392E+04 -0.64041317122E+03  0.14996291119E+04  0.25500000920E-02 0. -1.
       -2    1    3    3    0  502  0.88617026428E+03 -0.10263823392E+04  0.79220786762E+02  0.13583204248E+04  0.25500000920E-02 0.  1.
</event>
<event>
 5   0  0.3162695E-06  0.2806991E+04  0.7818609E-02  0.8301101E-01
       -2   -1    0    0    0  501  0.00000000000E+00  0.00000000000E+00  0.10413104549E+04  0.10413104549E+04  0.25500000920E-02 0.  1.
        2   -1    0    0  501    0  0.00000000000E+00  0.00000000000E+00 -0.18916547167E+04  0.18916547167E+04  0.25500000920E-02 0. -1.
    10030    2    1    2    0    0  0.00000000000E+00  0.00000000000E+00 -0.85034426176E+03  0.29329651716E+04  0.28069911532E+04 0.  0.
        1    1    3    3  502    0  0.86304947491E+03 -0.29898149662E+03  0.68827613937E+03  0.11436644506E+04  0.50400001928E-02 0.  1.
       -1    1    3    3    0  502 -0.86304947491E+03  0.29898149662E+03 -0.15386204011E+04  0.17893007210E+04  0.50400001928E-02 0. -1.
</event>
<event>
 5   0  0.3167616E-06  0.2782200E+04  0.7818609E-02  0.8308816E-01
        2   -1    0    0  501    0  0.00000000000E+00  0.00000000000E+00  0.19332107394E+04  0.19332107394E+04  0.25500000920E-02 0.  1.
       -2   -1    0    0    0  501  0.00000000000E+00  0.00000000000E+00 -0.10010080821E+04  0.10010080821E+04  0.25500000920E-02 0. -1.
    10030    2    1    2    0    0  0.00000000000E+00  0.00000000000E+00  0.93220265735E+03  0.29342188215E+04  0.27822002620E+04 0.  0.
        3    1    3    3  502    0 -0.93963787765E+03 -0.31496798692E+03 -0.56347518123E+03  0.11400124841E+04  0.10100000352E+00 0. -1.
       -3    1    3    3    0  502  0.93963787765E+03  0.31496798692E+03  0.14956778386E+04  0.17942063373E+04  0.10100000352E+00 0.  1.
</event>
<event>
 5   0  0.3162695E-06  0.2813198E+04  0.7818609E-02  0.8299183E-01
        2   -1    0    0  501    0  0.00000000000E+00  0.00000000000E+00  0.14349384710E+04  0.14349384710E+04  0.25500000920E-02 0.  1.
       -2   -1    0    0    0  501  0.00000000000E+00  0.00000000000E+00 -0.13788191220E+04  0.13788191220E+04  0.25500000920E-02 0. -1.
    10030    2    1    2    0    0  0.00000000000E+00  0.00000000000E+00  0.56119349048E+02  0.28137575930E+04  0.28131978975E+04 0.  0.
        1    1    3    3  502    0 -0.12411494875E+04  0.30772344127E+03  0.61415819932E+03  0.14185683137E+04  0.50400001928E-02 0. -1.
       -1    1    3    3    0  502  0.12411494875E+04 -0.30772344127E+03 -0.55803885027E+03  0.13951892793E+04  0.50400001928E-02 0.  1.
</event>
<event>
 5   0  0.3212679E-06  0.2805413E+04  0.7818609E-02  0.8301590E-01
        2   -1    0    0  501    0  0.00000000000E+00  0.00000000000E+00  0.16907204380E+04  0.16907204380E+04  0.25500000920E-02 0. -1.
       -2   -1    0    0    0  501  0.00000000000E+00  0.00000000000E+00 -0.11637556688E+04  0.11637556688E+04  0.25500000920E-02 0.  1.
    10030    2    1    2    0    0  0.00000000000E+00  0.00000000000E+00  0.52696476921E+03  0.28544761068E+04  0.28054129778E+04 0.  0.
        4    1    3    3  502    0 -0.10824821669E+04  0.29362523381E+03 -0.59362760161E+03  0.12690069983E+04  0.12699999809E+01 0.  1.
       -4    1    3    3    0  502  0.10824821669E+04 -0.29362523381E+03  0.11205923708E+04  0.15854691085E+04  0.12699999809E+01 0. -1.
</event>
<event>
 5   0  0.1263513E-06  0.2799321E+04  0.7818609E-02  0.8303479E-01
       -1   -1    0    0    0  501  0.00000000000E+00  0.00000000000E+00  0.15245596727E+04  0.15245596727E+04  0.50400001928E-02 0. -1.
        1   -1    0    0  501    0  0.00000000000E+00  0.00000000000E+00 -0.12849940536E+04  0.12849940536E+04  0.50400001928E-02 0.  1.
    10030    2    1    2    0    0  0.00000000000E+00  0.00000000000E+00  0.23956561908E+03  0.28095537263E+04  0.27993214276E+04 0.  0.
        3    1    3    3  502    0  0.46573770064E+03 -0.13176535523E+04  0.42510386928E+02  0.13981879819E+04  0.10100000352E+00 0.  1.
       -3    1    3    3    0  502 -0.46573770064E+03  0.13176535523E+04  0.19705523216E+03  0.14113657443E+04  0.10100000352E+00 0. -1.
</event>
<event>
 5   0  0.1235252E-06  0.2801358E+04  0.7818609E-02  0.8302847E-01
       -1   -1    0    0    0  501  0.00000000000E+00  0.00000000000E+00  0.14124362370E+04  0.14124362370E+04  0.50400001928E-02 0. -1.
        1   -1    0    0  501    0  0.00000000000E+00  0.00000000000E+00 -0.13890192760E+04  0.13890192760E+04  0.50400001928E-02 0.  1.
    10030    2    1    2    0    0  0.00000000000E+00  0.00000000000E+00  0.23416961009E+02  0.28014555130E+04  0.28013576418E+04 0.  0.
        1    1    3    3  502    0 -0.30439360442E+03 -0.11626910327E+04  0.73103553302E+03  0.14067405072E+04  0.50400001928E-02 0. -1.
       -1    1    3    3    0  502  0.30439360442E+03  0.11626910327E+04 -0.70761857201E+03  0.13947150058E+04  0.50400001928E-02 0.  1.
</event>
<event>
 5   0  0.1065675E-06  0.2852939E+04  0.7818609E-02  0.8287019E-01
       -3   -1    0    0    0  501  0.00000000000E+00  0.00000000000E+00  0.18492257553E+04  0.18492257580E+04  0.10100000352E+00 0.  1.
        3   -1    0    0  501    0  0.00000000000E+00  0.00000000000E+00 -0.11003604031E+04  0.11003604078E+04  0.10100000352E+00 0. -1.
    10030    2    1    2    0    0  0.00000000000E+00  0.00000000000E+00  0.74886535214E+03  0.29495861658E+04  0.28529387014E+04 0.  0.
        3    1    3    3  502    0 -0.29314974581E+03 -0.29379969190E+03  0.17854220914E+04  0.18330267557E+04  0.10100000352E+00 0.  1.
       -3    1    3    3    0  502  0.29314974581E+03  0.29379969190E+03 -0.10365567392E+04  0.11165594101E+04  0.10100000352E+00 0. -1.
</event>
<event>
 5   0  0.1235252E-06  0.2794199E+04  0.7818609E-02  0.8305072E-01
        1   -1    0    0  501    0  0.00000000000E+00  0.00000000000E+00  0.17254132509E+04  0.17254132509E+04  0.50400001928E-02 0.  1.
       -1   -1    0    0    0  501  0.00000000000E+00  0.00000000000E+00 -0.11312573530E+04  0.11312573530E+04  0.50400001928E-02 0. -1.
    10030    2    1    2    0    0  0.00000000000E+00  0.00000000000E+00  0.59415589788E+03  0.28566706039E+04  0.27941985807E+04 0.  0.
        1    1    3    3  502    0 -0.94804809014E+03 -0.32839330527E+03  0.12910542513E+04  0.16350713819E+04  0.50400001928E-02 0.  1.
       -1    1    3    3    0  502  0.94804809014E+03  0.32839330527E+03 -0.69689835339E+03  0.12215992220E+04  0.50400001928E-02 0. -1.
</event>
<event>
 5   0  0.1220265E-06  0.2812700E+04  0.7818609E-02  0.8299336E-01
        1   -1    0    0  501    0  0.00000000000E+00  0.00000000000E+00  0.15498819546E+04  0.15498819546E+04  0.50400001928E-02 0.  1.
       -1   -1    0    0    0  501  0.00000000000E+00  0.00000000000E+00 -0.12761103602E+04  0.12761103602E+04  0.50400001928E-02 0. -1.
    10030    2    1    2    0    0  0.00000000000E+00  0.00000000000E+00  0.27377159439E+03  0.28259923149E+04  0.28127000689E+04 0.  0.
        4    1    3    3  502    0 -0.46348856611E+03  0.63850917797E+02 -0.11956246506E+04  0.12839075156E+04  0.12699999809E+01 0. -1.
       -4    1    3    3    0  502  0.46348856611E+03 -0.63850917797E+02  0.14693962449E+04  0.15420847993E+04  0.12699999809E+01 0.  1.
</event>
<event>
 5   0  0.1263513E-06  0.2795456E+04  0.7818609E-02  0.8304680E-01
        1   -1    0    0  501    0  0.00000000000E+00  0.00000000000E+00  0.21144053869E+04  0.21144053869E+04  0.50400001928E-02 0.  1.
       -1   -1    0    0    0  501  0.00000000000E+00  0.00000000000E+00 -0.92396858820E+03  0.92396858821E+03  0.50400001928E-02 0. -1.
    10030    2    1    2    0    0  0.00000000000E+00  0.00000000000E+00  0.11904367987E+04  0.30383739751E+04  0.27954564280E+04 0.  0.
        3    1    3    3  502    0 -0.56334308296E+03  0.46717223916E+03  0.18895112736E+04  0.20262917345E+04  0.10100000352E+00 0.  1.
       -3    1    3    3    0  502  0.56334308296E+03 -0.46717223916E+03 -0.69907447487E+03  0.10120822406E+04  0.10100000352E+00 0. -1.
</event>
<event>
 5   0  0.3212679E-06  0.2799708E+04  0.7818609E-02  0.8303359E-01
       -2   -1    0    0    0  501  0.00000000000E+00  0.00000000000E+00  0.16470983089E+04  0.16470983089E+04  0.25500000920E-02 0. -1.
        2   -1    0    0  501    0  0.00000000000E+00  0.00000000000E+00 -0.11897235473E+04  0.11897235473E+04  0.25500000920E-02 0.  1.
    10030    2    1    2    0    0  0.00000000000E+00  0.00000000000E+00  0.45737476164E+03  0.28368218562E+04  0.27997083011E+04 0.  0.
        4    1    3    3  502    0  0.58139316782E+03  0.88408996694E+03  0.11573282478E+04  0.15681337224E+04  0.12699999809E+01 0. -1.
       -4    1    3    3    0  502 -0.58139316782E+03 -0.88408996694E+03 -0.69995348613E+03  0.12686881338E+04  0.12699999809E+01 0.  1.
</event>
<event>
 5   0  0.1246044E-06  0.2816861E+04  0.7818609E-02  0.8298053E-01
       -1   -1    0    0    0  501  0.00000000000E+00  0.00000000000E+00  0.72773067349E+03  0.72773067351E+03  0.50400001928E-02 0. -1.
        1   -1    0    0  501    0  0.00000000000E+00  0.00000000000E+00 -0.27258383262E+04  0.27258383262E+04  0.50400001928E-02 0.  1.
    10030    2    1    2    0    0  0.00000000000E+00  0.00000000000E+00 -0.19981076527E+04  0.34535689997E+04  0.28168607782E+04 0.  0.
        2    1    3    3  502    0 -0.27883157539E+03 -0.33859943119E+03 -0.26399625999E+04  0.26761537981E+04  0.25500000920E-02 0.  1.
       -2    1    3    3    0  502  0.27883157539E+03  0.33859943119E+03  0.64185494726E+03  0.77741520153E+03  0.25500000920E-02 0. -1.
</event>
<event>
 5   0  0.1263513E-06  0.2802729E+04  0.7818609E-02  0.8302421E-01
        1   -1    0    0  501    0  0.00000000000E+00  0.00000000000E+00  0.27177133002E+04  0.27177133002E+04  0.50400001928E-02 0. -1.
       -1   -1    0    0    0  501  0.00000000000E+00  0.00000000000E+00 -0.72260126091E+03  0.72260126093E+03  0.50400001928E-02 0.  1.
    10030    2    1    2    0    0  0.00000000000E+00  0.00000000000E+00  0.19951120393E+04  0.34403145611E+04  0.28027294251E+04 0.  0.
        3    1    3    3  502    0 -0.73478694341E+03 -0.13187617977E+03 -0.45820442988E+03  0.87593064153E+03  0.10100000352E+00 0. -1.
       -3    1    3    3    0  502  0.73478694341E+03  0.13187617977E+03  0.24533164691E+04  0.25643839196E+04  0.10100000352E+00 0.  1.
</event>
<event>
 5   0  0.3226364E-06  0.2806063E+04  0.7818609E-02  0.8301389E-01
       -2   -1    0    0    0  501  0.00000000000E+00  0.00000000000E+00  0.10936939570E+04  0.10936939570E+04  0.25500000920E-02 0. -1.
        2   -1    0    0  501    0  0.00000000000E+00  0.00000000000E+00 -0.17998606344E+04  0.17998606344E+04  0.25500000920E-02 0.  1.
    10030    2    1    2    0    0  0.00000000000E+00  0.00000000000E+00 -0.70616667738E+03  0.28935545914E+04  0.28060625077E+04 0.  0.
        5    1    3    3  502    0 -0.11283695372E+02 -0.10783571073E+03 -0.17955259461E+04  0.17988027617E+04  0.46999998093E+01 0.  1.
       -5    1    3    3    0  502  0.11283695372E+02  0.10783571073E+03  0.10893592687E+04  0.10947518297E+04  0.46999998093E+01 0. -1.
</event>
<event>
 5   0  0.1246044E-06  0.2800977E+04  0.7818609E-02  0.8302965E-01
       -1   -1    0    0    0  501  0.00000000000E+00  0.00000000000E+00  0.10693615019E+04  0.10693615019E+04  0.50400001928E-02 0. -1.
        1   -1    0    0  501    0  0.00000000000E+00  0.00000000000E+00 -0.18341490020E+04  0.18341490020E+04  0.50400001928E-02 0.  1.
    10030    2    1    2    0    0  0.00000000000E+00  0.00000000000E+00 -0.76478750011E+03  0.29035105038E+04  0.28009772090E+04 0.  0.
        2    1    3    3  502    0  0.33491093467E+03 -0.42203523024E+03 -0.17224210637E+04  0.18047197540E+04  0.25500000920E-02 0.  1.
       -2    1    3    3    0  502 -0.33491093467E+03  0.42203523024E+03  0.95763356362E+03  0.10987907498E+04  0.25500000920E-02 0. -1.
</event>
<event>
 5   0  0.1243055E-06  0.2790758E+04  0.7818609E-02  0.8306144E-01
        1   -1    0    0  501    0  0.00000000000E+00  0.00000000000E+00  0.19508647113E+04  0.19508647113E+04  0.50400001928E-02 0. -1.
       -1   -1    0    0    0  501  0.00000000000E+00  0.00000000000E+00 -0.99806098177E+03  0.99806098178E+03  0.50400001928E-02 0.  1.
    10030    2    1    2    0    0  0.00000000000E+00  0.00000000000E+00  0.95280372955E+03  0.29489256931E+04  0.27907575668E+04 0.  0.
        5    1    3    3  502    0  0.94982447273E+03 -0.78782432041E+03 -0.21183898578E+03  0.12520908652E+04  0.46999998093E+01 0.  1.
       -5    1    3    3    0  502 -0.94982447273E+03  0.78782432041E+03  0.11646427153E+04  0.16968348279E+04  0.46999998093E+01 0. -1.
</event>
<event>
 5   0  0.1243055E-06  0.2806694E+04  0.7818609E-02  0.8301193E-01
       -1   -1    0    0    0  501  0.00000000000E+00  0.00000000000E+00  0.94204265701E+03  0.94204265703E+03  0.50400001928E-02 0. -1.
        1   -1    0    0  501    0  0.00000000000E+00  0.00000000000E+00 -0.20905451246E+04  0.20905451246E+04  0.50400001928E-02 0.  1.
    10030    2    1    2    0    0  0.00000000000E+00  0.00000000000E+00 -0.11485024676E+04  0.30325877816E+04  0.28066939155E+04 0.  0.
        5    1    3    3  502    0  0.10434672645E+04  0.87826370927E+03 -0.21721786854E+03  0.13810781178E+04  0.46999998093E+01 0.  1.
       -5    1    3    3    0  502 -0.10434672645E+04 -0.87826370927E+03 -0.93128459902E+03  0.16515096638E+04  0.46999998093E+01 0. -1.
</event>
<event>
 5   0  0.3345919E-06  0.2798275E+04  0.7818609E-02  0.8303804E-01
       -2   -1    0    0    0  501  0.00000000000E+00  0.00000000000E+00  0.19604340455E+04  0.19604340455E+04  0.25500000920E-02 0. -1.
        2   -1    0    0  501    0  0.00000000000E+00  0.00000000000E+00 -0.99854737641E+03  0.99854737642E+03  0.25500000920E-02 0.  1.
    10030    2    1    2    0    0  0.00000000000E+00  0.00000000000E+00  0.96188666906E+03  0.29589814219E+04  0.27982753780E+04 0.  0.
        2    1    3    3  502    0  0.47956838253E+03 -0.83127575641E+03 -0.59565429966E+03  0.11295172692E+04  0.25500000920E-02 0.  1.
       -2    1    3    3    0  502 -0.47956838253E+03  0.83127575641E+03  0.15575409687E+04  0.18294641527E+04  0.25500000920E-02 0. -1.
</event>
<event>
 5   0  0.3345919E-06  0.2664576E+04  0.7818609E-02  0.8346591E-01
       -2   -1    0    0    0  501  0.00000000000E+00  0.00000000000E+00  0.91461057389E+03  0.91461057390E+03  0.25500000920E-02 0. -1.
        2   -1    0    0  501    0  0.00000000000E+00  0.00000000000E+00 -0.19407075416E+04  0.19407075416E+04  0.25500000920E-02 0.  1.
    10030    2    1    2    0    0  0.00000000000E+00  0.00000000000E+00 -0.10260969677E+04  0.28553181155E+04  0.26645762428E+04 0.  0.
        2    1    3    3  502    0 -0.53600929377E+03 -0.31455132811E+02 -0.18196328948E+04  0.18971977389E+04  0.25500000920E-02 0.  1.
       -2    1    3    3    0  502  0.53600929377E+03  0.31455132811E+02  0.79353592715E+03  0.95812037661E+03  0.25500000920E-02 0. -1.
</event>
<event>
 5   0  0.3226364E-06  0.2847982E+04  0.7818609E-02  0.8288525E-01
       -2   -1    0    0    0  501  0.00000000000E+00  0.00000000000E+00  0.15179797102E+04  0.15179797102E+04  0.25500000920E-02 0. -1.
        2   -1    0    0  501    0  0.00000000000E+00  0.00000000000E+00 -0.13358218999E+04  0.13358218999E+04  0.25500000920E-02 0.  1.
    10030    2    1    2    0    0  0.00000000000E+00  0.00000000000E+00  0.18215781026E+03  0.28538016101E+04  0.28479821211E+04 0.  0.
        5    1    3    3  502    0  0.50865430214E+03 -0.89531727003E+03 -0.89449900641E+03  0.13639914866E+04  0.46999998093E+01 0.  1.
       -5    1    3    3    0  502 -0.50865430214E+03  0.89531727003E+03  0.10766568167E+04  0.14898101235E+04  0.46999998093E+01 0. -1.
</event>
<event>
 5   0  0.3212679E-06  0.2799955E+04  0.7818609E-02  0.8303282E-01
       -2   -1    0    0    0  501  0.00000000000E+00  0.00000000000E+00  0.11800872115E+04  0.11800872115E+04  0.25500000920E-02 0. -1.
        2   -1    0    0  501    0  0.00000000000E+00  0.00000000000E+00 -0.16608405441E+04  0.16608405441E+04  0.25500000920E-02 0.  1.
    10030    2    1    2    0    0  0.00000000000E+00  0.00000000000E+00 -0.48075333260E+03  0.28409277557E+04  0.27999547757E+04 0.  0.
        4    1    3    3  502    0 -0.48874321777E+03  0.16903082696E+03  0.10796196099E+04  0.11970887471E+04  0.12699999809E+01 0. -1.
       -4    1    3    3    0  502  0.48874321777E+03 -0.16903082696E+03 -0.15603729425E+04  0.16438390086E+04  0.12699999809E+01 0.  1.
</event>
<event>
 5   0  0.1235252E-06  0.2799226E+04  0.7818609E-02  0.8303509E-01
        1   -1    0    0  501    0  0.00000000000E+00  0.00000000000E+00  0.16720974144E+04  0.16720974144E+04  0.50400001928E-02 0. -1.
       -1   -1    0    0    0  501  0.00000000000E+00  0.00000000000E+00 -0.11715324684E+04  0.11715324684E+04  0.50400001928E-02 0.  1.
    10030    2    1    2    0    0  0.00000000000E+00  0.00000000000E+00  0.50056494600E+03  0.28436298829E+04  0.27992259011E+04 0.  0.
        1    1    3    3  502    0 -0.71823718413E+03 -0.21184835111E+03  0.14514827597E+04  0.16332625564E+04  0.50400001928E-02 0. -1.
       -1    1    3    3    0  502  0.71823718413E+03  0.21184835111E+03 -0.95091781367E+03  0.12103673264E+04  0.50400001928E-02 0.  1.
</event>
<event>
 5   0  0.3212679E-06  0.2793140E+04  0.7818609E-02  0.8305401E-01
        2   -1    0    0  501    0  0.00000000000E+00  0.00000000000E+00  0.17848609772E+04  0.17848609772E+04  0.25500000920E-02 0. -1.
       -2   -1    0    0    0  501  0.00000000000E+00  0.00000000000E+00 -0.10927507075E+04  0.10927507075E+04  0.25500000920E-02 0.  1.
    10030    2    1    2    0    0  0.00000000000E+00  0.00000000000E+00  0.69211026963E+03  0.28776116847E+04  0.27931402368E+04 0.  0.
        4    1    3    3  502    0 -0.10470266769E+04 -0.91770817248E+03  0.45869287135E+03  0.14658969661E+04  0.12699999809E+01 0. -1.
       -4    1    3    3    0  502  0.10470266769E+04  0.91770817248E+03  0.23341739828E+03  0.14117147186E+04  0.12699999809E+01 0.  1.
</event>
<event>
 5   0  0.1220265E-06  0.2794541E+04  0.7818609E-02  0.8304965E-01
       -1   -1    0    0    0  501  0.00000000000E+00  0.00000000000E+00  0.10581889731E+04  0.10581889731E+04  0.50400001928E-02 0.  1.
        1   -1    0    0  501    0  0.00000000000E+00  0.00000000000E+00 -0.18450052124E+04  0.18450052124E+04  0.50400001928E-02 0. -1.
    10030    2    1    2    0    0  0.00000000000E+00  0.00000000000E+00 -0.78681623929E+03  0.29031941855E+04  0.27945405140E+04 0.  0.
        4    1    3    3  502    0  0.11948902172E+04  0.17337638440E+03  0.33716995045E+03  0.12535976987E+04  0.12699999809E+01 0.  1.
       -4    1    3    3    0  502 -0.11948902172E+04 -0.17337638440E+03 -0.11239861897E+04  0.16495964868E+04  0.12699999809E+01 0. -1.
</event>
<event>
 5   0  0.3162695E-06  0.2788586E+04  0.7818609E-02  0.8306821E-01
        2   -1    0    0  501    0  0.00000000000E+00  0.00000000000E+00  0.96294874723E+03  0.96294874724E+03  0.25500000920E-02 0.  1.
       -2   -1    0    0    0  501  0.00000000000E+00  0.00000000000E+00 -0.20188545455E+04  0.20188545455E+04  0.25500000920E-02 0. -1.
    10030    2    1    2    0    0  0.00000000000E+00  0.00000000000E+00 -0.10559057983E+04  0.29818032928E+04  0.27885863483E+04 0.  0.
        1    1    3    3  502    0 -0.12198171476E+04 -0.39212283788E+03  0.59999500496E+02  0.12826979901E+04  0.50400001928E-02 0.  1.
       -1    1    3    3    0  502  0.12198171476E+04  0.39212283788E+03 -0.11159052988E+04  0.16991053027E+04  0.50400001928E-02 0. -1.
</event>
<event>
 5   0  0.1263513E-06  0.2796451E+04  0.7818609E-02  0.8304371E-01
        1   -1    0    0  501    0  0.00000000000E+00  0.00000000000E+00  0.23454790391E+04  0.23454790391E+04  0.50400001928E-02 0. -1.
       -1   -1    0    0    0  501  0.00000000000E+00  0.00000000000E+00 -0.83353325303E+03  0.83353325304E+03  0.50400001928E-02 0.  1.
    10030    2    1    2    0    0  0.00000000000E+00  0.00000000000E+00  0.15119457861E+04  0.31790122921E+04  0.27964511606E+04 0.  0.
        3    1    3    3  502    0  0.14015877750E+03  0.78094085521E+03  0.20647882522E+04  0.22119818351E+04  0.10100000352E+00 0. -1.
       -3    1    3    3    0  502 -0.14015877750E+03 -0.78094085521E+03 -0.55284246614E+03  0.96703045702E+03  0.10100000352E+00 0.  1.
</event>
<event>
 5   0  0.3167616E-06  0.2796757E+04  0.7818609E-02  0.8304276E-01
        2   -1    0    0  501    0  0.00000000000E+00  0.00000000000E+00  0.18854150692E+04  0.18854150692E+04  0.25500000920E-02 0. -1.
       -2   -1    0    0    0  501  0.00000000000E+00  0.00000000000E+00 -0.10371518989E+04  0.10371518989E+04  0.25500000920E-02 0.  1.
    10030    2    1    2    0    0  0.00000000000E+00  0.00000000000E+00  0.84826317029E+03  0.29225669682E+04  0.27967565638E+04 0.  0.
        3    1    3    3  502    0  0.15859906400E+02  0.35584167023E+03  0.18372144066E+04  0.18714250230E+04  0.10100000352E+00 0. -1.
       -3    1    3    3    0  502 -0.15859906400E+02 -0.35584167023E+03 -0.98895123628E+03  0.10511419451E+04  0.10100000352E+00 0.  1.
</event>
<event>
 5   0  0.1243055E-06  0.2793443E+04  0.7818609E-02  0.8305307E-01
        1   -1    0    0  501    0  0.00000000000E+00  0.00000000000E+00  0.10939197761E+04  0.10939197761E+04  0.50400001928E-02 0. -1.
       -1   -1    0    0    0  501  0.00000000000E+00  0.00000000000E+00 -0.17833401602E+04  0.17833401602E+04  0.50400001928E-02 0.  1.
    10030    2    1    2    0    0  0.00000000000E+00  0.00000000000E+00 -0.68942038408E+03  0.28772599362E+04  0.27934430860E+04 0.  0.
        5    1    3    3  502    0  0.88758882508E+02 -0.97060215388E+03 -0.13751590355E+04  0.16855358623E+04  0.46999998093E+01 0.  1.
       -5    1    3    3    0  502 -0.88758882508E+02  0.97060215388E+03  0.68573865140E+03  0.11917240739E+04  0.46999998093E+01 0. -1.
</event>
<event>
 5   0  0.3162695E-06  0.2770076E+04  0.7818609E-02  0.8312619E-01
        2   -1    0    0  501    0  0.00000000000E+00  0.00000000000E+00  0.15255732798E+04  0.15255732798E+04  0.25500000920E-02 0.  1.
       -2   -1    0    0    0  501  0.00000000000E+00  0.00000000000E+00 -0.12574486272E+04  0.12574486272E+04  0.25500000920E-02 0. -1.
    10030    2    1    2    0    0  0.00000000000E+00  0.00000000000E+00  0.26812465266E+03  0.27830219070E+04  0.27700758303E+04 0.  0.
        1    1    3    3  502    0 -0.66952464736E+03  0.90294694922E+02  0.13488093014E+04  0.15085433096E+04  0.50400001928E-02 0.  1.
       -1    1    3    3    0  502  0.66952464736E+03 -0.90294694922E+02 -0.10806846487E+04  0.12744785974E+04  0.50400001928E-02 0. -1.
</event>
<event>
 5   0  0.3167616E-06  0.2804784E+04  0.7818609E-02  0.8301785E-01
        2   -1    0    0  501    0  0.00000000000E+00  0.00000000000E+00  0.14891741944E+04  0.14891741944E+04  0.25500000920E-02 0.  1.
       -2   -1    0    0    0  501  0.00000000000E+00  0.00000000000E+00 -0.13206673915E+04  0.13206673915E+04  0.25500000920E-02 0. -1.
    10030    2    1    2    0    0  0.00000000000E+00  0.00000000000E+00  0.16850680295E+03  0.28098415859E+04  0.28047843402E+04 0.  0.
        3    1    3    3  502    0  0.65029405418E+03  0.55366320309E+03 -0.10300824239E+04  0.13380938343E+04  0.10100000352E+00 0. -1.
       -3    1    3    3    0  502 -0.65029405418E+03 -0.55366320309E+03  0.11985892268E+04  0.14717477516E+04  0.10100000352E+00 0.  1.
</event>
<event>
 5   0  0.1065675E-06  0.2790519E+04  0.7818609E-02  0.8306218E-01
        3   -1    0    0  501    0  0.00000000000E+00  0.00000000000E+00  0.78043437206E+03  0.78043437860E+03  0.10100000352E+00 0. -1.
       -3   -1    0    0    0  501  0.00000000000E+00  0.00000000000E+00 -0.24944429129E+04  0.24944429150E+04  0.10100000352E+00 0.  1.
    10030    2    1    2    0    0  0.00000000000E+00  0.00000000000E+00 -0.17140085409E+04  0.32748772936E+04  0.27905189499E+04 0.  0.
        3    1    3    3  502    0 -0.27578210226E+03  0.45578960184E+01  0.74812099613E+03  0.79734658549E+03  0.10100000352E+00 0. -1.
       -3    1    3    3    0  502  0.27578210226E+03 -0.45578960184E+01 -0.24621295370E+04  0.24775307081E+04  0.10100000352E+00 0.  1.
</event>
<event>
 5   0  0.1220265E-06  0.2798651E+04  0.7818609E-02  0.8303687E-01
        1   -1    0    0  501    0  0.00000000000E+00  0.00000000000E+00  0.59881504548E+03  0.59881504550E+03  0.50400001928E-02 0. -1.
       -1   -1    0    0    0  501  0.00000000000E+00  0.00000000000E+00 -0.32699769707E+04  0.32699769707E+04  0.50400001928E-02 0.  1.
    10030    2    1    2    0    0  0.00000000000E+00  0.00000000000E+00 -0.26711619252E+04  0.38687920162E+04  0.27986506809E+04 0.  0.
        4    1    3    3  502    0 -0.68936665222E+03  0.12046895158E+04 -0.10898185424E+04  0.17647122368E+04  0.12699999809E+01 0.  1.
       -4    1    3    3    0  502  0.68936665222E+03 -0.12046895158E+04 -0.15813433828E+04  0.21040797794E+04  0.12699999809E+01 0. -1.
</event>
<event>
 5   0  0.1246044E-06  0.2803725E+04  0.7818609E-02  0.8302113E-01
       -1   -1    0    0    0  501  0.00000000000E+00  0.00000000000E+00  0.12042984527E+04  0.12042984527E+04  0.50400001928E-02 0.  1.
        1   -1    0    0  501    0  0.00000000000E+00  0.00000000000E+00 -0.16318369715E+04  0.16318369715E+04  0.50400001928E-02 0. -1.
    10030    2    1    2    0    0  0.00000000000E+00  0.00000000000E+00 -0.42753851885E+03  0.28361354242E+04  0.28037251933E+04 0.  0.
        2    1    3    3  502    0  0.76863315002E+03 -0.62416145400E+03 -0.12176342488E+04  0.15693972103E+04  0.25500000920E-02 0. -1.
       -2    1    3    3    0  502 -0.76863315002E+03  0.62416145400E+03  0.79009572994E+03  0.12667382139E+04  0.25500000920E-02 0.  1.
</event>
<event>
 5   0  0.3212679E-06  0.2793002E+04  0.7818609E-02  0.8305444E-01
        2   -1    0    0  501    0  0.00000000000E+00  0.00000000000E+00  0.19106746115E+04  0.19106746115E+04  0.25500000920E-02 0. -1.
       -2   -1    0    0    0  501  0.00000000000E+00  0.00000000000E+00 -0.10206945735E+04  0.10206945735E+04  0.25500000920E-02 0.  1.
    10030    2    1    2    0    0  0.00000000000E+00  0.00000000000E+00  0.88998003802E+03  0.29313691851E+04  0.27930021180E+04 0.  0.
        4    1    3    3  502    0 -0.24668713816E+03  0.69325396495E+03  0.16907014492E+04  0.18438895323E+04  0.12699999809E+01 0. -1.
       -4    1    3    3    0  502  0.24668713816E+03 -0.69325396495E+03 -0.80072141116E+03  0.10874796528E+04  0.12699999809E+01 0.  1.
</event>
<event>
 5   0  0.3162695E-06  0.2611770E+04  0.7818609E-02  0.8364214E-01
        2   -1    0    0  501    0  0.00000000000E+00  0.00000000000E+00  0.21845421955E+04  0.21845421955E+04  0.25500000920E-02 0. -1.
       -2   -1    0    0    0  501  0.00000000000E+00  0.00000000000E+00 -0.78063743257E+03  0.78063743257E+03  0.25500000920E-02 0.  1.
    10030    2    1    2    0    0  0.00000000000E+00  0.00000000000E+00  0.14039047629E+04  0.29651796280E+04  0.26117698297E+04 0.  0.
        1    1    3    3  502    0  0.24774479217E+03  0.12725949311E+04  0.52439245532E+03  0.13985216437E+04  0.50400001928E-02 0. -1.
       -1    1    3    3    0  502 -0.24774479217E+03 -0.12725949311E+04  0.87951230757E+03  0.15666579843E+04  0.50400001928E-02 0.  1.
</event>
<event>
 5   0  0.1235252E-06  0.2785905E+04  0.7818609E-02  0.8307658E-01
       -1   -1    0    0    0  501  0.00000000000E+00  0.00000000000E+00  0.12379233775E+04  0.12379233775E+04  0.50400001928E-02 0. -1.
        1   -1    0    0  501    0  0.00000000000E+00  0.00000000000E+00 -0.15673966380E+04  0.15673966380E+04  0.50400001928E-02 0.  1.
    10030    2    1    2    0    0  0.00000000000E+00  0.00000000000E+00 -0.32947326052E+03  0.28053200155E+04  0.27859051958E+04 0.  0.
        1    1    3    3  502    0  0.37244352485E+01 -0.12398177698E+04  0.47463311827E+03  0.13275686689E+04  0.50400001928E-02 0. -1.
       -1    1    3    3    0  502 -0.37244352485E+01  0.12398177698E+04 -0.80410637879E+03  0.14777513465E+04  0.50400001928E-02 0.  1.
</event>
<event>
 5   0  0.3226364E-06  0.2763035E+04  0.7818609E-02  0.8314837E-01
       -2   -1    0    0    0  501  0.00000000000E+00  0.00000000000E+00  0.10215853621E+04  0.10215853621E+04  0.25500000920E-02 0. -1.
        2   -1    0    0  501    0  0.00000000000E+00  0.00000000000E+00 -0.18682639925E+04  0.18682639925E+04  0.25500000920E-02 0.  1.
    10030    2    1    2    0    0  0.00000000000E+00  0.00000000000E+00 -0.84667863033E+03  0.28898493546E+04  0.27630353941E+04 0.  0.
        5    1    3    3  502    0 -0.13554151671E+04 -0.10611824031E+03 -0.67986707692E+03  0.15200831189E+04  0.46999998093E+01 0.  1.
       -5    1    3    3    0  502  0.13554151671E+04  0.10611824031E+03 -0.16681155341E+03  0.13697662357E+04  0.46999998093E+01 0. -1.
</event>
<event>
 5   0  0.1220265E-06  0.2733040E+04  0.7818609E-02  0.8324364E-01
       -1   -1    0    0    0  501  0.00000000000E+00  0.00000000000E+00  0.12123821068E+04  0.12123821068E+04  0.50400001928E-02 0.  1.
        1   -1    0    0  501    0  0.00000000000E+00  0.00000000000E+00 -0.15402539938E+04  0.15402539938E+04  0.50400001928E-02 0. -1.
    10030    2    1    2    0    0  0.00000000000E+00  0.00000000000E+00 -0.32787188704E+03  0.27526361007E+04  0.27330396134E+04 0.  0.
        4    1    3    3  502    0  0.59114461464E+03 -0.12309622613E+04 -0.21582940658E+03  0.13824991825E+04  0.12699999809E+01 0. -1.
       -4    1    3    3    0  502 -0.59114461464E+03  0.12309622613E+04 -0.11204248046E+03  0.13701369181E+04  0.12699999809E+01 0.  1.
</event>
<event>
 5   0  0.1243055E-06  0.2805553E+04  0.7818609E-02  0.8301546E-01
       -1   -1    0    0    0  501  0.00000000000E+00  0.00000000000E+00  0.16943567407E+04  0.16943567407E+04  0.50400001928E-02 0. -1.
        1   -1    0    0  501    0  0.00000000000E+00  0.00000000000E+00 -0.11613741804E+04  0.11613741804E+04  0.50400001928E-02 0.  1.
    10030    2    1    2    0    0  0.00000000000E+00  0.00000000000E+00  0.53298256030E+03  0.28557309212E+04  0.28055531869E+04 0.  0.
        5    1    3    3  502    0  0.72331992461E+03 -0.71409585836E+03 -0.71756493290E+03  0.12442050198E+04  0.46999998093E+01 0.  1.
       -5    1    3    3    0  502 -0.72331992461E+03  0.71409585836E+03  0.12505474932E+04  0.16115259014E+04  0.46999998093E+01 0. -1.
</event>
<event>
 5   0  0.1246044E-06  0.2808948E+04  0.7818609E-02  0.8300496E-01
       -1   -1    0    0    0  501  0.00000000000E+00  0.00000000000E+00  0.21680014441E+04  0.21680014441E+04  0.50400001928E-02 0.  1.
        1   -1    0    0  501    0  0.00000000000E+00  0.00000000000E+00 -0.90984600050E+03  0.90984600051E+03  0.50400001928E-02 0. -1.
    10030    2    1    2    0    0  0.00000000000E+00  0.00000000000E+00  0.12581554436E+04  0.30778474446E+04  0.28089481612E+04 0.  0.
        2    1    3    3  502    0  0.45331197871E+02 -0.12928132313E+04  0.12283591124E+04  0.17838965994E+04  0.25500000920E-02 0. -1.
       -2    1    3    3    0  502 -0.45331197871E+02  0.12928132313E+04  0.29796331204E+02  0.12939508452E+04  0.25500000920E-02 0.  1.
</event>
<event>
 5   0  0.3212679E-06  0.2805060E+04  0.7818609E-02  0.8301699E-01
        2   -1    0    0  501    0  0.00000000000E+00  0.00000000000E+00  0.23709430119E+04  0.23709430119E+04  0.25500000920E-02 0. -1.
       -2   -1    0    0    0  501  0.00000000000E+00  0.00000000000E+00 -0.82966578877E+03  0.82966578878E+03  0.25500000920E-02 0.  1.
    10030    2    1    2    0    0  0.00000000000E+00  0.00000000000E+00  0.15412772231E+04  0.32006088007E+04  0.28050599310E+04 0.  0.
        4    1    3    3  502    0 -0.99878802504E+03  0.67382467113E+03  0.15898439493E+04  0.19947988877E+04  0.12699999809E+01 0. -1.
       -4    1    3    3    0  502  0.99878802504E+03 -0.67382467113E+03 -0.48566726198E+02  0.12058099130E+04  0.12699999809E+01 0.  1.
</event>
<event>
 5   0  0.1235252E-06  0.2799023E+04  0.7818609E-02  0.8303572E-01
       -1   -1    0    0    0  501  0.00000000000E+00  0.00000000000E+00  0.16457284894E+04  0.16457284894E+04  0.50400001928E-02 0. -1.
        1   -1    0    0  501    0  0.00000000000E+00  0.00000000000E+00 -0.11901311246E+04  0.11901311246E+04  0.50400001928E-02 0.  1.
    10030    2    1    2    0    0  0.00000000000E+00  0.00000000000E+00  0.45559736480E+03  0.28358596140E+04  0.27990231852E+04 0.  0.
        1    1    3    3  502    0 -0.27334172242E+03  0.15394467871E+03  0.16096463103E+04  0.16399316771E+04  0.50400001928E-02 0. -1.
       -1    1    3    3    0  502  0.27334172242E+03 -0.15394467871E+03 -0.11540489455E+04  0.11959279368E+04  0.50400001928E-02 0.  1.
</event>
<event>
 5   0  0.1263513E-06  0.2795759E+04  0.7818609E-02  0.8304586E-01
        1   -1    0    0  501    0  0.00000000000E+00  0.00000000000E+00  0.12841623744E+04  0.12841623744E+04  0.50400001928E-02 0.  1.
       -1   -1    0    0    0  501  0.00000000000E+00  0.00000000000E+00 -0.15216671951E+04  0.15216671951E+04  0.50400001928E-02 0. -1.
    10030    2    1    2    0    0  0.00000000000E+00  0.00000000000E+00 -0.23750482067E+03  0.28058295695E+04  0.27957594734E+04 0.  0.
        3    1    3    3  502    0 -0.95959167640E+03  0.48797300337E+03 -0.10136670659E+04  0.14786665507E+04  0.10100000352E+00 0. -1.
       -3    1    3    3    0  502  0.95959167640E+03 -0.48797300337E+03  0.77616224523E+03  0.13271630188E+04  0.10100000352E+00 0.  1.
</event>
<event>
 5   0  0.3345919E-06  0.2790949E+04  0.7818609E-02  0.8306084E-01
        2   -1    0    0  501    0  0.00000000000E+00  0.00000000000E+00  0.12585629754E+04  0.12585629754E+04  0.25500000920E-02 0. -1.
       -2   -1    0    0    0  501  0.00000000000E+00  0.00000000000E+00 -0.15472802821E+04  0.15472802821E+04  0.25500000920E-02 0.  1.
    10030    2    1    2    0    0  0.00000000000E+00  0.00000000000E+00 -0.28871730673E+03  0.28058432575E+04  0.27909494267E+04 0.  0.
        2    1    3    3  502    0 -0.36346047611E+02  0.13812407672E+04  0.52139197704E+02  0.13827022775E+04  0.25500000920E-02 0. -1.
       -2    1    3    3    0  502  0.36346047611E+02 -0.13812407672E+04 -0.34085650444E+03  0.14231409800E+04  0.25500000920E-02 0.  1.
</event>
<event>
 5   0  0.3212679E-06  0.2794787E+04  0.7818609E-02  0.8304889E-01
        2   -1    0    0  501    0  0.00000000000E+00  0.00000000000E+00  0.21807038620E+04  0.21807038620E+04  0.25500000920E-02 0. -1.
       -2   -1    0    0    0  501  0.00000000000E+00  0.00000000000E+00 -0.89544892112E+03  0.89544892112E+03  0.25500000920E-02 0.  1.
    10030    2    1    2    0    0  0.00000000000E+00  0.00000000000E+00  0.12852549409E+04  0.30761527831E+04  0.27947872338E+04 0.  0.
        4    1    3    3  502    0  0.28737422498E+03 -0.11739160606E+04  0.14147057193E+04  0.18606602988E+04  0.12699999809E+01 0. -1.
       -4    1    3    3    0  502 -0.28737422498E+03  0.11739160606E+04 -0.12945077841E+03  0.12154924843E+04  0.12699999809E+01 0.  1.
</event>
<event>
 5   0  0.1243055E-06  0.2803010E+04  0.7818609E-02  0.8302334E-01
        1   -1    0    0  501    0  0.00000000000E+00  0.00000000000E+00  0.14574175270E+04  0.14574175270E+04  0.50400001928E-02 0.  1.
       -1   -1    0    0    0  501  0.00000000000E+00  0.00000000000E+00 -0.13477377282E+04  0.13477377282E+04  0.50400001928E-02 0. -1.
    10030    2    1    2    0    0  0.00000000000E+00  0.00000000000E+00  0.10967979877E+03  0.28051552552E+04  0.28030102296E+04 0.  0.
        5    1    3    3  502    0 -0.48908564756E+03  0.12049634542E+04 -0.46810452560E+03  0.13821308309E+04  0.46999998093E+01 0. -1.
       -5    1    3    3    0  502  0.48908564756E+03 -0.12049634542E+04  0.57778432436E+03  0.14230244243E+04  0.46999998093E+01 0.  1.
</event>
<event>
 5   0  0.3212679E-06  0.2795388E+04  0.7818609E-02  0.8304702E-01
       -2   -1    0    0    0  501  0.00000000000E+00  0.00000000000E+00  0.71529059116E+03  0.71529059117E+03  0.25500000920E-02 0. -1.
        2   -1    0    0  501    0  0.00000000000E+00  0.00000000000E+00 -0.27311252281E+04  0.27311252281E+04  0.25500000920E-02 0.  1.
    10030    2    1    2    0    0  0.00000000000E+00  0.00000000000E+00 -0.20158346369E+04  0.34464158193E+04  0.27953877577E+04 0.  0.
        4    1    3    3  502    0 -0.13692687218E+04 -0.58590719328E+02 -0.13460469406E+04  0.19209824789E+04  0.12699999809E+01 0.  1.
       -4    1    3    3    0  502  0.13692687218E+04  0.58590719328E+02 -0.66978769630E+03  0.15254333404E+04  0.12699999809E+01 0. -1.
</event>
<event>
 5   0  0.1246044E-06  0.2771859E+04  0.7818609E-02  0.8312059E-01
       -1   -1    0    0    0  501  0.00000000000E+00  0.00000000000E+00  0.93182776598E+03  0.93182776599E+03  0.50400001928E-02 0. -1.
        1   -1    0    0  501    0  0.00000000000E+00  0.00000000000E+00 -0.20613253634E+04  0.20613253634E+04  0.50400001928E-02 0.  1.
    10030    2    1    2    0    0  0.00000000000E+00  0.00000000000E+00 -0.11294975974E+04  0.29931531294E+04  0.27718587326E+04 0.  0.
        2    1    3    3  502    0 -0.71238268555E+03  0.53727301865E+03  0.58041156893E+03  0.10644383386E+04  0.25500000920E-02 0. -1.
       -2    1    3    3    0  502  0.71238268555E+03 -0.53727301865E+03 -0.17099091664E+04  0.19287147909E+04  0.25500000920E-02 0.  1.
</event>
<event>
 5   0  0.3226364E-06  0.2786324E+04  0.7818609E-02  0.8307527E-01
        2   -1    0    0  501    0  0.00000000000E+00  0.00000000000E+00  0.16796893402E+04  0.16796893402E+04  0.25500000920E-02 0. -1.
       -2   -1    0    0    0  501  0.00000000000E+00  0.00000000000E+00 -0.11555113317E+04  0.11555113317E+04  0.25500000920E-02 0.  1.
    10030    2    1    2    0    0  0.00000000000E+00  0.00000000000E+00  0.52417800846E+03  0.28352006719E+04  0.27863237905E+04 0.  0.
        5    1    3    3  502    0  0.92239052215E+03  0.75454727561E+03  0.99636511553E+03  0.15533548854E+04  0.46999998093E+01 0. -1.
       -5    1    3    3    0  502 -0.92239052215E+03 -0.75454727561E+03 -0.47218710706E+03  0.12818457866E+04  0.46999998093E+01 0.  1.
</event>
<event>
 5   0  0.1220265E-06  0.2812768E+04  0.7818609E-02  0.8299315E-01
       -1   -1    0    0    0  501  0.00000000000E+00  0.00000000000E+00  0.10323425509E+04  0.10323425509E+04  0.50400001928E-02 0. -1.
        1   -1    0    0  501    0  0.00000000000E+00  0.00000000000E+00 -0.19159489347E+04  0.19159489347E+04  0.50400001928E-02 0.  1.
    10030    2    1    2    0    0  0.00000000000E+00  0.00000000000E+00 -0.88360638376E+03  0.29482914856E+04  0.28127677549E+04 0.  0.
        4    1    3    3  502    0 -0.47972776358E+03 -0.23995451677E+03  0.92091238317E+03  0.10657383017E+04  0.12699999809E+01 0. -1.
       -4    1    3    3    0  502  0.47972776358E+03  0.23995451677E+03 -0.18045187669E+04  0.18825531839E+04  0.12699999809E+01 0.  1.
</event>
<event>
 5   0  0.3167616E-06  0.2803700E+04  0.7818609E-02  0.8302121E-01
        2   -1    0    0  501    0  0.00000000000E+00  0.00000000000E+00  0.21604717374E+04  0.21604717374E+04  0.25500000920E-02 0. -1.
       -2   -1    0    0    0  501  0.00000000000E+00  0.00000000000E+00 -0.90960848942E+03  0.90960848942E+03  0.25500000920E-02 0.  1.
    10030    2    1    2    0    0  0.00000000000E+00  0.00000000000E+00  0.12508632479E+04  0.30700802268E+04  0.28037000078E+04 0.  0.
        3    1    3    3  502    0  0.22681929269E+03 -0.33733275720E+03  0.20945187839E+04  0.21336000860E+04  0.10100000352E+00 0. -1.
       -3    1    3    3    0  502 -0.22681929269E+03  0.33733275720E+03 -0.84365553594E+03  0.93648014081E+03  0.10100000352E+00 0.  1.
</event>
<event>
 5   0  0.1246044E-06  0.2812531E+04  0.7818609E-02  0.8299389E-01
        1   -1    0    0  501    0  0.00000000000E+00  0.00000000000E+00  0.11153678144E+04  0.11153678144E+04  0.50400001928E-02 0. -1.
       -1   -1    0    0    0  501  0.00000000000E+00  0.00000000000E+00 -0.17730312622E+04  0.17730312622E+04  0.50400001928E-02 0.  1.
    10030    2    1    2    0    0  0.00000000000E+00  0.00000000000E+00 -0.65766344787E+03  0.28883990766E+04  0.28125305358E+04 0.  0.
        2    1    3    3  502    0 -0.74297824517E+02 -0.66321609323E+03  0.94238198010E+03  0.11547551903E+04  0.25500000920E-02 0. -1.
       -2    1    3    3    0  502  0.74297824517E+02  0.66321609323E+03 -0.16000454280E+04  0.17336438863E+04  0.25500000920E-02 0.  1.
</event>
<event>
 5   0  0.3345919E-06  0.2799261E+04  0.7818609E-02  0.8303498E-01
        2   -1    0    0  501    0  0.00000000000E+00  0.00000000000E+00  0.21743780281E+04  0.21743780281E+04  0.25500000920E-02 0. -1.
       -2   -1    0    0    0  501  0.00000000000E+00  0.00000000000E+00 -0.90093129144E+03  0.90093129145E+03  0.25500000920E-02 0.  1.
    10030    2    1    2    0    0  0.00000000000E+00  0.00000000000E+00  0.12734467366E+04  0.30753093195E+04  0.27992607631E+04 0.  0.
        2    1    3    3  502    0 -0.74072051827E+03  0.92490797541E+03 -0.18161086760E+03  0.11987927913E+04  0.25500000920E-02 0.  1.
       -2    1    3    3    0  502  0.74072051827E+03 -0.92490797541E+03  0.14550576042E+04  0.18765165283E+04  0.25500000920E-02 0. -1.
</event>
<event>
 5   0  0.3212679E-06  0.2803027E+04  0.7818609E-02  0.8302329E-01
        2   -1    0    0  501    0  0.00000000000E+00  0.00000000000E+00  0.20403559067E+04  0.20403559067E+04  0.25500000920E-02 0.  1.
       -2   -1    0    0    0  501  0.00000000000E+00  0.00000000000E+00 -0.96269456711E+03  0.96269456711E+03  0.25500000920E-02 0. -1.
    10030    2    1    2    0    0  0.00000000000E+00  0.00000000000E+00  0.10776613396E+04  0.30030504738E+04  0.28030266116E+04 0.  0.
        4    1    3    3  502    0 -0.57273502988E+02 -0.13271070280E+04  0.60009932164E+02  0.13296977561E+04  0.12699999809E+01 0. -1.
       -4    1    3    3    0  502  0.57273502988E+02  0.13271070280E+04  0.10176514074E+04  0.16733527177E+04  0.12699999809E+01 0.  1.
</event>
<event>
 5   0  0.3226364E-06  0.2813074E+04  0.7818609E-02  0.8299221E-01
       -2   -1    0    0    0  501  0.00000000000E+00  0.00000000000E+00  0.12564219893E+04  0.12564219893E+04  0.25500000920E-02 0. -1.
        2   -1    0    0  501    0  0.00000000000E+00  0.00000000000E+00 -0.15745870311E+04  0.15745870311E+04  0.25500000920E-02 0.  1.
    10030    2    1    2    0    0  0.00000000000E+00  0.00000000000E+00 -0.31816504178E+03  0.28310090205E+04  0.28130736002E+04 0.  0.
        5    1    3    3  502    0 -0.13989124466E+04 -0.14208437611E+03 -0.19364792721E+03  0.14193891690E+04  0.46999998093E+01 0.  1.
       -5    1    3    3    0  502  0.13989124466E+04  0.14208437611E+03 -0.12451711458E+03  0.14116198515E+04  0.46999998093E+01 0. -1.
</event>
<event>
 5   0  0.1235252E-06  0.2846187E+04  0.7818609E-02  0.8289071E-01
        1   -1    0    0  501    0  0.00000000000E+00  0.00000000000E+00  0.10732433732E+04  0.10732433732E+04  0.50400001928E-02 0. -1.
       -1   -1    0    0    0  501  0.00000000000E+00  0.00000000000E+00 -0.18869859782E+04  0.18869859782E+04  0.50400001928E-02 0.  1.
    10030    2    1    2    0    0  0.00000000000E+00  0.00000000000E+00 -0.81374260503E+03  0.29602293514E+04  0.28461870609E+04 0.  0.
        1    1    3    3  502    0  0.92468933703E+03 -0.19454430824E+03 -0.15136025289E+04  0.17843459511E+04  0.50400001928E-02 0.  1.
       -1    1    3    3    0  502 -0.92468933703E+03  0.19454430824E+03  0.69985992386E+03  0.11758834002E+04  0.50400001928E-02 0. -1.
</event>
<event>
 5   0  0.1246044E-06  0.2802536E+04  0.7818609E-02  0.8302482E-01
        1   -1    0    0  501    0  0.00000000000E+00  0.00000000000E+00  0.14799038030E+04  0.14799038030E+04  0.50400001928E-02 0.  1.
       -1   -1    0    0    0  501  0.00000000000E+00  0.00000000000E+00 -0.13268101603E+04  0.13268101603E+04  0.50400001928E-02 0. -1.
    10030    2    1    2    0    0  0.00000000000E+00  0.00000000000E+00  0.15309364270E+03  0.28067139632E+04  0.28025355677E+04 0.  0.
        2    1    3    3  502    0  0.19520827828E+03 -0.73905177965E+03  0.12527115195E+04  0.14675114842E+04  0.25500000920E-02 0.  1.
       -2    1    3    3    0  502 -0.19520827828E+03  0.73905177965E+03 -0.10996178768E+04  0.13392024791E+04  0.25500000920E-02 0. -1.
</event>
<event>
 5   0  0.3226364E-06  0.2711191E+04  0.7818609E-02  0.8331383E-01
        2   -1    0    0  501    0  0.00000000000E+00  0.00000000000E+00  0.10503576600E+04  0.10503576600E+04  0.25500000920E-02 0.  1.
       -2   -1    0    0    0  501  0.00000000000E+00  0.00000000000E+00 -0.17495371440E+04  0.17495371440E+04  0.25500000920E-02 0. -1.
    10030    2    1    2    0    0  0.00000000000E+00  0.00000000000E+00 -0.69917948396E+03  0.27998948040E+04  0.27111914287E+04 0.  0.
        5    1    3    3  502    0  0.84596464237E+03  0.49554873864E+03  0.61719761541E+03  0.11585248012E+04  0.46999998093E+01 0.  1.
       -5    1    3    3    0  502 -0.84596464237E+03 -0.49554873864E+03 -0.13163770994E+04  0.16413700029E+04  0.46999998093E+01 0. -1.
</event>
<event>
 5   0  0.1263513E-06  0.2799035E+04  0.7818609E-02  0.8303568E-01
       -1   -1    0    0    0  501  0.00000000000E+00  0.00000000000E+00  0.12551725690E+04  0.12551725691E+04  0.50400001928E-02 0. -1.
        1   -1    0    0  501    0  0.00000000000E+00  0.00000000000E+00 -0.15604618124E+04  0.15604618125E+04  0.50400001928E-02 0.  1.
    10030    2    1    2    0    0  0.00000000000E+00  0.00000000000E+00 -0.30528924340E+03  0.28156343815E+04  0.27990347351E+04 0.  0.
        3    1    3    3  502    0 -0.40029536848E+03 -0.47135775133E+03  0.11102827159E+04  0.12708824616E+04  0.10100000352E+00 0. -1.
       -3    1    3    3    0  502  0.40029536848E+03  0.47135775133E+03 -0.14155719593E+04  0.15447519199E+04  0.10100000352E+00 0.  1.
</event>
<event>
 5   0  0.3162695E-06  0.2794920E+04  0.7818609E-02  0.8304847E-01
        2   -1    0    0  501    0  0.00000000000E+00  0.00000000000E+00  0.15895791186E+04  0.15895791186E+04  0.25500000920E-02 0. -1.
       -2   -1    0    0    0  501  0.00000000000E+00  0.00000000000E+00 -0.12285603351E+04  0.12285603351E+04  0.25500000920E-02 0.  1.
    10030    2    1    2    0    0  0.00000000000E+00  0.00000000000E+00  0.36101878354E+03  0.28181394537E+04  0.27949195728E+04 0.  0.
        1    1    3    3  502    0 -0.37640811604E+03  0.70576653263E+03 -0.97491835083E+03  0.12610532341E+04  0.50400001928E-02 0.  1.
       -1    1    3    3    0  502  0.37640811604E+03 -0.70576653263E+03  0.13359371344E+04  0.15570862196E+04  0.50400001928E-02 0. -1.
</event>
<event>
 5   0  0.1235252E-06  0.2778640E+04  0.7818609E-02  0.8309931E-01
       -1   -1    0    0    0  501  0.00000000000E+00  0.00000000000E+00  0.10966396802E+04  0.10966396802E+04  0.50400001928E-02 0. -1.
        1   -1    0    0  501    0  0.00000000000E+00  0.00000000000E+00 -0.17601136997E+04  0.17601136997E+04  0.50400001928E-02 0.  1.
    10030    2    1    2    0    0  0.00000000000E+00  0.00000000000E+00 -0.66347401949E+03  0.28567533799E+04  0.27786403327E+04 0.  0.
        1    1    3    3  502    0 -0.70176154930E+03  0.44621808674E+03  0.81248771940E+03  0.11626332815E+04  0.50400001928E-02 0. -1.
       -1    1    3    3    0  502  0.70176154930E+03 -0.44621808674E+03 -0.14759617389E+04  0.16941200984E+04  0.50400001928E-02 0.  1.
</event>
<event>
 5   0  0.3162695E-06  0.2829219E+04  0.7818609E-02  0.8294254E-01
        2   -1    0    0  501    0  0.00000000000E+00  0.00000000000E+00  0.11984415370E+04  0.11984415370E+04  0.25500000920E-02 0. -1.
       -2   -1    0    0    0  501  0.00000000000E+00  0.00000000000E+00 -0.16697687850E+04  0.16697687850E+04  0.25500000920E-02 0.  1.
    10030    2    1    2    0    0  0.00000000000E+00  0.00000000000E+00 -0.47132724808E+03  0.28682103220E+04  0.28292191638E+04 0.  0.
        1    1    3    3  502    0  0.10929965430E+03  0.10790028616E+03  0.11899639786E+04  0.11998346371E+04  0.50400001928E-02 0. -1.
       -1    1    3    3    0  502 -0.10929965430E+03 -0.10790028616E+03 -0.16612912266E+04  0.16683756849E+04  0.50400001928E-02 0.  1.
</event>
<event>
 5   0  0.3162695E-06  0.2801342E+04  0.7818609E-02  0.8302852E-01
       -2   -1    0    0    0  501  0.00000000000E+00  0.00000000000E+00  0.15929398525E+04  0.15929398525E+04  0.25500000920E-02 0. -1.
        2   -1    0    0  501    0  0.00000000000E+00  0.00000000000E+00 -0.12316087733E+04  0.12316087733E+04  0.25500000920E-02 0.  1.
    10030    2    1    2    0    0  0.00000000000E+00  0.00000000000E+00  0.36133107925E+03  0.28245486258E+04  0.28013416055E+04 0.  0.
        1    1    3    3  502    0  0.93098706175E+03  0.53166611538E+03 -0.72817446312E+03  0.12960107315E+04  0.50400001928E-02 0.  1.
       -1    1    3    3    0  502 -0.93098706175E+03 -0.53166611538E+03  0.10895055424E+04  0.15285378943E+04  0.50400001928E-02 0. -1.
</event>
<event>
 5   0  0.3226364E-06  0.2799660E+04  0.7818609E-02  0.8303374E-01
       -2   -1    0    0    0  501  0.00000000000E+00  0.00000000000E+00  0.79970856970E+03  0.79970856970E+03  0.25500000920E-02 0. -1.
        2   -1    0    0  501    0  0.00000000000E+00  0.00000000000E+00 -0.24502982200E+04  0.24502982200E+04  0.25500000920E-02 0.  1.
    10030    2    1    2    0    0  0.00000000000E+00  0.00000000000E+00 -0.16505896503E+04  0.32500067897E+04  0.27996603257E+04 0.  0.
        5    1    3    3  502    0 -0.58361895371E+03 -0.58840956190E+03 -0.21348869682E+04  0.22901094630E+04  0.46999998093E+01 0.  1.
       -5    1    3    3    0  502  0.58361895371E+03  0.58840956190E+03  0.48429731789E+03  0.95989732669E+03  0.46999998093E+01 0. -1.
</event>
<event>
 5   0  0.3167616E-06  0.2867739E+04  0.7818609E-02  0.8282541E-01
       -2   -1    0    0    0  501  0.00000000000E+00  0.00000000000E+00  0.13536704435E+04  0.13536704435E+04  0.25500000920E-02 0.  1.
        2   -1    0    0  501    0  0.00000000000E+00  0.00000000000E+00 -0.15188197786E+04  0.15188197786E+04  0.25500000920E-02 0. -1.
    10030    2    1    2    0    0  0.00000000000E+00  0.00000000000E+00 -0.16514933511E+03  0.28724902221E+04  0.28677387910E+04 0.  0.
        3    1    3    3  502    0 -0.81953473240E+03 -0.66072555314E+03 -0.10577307018E+04  0.14923101829E+04  0.10100000352E+00 0. -1.
       -3    1    3    3    0  502  0.81953473240E+03  0.66072555314E+03  0.89258136674E+03  0.13801800392E+04  0.10100000352E+00 0.  1.
</event>
<event>
 5   0  0.1220265E-06  0.2804988E+04  0.7818609E-02  0.8301721E-01
        1   -1    0    0  501    0  0.00000000000E+00  0.00000000000E+00  0.27339991052E+04  0.27339991052E+04  0.50400001928E-02 0.  1.
       -1   -1    0    0    0  501  0.00000000000E+00  0.00000000000E+00 -0.71945524330E+03  0.71945524332E+03  0.50400001928E-02 0. -1.
    10030    2    1    2    0    0  0.00000000000E+00  0.00000000000E+00  0.20145438619E+04  0.34534543485E+04  0.28049884074E+04 0.  0.
        4    1    3    3  502    0 -0.69645059175E+03 -0.91175663325E+03  0.20003756954E+04  0.23060459927E+04  0.12699999809E+01 0.  1.
       -4    1    3    3    0  502  0.69645059175E+03  0.91175663325E+03  0.14168166482E+02  0.11474083558E+04  0.12699999809E+01 0. -1.
</event>
<event>
 5   0  0.1263513E-06  0.2806457E+04  0.7818609E-02  0.8301266E-01
        1   -1    0    0  501    0  0.00000000000E+00  0.00000000000E+00  0.15551032005E+04  0.15551032005E+04  0.50400001928E-02 0.  1.
       -1   -1    0    0    0  501  0.00000000000E+00  0.00000000000E+00 -0.12661864450E+04  0.12661864450E+04  0.50400001928E-02 0. -1.
    10030    2    1    2    0    0  0.00000000000E+00  0.00000000000E+00  0.28891675548E+03  0.28212896455E+04  0.28064572636E+04 0.  0.
        3    1    3    3  502    0  0.42878330555E+03  0.13238615384E+04 -0.37011834799E+02  0.13920611991E+04  0.10100000352E+00 0.  1.
       -3    1    3    3    0  502 -0.42878330555E+03 -0.13238615384E+04  0.32592859028E+03  0.14292284464E+04  0.10100000352E+00 0. -1.
</event>
<event>
 5   0  0.1246044E-06  0.2797859E+04  0.7818609E-02  0.8303933E-01
        1   -1    0    0  501    0  0.00000000000E+00  0.00000000000E+00  0.17279511156E+04  0.17279511156E+04  0.50400001928E-02 0.  1.
       -1   -1    0    0    0  501  0.00000000000E+00  0.00000000000E+00 -0.11325577564E+04  0.11325577564E+04  0.50400001928E-02 0. -1.
    10030    2    1    2    0    0  0.00000000000E+00  0.00000000000E+00  0.59539335920E+03  0.28605088720E+04  0.27978594952E+04 0.  0.
        2    1    3    3  502    0 -0.55534123913E+03  0.99506468870E+03  0.11273138802E+04  0.16029330027E+04  0.25500000920E-02 0.  1.
       -2    1    3    3    0  502  0.55534123913E+03 -0.99506468870E+03 -0.53192052098E+03  0.12575758694E+04  0.25500000920E-02 0. -1.
</event>
<event>
 5   0  0.1235252E-06  0.2800476E+04  0.7818609E-02  0.8303121E-01
        1   -1    0    0  501    0  0.00000000000E+00  0.00000000000E+00  0.14988357133E+04  0.14988357133E+04  0.50400001928E-02 0. -1.
       -1   -1    0    0    0  501  0.00000000000E+00  0.00000000000E+00 -0.13081264217E+04  0.13081264217E+04  0.50400001928E-02 0.  1.
    10030    2    1    2    0    0  0.00000000000E+00  0.00000000000E+00  0.19070929158E+03  0.28069621351E+04  0.28004761013E+04 0.  0.
        1    1    3    3  502    0 -0.76602319097E+03 -0.19158844163E+03  0.12543930415E+04  0.14822279051E+04  0.50400001928E-02 0. -1.
       -1    1    3    3    0  502  0.76602319097E+03  0.19158844163E+03 -0.10636837499E+04  0.13247342299E+04  0.50400001928E-02 0.  1.
</event>
<event>
 5   0  0.3162695E-06  0.2802920E+04  0.7818609E-02  0.8302362E-01
        2   -1    0    0  501    0  0.00000000000E+00  0.00000000000E+00  0.14680391355E+04  0.14680391355E+04  0.25500000920E-02 0.  1.
       -2   -1    0    0    0  501  0.00000000000E+00  0.00000000000E+00 -0.13379005313E+04  0.13379005313E+04  0.25500000920E-02 0. -1.
    10030    2    1    2    0    0  0.00000000000E+00  0.00000000000E+00  0.13013860422E+03  0.28059396668E+04  0.28029201483E+04 0.  0.
        1    1    3    3  502    0  0.11967830685E+04 -0.28487762659E+03  0.73709372578E+03  0.14341381160E+04  0.50400001928E-02 0.  1.
       -1    1    3    3    0  502 -0.11967830685E+04  0.28487762659E+03 -0.60695512155E+03  0.13718015508E+04  0.50400001928E-02 0. -1.
</event>
<event>
 5   0  0.1263513E-06  0.2818197E+04  0.7818609E-02  0.8297641E-01
        1   -1    0    0  501    0  0.00000000000E+00  0.00000000000E+00  0.22950425568E+04  0.22950425568E+04  0.50400001928E-02 0.  1.
       -1   -1    0    0    0  501  0.00000000000E+00  0.00000000000E+00 -0.86515135889E+03  0.86515135890E+03  0.50400001928E-02 0. -1.
    10030    2    1    2    0    0  0.00000000000E+00  0.00000000000E+00  0.14298911979E+04  0.31601939157E+04  0.28181974287E+04 0.  0.
        3    1    3    3  502    0 -0.88880736163E+03 -0.95277295560E+02  0.19363984794E+04  0.21327670689E+04  0.10100000352E+00 0.  1.
       -3    1    3    3    0  502  0.88880736163E+03  0.95277295560E+02 -0.50650728146E+03  0.10274268468E+04  0.10100000352E+00 0. -1.
</event>
<event>
 5   0  0.3345919E-06  0.2798101E+04  0.7818609E-02  0.8303858E-01
        2   -1    0    0  501    0  0.00000000000E+00  0.00000000000E+00  0.10887069211E+04  0.10887069211E+04  0.25500000920E-02 0. -1.
       -2   -1    0    0    0  501  0.00000000000E+00  0.00000000000E+00 -0.17978596022E+04  0.17978596022E+04  0.25500000920E-02 0.  1.
    10030    2    1    2    0    0  0.00000000000E+00  0.00000000000E+00 -0.70915268103E+03  0.28865665233E+04  0.27981009218E+04 0.  0.
        2    1    3    3  502    0 -0.11254660852E+04  0.39992165295E+03  0.39696937850E+03  0.12586484517E+04  0.25500000920E-02 0. -1.
       -2    1    3    3    0  502  0.11254660852E+04 -0.39992165295E+03 -0.11061220595E+04  0.16279180716E+04  0.25500000920E-02 0.  1.
</event>
<event>
 5   0  0.1243055E-06  0.2801148E+04  0.7818609E-02  0.8302912E-01
       -1   -1    0    0    0  501  0.00000000000E+00  0.00000000000E+00  0.13525906890E+04  0.13525906891E+04  0.50400001928E-02 0. -1.
        1   -1    0    0  501    0  0.00000000000E+00  0.00000000000E+00 -0.14502593529E+04  0.14502593529E+04  0.50400001928E-02 0.  1.
    10030    2    1    2    0    0  0.00000000000E+00  0.00000000000E+00 -0.97668663883E+02  0.28028500420E+04  0.28011478344E+04 0.  0.
        5    1    3    3  502    0  0.10795781996E+04 -0.50487265953E+03  0.68727549054E+03  0.13757743933E+04  0.46999998093E+01 0. -1.
       -5    1    3    3    0  502 -0.10795781996E+04  0.50487265953E+03 -0.78494415442E+03  0.14270756487E+04  0.46999998093E+01 0.  1.
</event>
<event>
 5   0  0.3212679E-06  0.2798298E+04  0.7818609E-02  0.8303797E-01
        2   -1    0    0  501    0  0.00000000000E+00  0.00000000000E+00  0.19220303078E+04  0.19220303078E+04  0.25500000920E-02 0.  1.
       -2   -1    0    0    0  501  0.00000000000E+00  0.00000000000E+00 -0.10185159384E+04  0.10185159384E+04  0.25500000920E-02 0. -1.
    10030    2    1    2    0    0  0.00000000000E+00  0.00000000000E+00  0.90351436939E+03  0.29405462461E+04  0.27982984133E+04 0.  0.
        4    1    3    3  502    0 -0.35678759680E+03  0.67124978049E+03  0.16860924129E+04  0.18495358593E+04  0.12699999809E+01 0.  1.
       -4    1    3    3    0  502  0.35678759680E+03 -0.67124978049E+03 -0.78257804353E+03  0.10910103868E+04  0.12699999809E+01 0. -1.
</event>
<event>
 5   0  0.3162695E-06  0.2751241E+04  0.7818609E-02  0.8318568E-01
        2   -1    0    0  501    0  0.00000000000E+00  0.00000000000E+00  0.15752469943E+04  0.15752469943E+04  0.25500000920E-02 0.  1.
       -2   -1    0    0    0  501  0.00000000000E+00  0.00000000000E+00 -0.12012917280E+04  0.12012917280E+04  0.25500000920E-02 0. -1.
    10030    2    1    2    0    0  0.00000000000E+00  0.00000000000E+00  0.37395526637E+03  0.27765387223E+04  0.27512405811E+04 0.  0.
        1    1    3    3  502    0 -0.55682085933E+03  0.13104758047E+03  0.14495240558E+04  0.15583141295E+04  0.50400001928E-02 0.  1.
       -1    1    3    3    0  502  0.55682085933E+03 -0.13104758047E+03 -0.10755687894E+04  0.12182245928E+04  0.50400001928E-02 0. -1.
</event>
<event>
 5   0  0.3162695E-06  0.2926567E+04  0.7818609E-02  0.8265017E-01
       -2   -1    0    0    0  501  0.00000000000E+00  0.00000000000E+00  0.12212309967E+04  0.12212309967E+04  0.25500000920E-02 0.  1.
        2   -1    0    0  501    0  0.00000000000E+00  0.00000000000E+00 -0.17533116509E+04  0.17533116509E+04  0.25500000920E-02 0. -1.
    10030    2    1    2    0    0  0.00000000000E+00  0.00000000000E+00 -0.53208065419E+03  0.29745426477E+04  0.29265669547E+04 0.  0.
        1    1    3    3  502    0  0.70290713071E+03 -0.95110164302E+03  0.60978499929E+03  0.13306053191E+04  0.50400001928E-02 0.  1.
       -1    1    3    3    0  502 -0.70290713071E+03  0.95110164302E+03 -0.11418656535E+04  0.16439373286E+04  0.50400001928E-02 0. -1.
</event>
<event>
 5   0  0.1220265E-06  0.2900355E+04  0.7818609E-02  0.8272772E-01
        1   -1    0    0  501    0  0.00000000000E+00  0.00000000000E+00  0.15484954055E+04  0.15484954055E+04  0.50400001928E-02 0. -1.
       -1   -1    0    0    0  501  0.00000000000E+00  0.00000000000E+00 -0.13581024180E+04  0.13581024180E+04  0.50400001928E-02 0.  1.
    10030    2    1    2    0    0  0.00000000000E+00  0.00000000000E+00  0.19039298749E+03  0.29065978235E+04  0.29003553951E+04 0.  0.
        4    1    3    3  502    0 -0.77998225386E+03 -0.78025804187E+03  0.10384123199E+04  0.15150830628E+04  0.12699999809E+01 0. -1.
       -4    1    3    3    0  502  0.77998225386E+03  0.78025804187E+03 -0.84801933240E+03  0.13915147607E+04  0.12699999809E+01 0.  1.
</event>
<event>
 5   0  0.3212679E-06  0.2824785E+04  0.7818609E-02  0.8295615E-01
        2   -1    0    0  501    0  0.00000000000E+00  0.00000000000E+00  0.20321188093E+04  0.20321188093E+04  0.25500000920E-02 0.  1.
       -2   -1    0    0    0  501  0.00000000000E+00  0.00000000000E+00 -0.98166170490E+03  0.98166170491E+03  0.25500000920E-02 0. -1.
    10030    2    1    2    0    0  0.00000000000E+00  0.00000000000E+00  0.10504571044E+04  0.30137805142E+04  0.28247854537E+04 0.  0.
        4    1    3    3  502    0  0.12510214430E+04  0.24419669641E+03 -0.12388964566E+03  0.12806392679E+04  0.12699999809E+01 0. -1.
       -4    1    3    3    0  502 -0.12510214430E+04 -0.24419669641E+03  0.11743467501E+04  0.17331412463E+04  0.12699999809E+01 0.  1.
</event>
<event>
 5   0  0.3212679E-06  0.2801141E+04  0.7818609E-02  0.8302914E-01
       -2   -1    0    0    0  501  0.00000000000E+00  0.00000000000E+00  0.77716527479E+03  0.77716527479E+03  0.25500000920E-02 0. -1.
        2   -1    0    0  501    0  0.00000000000E+00  0.00000000000E+00 -0.25240420928E+04  0.25240420928E+04  0.25500000920E-02 0.  1.
    10030    2    1    2    0    0  0.00000000000E+00  0.00000000000E+00 -0.17468768180E+04  0.33012073676E+04  0.28011411008E+04 0.  0.
        4    1    3    3  502    0 -0.10204677531E+04  0.78488912588E+03 -0.15234347524E+04  0.19945577036E+04  0.12699999809E+01 0.  1.
       -4    1    3    3    0  502  0.10204677531E+04 -0.78488912588E+03 -0.22344206557E+03  0.13066496640E+04  0.12699999809E+01 0. -1.
</event>
<event>
 5   0  0.1246044E-06  0.2809329E+04  0.7818609E-02  0.8300378E-01
       -1   -1    0    0    0  501  0.00000000000E+00  0.00000000000E+00  0.93878765473E+03  0.93878765474E+03  0.50400001928E-02 0.  1.
        1   -1    0    0  501    0  0.00000000000E+00  0.00000000000E+00 -0.21017344566E+04  0.21017344566E+04  0.50400001928E-02 0. -1.
    10030    2    1    2    0    0  0.00000000000E+00  0.00000000000E+00 -0.11629468019E+04  0.30405221114E+04  0.28093290028E+04 0.  0.
        2    1    3    3  502    0 -0.10509901944E+04 -0.81624688298E+03 -0.94749905444E+02  0.13340977877E+04  0.25500000920E-02 0. -1.
       -2    1    3    3    0  502  0.10509901944E+04  0.81624688298E+03 -0.10681968965E+04  0.17064243236E+04  0.25500000920E-02 0.  1.
</event>
<event>
 5   0  0.3162695E-06  0.2805710E+04  0.7818609E-02  0.8301498E-01
        2   -1    0    0  501    0  0.00000000000E+00  0.00000000000E+00  0.20988014901E+04  0.20988014901E+04  0.25500000920E-02 0. -1.
       -2   -1    0    0    0  501  0.00000000000E+00  0.00000000000E+00 -0.93767907107E+03  0.93767907108E+03  0.25500000920E-02 0.  1.
    10030    2    1    2    0    0  0.00000000000E+00  0.00000000000E+00  0.11611224191E+04  0.30364805612E+04  0.28057100575E+04 0.  0.
        1    1    3    3  502    0  0.27074362669E+03  0.47342293670E+03 -0.81825341741E+03  0.98334634972E+03  0.50400001928E-02 0.  1.
       -1    1    3    3    0  502 -0.27074362669E+03 -0.47342293670E+03  0.19793758365E+04  0.20531342115E+04  0.50400001928E-02 0. -1.
</event>
<event>
 5   0  0.1243055E-06  0.2808290E+04  0.7818609E-02  0.8300699E-01
       -1   -1    0    0    0  501  0.00000000000E+00  0.00000000000E+00  0.98812382157E+03  0.98812382159E+03  0.50400001928E-02 0. -1.
        1   -1    0    0  501    0  0.00000000000E+00  0.00000000000E+00 -0.19953203905E+04  0.19953203905E+04  0.50400001928E-02 0.  1.
    10030    2    1    2    0    0  0.00000000000E+00  0.00000000000E+00 -0.10071965689E+04  0.29834442121E+04  0.28082903052E+04 0.  0.
        5    1    3    3  502    0  0.53882074904E+03  0.11525504014E+04 -0.11347046272E+04  0.17047806041E+04  0.46999998093E+01 0.  1.
       -5    1    3    3    0  502 -0.53882074904E+03 -0.11525504014E+04  0.12750805823E+03  0.12786636079E+04  0.46999998093E+01 0. -1.
</event>
<event>
 5   0  0.1243055E-06  0.2788692E+04  0.7818609E-02  0.8306788E-01
       -1   -1    0    0    0  501  0.00000000000E+00  0.00000000000E+00  0.91935122435E+03  0.91935122437E+03  0.50400001928E-02 0. -1.
        1   -1    0    0  501    0  0.00000000000E+00  0.00000000000E+00 -0.21147534964E+04  0.21147534964E+04  0.50400001928E-02 0.  1.
    10030    2    1    2    0    0  0.00000000000E+00  0.00000000000E+00 -0.11954022720E+04  0.30341047208E+04  0.27886923216E+04 0.  0.
        5    1    3    3  502    0  0.45391681529E+03  0.11346974649E+04 -0.13280421840E+04  0.18047983113E+04  0.46999998093E+01 0.  1.
       -5    1    3    3    0  502 -0.45391681529E+03 -0.11346974649E+04  0.13263991192E+03  0.12293064095E+04  0.46999998093E+01 0. -1.
</event>
<event>
 5   0  0.1243055E-06  0.2791921E+04  0.7818609E-02  0.8305781E-01
        1   -1    0    0  501    0  0.00000000000E+00  0.00000000000E+00  0.15046569612E+04  0.15046569612E+04  0.50400001928E-02 0.  1.
       -1   -1    0    0    0  501  0.00000000000E+00  0.00000000000E+00 -0.12951160345E+04  0.12951160345E+04  0.50400001928E-02 0. -1.
    10030    2    1    2    0    0  0.00000000000E+00  0.00000000000E+00  0.20954092674E+03  0.27997729957E+04  0.27919207416E+04 0.  0.
        5    1    3    3  502    0  0.12484067957E+04 -0.62445844846E+03  0.11948775305E+03  0.14009879709E+04  0.46999998093E+01 0. -1.
       -5    1    3    3    0  502 -0.12484067957E+04  0.62445844846E+03  0.90053173697E+02  0.13987850248E+04  0.46999998093E+01 0.  1.
</event>
<event>
 5   0  0.1246044E-06  0.2788226E+04  0.7818609E-02  0.8306933E-01
       -1   -1    0    0    0  501  0.00000000000E+00  0.00000000000E+00  0.26548123358E+04  0.26548123358E+04  0.50400001928E-02 0.  1.
        1   -1    0    0  501    0  0.00000000000E+00  0.00000000000E+00 -0.73208616722E+03  0.73208616724E+03  0.50400001928E-02 0. -1.
    10030    2    1    2    0    0  0.00000000000E+00  0.00000000000E+00  0.19227261686E+04  0.33868985031E+04  0.27882262374E+04 0.  0.
        2    1    3    3  502    0  0.42324885668E+03  0.76331632620E+03 -0.35913815049E+03  0.94380698221E+03  0.25500000920E-02 0. -1.
       -2    1    3    3    0  502 -0.42324885668E+03 -0.76331632620E+03  0.22818643191E+04  0.24430915209E+04  0.25500000920E-02 0.  1.
</event>
<event>
 5   0  0.3167616E-06  0.2801075E+04  0.7818609E-02  0.8302935E-01
        2   -1    0    0  501    0  0.00000000000E+00  0.00000000000E+00  0.12017805657E+04  0.12017805657E+04  0.25500000920E-02 0. -1.
       -2   -1    0    0    0  501  0.00000000000E+00  0.00000000000E+00 -0.16321659467E+04  0.16321659467E+04  0.25500000920E-02 0.  1.
    10030    2    1    2    0    0  0.00000000000E+00  0.00000000000E+00 -0.43038538100E+03  0.28339465124E+04  0.28010750185E+04 0.  0.
        3    1    3    3  502    0 -0.31366075565E+03  0.45627122187E+03 -0.15167337668E+04  0.16146355090E+04  0.10100000352E+00 0.  1.
       -3    1    3    3    0  502  0.31366075565E+03 -0.45627122187E+03  0.10863483858E+04  0.12193110034E+04  0.10100000352E+00 0. -1.
</event>
<event>
 5   0  0.3226364E-06  0.2780119E+04  0.7818609E-02  0.8309467E-01
       -2   -1    0    0    0  501  0.00000000000E+00  0.00000000000E+00  0.10657919530E+04  0.10657919530E+04  0.25500000920E-02 0. -1.
        2   -1    0    0  501    0  0.00000000000E+00  0.00000000000E+00 -0.18129856099E+04  0.18129856099E+04  0.25500000920E-02 0.  1.
    10030    2    1    2    0    0  0.00000000000E+00  0.00000000000E+00 -0.74719365690E+03  0.28787775630E+04  0.27801190435E+04 0.  0.
        5    1    3    3  502    0 -0.89443625629E+03  0.98089482494E+03  0.53436505423E+02  0.13285512501E+04  0.46999998093E+01 0. -1.
       -5    1    3    3    0  502  0.89443625629E+03 -0.98089482494E+03 -0.80063016232E+03  0.15502263128E+04  0.46999998093E+01 0.  1.
</event>
<event>
 5   0  0.3345919E-06  0.2801485E+04  0.7818609E-02  0.8302808E-01
        2   -1    0    0  501    0  0.00000000000E+00  0.00000000000E+00  0.22973827917E+04  0.22973827917E+04  0.25500000920E-02 0. -1.
       -2   -1    0    0    0  501  0.00000000000E+00  0.00000000000E+00 -0.85404960586E+03  0.85404960587E+03  0.25500000920E-02 0.  1.
    10030    2    1    2    0    0  0.00000000000E+00  0.00000000000E+00  0.14433331859E+04  0.31514323976E+04  0.28014845120E+04 0.  0.
        2    1    3    3  502    0 -0.12032409648E+04  0.16932520304E+03 -0.62245953783E+02  0.12166899369E+04  0.25500000920E-02 0.  1.
       -2    1    3    3    0  502  0.12032409648E+04 -0.16932520304E+03  0.15055791397E+04  0.19347424608E+04  0.25500000920E-02 0. -1.
</event>
<event>
 5   0  0.1220265E-06  0.2806797E+04  0.7818609E-02  0.8301161E-01
        1   -1    0    0  501    0  0.00000000000E+00  0.00000000000E+00  0.29047057721E+04  0.29047057721E+04  0.50400001928E-02 0. -1.
       -1   -1    0    0    0  501  0.00000000000E+00  0.00000000000E+00 -0.67804697758E+03  0.67804697760E+03  0.50400001928E-02 0.  1.
    10030    2    1    2    0    0  0.00000000000E+00  0.00000000000E+00  0.22266587945E+04  0.35827527497E+04  0.28067967291E+04 0.  0.
        4    1    3    3  502    0  0.12477724811E+03  0.70106916566E+03  0.26569749302E+04  0.27507425778E+04  0.12699999809E+01 0. -1.
       -4    1    3    3    0  502 -0.12477724811E+03 -0.70106916566E+03 -0.43031613565E+03  0.83201017193E+03  0.12699999809E+01 0.  1.
</event>
<event>
 5   0  0.3162695E-06  0.2824141E+04  0.7818609E-02  0.8295813E-01
        2   -1    0    0  501    0  0.00000000000E+00  0.00000000000E+00  0.10234351486E+04  0.10234351486E+04  0.25500000920E-02 0.  1.
       -2   -1    0    0    0  501  0.00000000000E+00  0.00000000000E+00 -0.19482845654E+04  0.19482845654E+04  0.25500000920E-02 0. -1.
    10030    2    1    2    0    0  0.00000000000E+00  0.00000000000E+00 -0.92484941680E+03  0.29717197139E+04  0.28241408630E+04 0.  0.
        1    1    3    3  502    0 -0.33266192004E+03  0.49137122717E+03  0.88587368251E+03  0.10662466025E+04  0.50400001928E-02 0.  1.
       -1    1    3    3    0  502  0.33266192004E+03 -0.49137122717E+03 -0.18107230993E+04  0.19054731114E+04  0.50400001928E-02 0. -1.
</event>
<event>
 5   0  0.1246044E-06  0.2802655E+04  0.7818609E-02  0.8302445E-01
        1   -1    0    0  501    0  0.00000000000E+00  0.00000000000E+00  0.17124190543E+04  0.17124190543E+04  0.50400001928E-02 0. -1.
       -1   -1    0    0    0  501  0.00000000000E+00  0.00000000000E+00 -0.11467511402E+04  0.11467511403E+04  0.50400001928E-02 0.  1.
    10030    2    1    2    0    0  0.00000000000E+00  0.00000000000E+00  0.56566791403E+03  0.28591701945E+04  0.28026548151E+04 0.  0.
        2    1    3    3  502    0 -0.13642484719E+04 -0.22823330634E+03  0.51198346033E+03  0.14749208110E+04  0.25500000920E-02 0.  1.
       -2    1    3    3    0  502  0.13642484719E+04  0.22823330634E+03  0.53684453704E+02  0.13842493835E+04  0.25500000920E-02 0. -1.
</event>
<event>
 5   0  0.1235252E-06  0.2808997E+04  0.7818609E-02  0.8300481E-01
       -1   -1    0    0    0  501  0.00000000000E+00  0.00000000000E+00  0.15664650154E+04  0.15664650154E+04  0.50400001928E-02 0.  1.
        1   -1    0    0  501    0  0.00000000000E+00  0.00000000000E+00 -0.12592788036E+04  0.12592788036E+04  0.50400001928E-02 0. -1.
    10030    2    1    2    0    0  0.00000000000E+00  0.00000000000E+00  0.30718621179E+03  0.28257438190E+04  0.28089971096E+04 0.  0.
        1    1    3    3  502    0 -0.51789378192E+03 -0.43685669595E+03  0.13911953616E+04  0.15474114761E+04  0.50400001928E-02 0.  1.
       -1    1    3    3    0  502  0.51789378192E+03  0.43685669595E+03 -0.10840091498E+04  0.12783323429E+04  0.50400001928E-02 0. -1.
</event>
<event>
 5   0  0.1263513E-06  0.2793148E+04  0.7818609E-02  0.8305399E-01
       -1   -1    0    0    0  501  0.00000000000E+00  0.00000000000E+00  0.17724725993E+04  0.17724725993E+04  0.50400001928E-02 0. -1.
        1   -1    0    0  501    0  0.00000000000E+00  0.00000000000E+00 -0.11003941751E+04  0.11003941751E+04  0.50400001928E-02 0.  1.
    10030    2    1    2    0    0  0.00000000000E+00  0.00000000000E+00  0.67207842419E+03  0.28728667745E+04  0.27931477039E+04 0.  0.
        3    1    3    3  502    0  0.72133234576E+03  0.73145110086E+02  0.15637345464E+04  0.17236404213E+04  0.10100000352E+00 0. -1.
       -3    1    3    3    0  502 -0.72133234576E+03 -0.73145110086E+02 -0.89165612224E+03  0.11492263531E+04  0.10100000352E+00 0.  1.
</event>
<event>
 5   0  0.1246044E-06  0.2788900E+04  0.7818609E-02  0.8306723E-01
        1   -1    0    0  501    0  0.00000000000E+00  0.00000000000E+00  0.99829265358E+03  0.99829265360E+03  0.50400001928E-02 0.  1.
       -1   -1    0    0    0  501  0.00000000000E+00  0.00000000000E+00 -0.19478157137E+04  0.19478157137E+04  0.50400001928E-02 0. -1.
    10030    2    1    2    0    0  0.00000000000E+00  0.00000000000E+00 -0.94952306016E+03  0.29461083673E+04  0.27888995088E+04 0.  0.
        2    1    3    3  502    0 -0.39019283171E+03 -0.94511209301E+03 -0.14763662784E+04  0.17958687876E+04  0.25500000920E-02 0. -1.
       -2    1    3    3    0  502  0.39019283171E+03  0.94511209301E+03  0.52684321821E+03  0.11502395798E+04  0.25500000920E-02 0.  1.
</event>
<event>
 5   0  0.1263513E-06  0.2804742E+04  0.7818609E-02  0.8301798E-01
        1   -1    0    0  501    0  0.00000000000E+00  0.00000000000E+00  0.13951430283E+04  0.13951430283E+04  0.50400001928E-02 0.  1.
       -1   -1    0    0    0  501  0.00000000000E+00  0.00000000000E+00 -0.14096362845E+04  0.14096362845E+04  0.50400001928E-02 0. -1.
    10030    2    1    2    0    0  0.00000000000E+00  0.00000000000E+00 -0.14493256149E+02  0.28047793128E+04  0.28047418667E+04 0.  0.
        3    1    3    3  502    0  0.36188744304E+03 -0.36730812006E+03 -0.13113984069E+04  0.14091286557E+04  0.10100000352E+00 0. -1.
       -3    1    3    3    0  502 -0.36188744304E+03  0.36730812006E+03  0.12969051507E+04  0.13956506571E+04  0.10100000352E+00 0.  1.
</event>
<event>
 5   0  0.1235252E-06  0.2809133E+04  0.7818609E-02  0.8300439E-01
        1   -1    0    0  501    0  0.00000000000E+00  0.00000000000E+00  0.16026481358E+04  0.16026481358E+04  0.50400001928E-02 0.  1.
       -1   -1    0    0    0  501  0.00000000000E+00  0.00000000000E+00 -0.12309667977E+04  0.12309667977E+04  0.50400001928E-02 0. -1.
    10030    2    1    2    0    0  0.00000000000E+00  0.00000000000E+00  0.37168133803E+03  0.28336149335E+04  0.28091327086E+04 0.  0.
        1    1    3    3  502    0 -0.84056171926E+03  0.11223731533E+04  0.10425846305E+03  0.14061064420E+04  0.50400001928E-02 0.  1.
       -1    1    3    3    0  502  0.84056171926E+03 -0.11223731533E+04  0.26742287499E+03  0.14275084915E+04  0.50400001928E-02 0. -1.
</event>
<event>
 5   0  0.1246044E-06  0.2807323E+04  0.7818609E-02  0.8300999E-01
       -1   -1    0    0    0  501  0.00000000000E+00  0.00000000000E+00  0.16482413808E+04  0.16482413808E+04  0.50400001928E-02 0. -1.
        1   -1    0    0  501    0  0.00000000000E+00  0.00000000000E+00 -0.11953742625E+04  0.11953742625E+04  0.50400001928E-02 0.  1.
    10030    2    1    2    0    0  0.00000000000E+00  0.00000000000E+00  0.45286711831E+03  0.28436156434E+04  0.28073227995E+04 0.  0.
        2    1    3    3  502    0 -0.41473026218E+03 -0.88796092582E+03  0.12443074473E+04  0.15839118724E+04  0.25500000920E-02 0. -1.
       -2    1    3    3    0  502  0.41473026218E+03  0.88796092582E+03 -0.79144032901E+03  0.12597037709E+04  0.25500000920E-02 0.  1.
</event>
<event>
 5   0  0.3345919E-06  0.2796006E+04  0.7818609E-02  0.8304509E-01
        2   -1    0    0  501    0  0.00000000000E+00  0.00000000000E+00  0.30604736658E+04  0.30604736658E+04  0.25500000920E-02 0.  1.
       -2   -1    0    0    0  501  0.00000000000E+00  0.00000000000E+00 -0.63859797787E+03  0.63859797787E+03  0.25500000920E-02 0. -1.
    10030    2    1    2    0    0  0.00000000000E+00  0.00000000000E+00  0.24218756879E+04  0.36990716437E+04  0.27960059330E+04 0.  0.
        2    1    3    3  502    0 -0.80717040669E+03 -0.97165222710E+03  0.41849330848E+03  0.13307023578E+04  0.25500000920E-02 0.  1.
       -2    1    3    3    0  502  0.80717040669E+03  0.97165222710E+03  0.20033823794E+04  0.23683692858E+04  0.25500000920E-02 0. -1.
</event>
<event>
 5   0  0.1246044E-06  0.2823680E+04  0.7818609E-02  0.8295954E-01
       -1   -1    0    0    0  501  0.00000000000E+00  0.00000000000E+00  0.21931591613E+04  0.21931591613E+04  0.50400001928E-02 0. -1.
        1   -1    0    0  501    0  0.00000000000E+00  0.00000000000E+00 -0.90886785083E+03  0.90886785085E+03  0.50400001928E-02 0.  1.
    10030    2    1    2    0    0  0.00000000000E+00  0.00000000000E+00  0.12842913105E+04  0.31020270122E+04  0.28236797648E+04 0.  0.
        2    1    3    3  502    0 -0.99813045650E+03 -0.46882543702E+03 -0.32636623024E+03  0.11500333103E+04  0.25500000920E-02 0.  1.
       -2    1    3    3    0  502  0.99813045650E+03  0.46882543702E+03  0.16106575407E+04  0.19519937019E+04  0.25500000920E-02 0. -1.
</event>
<event>
 5   0  0.1243055E-06  0.2757499E+04  0.7818609E-02  0.8316586E-01
        1   -1    0    0  501    0  0.00000000000E+00  0.00000000000E+00  0.13845969499E+04  0.13845969499E+04  0.50400001928E-02 0.  1.
       -1   -1    0    0    0  501  0.00000000000E+00  0.00000000000E+00 -0.13729271423E+04  0.13729271423E+04  0.50400001928E-02 0. -1.
    10030    2    1    2    0    0  0.00000000000E+00  0.00000000000E+00  0.11669807667E+02  0.27575240922E+04  0.27574993989E+04 0.  0.
        5    1    3    3  502    0  0.59775476398E+02  0.85165072287E+03  0.10884556009E+04  0.13833436834E+04  0.46999998093E+01 0.  1.
       -5    1    3    3    0  502 -0.59775476398E+02 -0.85165072287E+03 -0.10767857932E+04  0.13741804088E+04  0.46999998093E+01 0. -1.
</event>
<event>
 5   0  0.3167616E-06  0.2797072E+04  0.7818609E-02  0.8304178E-01
       -2   -1    0    0    0  501  0.00000000000E+00  0.00000000000E+00  0.14713867159E+04  0.14713867159E+04  0.25500000920E-02 0. -1.
        2   -1    0    0  501    0  0.00000000000E+00  0.00000000000E+00 -0.13292918929E+04  0.13292918929E+04  0.25500000920E-02 0.  1.
    10030    2    1    2    0    0  0.00000000000E+00  0.00000000000E+00  0.14209482300E+03  0.28006786087E+04  0.27970716349E+04 0.  0.
        3    1    3    3  502    0 -0.35363646459E+03 -0.13099843412E+04  0.41028321742E+03  0.14175507229E+04  0.10100000352E+00 0. -1.
       -3    1    3    3    0  502  0.35363646459E+03  0.13099843412E+04 -0.26818839442E+03  0.13831278858E+04  0.10100000352E+00 0.  1.
</event>
<event>
 5   0  0.3167616E-06  0.2810546E+04  0.7818609E-02  0.8300002E-01
        2   -1    0    0  501    0  0.00000000000E+00  0.00000000000E+00  0.13146142983E+04  0.13146142983E+04  0.25500000920E-02 0. -1.
       -2   -1    0    0    0  501  0.00000000000E+00  0.00000000000E+00 -0.15021839193E+04  0.15021839193E+04  0.25500000920E-02 0.  1.
    10030    2    1    2    0    0  0.00000000000E+00  0.00000000000E+00 -0.18756962105E+03  0.28167982176E+04  0.28105461811E+04 0.  0.
        3    1    3    3  502    0  0.27332571928E+03 -0.32142665778E+02  0.12873417580E+04  0.13164303673E+04  0.10100000352E+00 0. -1.
       -3    1    3    3    0  502 -0.27332571928E+03  0.32142665778E+02 -0.14749113791E+04  0.15003678503E+04  0.10100000352E+00 0.  1.
</event>
<event>
 5   0  0.3212679E-06  0.2787259E+04  0.7818609E-02  0.8307235E-01
        2   -1    0    0  501    0  0.00000000000E+00  0.00000000000E+00  0.14953303560E+04  0.14953303560E+04  0.25500000920E-02 0.  1.
       -2   -1    0    0    0  501  0.00000000000E+00  0.00000000000E+00 -0.12988459644E+04  0.12988459644E+04  0.25500000920E-02 0. -1.
    10030    2    1    2    0    0  0.00000000000E+00  0.00000000000E+00  0.19648439163E+03  0.27941763204E+04  0.27872594414E+04 0.  0.
        4    1    3    3  502    0  0.37410343499E+03 -0.13202926834E+04 -0.14541659461E+03  0.13799542561E+04  0.12699999809E+01 0. -1.
       -4    1    3    3    0  502 -0.37410343499E+03  0.13202926834E+04  0.34190098624E+03  0.14142220643E+04  0.12699999809E+01 0.  1.
</event>
<event>
 5   0  0.3167616E-06  0.2775846E+04  0.7818609E-02  0.8310807E-01
       -2   -1    0    0    0  501  0.00000000000E+00  0.00000000000E+00  0.87661602361E+03  0.87661602362E+03  0.25500000920E-02 0.  1.
        2   -1    0    0  501    0  0.00000000000E+00  0.00000000000E+00 -0.21974615453E+04  0.21974615453E+04  0.25500000920E-02 0. -1.
    10030    2    1    2    0    0  0.00000000000E+00  0.00000000000E+00 -0.13208455217E+04  0.30740775689E+04  0.27758458184E+04 0.  0.
        3    1    3    3  502    0  0.25158226694E+03 -0.22195512863E+03  0.83103466761E+03  0.89620106290E+03  0.10100000352E+00 0.  1.
       -3    1    3    3    0  502 -0.25158226694E+03  0.22195512863E+03 -0.21518801893E+04  0.21778765060E+04  0.10100000352E+00 0. -1.
</event>
<event>
 5   0  0.3162695E-06  0.2799610E+04  0.7818609E-02  0.8303390E-01
       -2   -1    0    0    0  501  0.00000000000E+00  0.00000000000E+00  0.84140100553E+03  0.84140100553E+03  0.25500000920E-02 0.  1.
        2   -1    0    0  501    0  0.00000000000E+00  0.00000000000E+00 -0.23287987322E+04  0.23287987322E+04  0.25500000920E-02 0. -1.
    10030    2    1    2    0    0  0.00000000000E+00  0.00000000000E+00 -0.14873977266E+04  0.31701997377E+04  0.27996096835E+04 0.  0.
        1    1    3    3  502    0 -0.13479977855E+04 -0.10568532654E+03 -0.11538398546E+04  0.17775302608E+04  0.50400001928E-02 0. -1.
       -1    1    3    3    0  502  0.13479977855E+04  0.10568532654E+03 -0.33355787206E+03  0.13926694769E+04  0.50400001928E-02 0.  1.
</event>
<event>
 5   0  0.3226364E-06  0.2794978E+04  0.7818609E-02  0.8304829E-01
       -2   -1    0    0    0  501  0.00000000000E+00  0.00000000000E+00  0.84476784221E+03  0.84476784222E+03  0.25500000920E-02 0. -1.
        2   -1    0    0  501    0  0.00000000000E+00  0.00000000000E+00 -0.23118480919E+04  0.23118480919E+04  0.25500000920E-02 0.  1.
    10030    2    1    2    0    0  0.00000000000E+00  0.00000000000E+00 -0.14670802497E+04  0.31566159341E+04  0.27949775842E+04 0.  0.
        5    1    3    3  502    0  0.91413737308E+03 -0.99403030666E+03 -0.32757329662E+03  0.13896293542E+04  0.46999998093E+01 0. -1.
       -5    1    3    3    0  502 -0.91413737308E+03  0.99403030666E+03 -0.11395069530E+04  0.17669865799E+04  0.46999998093E+01 0.  1.
</event>
<event>
 5   0  0.3226364E-06  0.2771086E+04  0.7818609E-02  0.8312302E-01
       -2   -1    0    0    0  501  0.00000000000E+00  0.00000000000E+00  0.14154738556E+04  0.14154738556E+04  0.25500000920E-02 0. -1.
        2   -1    0    0  501    0  0.00000000000E+00  0.00000000000E+00 -0.13562451633E+04  0.13562451633E+04  0.25500000920E-02 0.  1.
    10030    2    1    2    0    0  0.00000000000E+00  0.00000000000E+00  0.59228692360E+02  0.27717190189E+04  0.27710861195E+04 0.  0.
        5    1    3    3  502    0  0.97206185138E+03 -0.80976508990E+03 -0.53538964229E+03  0.13737859742E+04  0.46999998093E+01 0. -1.
       -5    1    3    3    0  502 -0.97206185138E+03  0.80976508990E+03  0.59461833465E+03  0.13979330448E+04  0.46999998093E+01 0.  1.
</event>
<event>
 5   0  0.1243055E-06  0.2773684E+04  0.7818609E-02  0.8311485E-01
       -1   -1    0    0    0  501  0.00000000000E+00  0.00000000000E+00  0.20077002037E+04  0.20077002037E+04  0.50400001928E-02 0.  1.
        1   -1    0    0  501    0  0.00000000000E+00  0.00000000000E+00 -0.95797692772E+03  0.95797692773E+03  0.50400001928E-02 0. -1.
    10030    2    1    2    0    0  0.00000000000E+00  0.00000000000E+00  0.10497232759E+04  0.29656771314E+04  0.27736838125E+04 0.  0.
        5    1    3    3  502    0  0.13349372985E+03  0.87577452126E+03 -0.61600460458E+03  0.10790205516E+04  0.46999998093E+01 0. -1.
       -5    1    3    3    0  502 -0.13349372985E+03 -0.87577452126E+03  0.16657278805E+04  0.18866565798E+04  0.46999998093E+01 0.  1.
</event>
<event>
 5   0  0.1235252E-06  0.2805979E+04  0.7818609E-02  0.8301414E-01
       -1   -1    0    0    0  501  0.00000000000E+00  0.00000000000E+00  0.99548885803E+03  0.99548885804E+03  0.50400001928E-02 0. -1.
        1   -1    0    0  501    0  0.00000000000E+00  0.00000000000E+00 -0.19772997368E+04  0.19772997368E+04  0.50400001928E-02 0.  1.
    10030    2    1    2    0    0  0.00000000000E+00  0.00000000000E+00 -0.98181087873E+03  0.29727885948E+04  0.28059792280E+04 0.  0.
        1    1    3    3  502    0  0.38709769642E+03 -0.96802027253E+03 -0.14855864588E+04  0.18149035790E+04  0.50400001928E-02 0.  1.
       -1    1    3    3    0  502 -0.38709769642E+03  0.96802027253E+03  0.50377558008E+03  0.11578850158E+04  0.50400001928E-02 0. -1.
</event>
<event>
 5   0  0.1263513E-06  0.2808132E+04  0.7818609E-02  0.8300748E-01
        1   -1    0    0  501    0  0.00000000000E+00  0.00000000000E+00  0.12077042551E+04  0.12077042551E+04  0.50400001928E-02 0.  1.
       -1   -1    0    0    0  501  0.00000000000E+00  0.00000000000E+00 -0.16323549205E+04  0.16323549205E+04  0.50400001928E-02 0. -1.
    10030    2    1    2    0    0  0.00000000000E+00  0.00000000000E+00 -0.42465066540E+03  0.28400591756E+04  0.28081324637E+04 0.  0.
        3    1    3    3  502    0  0.66585571088E+03  0.79893093282E+03 -0.11663139427E+04  0.15626716502E+04  0.10100000352E+00 0. -1.
       -3    1    3    3    0  502 -0.66585571088E+03 -0.79893093282E+03  0.74166327729E+03  0.12773875255E+04  0.10100000352E+00 0.  1.
</event>
<event>
 5   0  0.1235252E-06  0.2796938E+04  0.7818609E-02  0.8304220E-01
        1   -1    0    0  501    0  0.00000000000E+00  0.00000000000E+00  0.13578711189E+04  0.13578711189E+04  0.50400001928E-02 0. -1.
       -1   -1    0    0    0  501  0.00000000000E+00  0.00000000000E+00 -0.14402803441E+04  0.14402803441E+04  0.50400001928E-02 0.  1.
    10030    2    1    2    0    0  0.00000000000E+00  0.00000000000E+00 -0.82409225276E+02  0.27981514630E+04  0.27969376700E+04 0.  0.
        1    1    3    3  502    0 -0.92409757770E+03  0.54113959188E+02  0.10075014278E+04  0.13681899651E+04  0.50400001928E-02 0. -1.
       -1    1    3    3    0  502  0.92409757770E+03 -0.54113959188E+02 -0.10899106531E+04  0.14299614979E+04  0.50400001928E-02 0.  1.
</event>
<event>
 5   0  0.1220265E-06  0.2793778E+04  0.7818609E-02  0.8305203E-01
       -1   -1    0    0    0  501  0.00000000000E+00  0.00000000000E+00  0.15453751629E+04  0.15453751629E+04  0.50400001928E-02 0. -1.
        1   -1    0    0  501    0  0.00000000000E+00  0.00000000000E+00 -0.12626698837E+04  0.12626698837E+04  0.50400001928E-02 0.  1.
    10030    2    1    2    0    0  0.00000000000E+00  0.00000000000E+00  0.28270527924E+03  0.28080450466E+04  0.27937778560E+04 0.  0.
        4    1    3    3  502    0  0.13658958854E+04  0.27207464632E+03  0.33095214672E+02  0.13931235010E+04  0.12699999809E+01 0. -1.
       -4    1    3    3    0  502 -0.13658958854E+04 -0.27207464632E+03  0.24961006456E+03  0.14149215456E+04  0.12699999809E+01 0.  1.
</event>
<event>
 5   0  0.3212679E-06  0.2819121E+04  0.7818609E-02  0.8297357E-01
       -2   -1    0    0    0  501  0.00000000000E+00  0.00000000000E+00  0.13102117284E+04  0.13102117284E+04  0.25500000920E-02 0. -1.
        2   -1    0    0  501    0  0.00000000000E+00  0.00000000000E+00 -0.15164425284E+04  0.15164425284E+04  0.25500000920E-02 0.  1.
    10030    2    1    2    0    0  0.00000000000E+00  0.00000000000E+00 -0.20623080003E+03  0.28266542568E+04  0.28191209879E+04 0.  0.
        4    1    3    3  502    0  0.68993149759E+02 -0.85056205146E+03 -0.12280060651E+04  0.14953983974E+04  0.12699999809E+01 0.  1.
       -4    1    3    3    0  502 -0.68993149759E+02  0.85056205146E+03  0.10217752650E+04  0.13312558594E+04  0.12699999809E+01 0. -1.
</event>
<event>
 5   0  0.3226364E-06  0.2807961E+04  0.7818609E-02  0.8300801E-01
       -2   -1    0    0    0  501  0.00000000000E+00  0.00000000000E+00  0.83078130955E+03  0.83078130956E+03  0.25500000920E-02 0. -1.
        2   -1    0    0  501    0  0.00000000000E+00  0.00000000000E+00 -0.23726594293E+04  0.23726594294E+04  0.25500000920E-02 0.  1.
    10030    2    1    2    0    0  0.00000000000E+00  0.00000000000E+00 -0.15418781198E+04  0.32034407389E+04  0.28079609028E+04 0.  0.
        5    1    3    3  502    0  0.77676043112E+03 -0.11157556973E+04 -0.11708388469E+04  0.17941998882E+04  0.46999998093E+01 0. -1.
       -5    1    3    3    0  502 -0.77676043112E+03  0.11157556973E+04 -0.37103927285E+03  0.14092408507E+04  0.46999998093E+01 0.  1.
</event>
<event>
 5   0  0.1235252E-06  0.2802521E+04  0.7818609E-02  0.8302486E-01
       -1   -1    0    0    0  501  0.00000000000E+00  0.00000000000E+00  0.19513680820E+04  0.19513680820E+04  0.50400001928E-02 0. -1.
        1   -1    0    0  501    0  0.00000000000E+00  0.00000000000E+00 -0.10062329692E+04  0.10062329692E+04  0.50400001928E-02 0.  1.
    10030    2    1    2    0    0  0.00000000000E+00  0.00000000000E+00  0.94513511285E+03  0.29576010512E+04  0.28025209360E+04 0.  0.
        1    1    3    3  502    0 -0.92535826902E+03  0.99781287163E+03  0.82513892370E+03  0.15914687230E+04  0.50400001928E-02 0. -1.
       -1    1    3    3    0  502  0.92535826902E+03 -0.99781287163E+03  0.11999618915E+03  0.13661323282E+04  0.50400001928E-02 0.  1.
</event>
<event>
 5   0  0.3167616E-06  0.2807292E+04  0.7818609E-02  0.8301008E-01
        2   -1    0    0  501    0  0.00000000000E+00  0.00000000000E+00  0.12814287216E+04  0.12814287216E+04  0.25500000920E-02 0. -1.
       -2   -1    0    0    0  501  0.00000000000E+00  0.00000000000E+00 -0.15375196936E+04  0.15375196936E+04  0.25500000920E-02 0.  1.
    10030    2    1    2    0    0  0.00000000000E+00  0.00000000000E+00 -0.25609097199E+03  0.28189484152E+04  0.28072918590E+04 0.  0.
        3    1    3    3  502    0 -0.92251547578E+03  0.54125995232E+03  0.78469783061E+03  0.13265548743E+04  0.10100000352E+00 0. -1.
       -3    1    3    3    0  502  0.92251547578E+03 -0.54125995232E+03 -0.10407888026E+04  0.14923935409E+04  0.10100000352E+00 0.  1.
</event>
<event>
 5   0  0.3162695E-06  0.2820387E+04  0.7818609E-02  0.8296967E-01
       -2   -1    0    0    0  501  0.00000000000E+00  0.00000000000E+00  0.12727140838E+04  0.12727140838E+04  0.25500000920E-02 0.  1.
        2   -1    0    0  501    0  0.00000000000E+00  0.00000000000E+00 -0.15625237349E+04  0.15625237349E+04  0.25500000920E-02 0. -1.
    10030    2    1    2    0    0  0.00000000000E+00  0.00000000000E+00 -0.28980965110E+03  0.28352378186E+04  0.28203871816E+04 0.  0.
        1    1    3    3  502    0  0.12407047262E+04 -0.19058290496E+03  0.50111093950E+03  0.13515850824E+04  0.50400001928E-02 0.  1.
       -1    1    3    3    0  502 -0.12407047262E+04  0.19058290496E+03 -0.79092059060E+03  0.14836527363E+04  0.50400001928E-02 0. -1.
</event>
<event>
 5   0  0.3345919E-06  0.2795759E+04  0.7818609E-02  0.8304586E-01
       -2   -1    0    0    0  501  0.00000000000E+00  0.00000000000E+00  0.16509207008E+04  0.16509207008E+04  0.25500000920E-02 0.  1.
        2   -1    0    0  501    0  0.00000000000E+00  0.00000000000E+00 -0.11836230436E+04  0.11836230436E+04  0.25500000920E-02 0. -1.
    10030    2    1    2    0    0  0.00000000000E+00  0.00000000000E+00  0.46729765715E+03  0.28345437444E+04  0.27957594923E+04 0.  0.
        2    1    3    3  502    0  0.27861780081E+03  0.88129455831E+03 -0.82959354756E+03  0.12419876938E+04  0.25500000920E-02 0. -1.
       -2    1    3    3    0  502 -0.27861780081E+03 -0.88129455831E+03  0.12968912047E+04  0.15925560506E+04  0.25500000920E-02 0.  1.
</event>
<event>
 5   0  0.1246044E-06  0.2788942E+04  0.7818609E-02  0.8306710E-01
        1   -1    0    0  501    0  0.00000000000E+00  0.00000000000E+00  0.18615109871E+04  0.18615109871E+04  0.50400001928E-02 0. -1.
       -1   -1    0    0    0  501  0.00000000000E+00  0.00000000000E+00 -0.10446082923E+04  0.10446082923E+04  0.50400001928E-02 0.  1.
    10030    2    1    2    0    0  0.00000000000E+00  0.00000000000E+00  0.81690269477E+03  0.29061192794E+04  0.27889423181E+04 0.  0.
        2    1    3    3  502    0 -0.50896873834E+03 -0.71798743832E+03  0.15355601617E+04  0.17698870439E+04  0.25500000920E-02 0. -1.
       -2    1    3    3    0  502  0.50896873834E+03  0.71798743832E+03 -0.71865746690E+03  0.11362322355E+04  0.25500000920E-02 0.  1.
</event>
<event>
 5   0  0.1220265E-06  0.2798635E+04  0.7818609E-02  0.8303692E-01
        1   -1    0    0  501    0  0.00000000000E+00  0.00000000000E+00  0.27093029241E+04  0.27093029241E+04  0.50400001928E-02 0.  1.
       -1   -1    0    0    0  501  0.00000000000E+00  0.00000000000E+00 -0.72272796582E+03  0.72272796584E+03  0.50400001928E-02 0. -1.
    10030    2    1    2    0    0  0.00000000000E+00  0.00000000000E+00  0.19865749582E+04  0.34320308899E+04  0.27986346608E+04 0.  0.
        4    1    3    3  502    0 -0.30413672692E+03  0.45795321762E+03  0.25713264185E+04  0.26294374801E+04  0.12699999809E+01 0.  1.
       -4    1    3    3    0  502  0.30413672692E+03 -0.45795321762E+03 -0.58475146032E+03  0.80259340979E+03  0.12699999809E+01 0. -1.
</event>
<event>
 5   0  0.3226364E-06  0.2825903E+04  0.7818609E-02  0.8295271E-01
        2   -1    0    0  501    0  0.00000000000E+00  0.00000000000E+00  0.18354187022E+04  0.18354187022E+04  0.25500000920E-02 0. -1.
       -2   -1    0    0    0  501  0.00000000000E+00  0.00000000000E+00 -0.10877259812E+04  0.10877259812E+04  0.25500000920E-02 0.  1.
    10030    2    1    2    0    0  0.00000000000E+00  0.00000000000E+00  0.74769272094E+03  0.29231446834E+04  0.28259034724E+04 0.  0.
        5    1    3    3  502    0  0.59064498967E+03  0.12481208508E+04  0.68372678591E+03  0.15408346990E+04  0.46999998093E+01 0. -1.
       -5    1    3    3    0  502 -0.59064498967E+03 -0.12481208508E+04  0.63965935032E+02  0.13823099844E+04  0.46999998093E+01 0.  1.
</event>
<event>
 5   0  0.1246044E-06  0.2778450E+04  0.7818609E-02  0.8309990E-01
        1   -1    0    0  501    0  0.00000000000E+00  0.00000000000E+00  0.16337030599E+04  0.16337030599E+04  0.50400001928E-02 0. -1.
       -1   -1    0    0    0  501  0.00000000000E+00  0.00000000000E+00 -0.11813325909E+04  0.11813325909E+04  0.50400001928E-02 0.  1.
    10030    2    1    2    0    0  0.00000000000E+00  0.00000000000E+00  0.45237046896E+03  0.28150356508E+04  0.27784504088E+04 0.  0.
        2    1    3    3  502    0 -0.92670243889E+03  0.70824093132E+02 -0.81995777716E+03  0.12394047841E+04  0.25500000920E-02 0.  1.
       -2    1    3    3    0  502  0.92670243889E+03 -0.70824093132E+02  0.12723282461E+04  0.15756308668E+04  0.25500000920E-02 0. -1.
</event>
<event>
 5   0  0.1243055E-06  0.2692371E+04  0.7818609E-02  0.8337485E-01
        1   -1    0    0  501    0  0.00000000000E+00  0.00000000000E+00  0.16619395724E+04  0.16619395724E+04  0.50400001928E-02 0. -1.
       -1   -1    0    0    0  501  0.00000000000E+00  0.00000000000E+00 -0.10904219833E+04  0.10904219833E+04  0.50400001928E-02 0.  1.
    10030    2    1    2    0    0  0.00000000000E+00  0.00000000000E+00  0.57151758918E+03  0.27523615557E+04  0.26923710329E+04 0.  0.
        5    1    3    3  502    0  0.11644198873E+03  0.13339327465E+04  0.14389333096E+03  0.13467229446E+04  0.46999998093E+01 0.  1.
       -5    1    3    3    0  502 -0.11644198873E+03 -0.13339327465E+04  0.42762425821E+03  0.14056386111E+04  0.46999998093E+01 0. -1.
</event>
<event>
 5   0  0.1220265E-06  0.2800066E+04  0.7818609E-02  0.8303248E-01
       -1   -1    0    0    0  501  0.00000000000E+00  0.00000000000E+00  0.15272759365E+04  0.15272759365E+04  0.50400001928E-02 0. -1.
        1   -1    0    0  501    0  0.00000000000E+00  0.00000000000E+00 -0.12833910918E+04  0.12833910919E+04  0.50400001928E-02 0.  1.
    10030    2    1    2    0    0  0.00000000000E+00  0.00000000000E+00  0.24388484469E+03  0.28106670284E+04  0.28000659505E+04 0.  0.
        4    1    3    3  502    0  0.11470732378E+04  0.52902167963E+03  0.72792477644E+03  0.14579153074E+04  0.12699999809E+01 0. -1.
       -4    1    3    3    0  502 -0.11470732378E+04 -0.52902167963E+03 -0.48403993175E+03  0.13527517210E+04  0.12699999809E+01 0.  1.
</event>
<event>
 5   0  0.1263513E-06  0.2791506E+04  0.7818609E-02  0.8305910E-01
        1   -1    0    0  501    0  0.00000000000E+00  0.00000000000E+00  0.27874643875E+04  0.27874643875E+04  0.50400001928E-02 0. -1.
       -1   -1    0    0    0  501  0.00000000000E+00  0.00000000000E+00 -0.69888811791E+03  0.69888811793E+03  0.50400001928E-02 0.  1.
    10030    2    1    2    0    0  0.00000000000E+00  0.00000000000E+00  0.20885762696E+04  0.34863525054E+04  0.27915055003E+04 0.  0.
        3    1    3    3  502    0  0.68777916840E+03 -0.10368387579E+03 -0.46702013761E+03  0.83779373937E+03  0.10100000352E+00 0.  1.
       -3    1    3    3    0  502 -0.68777916840E+03  0.10368387579E+03  0.25555964072E+04  0.26485587660E+04  0.10100000352E+00 0. -1.
</event>
<event>
 5   0  0.1243055E-06  0.2795302E+04  0.7818609E-02  0.8304728E-01
       -1   -1    0    0    0  501  0.00000000000E+00  0.00000000000E+00  0.10894085723E+04  0.10894085723E+04  0.50400001928E-02 0.  1.
        1   -1    0    0  501    0  0.00000000000E+00  0.00000000000E+00 -0.17931085268E+04  0.17931085268E+04  0.50400001928E-02 0. -1.
    10030    2    1    2    0    0  0.00000000000E+00  0.00000000000E+00 -0.70369995451E+03  0.28825170992E+04  0.27953016297E+04 0.  0.
        5    1    3    3  502    0  0.78740284952E+03  0.70912133644E+03  0.58792947916E+03  0.12118331072E+04  0.46999998093E+01 0. -1.
       -5    1    3    3    0  502 -0.78740284952E+03 -0.70912133644E+03 -0.12916294337E+04  0.16706839920E+04  0.46999998093E+01 0.  1.
</event>
<event>
 5   0  0.1235252E-06  0.2801025E+04  0.7818609E-02  0.8302950E-01
       -1   -1    0    0    0  501  0.00000000000E+00  0.00000000000E+00  0.10230217850E+04  0.10230217850E+04  0.50400001928E-02 0.  1.
        1   -1    0    0  501    0  0.00000000000E+00  0.00000000000E+00 -0.19172959875E+04  0.19172959875E+04  0.50400001928E-02 0. -1.
    10030    2    1    2    0    0  0.00000000000E+00  0.00000000000E+00 -0.89427420250E+03  0.29403177724E+04  0.28010252147E+04 0.  0.
        1    1    3    3  502    0  0.41893229657E+03 -0.22465660708E+03  0.93574336702E+03  0.10495668198E+04  0.50400001928E-02 0.  1.
       -1    1    3    3    0  502 -0.41893229657E+03  0.22465660708E+03 -0.18300175695E+04  0.18907509527E+04  0.50400001928E-02 0. -1.
</event>
<event>
 5   0  0.3162695E-06  0.2788311E+04  0.7818609E-02  0.8306906E-01
       -2   -1    0    0    0  501  0.00000000000E+00  0.00000000000E+00  0.14401563523E+04  0.14401563523E+04  0.25500000920E-02 0.  1.
        2   -1    0    0  501    0  0.00000000000E+00  0.00000000000E+00 -0.13496243615E+04  0.13496243615E+04  0.25500000920E-02 0. -1.
    10030    2    1    2    0    0  0.00000000000E+00  0.00000000000E+00  0.90531990782E+02  0.27897807138E+04  0.27883113868E+04 0.  0.
        1    1    3    3  502    0 -0.12660029010E+04 -0.58298367204E+03  0.77482189188E+02  0.13959358140E+04  0.50400001928E-02 0.  1.
       -1    1    3    3    0  502  0.12660029010E+04  0.58298367204E+03  0.13049801595E+02  0.13938448998E+04  0.50400001928E-02 0. -1.
</event>
<event>
 5   0  0.1235252E-06  0.2812741E+04  0.7818609E-02  0.8299324E-01
       -1   -1    0    0    0  501  0.00000000000E+00  0.00000000000E+00  0.85877609623E+03  0.85877609625E+03  0.50400001928E-02 0.  1.
        1   -1    0    0  501    0  0.00000000000E+00  0.00000000000E+00 -0.23031362887E+04  0.23031362887E+04  0.50400001928E-02 0. -1.
    10030    2    1    2    0    0  0.00000000000E+00  0.00000000000E+00 -0.14443601925E+04  0.31619123850E+04  0.28127412900E+04 0.  0.
        1    1    3    3  502    0 -0.12683611467E+04 -0.60748396324E+03 -0.73351257227E+03  0.15861328626E+04  0.50400001928E-02 0. -1.
       -1    1    3    3    0  502  0.12683611467E+04  0.60748396324E+03 -0.71084762021E+03  0.15757795224E+04  0.50400001928E-02 0.  1.
</event>
<event>
 5   0  0.3162695E-06  0.2807651E+04  0.7818609E-02  0.8300897E-01
        2   -1    0    0  501    0  0.00000000000E+00  0.00000000000E+00  0.16494702400E+04  0.16494702400E+04  0.25500000920E-02 0. -1.
       -2   -1    0    0    0  501  0.00000000000E+00  0.00000000000E+00 -0.11947626439E+04  0.11947626439E+04  0.25500000920E-02 0.  1.
    10030    2    1    2    0    0  0.00000000000E+00  0.00000000000E+00  0.45470759605E+03  0.28442328839E+04  0.28076505659E+04 0.  0.
        1    1    3    3  502    0 -0.64432245849E+03  0.69408868210E+02  0.14888730695E+04  0.16237955655E+04  0.50400001928E-02 0. -1.
       -1    1    3    3    0  502  0.64432245849E+03 -0.69408868210E+02 -0.10341654735E+04  0.12204373184E+04  0.50400001928E-02 0.  1.
</event>
<event>
 5   0  0.3226364E-06  0.2885796E+04  0.7818609E-02  0.8277116E-01
       -2   -1    0    0    0  501  0.00000000000E+00  0.00000000000E+00  0.11144061973E+04  0.11144061973E+04  0.25500000920E-02 0.  1.
        2   -1    0    0  501    0  0.00000000000E+00  0.00000000000E+00 -0.18682184066E+04  0.18682184066E+04  0.25500000920E-02 0. -1.
    10030    2    1    2    0    0  0.00000000000E+00  0.00000000000E+00 -0.75381220935E+03  0.29826246039E+04  0.28857956755E+04 0.  0.
        5    1    3    3  502    0 -0.31411731421E+03 -0.63548181222E+03  0.92201435471E+03  0.11630302580E+04  0.46999998093E+01 0.  1.
       -5    1    3    3    0  502  0.31411731421E+03  0.63548181222E+03 -0.16758265641E+04  0.18195943459E+04  0.46999998093E+01 0. -1.
</event>
<event>
 5   0  0.1246044E-06  0.2800424E+04  0.7818609E-02  0.8303137E-01
       -1   -1    0    0    0  501  0.00000000000E+00  0.00000000000E+00  0.16209923620E+04  0.16209923620E+04  0.50400001928E-02 0.  1.
        1   -1    0    0  501    0  0.00000000000E+00  0.00000000000E+00 -0.12095022842E+04  0.12095022842E+04  0.50400001928E-02 0. -1.
    10030    2    1    2    0    0  0.00000000000E+00  0.00000000000E+00  0.41149007786E+03  0.28304946462E+04  0.28004242282E+04 0.  0.
        2    1    3    3  502    0  0.12090527758E+04 -0.70197820235E+03  0.28411440055E+03  0.14266404606E+04  0.25500000920E-02 0.  1.
       -2    1    3    3    0  502 -0.12090527758E+04  0.70197820235E+03  0.12737567731E+03  0.14038541856E+04  0.25500000920E-02 0. -1.
</event>
<event>
 5   0  0.1235252E-06  0.2796760E+04  0.7818609E-02  0.8304275E-01
        1   -1    0    0  501    0  0.00000000000E+00  0.00000000000E+00  0.21310627191E+04  0.21310627191E+04  0.50400001928E-02 0. -1.
       -1   -1    0    0    0  501  0.00000000000E+00  0.00000000000E+00 -0.91760187846E+03  0.91760187847E+03  0.50400001928E-02 0.  1.
    10030    2    1    2    0    0  0.00000000000E+00  0.00000000000E+00  0.12134608407E+04  0.30486645976E+04  0.27967603789E+04 0.  0.
        1    1    3    3  502    0 -0.48599459567E+03  0.59004225195E+02 -0.82113434386E+03  0.95599887882E+03  0.50400001928E-02 0.  1.
       -1    1    3    3    0  502  0.48599459567E+03 -0.59004225195E+02  0.20345951845E+04  0.20926657188E+04  0.50400001928E-02 0. -1.
</event>
<event>
 5   0  0.3345919E-06  0.2803007E+04  0.7818609E-02  0.8302336E-01
        2   -1    0    0  501    0  0.00000000000E+00  0.00000000000E+00  0.12054547379E+04  0.12054547379E+04  0.25500000920E-02 0.  1.
       -2   -1    0    0    0  501  0.00000000000E+00  0.00000000000E+00 -0.16294360821E+04  0.16294360821E+04  0.25500000920E-02 0. -1.
    10030    2    1    2    0    0  0.00000000000E+00  0.00000000000E+00 -0.42398134412E+03  0.28348908200E+04  0.28030065610E+04 0.  0.
        2    1    3    3  502    0  0.50442097417E+03  0.12667560200E+04 -0.53986983112E+03  0.14664824472E+04  0.25500000920E-02 0. -1.
       -2    1    3    3    0  502 -0.50442097417E+03 -0.12667560200E+04  0.11588848701E+03  0.13684083728E+04  0.25500000920E-02 0.  1.
</event>
<event>
 5   0  0.1263513E-06  0.2809574E+04  0.7818609E-02  0.8300302E-01
       -1   -1    0    0    0  501  0.00000000000E+00  0.00000000000E+00  0.12102756192E+04  0.12102756192E+04  0.50400001928E-02 0. -1.
        1   -1    0    0  501    0  0.00000000000E+00  0.00000000000E+00 -0.16305599726E+04  0.16305599726E+04  0.50400001928E-02 0.  1.
    10030    2    1    2    0    0  0.00000000000E+00  0.00000000000E+00 -0.42028435343E+03  0.28408355918E+04  0.28095743311E+04 0.  0.
        3    1    3    3  502    0 -0.97893553367E+03 -0.99013886102E+03 -0.39859521689E+03  0.14482982774E+04  0.10100000352E+00 0.  1.
       -3    1    3    3    0  502  0.97893553367E+03  0.99013886102E+03 -0.21689136542E+02  0.13925373144E+04  0.10100000352E+00 0. -1.
</event>
<event>
 5   0  0.1263513E-06  0.2808512E+04  0.7818609E-02  0.8300631E-01
       -1   -1    0    0    0  501  0.00000000000E+00  0.00000000000E+00  0.21293893678E+04  0.21293893678E+04  0.50400001928E-02 0.  1.
        1   -1    0    0  501    0  0.00000000000E+00  0.00000000000E+00 -0.92605633920E+03  0.92605633922E+03  0.50400001928E-02 0. -1.
    10030    2    1    2    0    0  0.00000000000E+00  0.00000000000E+00  0.12033330286E+04  0.30554457070E+04  0.28085117217E+04 0.  0.
        3    1    3    3  502    0 -0.95378467775E+03  0.96950377022E+03  0.98211590529E+03  0.16775560896E+04  0.10100000352E+00 0.  1.
       -3    1    3    3    0  502  0.95378467775E+03 -0.96950377022E+03  0.22121712327E+03  0.13778896174E+04  0.10100000352E+00 0. -1.
</event>
<event>
 5   0  0.3345919E-06  0.2804670E+04  0.7818609E-02  0.8301820E-01
       -2   -1    0    0    0  501  0.00000000000E+00  0.00000000000E+00  0.10638994907E+04  0.10638994907E+04  0.25500000920E-02 0.  1.
        2   -1    0    0  501    0  0.00000000000E+00  0.00000000000E+00 -0.18484300922E+04  0.18484300922E+04  0.25500000920E-02 0. -1.
    10030    2    1    2    0    0  0.00000000000E+00  0.00000000000E+00 -0.78453060151E+03  0.29123295829E+04  0.28046702720E+04 0.  0.
        2    1    3    3  502    0 -0.18633493893E+03 -0.19588680893E+03 -0.18211125435E+04  0.18410712229E+04  0.25500000920E-02 0. -1.
       -2    1    3    3    0  502  0.18633493893E+03  0.19588680893E+03  0.10365819420E+04  0.10712583600E+04  0.25500000920E-02 0.  1.
</event>
<event>
 5   0  0.1243055E-06  0.2808345E+04  0.7818609E-02  0.8300682E-01
       -1   -1    0    0    0  501  0.00000000000E+00  0.00000000000E+00  0.10930096679E+04  0.10930096679E+04  0.50400001928E-02 0.  1.
        1   -1    0    0  501    0  0.00000000000E+00  0.00000000000E+00 -0.18039182674E+04  0.18039182674E+04  0.50400001928E-02 0. -1.
    10030    2    1    2    0    0  0.00000000000E+00  0.00000000000E+00 -0.71090859953E+03  0.28969279353E+04  0.28083447840E+04 0.  0.
        5    1    3    3  502    0 -0.13450586914E+04  0.38592366538E+03 -0.23534240927E+03  0.14189884067E+04  0.46999998093E+01 0. -1.
       -5    1    3    3    0  502  0.13450586914E+04 -0.38592366538E+03 -0.47556619026E+03  0.14779395286E+04  0.46999998093E+01 0.  1.
</event>
<event>
 5   0  0.3167616E-06  0.2809826E+04  0.7818609E-02  0.8300224E-01
        2   -1    0    0  501    0  0.00000000000E+00  0.00000000000E+00  0.15482130507E+04  0.15482130507E+04  0.25500000920E-02 0.  1.
       -2   -1    0    0    0  501  0.00000000000E+00  0.00000000000E+00 -0.12748768428E+04  0.12748768428E+04  0.25500000920E-02 0. -1.
    10030    2    1    2    0    0  0.00000000000E+00  0.00000000000E+00  0.27333620789E+03  0.28230898935E+04  0.28098263050E+04 0.  0.
        3    1    3    3  502    0  0.25088940868E+01  0.13716827050E+04  0.44184723025E+03  0.14410928918E+04  0.10100000352E+00 0.  1.
       -3    1    3    3    0  502 -0.25088940868E+01 -0.13716827050E+04 -0.16851102236E+03  0.13819970017E+04  0.10100000352E+00 0. -1.
</event>
<event>
 5   0  0.3167616E-06  0.2801684E+04  0.7818609E-02  0.8302746E-01
        2   -1    0    0  501    0  0.00000000000E+00  0.00000000000E+00  0.13450051071E+04  0.13450051071E+04  0.25500000920E-02 0. -1.
       -2   -1    0    0    0  501  0.00000000000E+00  0.00000000000E+00 -0.14589969702E+04  0.14589969702E+04  0.25500000920E-02 0.  1.
    10030    2    1    2    0    0  0.00000000000E+00  0.00000000000E+00 -0.11399186308E+03  0.28040020773E+04  0.28016840480E+04 0.  0.
        3    1    3    3  502    0  0.69459204841E+03  0.11220429480E+04 -0.52740595615E+03  0.14211247460E+04  0.10100000352E+00 0.  1.
       -3    1    3    3    0  502 -0.69459204841E+03 -0.11220429480E+04  0.41341409307E+03  0.13828773313E+04  0.10100000352E+00 0. -1.
</event>
<event>
 5   0  0.3345919E-06  0.2772461E+04  0.7818609E-02  0.8311870E-01
        2   -1    0    0  501    0  0.00000000000E+00  0.00000000000E+00  0.15348271438E+04  0.15348271438E+04  0.25500000920E-02 0. -1.
       -2   -1    0    0    0  501  0.00000000000E+00  0.00000000000E+00 -0.12520202222E+04  0.12520202222E+04  0.25500000920E-02 0.  1.
    10030    2    1    2    0    0  0.00000000000E+00  0.00000000000E+00  0.28280692155E+03  0.27868473660E+04  0.27724607277E+04 0.  0.
        2    1    3    3  502    0 -0.41469480538E+03 -0.49708974858E+03  0.13735556694E+04  0.15184614505E+04  0.25500000920E-02 0. -1.
       -2    1    3    3    0  502  0.41469480538E+03  0.49708974858E+03 -0.10907487479E+04  0.12683859155E+04  0.25500000920E-02 0.  1.
</event>
<event>
 5   0  0.1220265E-06  0.2808816E+04  0.7818609E-02  0.8300536E-01
        1   -1    0    0  501    0  0.00000000000E+00  0.00000000000E+00  0.17749064264E+04  0.17749064264E+04  0.50400001928E-02 0. -1.
       -1   -1    0    0    0  501  0.00000000000E+00  0.00000000000E+00 -0.11112487261E+04  0.11112487261E+04  0.50400001928E-02 0.  1.
    10030    2    1    2    0    0  0.00000000000E+00  0.00000000000E+00  0.66365770034E+03  0.28861551525E+04  0.28088164805E+04 0.  0.
        4    1    3    3  502    0 -0.34021787796E+01 -0.88569691180E+03 -0.78808464228E+03  0.11855587757E+04  0.12699999809E+01 0.  1.
       -4    1    3    3    0  502  0.34021787796E+01  0.88569691180E+03  0.14517423426E+04  0.17005963768E+04  0.12699999809E+01 0. -1.
</event>
<event>
 5   0  0.3162695E-06  0.2807978E+04  0.7818609E-02  0.8300796E-01
        2   -1    0    0  501    0  0.00000000000E+00  0.00000000000E+00  0.11976617119E+04  0.11976617119E+04  0.25500000920E-02 0.  1.
       -2   -1    0    0    0  501  0.00000000000E+00  0.00000000000E+00 -0.16458618096E+04  0.16458618096E+04  0.25500000920E-02 0. -1.
    10030    2    1    2    0    0  0.00000000000E+00  0.00000000000E+00 -0.44820009765E+03  0.28435235215E+04  0.28079783991E+04 0.  0.
        1    1    3    3  502    0 -0.12770484559E+04 -0.53594340447E+03 -0.45744608609E+03  0.14585420848E+04  0.50400001928E-02 0. -1.
       -1    1    3    3    0  502  0.12770484559E+04  0.53594340447E+03  0.92459884370E+01  0.13849814366E+04  0.50400001928E-02 0.  1.
</event>
<event>
 5   0  0.3345919E-06  0.2804317E+04  0.7818609E-02  0.8301929E-01
        2   -1    0    0  501    0  0.00000000000E+00  0.00000000000E+00  0.13957524676E+04  0.13957524676E+04  0.25500000920E-02 0.  1.
       -2   -1    0    0    0  501  0.00000000000E+00  0.00000000000E+00 -0.14085938386E+04  0.14085938386E+04  0.25500000920E-02 0. -1.
    10030    2    1    2    0    0  0.00000000000E+00  0.00000000000E+00 -0.12841371015E+02  0.28043463062E+04  0.28043169051E+04 0.  0.
        2    1    3    3  502    0 -0.10245944101E+03  0.30108243527E+01 -0.14048420558E+04  0.14085766588E+04  0.25500000920E-02 0. -1.
       -2    1    3    3    0  502  0.10245944101E+03 -0.30108243527E+01  0.13920006848E+04  0.13957696474E+04  0.25500000920E-02 0.  1.
</event>
<event>
 5   0  0.3162695E-06  0.2788809E+04  0.7818609E-02  0.8306751E-01
       -2   -1    0    0    0  501  0.00000000000E+00  0.00000000000E+00  0.11600948765E+04  0.11600948765E+04  0.25500000920E-02 0.  1.
        2   -1    0    0  501    0  0.00000000000E+00  0.00000000000E+00 -0.16760389237E+04  0.16760389237E+04  0.25500000920E-02 0. -1.
    10030    2    1    2    0    0  0.00000000000E+00  0.00000000000E+00 -0.51594404721E+03  0.28361338003E+04  0.27888091855E+04 0.  0.
        1    1    3    3  502    0 -0.39224081581E+03  0.13135395964E+04 -0.51749864628E+03  0.14652794879E+04  0.50400001928E-02 0.  1.
       -1    1    3    3    0  502  0.39224081581E+03 -0.13135395964E+04  0.15545990664E+01  0.13708543123E+04  0.50400001928E-02 0. -1.
</event>
<event>
 5   0  0.3167616E-06  0.2802149E+04  0.7818609E-02  0.8302602E-01
       -2   -1    0    0    0  501  0.00000000000E+00  0.00000000000E+00  0.88367140261E+03  0.88367140261E+03  0.25500000920E-02 0.  1.
        2   -1    0    0  501    0  0.00000000000E+00  0.00000000000E+00 -0.22214246060E+04  0.22214246060E+04  0.25500000920E-02 0. -1.
    10030    2    1    2    0    0  0.00000000000E+00  0.00000000000E+00 -0.13377532033E+04  0.31050960086E+04  0.28021487450E+04 0.  0.
        3    1    3    3  502    0  0.83900800948E+01 -0.34179421287E+03  0.83673622850E+03  0.90389225225E+03  0.10100000352E+00 0.  1.
       -3    1    3    3    0  502 -0.83900800948E+01  0.34179421287E+03 -0.21744894318E+04  0.22012037563E+04  0.10100000352E+00 0. -1.
</event>
<event>
 5   0  0.1246044E-06  0.2804707E+04  0.7818609E-02  0.8301809E-01
        1   -1    0    0  501    0  0.00000000000E+00  0.00000000000E+00  0.24766544182E+04  0.24766544182E+04  0.50400001928E-02 0. -1.
       -1   -1    0    0    0  501  0.00000000000E+00  0.00000000000E+00 -0.79405300356E+03  0.79405300357E+03  0.50400001928E-02 0.  1.
    10030    2    1    2    0    0  0.00000000000E+00  0.00000000000E+00  0.16826014146E+04  0.32707074218E+04  0.28047066724E+04 0.  0.
        2    1    3    3  502    0  0.20665967178E+03  0.11419602974E+04  0.17593895464E+04  0.21076605792E+04  0.25500000920E-02 0. -1.
       -2    1    3    3    0  502 -0.20665967178E+03 -0.11419602974E+04 -0.76788131819E+02  0.11630468426E+04  0.25500000920E-02 0.  1.
</event>
<event>
 5   0  0.3167616E-06  0.2808405E+04  0.7818609E-02  0.8300664E-01
        2   -1    0    0  501    0  0.00000000000E+00  0.00000000000E+00  0.20257086217E+04  0.20257086217E+04  0.25500000920E-02 0. -1.
       -2   -1    0    0    0  501  0.00000000000E+00  0.00000000000E+00 -0.97338029301E+03  0.97338029301E+03  0.25500000920E-02 0.  1.
    10030    2    1    2    0    0  0.00000000000E+00  0.00000000000E+00  0.10523283287E+04  0.29990889148E+04  0.28084051359E+04 0.  0.
        3    1    3    3  502    0  0.77535068695E+03  0.10604807812E+04 -0.34921986207E+01  0.13136972181E+04  0.10100000352E+00 0.  1.
       -3    1    3    3    0  502 -0.77535068695E+03 -0.10604807812E+04  0.10558205274E+04  0.16853916967E+04  0.10100000352E+00 0. -1.
</event>
<event>
 5   0  0.3212679E-06  0.2791412E+04  0.7818609E-02  0.8305940E-01
        2   -1    0    0  501    0  0.00000000000E+00  0.00000000000E+00  0.15827869248E+04  0.15827869248E+04  0.25500000920E-02 0. -1.
       -2   -1    0    0    0  501  0.00000000000E+00  0.00000000000E+00 -0.12307373016E+04  0.12307373016E+04  0.25500000920E-02 0.  1.
    10030    2    1    2    0    0  0.00000000000E+00  0.00000000000E+00  0.35204962325E+03  0.28135242264E+04  0.27914117638E+04 0.  0.
        4    1    3    3  502    0 -0.10695611791E+03 -0.12051184800E+04 -0.52536344537E+03  0.13189990617E+04  0.12699999809E+01 0.  1.
       -4    1    3    3    0  502  0.10695611791E+03  0.12051184800E+04  0.87741306861E+03  0.14945251647E+04  0.12699999809E+01 0. -1.
</event>
<event>
 5   0  0.1235252E-06  0.2806543E+04  0.7818609E-02  0.8301240E-01
        1   -1    0    0  501    0  0.00000000000E+00  0.00000000000E+00  0.13048339570E+04  0.13048339570E+04  0.50400001928E-02 0. -1.
       -1   -1    0    0    0  501  0.00000000000E+00  0.00000000000E+00 -0.15091354452E+04  0.15091354452E+04  0.50400001928E-02 0.  1.
    10030    2    1    2    0    0  0.00000000000E+00  0.00000000000E+00 -0.20430148815E+03  0.28139694022E+04  0.28065431938E+04 0.  0.
        1    1    3    3  502    0 -0.26245320411E+03  0.19817483331E+03 -0.14699511241E+04  0.15062905617E+04  0.50400001928E-02 0.  1.
       -1    1    3    3    0  502  0.26245320411E+03 -0.19817483331E+03  0.12656496360E+04  0.13076788405E+04  0.50400001928E-02 0. -1.
</event>
<event>
 5   0  0.1246044E-06  0.2806826E+04  0.7818609E-02  0.8301152E-01
        1   -1    0    0  501    0  0.00000000000E+00  0.00000000000E+00  0.19383266856E+04  0.19383266856E+04  0.50400001928E-02 0.  1.
       -1   -1    0    0    0  501  0.00000000000E+00  0.00000000000E+00 -0.10161177433E+04  0.10161177434E+04  0.50400001928E-02 0. -1.
    10030    2    1    2    0    0  0.00000000000E+00  0.00000000000E+00  0.92220894230E+03  0.29544444290E+04  0.28068260635E+04 0.  0.
        2    1    3    3  502    0 -0.85876313192E+03  0.77617891351E+03  0.12963354400E+04  0.17379336568E+04  0.25500000920E-02 0.  1.
       -2    1    3    3    0  502  0.85876313192E+03 -0.77617891351E+03 -0.37412649771E+03  0.12165107722E+04  0.25500000920E-02 0. -1.
</event>
<event>
 5   0  0.1243055E-06  0.2783855E+04  0.7818609E-02  0.8308298E-01
        1   -1    0    0  501    0  0.00000000000E+00  0.00000000000E+00  0.16925734499E+04  0.16925734499E+04  0.50400001928E-02 0.  1.
       -1   -1    0    0    0  501  0.00000000000E+00  0.00000000000E+00 -0.11446845408E+04  0.11446845408E+04  0.50400001928E-02 0. -1.
    10030    2    1    2    0    0  0.00000000000E+00  0.00000000000E+00  0.54788890912E+03  0.28372579906E+04  0.27838553570E+04 0.  0.
        5    1    3    3  502    0  0.61018276224E+02  0.10270531430E+03  0.16873307688E+04  0.16915610616E+04  0.46999998093E+01 0.  1.
       -5    1    3    3    0  502 -0.61018276224E+02 -0.10270531430E+03 -0.11394418597E+04  0.11456969291E+04  0.46999998093E+01 0. -1.
</event>
<event>
 5   0  0.1263513E-06  0.2804658E+04  0.7818609E-02  0.8301824E-01
       -1   -1    0    0    0  501  0.00000000000E+00  0.00000000000E+00  0.13318071981E+04  0.13318071982E+04  0.50400001928E-02 0. -1.
        1   -1    0    0  501    0  0.00000000000E+00  0.00000000000E+00 -0.14765855880E+04  0.14765855880E+04  0.50400001928E-02 0.  1.
    10030    2    1    2    0    0  0.00000000000E+00  0.00000000000E+00 -0.14477838987E+03  0.28083927862E+04  0.28046584925E+04 0.  0.
        3    1    3    3  502    0  0.92366865976E+03  0.73516413342E+02 -0.11263869279E+04  0.14585321311E+04  0.10100000352E+00 0. -1.
       -3    1    3    3    0  502 -0.92366865976E+03 -0.73516413342E+02  0.98160853799E+03  0.13498606551E+04  0.10100000352E+00 0.  1.
</event>
<event>
 5   0  0.3212679E-06  0.2799546E+04  0.7818609E-02  0.8303409E-01
        2   -1    0    0  501    0  0.00000000000E+00  0.00000000000E+00  0.16840144967E+04  0.16840144967E+04  0.25500000920E-02 0.  1.
       -2   -1    0    0    0  501  0.00000000000E+00  0.00000000000E+00 -0.11635081416E+04  0.11635081416E+04  0.25500000920E-02 0. -1.
    10030    2    1    2    0    0  0.00000000000E+00  0.00000000000E+00  0.52050635514E+03  0.28475226383E+04  0.27995460900E+04 0.  0.
        4    1    3    3  502    0 -0.66372791162E+03 -0.12307739062E+04  0.32477380917E+03  0.14355552197E+04  0.12699999809E+01 0. -1.
       -4    1    3    3    0  502  0.66372791162E+03  0.12307739062E+04  0.19573254598E+03  0.14119674186E+04  0.12699999809E+01 0.  1.
</event>
<event>
 5   0  0.1235252E-06  0.2785150E+04  0.7818609E-02  0.8307894E-01
        1   -1    0    0  501    0  0.00000000000E+00  0.00000000000E+00  0.19345593785E+04  0.19345593785E+04  0.50400001928E-02 0.  1.
       -1   -1    0    0    0  501  0.00000000000E+00  0.00000000000E+00 -0.10024321760E+04  0.10024321760E+04  0.50400001928E-02 0. -1.
    10030    2    1    2    0    0  0.00000000000E+00  0.00000000000E+00  0.93212720258E+03  0.29369915545E+04  0.27851495955E+04 0.  0.
        1    1    3    3  502    0 -0.11573966486E+04 -0.14087015486E+02 -0.35042184170E+03  0.12093638466E+04  0.50400001928E-02 0. -1.
       -1    1    3    3    0  502  0.11573966486E+04  0.14087015486E+02  0.12825490443E+04  0.17276277079E+04  0.50400001928E-02 0.  1.
</event>
<event>
 5   0  0.3226364E-06  0.2803028E+04  0.7818609E-02  0.8302329E-01
        2   -1    0    0  501    0  0.00000000000E+00  0.00000000000E+00  0.28567434690E+04  0.28567434690E+04  0.25500000920E-02 0.  1.
       -2   -1    0    0    0  501  0.00000000000E+00  0.00000000000E+00 -0.68758056610E+03  0.68758056610E+03  0.25500000920E-02 0. -1.
    10030    2    1    2    0    0  0.00000000000E+00  0.00000000000E+00  0.21691629029E+04  0.35443240351E+04  0.28030278569E+04 0.  0.
        5    1    3    3  502    0  0.13721948946E+04  0.67458222620E+02  0.14348849878E+04  0.19865513985E+04  0.46999998093E+01 0. -1.
       -5    1    3    3    0  502 -0.13721948946E+04 -0.67458222620E+02  0.73427791506E+03  0.15577726366E+04  0.46999998093E+01 0.  1.
</event>
<event>
 5   0  0.3226364E-06  0.2788307E+04  0.7818609E-02  0.8306908E-01
        2   -1    0    0  501    0  0.00000000000E+00  0.00000000000E+00  0.21209893248E+04  0.21209893248E+04  0.25500000920E-02 0. -1.
       -2   -1    0    0    0  501  0.00000000000E+00  0.00000000000E+00 -0.91639529830E+03  0.91639529830E+03  0.25500000920E-02 0.  1.
    10030    2    1    2    0    0  0.00000000000E+00  0.00000000000E+00  0.12045940265E+04  0.30373846231E+04  0.27883074759E+04 0.  0.
        5    1    3    3  502    0 -0.12146171801E+03  0.11087591940E+04 -0.30880336638E+03  0.11573597143E+04  0.46999998093E+01 0.  1.
       -5    1    3    3    0  502  0.12146171801E+03 -0.11087591940E+04  0.15133973929E+04  0.18800249089E+04  0.46999998093E+01 0. -1.
</event>
<event>
 5   0  0.3226364E-06  0.2809733E+04  0.7818609E-02  0.8300253E-01
        2   -1    0    0  501    0  0.00000000000E+00  0.00000000000E+00  0.14684002060E+04  0.14684002060E+04  0.25500000920E-02 0. -1.
       -2   -1    0    0    0  501  0.00000000000E+00  0.00000000000E+00 -0.13440819953E+04  0.13440819953E+04  0.25500000920E-02 0.  1.
    10030    2    1    2    0    0  0.00000000000E+00  0.00000000000E+00  0.12431821076E+03  0.28124822013E+04  0.28097332818E+04 0.  0.
        5    1    3    3  502    0  0.83494797092E+02 -0.45519112277E+03  0.13899024111E+04  0.14649304221E+04  0.46999998093E+01 0. -1.
       -5    1    3    3    0  502 -0.83494797092E+02  0.45519112277E+03 -0.12655842003E+04  0.13475517792E+04  0.46999998093E+01 0.  1.
</event>
<event>
 5   0  0.3345919E-06  0.2795785E+04  0.7818609E-02  0.8304578E-01
       -2   -1    0    0    0  501  0.00000000000E+00  0.00000000000E+00  0.13913158791E+04  0.13913158791E+04  0.25500000920E-02 0. -1.
        2   -1    0    0  501    0  0.00000000000E+00  0.00000000000E+00 -0.14045005683E+04  0.14045005683E+04  0.25500000920E-02 0.  1.
    10030    2    1    2    0    0  0.00000000000E+00  0.00000000000E+00 -0.13184689226E+02  0.27958164475E+04  0.27957853587E+04 0.  0.
        2    1    3    3  502    0  0.41023592201E+03 -0.10253661614E+04 -0.86359351143E+03  0.14019497244E+04  0.25500000920E-02 0.  1.
       -2    1    3    3    0  502 -0.41023592201E+03  0.10253661614E+04  0.85040882221E+03  0.13938667231E+04  0.25500000920E-02 0. -1.
</event>
<event>
 5   0  0.1220265E-06  0.2794015E+04  0.7818609E-02  0.8305129E-01
        1   -1    0    0  501    0  0.00000000000E+00  0.00000000000E+00  0.18414207294E+04  0.18414207294E+04  0.50400001928E-02 0. -1.
       -1   -1    0    0    0  501  0.00000000000E+00  0.00000000000E+00 -0.10598502184E+04  0.10598502185E+04  0.50400001928E-02 0.  1.
    10030    2    1    2    0    0  0.00000000000E+00  0.00000000000E+00  0.78157051092E+03  0.29012709478E+04  0.27940151483E+04 0.  0.
        4    1    3    3  502    0 -0.96868715685E+03  0.12697884600E+03 -0.64612174000E+03  0.11713041240E+04  0.12699999809E+01 0.  1.
       -4    1    3    3    0  502  0.96868715685E+03 -0.12697884600E+03  0.14276922509E+04  0.17299668238E+04  0.12699999809E+01 0. -1.
</event>
<event>
 5   0  0.3162695E-06  0.2784183E+04  0.7818609E-02  0.8308196E-01
       -2   -1    0    0    0  501  0.00000000000E+00  0.00000000000E+00  0.22713039923E+04  0.22713039923E+04  0.25500000920E-02 0.  1.
        2   -1    0    0  501    0  0.00000000000E+00  0.00000000000E+00 -0.85321828070E+03  0.85321828071E+03  0.25500000920E-02 0. -1.
    10030    2    1    2    0    0  0.00000000000E+00  0.00000000000E+00  0.14180857116E+04  0.31245222730E+04  0.27841825280E+04 0.  0.
        1    1    3    3  502    0 -0.18666713284E+03 -0.13635091665E+04  0.47386392815E+03  0.14555235786E+04  0.50400001928E-02 0.  1.
       -1    1    3    3    0  502  0.18666713284E+03  0.13635091665E+04  0.94422178344E+03  0.16689986944E+04  0.50400001928E-02 0. -1.
</event>
<event>
 5   0  0.3226364E-06  0.2798473E+04  0.7818609E-02  0.8303742E-01
        2   -1    0    0  501    0  0.00000000000E+00  0.00000000000E+00  0.17967447224E+04  0.17967447224E+04  0.25500000920E-02 0. -1.
       -2   -1    0    0    0  501  0.00000000000E+00  0.00000000000E+00 -0.10896725158E+04  0.10896725158E+04  0.25500000920E-02 0.  1.
    10030    2    1    2    0    0  0.00000000000E+00  0.00000000000E+00  0.70707220660E+03  0.28864172382E+04  0.27984733995E+04 0.  0.
        5    1    3    3  502    0  0.83974261623E+03  0.25131823924E+03 -0.77138606179E+03  0.11676416682E+04  0.46999998093E+01 0.  1.
       -5    1    3    3    0  502 -0.83974261623E+03 -0.25131823924E+03  0.14784582684E+04  0.17187755701E+04  0.46999998093E+01 0. -1.
</event>
<event>
 5   0  0.3212679E-06  0.2643241E+04  0.7818609E-02  0.8353660E-01
       -2   -1    0    0    0  501  0.00000000000E+00  0.00000000000E+00  0.12654530741E+04  0.12654530741E+04  0.25500000920E-02 0.  1.
        2   -1    0    0  501    0  0.00000000000E+00  0.00000000000E+00 -0.13802805773E+04  0.13802805773E+04  0.25500000920E-02 0. -1.
    10030    2    1    2    0    0  0.00000000000E+00  0.00000000000E+00 -0.11482750318E+03  0.26457336514E+04  0.26432406623E+04 0.  0.
        4    1    3    3  502    0  0.73281906758E+03  0.99595419284E+03  0.40964197054E+03  0.13025961373E+04  0.12699999809E+01 0. -1.
       -4    1    3    3    0  502 -0.73281906758E+03 -0.99595419284E+03 -0.52446947373E+03  0.13431375141E+04  0.12699999809E+01 0.  1.
</event>
<event>
 5   0  0.3167616E-06  0.2814614E+04  0.7818609E-02  0.8298746E-01
       -2   -1    0    0    0  501  0.00000000000E+00  0.00000000000E+00  0.15061534567E+04  0.15061534567E+04  0.25500000920E-02 0.  1.
        2   -1    0    0  501    0  0.00000000000E+00  0.00000000000E+00 -0.13149475915E+04  0.13149475915E+04  0.25500000920E-02 0. -1.
    10030    2    1    2    0    0  0.00000000000E+00  0.00000000000E+00  0.19120586521E+03  0.28211010481E+04  0.28146139062E+04 0.  0.
        3    1    3    3  502    0 -0.33950102817E+03 -0.84877813461E+03 -0.97682929133E+03  0.13378642474E+04  0.10100000352E+00 0. -1.
       -3    1    3    3    0  502  0.33950102817E+03  0.84877813461E+03  0.11680351565E+04  0.14832368007E+04  0.10100000352E+00 0.  1.
</event>
<event>
 5   0  0.3226364E-06  0.2821436E+04  0.7818609E-02  0.8296644E-01
        2   -1    0    0  501    0  0.00000000000E+00  0.00000000000E+00  0.21071506230E+04  0.21071506230E+04  0.25500000920E-02 0.  1.
       -2   -1    0    0    0  501  0.00000000000E+00  0.00000000000E+00 -0.94446279005E+03  0.94446279005E+03  0.25500000920E-02 0. -1.
    10030    2    1    2    0    0  0.00000000000E+00  0.00000000000E+00  0.11626878330E+04  0.30516134131E+04  0.28214360574E+04 0.  0.
        5    1    3    3  502    0 -0.22333897906E+03  0.71868848076E+03 -0.70919185035E+03  0.10341028008E+04  0.46999998093E+01 0. -1.
       -5    1    3    3    0  502  0.22333897906E+03 -0.71868848076E+03  0.18718796833E+04  0.20175106123E+04  0.46999998093E+01 0.  1.
</event>
<event>
 5   0  0.1220265E-06  0.2824508E+04  0.7818609E-02  0.8295700E-01
        1   -1    0    0  501    0  0.00000000000E+00  0.00000000000E+00  0.12339411875E+04  0.12339411875E+04  0.50400001928E-02 0. -1.
       -1   -1    0    0    0  501  0.00000000000E+00  0.00000000000E+00 -0.16163345699E+04  0.16163345699E+04  0.50400001928E-02 0.  1.
    10030    2    1    2    0    0  0.00000000000E+00  0.00000000000E+00 -0.38239338242E+03  0.28502757573E+04  0.28245083101E+04 0.  0.
        4    1    3    3  502    0  0.10668176779E+04 -0.12537427850E+03  0.73403274159E+03  0.13010089724E+04  0.12699999809E+01 0. -1.
       -4    1    3    3    0  502 -0.10668176779E+04  0.12537427850E+03 -0.11164261240E+04  0.15492667849E+04  0.12699999809E+01 0.  1.
</event>
<event>
 5   0  0.1263513E-06  0.2782201E+04  0.7818609E-02  0.8308816E-01
       -1   -1    0    0    0  501  0.00000000000E+00  0.00000000000E+00  0.95499233579E+03  0.95499233580E+03  0.50400001928E-02 0. -1.
        1   -1    0    0  501    0  0.00000000000E+00  0.00000000000E+00 -0.20263627526E+04  0.20263627526E+04  0.50400001928E-02 0.  1.
    10030    2    1    2    0    0  0.00000000000E+00  0.00000000000E+00 -0.10713704169E+04  0.29813550884E+04  0.27822012137E+04 0.  0.
        3    1    3    3  502    0 -0.10281800224E+04 -0.45936130189E+03 -0.14108424848E+04  0.18051713191E+04  0.10100000352E+00 0. -1.
       -3    1    3    3    0  502  0.10281800224E+04  0.45936130189E+03  0.33947206799E+03  0.11761837693E+04  0.10100000352E+00 0.  1.
</event>
<event>
 5   0  0.1243055E-06  0.2795734E+04  0.7818609E-02  0.8304594E-01
       -1   -1    0    0    0  501  0.00000000000E+00  0.00000000000E+00  0.13856843607E+04  0.13856843608E+04  0.50400001928E-02 0. -1.
        1   -1    0    0  501    0  0.00000000000E+00  0.00000000000E+00 -0.14101567794E+04  0.14101567794E+04  0.50400001928E-02 0.  1.
    10030    2    1    2    0    0  0.00000000000E+00  0.00000000000E+00 -0.24472418626E+02  0.27958411401E+04  0.27957340327E+04 0.  0.
        5    1    3    3  502    0 -0.69143747028E+03 -0.37003180204E+03 -0.11694325602E+04  0.14080496840E+04  0.46999998093E+01 0.  1.
       -5    1    3    3    0  502  0.69143747028E+03  0.37003180204E+03  0.11449601416E+04  0.13877914561E+04  0.46999998093E+01 0. -1.
</event>
<event>
 5   0  0.3162695E-06  0.2794401E+04  0.7818609E-02  0.8305009E-01
        2   -1    0    0  501    0  0.00000000000E+00  0.00000000000E+00  0.32989077889E+04  0.32989077889E+04  0.25500000920E-02 0. -1.
       -2   -1    0    0    0  501  0.00000000000E+00  0.00000000000E+00 -0.59176225362E+03  0.59176225363E+03  0.25500000920E-02 0.  1.
    10030    2    1    2    0    0  0.00000000000E+00  0.00000000000E+00  0.27071455352E+04  0.38906700425E+04  0.27944009073E+04 0.  0.
        1    1    3    3  502    0  0.12882875894E+04 -0.38296636033E+03  0.18852470654E+04  0.23152763644E+04  0.50400001928E-02 0. -1.
       -1    1    3    3    0  502 -0.12882875894E+04  0.38296636033E+03  0.82189846984E+03  0.15753936781E+04  0.50400001928E-02 0.  1.
</event>
<event>
 5   0  0.3226364E-06  0.2805483E+04  0.7818609E-02  0.8301568E-01
       -2   -1    0    0    0  501  0.00000000000E+00  0.00000000000E+00  0.10476398252E+04  0.10476398253E+04  0.25500000920E-02 0. -1.
        2   -1    0    0  501    0  0.00000000000E+00  0.00000000000E+00 -0.18782065300E+04  0.18782065300E+04  0.25500000920E-02 0.  1.
    10030    2    1    2    0    0  0.00000000000E+00  0.00000000000E+00 -0.83056670477E+03  0.29258463553E+04  0.28054831747E+04 0.  0.
        5    1    3    3  502    0 -0.73097200150E+03 -0.10554625721E+04 -0.10046300998E+04  0.16302223884E+04  0.46999998093E+01 0. -1.
       -5    1    3    3    0  502  0.73097200150E+03  0.10554625721E+04  0.17406339499E+03  0.12956239669E+04  0.46999998093E+01 0.  1.
</event>
<event>
 5   0  0.1243055E-06  0.2808375E+04  0.7818609E-02  0.8300673E-01
        1   -1    0    0  501    0  0.00000000000E+00  0.00000000000E+00  0.12637126917E+04  0.12637126917E+04  0.50400001928E-02 0. -1.
       -1   -1    0    0    0  501  0.00000000000E+00  0.00000000000E+00 -0.15602773564E+04  0.15602773564E+04  0.50400001928E-02 0.  1.
    10030    2    1    2    0    0  0.00000000000E+00  0.00000000000E+00 -0.29656466469E+03  0.28239900481E+04  0.28083748310E+04 0.  0.
        5    1    3    3  502    0  0.26783971876E+03  0.78005401618E+03  0.99447740154E+03  0.12919867551E+04  0.46999998093E+01 0. -1.
       -5    1    3    3    0  502 -0.26783971876E+03 -0.78005401618E+03 -0.12910420662E+04  0.15320032930E+04  0.46999998093E+01 0.  1.
</event>
<event>
 5   0  0.1235252E-06  0.2803224E+04  0.7818609E-02  0.8302268E-01
        1   -1    0    0  501    0  0.00000000000E+00  0.00000000000E+00  0.87855399167E+03  0.87855399168E+03  0.50400001928E-02 0.  1.
       -1   -1    0    0    0  501  0.00000000000E+00  0.00000000000E+00 -0.22360789764E+04  0.22360789764E+04  0.50400001928E-02 0. -1.
    10030    2    1    2    0    0  0.00000000000E+00  0.00000000000E+00 -0.13575249847E+04  0.31146329681E+04  0.28032239371E+04 0.  0.
        1    1    3    3  502    0 -0.12405723432E+04 -0.58858083587E+03 -0.99119205996E+03  0.16934901354E+04  0.50400001928E-02 0. -1.
       -1    1    3    3    0  502  0.12405723432E+04  0.58858083587E+03 -0.36633292477E+03  0.14211428327E+04  0.50400001928E-02 0.  1.
</event>
<event>
 5   0  0.3212679E-06  0.2798337E+04  0.7818609E-02  0.8303785E-01
       -2   -1    0    0    0  501  0.00000000000E+00  0.00000000000E+00  0.12476436834E+04  0.12476436834E+04  0.25500000920E-02 0.  1.
        2   -1    0    0  501    0  0.00000000000E+00  0.00000000000E+00 -0.15690957281E+04  0.15690957281E+04  0.25500000920E-02 0. -1.
    10030    2    1    2    0    0  0.00000000000E+00  0.00000000000E+00 -0.32145204465E+03  0.28167394115E+04  0.27983369160E+04 0.  0.
        4    1    3    3  502    0  0.71718705920E+02  0.50037955327E+03 -0.14739695320E+04  0.15582397326E+04  0.12699999809E+01 0. -1.
       -4    1    3    3    0  502 -0.71718705920E+02 -0.50037955327E+03  0.11525174874E+04  0.12584996789E+04  0.12699999809E+01 0.  1.
</event>
<event>
 5   0  0.1235252E-06  0.2800816E+04  0.7818609E-02  0.8303015E-01
       -1   -1    0    0    0  501  0.00000000000E+00  0.00000000000E+00  0.16341922431E+04  0.16341922431E+04  0.50400001928E-02 0.  1.
        1   -1    0    0  501    0  0.00000000000E+00  0.00000000000E+00 -0.12000681496E+04  0.12000681496E+04  0.50400001928E-02 0. -1.
    10030    2    1    2    0    0  0.00000000000E+00  0.00000000000E+00  0.43412409344E+03  0.28342603927E+04  0.28008156393E+04 0.  0.
        1    1    3    3  502    0  0.43791320921E+03 -0.98505983484E+03  0.11216214548E+04  0.15556816978E+04  0.50400001928E-02 0.  1.
       -1    1    3    3    0  502 -0.43791320921E+03  0.98505983484E+03 -0.68749736140E+03  0.12785786949E+04  0.50400001928E-02 0. -1.
</event>
<event>
 5   0  0.3212679E-06  0.2800626E+04  0.7818609E-02  0.8303074E-01
       -2   -1    0    0    0  501  0.00000000000E+00  0.00000000000E+00  0.10434143661E+04  0.10434143661E+04  0.25500000920E-02 0.  1.
        2   -1    0    0  501    0  0.00000000000E+00  0.00000000000E+00 -0.18792883612E+04  0.18792883612E+04  0.25500000920E-02 0. -1.
    10030    2    1    2    0    0  0.00000000000E+00  0.00000000000E+00 -0.83587399505E+03  0.29227027273E+04  0.28006259830E+04 0.  0.
        4    1    3    3  502    0 -0.11450986128E+04  0.36551836583E+03 -0.11675945949E+04  0.16757485670E+04  0.12699999809E+01 0. -1.
       -4    1    3    3    0  502  0.11450986128E+04 -0.36551836583E+03  0.33172059984E+03  0.12469541604E+04  0.12699999809E+01 0.  1.
</event>
<event>
 5   0  0.3162695E-06  0.2783480E+04  0.7818609E-02  0.8308415E-01
       -2   -1    0    0    0  501  0.00000000000E+00  0.00000000000E+00  0.10430380285E+04  0.10430380285E+04  0.25500000920E-02 0. -1.
        2   -1    0    0  501    0  0.00000000000E+00  0.00000000000E+00 -0.18570182428E+04  0.18570182428E+04  0.25500000920E-02 0.  1.
    10030    2    1    2    0    0  0.00000000000E+00  0.00000000000E+00 -0.81398021428E+03  0.29000562713E+04  0.27834803012E+04 0.  0.
        1    1    3    3  502    0 -0.13389603570E+04  0.32516907752E+03 -0.20284813418E+03  0.13927301002E+04  0.50400001928E-02 0.  1.
       -1    1    3    3    0  502  0.13389603570E+04 -0.32516907752E+03 -0.61113208009E+03  0.15073261710E+04  0.50400001928E-02 0. -1.
</event>
<event>
 5   0  0.1246044E-06  0.2803206E+04  0.7818609E-02  0.8302274E-01
       -1   -1    0    0    0  501  0.00000000000E+00  0.00000000000E+00  0.12682492326E+04  0.12682492326E+04  0.50400001928E-02 0.  1.
        1   -1    0    0  501    0  0.00000000000E+00  0.00000000000E+00 -0.15489788730E+04  0.15489788730E+04  0.50400001928E-02 0. -1.
    10030    2    1    2    0    0  0.00000000000E+00  0.00000000000E+00 -0.28072964038E+03  0.28172281056E+04  0.28032062122E+04 0.  0.
        2    1    3    3  502    0  0.23770652151E+03 -0.59696365539E+03 -0.13922365374E+04  0.15333598965E+04  0.25500000920E-02 0. -1.
       -2    1    3    3    0  502 -0.23770652151E+03  0.59696365539E+03  0.11115068970E+04  0.12838682091E+04  0.25500000920E-02 0.  1.
</event>
<event>
 5   0  0.1235252E-06  0.2778877E+04  0.7818609E-02  0.8309856E-01
        1   -1    0    0  501    0  0.00000000000E+00  0.00000000000E+00  0.18947869784E+04  0.18947869784E+04  0.50400001928E-02 0.  1.
       -1   -1    0    0    0  501  0.00000000000E+00  0.00000000000E+00 -0.10188685260E+04  0.10188685260E+04  0.50400001928E-02 0. -1.
    10030    2    1    2    0    0  0.00000000000E+00  0.00000000000E+00  0.87591845240E+03  0.29136555045E+04  0.27788766190E+04 0.  0.
        1    1    3    3  502    0 -0.46768623255E+03 -0.13075632689E+04  0.48585521185E+03  0.14712264955E+04  0.50400001928E-02 0.  1.
       -1    1    3    3    0  502  0.46768623255E+03  0.13075632689E+04  0.39006324055E+03  0.14424290090E+04  0.50400001928E-02 0. -1.
</event>
<event>
 5   0  0.3212679E-06  0.2806816E+04  0.7818609E-02  0.8301155E-01
        2   -1    0    0  501    0  0.00000000000E+00  0.00000000000E+00  0.16418139623E+04  0.16418139623E+04  0.25500000920E-02 0. -1.
       -2   -1    0    0    0  501  0.00000000000E+00  0.00000000000E+00 -0.11996210967E+04  0.11996210967E+04  0.25500000920E-02 0.  1.
    10030    2    1    2    0    0  0.00000000000E+00  0.00000000000E+00  0.44219286556E+03  0.28414350590E+04  0.28068164643E+04 0.  0.
        4    1    3    3  502    0  0.54233432960E+03  0.40271540150E+03  0.14664096750E+04  0.16145170075E+04  0.12699999809E+01 0. -1.
       -4    1    3    3    0  502 -0.54233432960E+03 -0.40271540150E+03 -0.10242168094E+04  0.12269180516E+04  0.12699999809E+01 0.  1.
</event>
<event>
 5   0  0.1220265E-06  0.2793198E+04  0.7818609E-02  0.8305383E-01
       -1   -1    0    0    0  501  0.00000000000E+00  0.00000000000E+00  0.11520163087E+04  0.11520163087E+04  0.50400001928E-02 0. -1.
        1   -1    0    0  501    0  0.00000000000E+00  0.00000000000E+00 -0.16931089490E+04  0.16931089490E+04  0.50400001928E-02 0.  1.
    10030    2    1    2    0    0  0.00000000000E+00  0.00000000000E+00 -0.54109264032E+03  0.28451252578E+04  0.27931982542E+04 0.  0.
        4    1    3    3  502    0  0.11741900877E+04 -0.63659418945E+03  0.14509975308E+03  0.13435140771E+04  0.12699999809E+01 0. -1.
       -4    1    3    3    0  502 -0.11741900877E+04  0.63659418945E+03 -0.68619239340E+03  0.15016111807E+04  0.12699999809E+01 0.  1.
</event>
<event>
 5   0  0.3212679E-06  0.2795491E+04  0.7818609E-02  0.8304670E-01
       -2   -1    0    0    0  501  0.00000000000E+00  0.00000000000E+00  0.11311438956E+04  0.11311438956E+04  0.25500000920E-02 0. -1.
        2   -1    0    0  501    0  0.00000000000E+00  0.00000000000E+00 -0.17271829166E+04  0.17271829166E+04  0.25500000920E-02 0.  1.
    10030    2    1    2    0    0  0.00000000000E+00  0.00000000000E+00 -0.59603902096E+03  0.28583268122E+04  0.27954909499E+04 0.  0.
        4    1    3    3  502    0  0.10961192185E+04 -0.49881771820E+03  0.42743127929E+03  0.12778871501E+04  0.12699999809E+01 0. -1.
       -4    1    3    3    0  502 -0.10961192185E+04  0.49881771820E+03 -0.10234703003E+04  0.15804396621E+04  0.12699999809E+01 0.  1.
</event>
<event>
 5   0  0.1246044E-06  0.2796172E+04  0.7818609E-02  0.8304458E-01
        1   -1    0    0  501    0  0.00000000000E+00  0.00000000000E+00  0.18287071701E+04  0.18287071701E+04  0.50400001928E-02 0.  1.
       -1   -1    0    0    0  501  0.00000000000E+00  0.00000000000E+00 -0.10688670035E+04  0.10688670035E+04  0.50400001928E-02 0. -1.
    10030    2    1    2    0    0  0.00000000000E+00  0.00000000000E+00  0.75984016667E+03  0.28975741736E+04  0.27961722073E+04 0.  0.
        2    1    3    3  502    0 -0.85996765787E+03  0.96826920883E+03 -0.16602036084E+03  0.13056233736E+04  0.25500000920E-02 0.  1.
       -2    1    3    3    0  502  0.85996765787E+03 -0.96826920883E+03  0.92586052751E+03  0.15919508000E+04  0.25500000920E-02 0. -1.
</event>
<event>
 5   0  0.3162695E-06  0.2803549E+04  0.7818609E-02  0.8302167E-01
       -2   -1    0    0    0  501  0.00000000000E+00  0.00000000000E+00  0.75823463735E+03  0.75823463736E+03  0.25500000920E-02 0.  1.
        2   -1    0    0  501    0  0.00000000000E+00  0.00000000000E+00 -0.25915095340E+04  0.25915095340E+04  0.25500000920E-02 0. -1.
    10030    2    1    2    0    0  0.00000000000E+00  0.00000000000E+00 -0.18332748966E+04  0.33497441713E+04  0.28035493873E+04 0.  0.
        1    1    3    3  502    0 -0.12986300496E+04 -0.51937059641E+03 -0.80463935375E+03  0.16135768689E+04  0.50400001928E-02 0.  1.
       -1    1    3    3    0  502  0.12986300496E+04  0.51937059641E+03 -0.10286355429E+04  0.17361673025E+04  0.50400001928E-02 0. -1.
</event>
<event>
 5   0  0.1263513E-06  0.2795410E+04  0.7818609E-02  0.8304695E-01
        1   -1    0    0  501    0  0.00000000000E+00  0.00000000000E+00  0.13581196936E+04  0.13581196936E+04  0.50400001928E-02 0.  1.
       -1   -1    0    0    0  501  0.00000000000E+00  0.00000000000E+00 -0.14384437023E+04  0.14384437023E+04  0.50400001928E-02 0. -1.
    10030    2    1    2    0    0  0.00000000000E+00  0.00000000000E+00 -0.80324008637E+02  0.27965633959E+04  0.27954096088E+04 0.  0.
        3    1    3    3  502    0  0.10693882273E+03 -0.13082251037E+04 -0.52066210531E+03  0.14120828134E+04  0.10100000352E+00 0. -1.
       -3    1    3    3    0  502 -0.10693882273E+03  0.13082251037E+04  0.44033809667E+03  0.13844805825E+04  0.10100000352E+00 0.  1.
</event>
<event>
 5   0  0.1235252E-06  0.2813495E+04  0.7818609E-02  0.8299091E-01
        1   -1    0    0  501    0  0.00000000000E+00  0.00000000000E+00  0.11219959401E+04  0.11219959401E+04  0.50400001928E-02 0.  1.
       -1   -1    0    0    0  501  0.00000000000E+00  0.00000000000E+00 -0.17637660523E+04  0.17637660523E+04  0.50400001928E-02 0. -1.
    10030    2    1    2    0    0  0.00000000000E+00  0.00000000000E+00 -0.64177011221E+03  0.28857619924E+04  0.28134948729E+04 0.  0.
        1    1    3    3  502    0  0.66566733136E+03 -0.15669493886E+03  0.94002963939E+03  0.11624637727E+04  0.50400001928E-02 0.  1.
       -1    1    3    3    0  502 -0.66566733136E+03  0.15669493886E+03 -0.15817997516E+04  0.17232982197E+04  0.50400001928E-02 0. -1.
</event>
<event>
 5   0  0.1263513E-06  0.2767731E+04  0.7818609E-02  0.8313357E-01
        1   -1    0    0  501    0  0.00000000000E+00  0.00000000000E+00  0.17144632935E+04  0.17144632935E+04  0.50400001928E-02 0.  1.
       -1   -1    0    0    0  501  0.00000000000E+00  0.00000000000E+00 -0.11170167473E+04  0.11170167473E+04  0.50400001928E-02 0. -1.
    10030    2    1    2    0    0  0.00000000000E+00  0.00000000000E+00  0.59744654623E+03  0.28314800408E+04  0.27677313536E+04 0.  0.
        3    1    3    3  502    0  0.11215128946E+04  0.76826786353E+03  0.56364239673E+03  0.14716383538E+04  0.10100000352E+00 0.  1.
       -3    1    3    3    0  502 -0.11215128946E+04 -0.76826786353E+03  0.33804149496E+02  0.13598416870E+04  0.10100000352E+00 0. -1.
</event>
<event>
 5   0  0.3167616E-06  0.2733262E+04  0.7818609E-02  0.8324293E-01
       -2   -1    0    0    0  501  0.00000000000E+00  0.00000000000E+00  0.11338431508E+04  0.11338431508E+04  0.25500000920E-02 0.  1.
        2   -1    0    0  501    0  0.00000000000E+00  0.00000000000E+00 -0.16472124584E+04  0.16472124584E+04  0.25500000920E-02 0. -1.
    10030    2    1    2    0    0  0.00000000000E+00  0.00000000000E+00 -0.51336930757E+03  0.27810556092E+04  0.27332622003E+04 0.  0.
        3    1    3    3  502    0  0.75611585476E+03  0.10327693479E+03 -0.14102207243E+04  0.16034649396E+04  0.10100000352E+00 0. -1.
       -3    1    3    3    0  502 -0.75611585476E+03 -0.10327693479E+03  0.89685141676E+03  0.11775906696E+04  0.10100000352E+00 0.  1.
</event>
<event>
 5   0  0.3345919E-06  0.2804932E+04  0.7818609E-02  0.8301739E-01
       -2   -1    0    0    0  501  0.00000000000E+00  0.00000000000E+00  0.14128943498E+04  0.14128943498E+04  0.25500000920E-02 0.  1.
        2   -1    0    0  501    0  0.00000000000E+00  0.00000000000E+00 -0.13921143073E+04  0.13921143073E+04  0.25500000920E-02 0. -1.
    10030    2    1    2    0    0  0.00000000000E+00  0.00000000000E+00  0.20780042423E+02  0.28050086571E+04  0.28049316848E+04 0.  0.
        2    1    3    3  502    0  0.11583235494E+04  0.82933698188E+02  0.79674422372E+03  0.14083297914E+04  0.25500000920E-02 0.  1.
       -2    1    3    3    0  502 -0.11583235494E+04 -0.82933698188E+02 -0.77596418130E+03  0.13966788657E+04  0.25500000920E-02 0. -1.
</event>
<event>
 5   0  0.1220265E-06  0.2791868E+04  0.7818609E-02  0.8305797E-01
       -1   -1    0    0    0  501  0.00000000000E+00  0.00000000000E+00  0.11176634955E+04  0.11176634956E+04  0.50400001928E-02 0.  1.
        1   -1    0    0  501    0  0.00000000000E+00  0.00000000000E+00 -0.17434870718E+04  0.17434870718E+04  0.50400001928E-02 0. -1.
    10030    2    1    2    0    0  0.00000000000E+00  0.00000000000E+00 -0.62582357624E+03  0.28611505674E+04  0.27918680879E+04 0.  0.
        4    1    3    3  502    0 -0.28271276969E+03  0.19680385643E+03  0.10734227330E+04  0.11273403411E+04  0.12699999809E+01 0.  1.
       -4    1    3    3    0  502  0.28271276969E+03 -0.19680385643E+03 -0.16992463093E+04  0.17338102262E+04  0.12699999809E+01 0. -1.
</event>
<event>
 5   0  0.3162695E-06  0.2825479E+04  0.7818609E-02  0.8295401E-01
        2   -1    0    0  501    0  0.00000000000E+00  0.00000000000E+00  0.14611581787E+04  0.14611581787E+04  0.25500000920E-02 0. -1.
       -2   -1    0    0    0  501  0.00000000000E+00  0.00000000000E+00 -0.13659257588E+04  0.13659257588E+04  0.25500000920E-02 0.  1.
    10030    2    1    2    0    0  0.00000000000E+00  0.00000000000E+00  0.95232419894E+02  0.28270839375E+04  0.28254794949E+04 0.  0.
        1    1    3    3  502    0 -0.34707975470E+03 -0.92248518581E+03 -0.96508021344E+03  0.13794285384E+04  0.50400001928E-02 0.  1.
       -1    1    3    3    0  502  0.34707975470E+03  0.92248518581E+03  0.10603126333E+04  0.14476553991E+04  0.50400001928E-02 0. -1.
</event>
<event>
 5   0  0.3226364E-06  0.2807305E+04  0.7818609E-02  0.8301004E-01
       -2   -1    0    0    0  501  0.00000000000E+00  0.00000000000E+00  0.16750473899E+04  0.16750473899E+04  0.25500000920E-02 0. -1.
        2   -1    0    0  501    0  0.00000000000E+00  0.00000000000E+00 -0.11762296597E+04  0.11762296597E+04  0.25500000920E-02 0.  1.
    10030    2    1    2    0    0  0.00000000000E+00  0.00000000000E+00  0.49881773020E+03  0.28512770497E+04  0.28073050575E+04 0.  0.
        5    1    3    3  502    0  0.87546879575E+03  0.48834119504E+03 -0.74847493631E+03  0.12510633699E+04  0.46999998093E+01 0.  1.
       -5    1    3    3    0  502 -0.87546879575E+03 -0.48834119504E+03  0.12472926665E+04  0.16002136798E+04  0.46999998093E+01 0. -1.
</event>
<event>
 5   0  0.1220265E-06  0.2717859E+04  0.7818609E-02  0.8329233E-01
       -1   -1    0    0    0  501  0.00000000000E+00  0.00000000000E+00  0.60839255767E+03  0.60839255769E+03  0.50400001928E-02 0.  1.
        1   -1    0    0  501    0  0.00000000000E+00  0.00000000000E+00 -0.30353587063E+04  0.30353587063E+04  0.50400001928E-02 0. -1.
    10030    2    1    2    0    0  0.00000000000E+00  0.00000000000E+00 -0.24269661487E+04  0.36437512640E+04  0.27178591920E+04 0.  0.
        4    1    3    3  502    0 -0.26804431071E+03  0.11096882749E+04 -0.22517018464E+03  0.11635974583E+04  0.12699999809E+01 0.  1.
       -4    1    3    3    0  502  0.26804431071E+03 -0.11096882749E+04 -0.22017959640E+04  0.24801538057E+04  0.12699999809E+01 0. -1.
</event>
<event>
 5   0  0.3162695E-06  0.2817484E+04  0.7818609E-02  0.8297861E-01
       -2   -1    0    0    0  501  0.00000000000E+00  0.00000000000E+00  0.14071382797E+04  0.14071382797E+04  0.25500000920E-02 0.  1.
        2   -1    0    0  501    0  0.00000000000E+00  0.00000000000E+00 -0.14103475582E+04  0.14103475582E+04  0.25500000920E-02 0. -1.
    10030    2    1    2    0    0  0.00000000000E+00  0.00000000000E+00 -0.32092784280E+01  0.28174858379E+04  0.28174840101E+04 0.  0.
        1    1    3    3  502    0  0.12903576788E+04 -0.37977066216E+03 -0.42029971805E+03  0.14092198367E+04  0.50400001928E-02 0.  1.
       -1    1    3    3    0  502 -0.12903576788E+04  0.37977066216E+03  0.41709043962E+03  0.14082660012E+04  0.50400001928E-02 0. -1.
</event>
<event>
 5   0  0.1235252E-06  0.2800180E+04  0.7818609E-02  0.8303212E-01
       -1   -1    0    0    0  501  0.00000000000E+00  0.00000000000E+00  0.18140103708E+04  0.18140103708E+04  0.50400001928E-02 0.  1.
        1   -1    0    0  501    0  0.00000000000E+00  0.00000000000E+00 -0.10806179546E+04  0.10806179547E+04  0.50400001928E-02 0. -1.
    10030    2    1    2    0    0  0.00000000000E+00  0.00000000000E+00  0.73339241616E+03  0.28946283255E+04  0.28001801204E+04 0.  0.
        1    1    3    3  502    0 -0.49576044775E+03  0.78018980489E+03 -0.72033181011E+03  0.11719012202E+04  0.50400001928E-02 0. -1.
       -1    1    3    3    0  502  0.49576044775E+03 -0.78018980489E+03  0.14537242263E+04  0.17227271053E+04  0.50400001928E-02 0.  1.
</event>
<event>
 5   0  0.3162695E-06  0.2813983E+04  0.7818609E-02  0.8298940E-01
       -2   -1    0    0    0  501  0.00000000000E+00  0.00000000000E+00  0.96153353173E+03  0.96153353174E+03  0.25500000920E-02 0. -1.
        2   -1    0    0  501    0  0.00000000000E+00  0.00000000000E+00 -0.20588209639E+04  0.20588209639E+04  0.25500000920E-02 0.  1.
    10030    2    1    2    0    0  0.00000000000E+00  0.00000000000E+00 -0.10972874322E+04  0.30203544957E+04  0.28139832215E+04 0.  0.
        1    1    3    3  502    0 -0.13279317672E+04 -0.12081235210E+03 -0.10306034414E+04  0.16852720422E+04  0.50400001928E-02 0. -1.
       -1    1    3    3    0  502  0.13279317672E+04  0.12081235210E+03 -0.66683990811E+02  0.13350824535E+04  0.50400001928E-02 0.  1.
</event>
<event>
 5   0  0.1220265E-06  0.2803233E+04  0.7818609E-02  0.8302265E-01
        1   -1    0    0  501    0  0.00000000000E+00  0.00000000000E+00  0.17536709105E+04  0.17536709105E+04  0.50400001928E-02 0.  1.
       -1   -1    0    0    0  501  0.00000000000E+00  0.00000000000E+00 -0.11202377166E+04  0.11202377166E+04  0.50400001928E-02 0. -1.
    10030    2    1    2    0    0  0.00000000000E+00  0.00000000000E+00  0.63343319387E+03  0.28739086271E+04  0.28032326314E+04 0.  0.
        4    1    3    3  502    0 -0.11802983481E+04 -0.66446465402E+03 -0.52799871052E+02  0.13555098326E+04  0.12699999809E+01 0. -1.
       -4    1    3    3    0  502  0.11802983481E+04  0.66446465402E+03  0.68623306492E+03  0.15183987945E+04  0.12699999809E+01 0.  1.
</event>
<event>
 5   0  0.3345919E-06  0.2912468E+04  0.7818609E-02  0.8269178E-01
       -2   -1    0    0    0  501  0.00000000000E+00  0.00000000000E+00  0.74916728092E+03  0.74916728092E+03  0.25500000920E-02 0. -1.
        2   -1    0    0  501    0  0.00000000000E+00  0.00000000000E+00 -0.28306319711E+04  0.28306319711E+04  0.25500000920E-02 0.  1.
    10030    2    1    2    0    0  0.00000000000E+00  0.00000000000E+00 -0.20814646902E+04  0.35797992520E+04  0.29124675841E+04 0.  0.
        2    1    3    3  502    0  0.83520269179E+03  0.11495939346E+04 -0.14322965713E+04  0.20175735969E+04  0.25500000920E-02 0.  1.
       -2    1    3    3    0  502 -0.83520269179E+03 -0.11495939346E+04 -0.64916811893E+03  0.15622256551E+04  0.25500000920E-02 0. -1.
</event>
<event>
 5   0  0.3345919E-06  0.2793574E+04  0.7818609E-02  0.8305266E-01
        2   -1    0    0  501    0  0.00000000000E+00  0.00000000000E+00  0.14973754328E+04  0.14973754328E+04  0.25500000920E-02 0.  1.
       -2   -1    0    0    0  501  0.00000000000E+00  0.00000000000E+00 -0.13029561816E+04  0.13029561816E+04  0.25500000920E-02 0. -1.
    10030    2    1    2    0    0  0.00000000000E+00  0.00000000000E+00  0.19441925121E+03  0.28003316144E+04  0.27935744675E+04 0.  0.
        2    1    3    3  502    0  0.23358311798E+03 -0.10399026382E+04  0.10021978678E+04  0.14629966289E+04  0.25500000920E-02 0.  1.
       -2    1    3    3    0  502 -0.23358311798E+03  0.10399026382E+04 -0.80777861661E+03  0.13373349855E+04  0.25500000920E-02 0. -1.
</event>
<event>
 5   0  0.1220265E-06  0.2818099E+04  0.7818609E-02  0.8297671E-01
       -1   -1    0    0    0  501  0.00000000000E+00  0.00000000000E+00  0.86527833341E+03  0.86527833342E+03  0.50400001928E-02 0. -1.
        1   -1    0    0  501    0  0.00000000000E+00  0.00000000000E+00 -0.22945446766E+04  0.22945446766E+04  0.50400001928E-02 0.  1.
    10030    2    1    2    0    0  0.00000000000E+00  0.00000000000E+00 -0.14292663432E+04  0.31598230100E+04  0.28180985034E+04 0.  0.
        4    1    3    3  502    0 -0.53957204728E+03 -0.66595033376E+03  0.53937061296E+03  0.10126944812E+04  0.12699999809E+01 0. -1.
       -4    1    3    3    0  502  0.53957204728E+03  0.66595033376E+03 -0.19686369562E+04  0.21471285288E+04  0.12699999809E+01 0.  1.
</event>
<event>
 5   0  0.1243055E-06  0.2801931E+04  0.7818609E-02  0.8302669E-01
        1   -1    0    0  501    0  0.00000000000E+00  0.00000000000E+00  0.22290423014E+04  0.22290423014E+04  0.50400001928E-02 0.  1.
       -1   -1    0    0    0  501  0.00000000000E+00  0.00000000000E+00 -0.88051435038E+03  0.88051435039E+03  0.50400001928E-02 0. -1.
    10030    2    1    2    0    0  0.00000000000E+00  0.00000000000E+00  0.13485279510E+04  0.31095566518E+04  0.28019305730E+04 0.  0.
        5    1    3    3  502    0  0.27684861372E+03 -0.90287408354E+03 -0.47417100727E+03  0.10567341197E+04  0.46999998093E+01 0. -1.
       -5    1    3    3    0  502 -0.27684861372E+03  0.90287408354E+03  0.18226989583E+04  0.20528225321E+04  0.46999998093E+01 0.  1.
</event>
<event>
 5   0  0.1246044E-06  0.2790643E+04  0.7818609E-02  0.8306179E-01
        1   -1    0    0  501    0  0.00000000000E+00  0.00000000000E+00  0.21505525580E+04  0.21505525580E+04  0.50400001928E-02 0.  1.
       -1   -1    0    0    0  501  0.00000000000E+00  0.00000000000E+00 -0.90531235189E+03  0.90531235190E+03  0.50400001928E-02 0. -1.
    10030    2    1    2    0    0  0.00000000000E+00  0.00000000000E+00  0.12452402061E+04  0.30558649099E+04  0.27906427891E+04 0.  0.
        2    1    3    3  502    0 -0.22453147783E+03  0.13519988167E+03 -0.87811521837E+03  0.91639496358E+03  0.25500000920E-02 0. -1.
       -2    1    3    3    0  502  0.22453147783E+03 -0.13519988167E+03  0.21233554245E+04  0.21394699463E+04  0.25500000920E-02 0.  1.
</event>
<event>
 5   0  0.3167616E-06  0.2765362E+04  0.7818609E-02  0.8314103E-01
       -2   -1    0    0    0  501  0.00000000000E+00  0.00000000000E+00  0.13508559142E+04  0.13508559142E+04  0.25500000920E-02 0.  1.
        2   -1    0    0  501    0  0.00000000000E+00  0.00000000000E+00 -0.14152558644E+04  0.14152558644E+04  0.25500000920E-02 0. -1.
    10030    2    1    2    0    0  0.00000000000E+00  0.00000000000E+00 -0.64399950180E+02  0.27661117786E+04  0.27653620049E+04 0.  0.
        3    1    3    3  502    0  0.13260539571E+04  0.34211632672E+03  0.15849291087E+03  0.13786162233E+04  0.10100000352E+00 0. -1.
       -3    1    3    3    0  502 -0.13260539571E+04 -0.34211632672E+03 -0.22289286105E+03  0.13874955553E+04  0.10100000352E+00 0.  1.
</event>
<event>
 5   0  0.1246044E-06  0.2793499E+04  0.7818609E-02  0.8305289E-01
        1   -1    0    0  501    0  0.00000000000E+00  0.00000000000E+00  0.13407099967E+04  0.13407099967E+04  0.50400001928E-02 0. -1.
       -1   -1    0    0    0  501  0.00000000000E+00  0.00000000000E+00 -0.14551315231E+04  0.14551315231E+04  0.50400001928E-02 0.  1.
    10030    2    1    2    0    0  0.00000000000E+00  0.00000000000E+00 -0.11442152641E+03  0.27958415198E+04  0.27934991531E+04 0.  0.
        2    1    3    3  502    0  0.95553626004E+03  0.34025560303E+03 -0.10182690122E+04  0.14372526573E+04  0.25500000920E-02 0.  1.
       -2    1    3    3    0  502 -0.95553626004E+03 -0.34025560303E+03  0.90384748583E+03  0.13585888625E+04  0.25500000920E-02 0. -1.
</event>
<event>
 5   0  0.1235252E-06  0.2793971E+04  0.7818609E-02  0.8305143E-01
       -1   -1    0    0    0  501  0.00000000000E+00  0.00000000000E+00  0.11594623121E+04  0.11594623121E+04  0.50400001928E-02 0. -1.
        1   -1    0    0  501    0  0.00000000000E+00  0.00000000000E+00 -0.16831667712E+04  0.16831667712E+04  0.50400001928E-02 0.  1.
    10030    2    1    2    0    0  0.00000000000E+00  0.00000000000E+00 -0.52370445909E+03  0.28426290832E+04  0.27939709634E+04 0.  0.
        1    1    3    3  502    0 -0.18168458733E+03  0.45091371748E+03 -0.15943308331E+04  0.16668003106E+04  0.50400001928E-02 0.  1.
       -1    1    3    3    0  502  0.18168458733E+03 -0.45091371748E+03  0.10706263740E+04  0.11758287727E+04  0.50400001928E-02 0. -1.
</event>
<event>
 5   0  0.3162695E-06  0.2794029E+04  0.7818609E-02  0.8305124E-01
        2   -1    0    0  501    0  0.00000000000E+00  0.00000000000E+00  0.11029683562E+04  0.11029683562E+04  0.25500000920E-02 0. -1.
       -2   -1    0    0    0  501  0.00000000000E+00  0.00000000000E+00 -0.17694521985E+04  0.17694521985E+04  0.25500000920E-02 0.  1.
    10030    2    1    2    0    0  0.00000000000E+00  0.00000000000E+00 -0.66648384229E+03  0.28724205547E+04  0.27940291929E+04 0.  0.
        1    1    3    3  502    0 -0.56538286274E+03  0.18456793927E+03  0.96631560883E+03  0.11346757077E+04  0.50400001928E-02 0. -1.
       -1    1    3    3    0  502  0.56538286274E+03 -0.18456793927E+03 -0.16327994511E+04  0.17377448470E+04  0.50400001928E-02 0.  1.
</event>
<event>
 5   0  0.1065675E-06  0.2800599E+04  0.7818609E-02  0.8303082E-01
        3   -1    0    0  501    0  0.00000000000E+00  0.00000000000E+00  0.15162312422E+04  0.15162312456E+04  0.10100000352E+00 0. -1.
       -3   -1    0    0    0  501  0.00000000000E+00  0.00000000000E+00 -0.12932322309E+04  0.12932322348E+04  0.10100000352E+00 0.  1.
    10030    2    1    2    0    0  0.00000000000E+00  0.00000000000E+00  0.22299901133E+03  0.28094634804E+04  0.28005993088E+04 0.  0.
        1    1    3    3  502    0  0.69811893752E+03  0.23439428468E+03 -0.10832900842E+04  0.13098962318E+04  0.50400001928E-02 0.  1.
       -1    1    3    3    0  502 -0.69811893752E+03 -0.23439428468E+03  0.13062890956E+04  0.14995672485E+04  0.50400001928E-02 0. -1.
</event>
<event>
 5   0  0.1243055E-06  0.2780092E+04  0.7818609E-02  0.8309476E-01
        1   -1    0    0  501    0  0.00000000000E+00  0.00000000000E+00  0.11230836723E+04  0.11230836723E+04  0.50400001928E-02 0.  1.
       -1   -1    0    0    0  501  0.00000000000E+00  0.00000000000E+00 -0.17204666260E+04  0.17204666260E+04  0.50400001928E-02 0. -1.
    10030    2    1    2    0    0  0.00000000000E+00  0.00000000000E+00 -0.59738295374E+03  0.28435502983E+04  0.27800920678E+04 0.  0.
        5    1    3    3  502    0  0.58947278277E+02  0.12583749416E+04  0.30227740045E+03  0.12955215136E+04  0.46999998093E+01 0.  1.
       -5    1    3    3    0  502 -0.58947278277E+02 -0.12583749416E+04 -0.89966035420E+03  0.15480287847E+04  0.46999998093E+01 0. -1.
</event>
<event>
 5   0  0.3345919E-06  0.2808661E+04  0.7818609E-02  0.8300584E-01
       -2   -1    0    0    0  501  0.00000000000E+00  0.00000000000E+00  0.93944352984E+03  0.93944352984E+03  0.25500000920E-02 0. -1.
        2   -1    0    0  501    0  0.00000000000E+00  0.00000000000E+00 -0.20992686113E+04  0.20992686113E+04  0.25500000920E-02 0.  1.
    10030    2    1    2    0    0  0.00000000000E+00  0.00000000000E+00 -0.11598250815E+04  0.30387121412E+04  0.28086611147E+04 0.  0.
        2    1    3    3  502    0 -0.14649540903E+03 -0.77604063424E+03  0.67642614334E+03  0.10398328223E+04  0.25500000920E-02 0. -1.
       -2    1    3    3    0  502  0.14649540903E+03  0.77604063424E+03 -0.18362512248E+04  0.19988793189E+04  0.25500000920E-02 0.  1.
</event>
<event>
 5   0  0.3345919E-06  0.2770142E+04  0.7818609E-02  0.8312598E-01
       -2   -1    0    0    0  501  0.00000000000E+00  0.00000000000E+00  0.12897641473E+04  0.12897641473E+04  0.25500000920E-02 0.  1.
        2   -1    0    0  501    0  0.00000000000E+00  0.00000000000E+00 -0.14874204459E+04  0.14874204459E+04  0.25500000920E-02 0. -1.
    10030    2    1    2    0    0  0.00000000000E+00  0.00000000000E+00 -0.19765629866E+03  0.27771845932E+04  0.27701419192E+04 0.  0.
        2    1    3    3  502    0  0.11513369830E+04 -0.65698275940E+03 -0.50136902676E+03  0.14172417210E+04  0.25500000920E-02 0. -1.
       -2    1    3    3    0  502 -0.11513369830E+04  0.65698275940E+03  0.30371272810E+03  0.13599428723E+04  0.25500000920E-02 0.  1.
</event>
<event>
 5   0  0.1263513E-06  0.2667710E+04  0.7818609E-02  0.8345559E-01
        1   -1    0    0  501    0  0.00000000000E+00  0.00000000000E+00  0.23537531059E+04  0.23537531059E+04  0.50400001928E-02 0. -1.
       -1   -1    0    0    0  501  0.00000000000E+00  0.00000000000E+00 -0.75588605024E+03  0.75588605025E+03  0.50400001928E-02 0.  1.
    10030    2    1    2    0    0  0.00000000000E+00  0.00000000000E+00  0.15978670557E+04  0.31096391561E+04  0.26677099831E+04 0.  0.
        3    1    3    3  502    0  0.57566078178E+03 -0.86378739841E+03  0.17753458071E+04  0.20565424261E+04  0.10100000352E+00 0. -1.
       -3    1    3    3    0  502 -0.57566078178E+03  0.86378739841E+03 -0.17747875150E+03  0.10530967300E+04  0.10100000352E+00 0.  1.
</event>
<event>
 5   0  0.3226364E-06  0.2790785E+04  0.7818609E-02  0.8306135E-01
       -2   -1    0    0    0  501  0.00000000000E+00  0.00000000000E+00  0.10403664177E+04  0.10403664177E+04  0.25500000920E-02 0. -1.
        2   -1    0    0  501    0  0.00000000000E+00  0.00000000000E+00 -0.18715716295E+04  0.18715716295E+04  0.25500000920E-02 0.  1.
    10030    2    1    2    0    0  0.00000000000E+00  0.00000000000E+00 -0.83120521179E+03  0.29119380473E+04  0.27907850306E+04 0.  0.
        5    1    3    3  502    0 -0.86933639228E+03 -0.86208089785E+03 -0.11141190358E+04  0.16553587385E+04  0.46999998093E+01 0.  1.
       -5    1    3    3    0  502  0.86933639228E+03  0.86208089785E+03  0.28291382396E+03  0.12565793087E+04  0.46999998093E+01 0. -1.
</event>
<event>
 5   0  0.1220265E-06  0.2798442E+04  0.7818609E-02  0.8303752E-01
       -1   -1    0    0    0  501  0.00000000000E+00  0.00000000000E+00  0.19167024104E+04  0.19167024105E+04  0.50400001928E-02 0. -1.
        1   -1    0    0  501    0  0.00000000000E+00  0.00000000000E+00 -0.10214519474E+04  0.10214519474E+04  0.50400001928E-02 0.  1.
    10030    2    1    2    0    0  0.00000000000E+00  0.00000000000E+00  0.89525046302E+03  0.29381543579E+04  0.27984420021E+04 0.  0.
        4    1    3    3  502    0 -0.37860739942E+03  0.12930120753E+04  0.51156506435E+02  0.13482738560E+04  0.12699999809E+01 0.  1.
       -4    1    3    3    0  502  0.37860739942E+03 -0.12930120753E+04  0.84409395659E+03  0.15898805019E+04  0.12699999809E+01 0. -1.
</event>
<event>
 5   0  0.3345919E-06  0.2813030E+04  0.7818609E-02  0.8299234E-01
        2   -1    0    0  501    0  0.00000000000E+00  0.00000000000E+00  0.15295631082E+04  0.15295631082E+04  0.25500000920E-02 0. -1.
       -2   -1    0    0    0  501  0.00000000000E+00  0.00000000000E+00 -0.12933661055E+04  0.12933661055E+04  0.25500000920E-02 0.  1.
    10030    2    1    2    0    0  0.00000000000E+00  0.00000000000E+00  0.23619700273E+03  0.28229292137E+04  0.28130304515E+04 0.  0.
        2    1    3    3  502    0  0.59880865371E+03  0.99500059123E+03 -0.67822210257E+03  0.13448357523E+04  0.25500000920E-02 0.  1.
       -2    1    3    3    0  502 -0.59880865371E+03 -0.99500059123E+03  0.91441910530E+03  0.14780934613E+04  0.25500000920E-02 0. -1.
</event>
<event>
 5   0  0.1243055E-06  0.2803977E+04  0.7818609E-02  0.8302035E-01
        1   -1    0    0  501    0  0.00000000000E+00  0.00000000000E+00  0.16485678506E+04  0.16485678506E+04  0.50400001928E-02 0. -1.
       -1   -1    0    0    0  501  0.00000000000E+00  0.00000000000E+00 -0.11922901886E+04  0.11922901886E+04  0.50400001928E-02 0.  1.
    10030    2    1    2    0    0  0.00000000000E+00  0.00000000000E+00  0.45627766202E+03  0.28408580392E+04  0.28039766572E+04 0.  0.
        5    1    3    3  502    0 -0.16796003721E+03  0.11156236674E+04  0.10713857578E+04  0.15558651206E+04  0.46999998093E+01 0. -1.
       -5    1    3    3    0  502  0.16796003721E+03 -0.11156236674E+04 -0.61510809580E+03  0.12849929186E+04  0.46999998093E+01 0.  1.
</event>
<event>
 5   0  0.1065675E-06  0.2800999E+04  0.7818609E-02  0.8302958E-01
       -3   -1    0    0    0  501  0.00000000000E+00  0.00000000000E+00  0.91300640185E+03  0.91300640744E+03  0.10100000352E+00 0. -1.
        3   -1    0    0  501    0  0.00000000000E+00  0.00000000000E+00 -0.21482866959E+04  0.21482866982E+04  0.10100000352E+00 0.  1.
    10030    2    1    2    0    0  0.00000000000E+00  0.00000000000E+00 -0.12352802940E+04  0.30612931057E+04  0.28009994777E+04 0.  0.
        1    1    3    3  502    0  0.13361228025E+04  0.40223624590E+03 -0.74870677663E+03  0.15835340155E+04  0.50400001928E-02 0.  1.
       -1    1    3    3    0  502 -0.13361228025E+04 -0.40223624590E+03 -0.48657351739E+03  0.14777590902E+04  0.50400001928E-02 0. -1.
</event>
<event>
 5   0  0.1246044E-06  0.2795538E+04  0.7818609E-02  0.8304655E-01
        1   -1    0    0  501    0  0.00000000000E+00  0.00000000000E+00  0.12045502944E+04  0.12045502944E+04  0.50400001928E-02 0.  1.
       -1   -1    0    0    0  501  0.00000000000E+00  0.00000000000E+00 -0.16219819182E+04  0.16219819183E+04  0.50400001928E-02 0. -1.
    10030    2    1    2    0    0  0.00000000000E+00  0.00000000000E+00 -0.41743162389E+03  0.28265322126E+04  0.27955384434E+04 0.  0.
        2    1    3    3  502    0 -0.44026672775E+03 -0.12924378818E+04  0.93814367682E+02  0.13685874490E+04  0.25500000920E-02 0. -1.
       -2    1    3    3    0  502  0.44026672775E+03  0.12924378818E+04 -0.51124599157E+03  0.14579447636E+04  0.25500000920E-02 0.  1.
</event>
<event>
 5   0  0.1243055E-06  0.2788864E+04  0.7818609E-02  0.8306734E-01
       -1   -1    0    0    0  501  0.00000000000E+00  0.00000000000E+00  0.14143945884E+04  0.14143945884E+04  0.50400001928E-02 0.  1.
        1   -1    0    0  501    0  0.00000000000E+00  0.00000000000E+00 -0.13747512773E+04  0.13747512773E+04  0.50400001928E-02 0. -1.
    10030    2    1    2    0    0  0.00000000000E+00  0.00000000000E+00  0.39643311052E+02  0.27891458657E+04  0.27888641179E+04 0.  0.
        5    1    3    3  502    0 -0.86275392410E+03 -0.19684849600E+02 -0.10755911715E+04  0.13790033666E+04  0.46999998093E+01 0. -1.
       -5    1    3    3    0  502  0.86275392410E+03  0.19684849600E+02  0.11152344826E+04  0.14101424992E+04  0.46999998093E+01 0.  1.
</event>
<event>
 5   0  0.3345919E-06  0.2813804E+04  0.7818609E-02  0.8298996E-01
        2   -1    0    0  501    0  0.00000000000E+00  0.00000000000E+00  0.17641705577E+04  0.17641705577E+04  0.25500000920E-02 0.  1.
       -2   -1    0    0    0  501  0.00000000000E+00  0.00000000000E+00 -0.11219850454E+04  0.11219850454E+04  0.25500000920E-02 0. -1.
    10030    2    1    2    0    0  0.00000000000E+00  0.00000000000E+00  0.64218551233E+03  0.28861556030E+04  0.28138038192E+04 0.  0.
        2    1    3    3  502    0  0.98953086273E+03  0.89679804494E+03 -0.13295759376E+03  0.13420490987E+04  0.25500000920E-02 0. -1.
       -2    1    3    3    0  502 -0.98953086273E+03 -0.89679804494E+03  0.77514310609E+03  0.15441065043E+04  0.25500000920E-02 0.  1.
</event>
<event>
 5   0  0.3345919E-06  0.2792754E+04  0.7818609E-02  0.8305521E-01
       -2   -1    0    0    0  501  0.00000000000E+00  0.00000000000E+00  0.78780791933E+03  0.78780791933E+03  0.25500000920E-02 0. -1.
        2   -1    0    0  501    0  0.00000000000E+00  0.00000000000E+00 -0.24750560057E+04  0.24750560057E+04  0.25500000920E-02 0.  1.
    10030    2    1    2    0    0  0.00000000000E+00  0.00000000000E+00 -0.16872480864E+04  0.32628639250E+04  0.27927539971E+04 0.  0.
        2    1    3    3  502    0  0.11290202392E+04  0.47449111945E+03 -0.16273999953E+04  0.20367275880E+04  0.25500000920E-02 0.  1.
       -2    1    3    3    0  502 -0.11290202392E+04 -0.47449111945E+03 -0.59848091027E+02  0.12261363370E+04  0.25500000920E-02 0. -1.
</event>
<event>
 5   0  0.1220265E-06  0.2780852E+04  0.7818609E-02  0.8309238E-01
        1   -1    0    0  501    0  0.00000000000E+00  0.00000000000E+00  0.19582544046E+04  0.19582544046E+04  0.50400001928E-02 0.  1.
       -1   -1    0    0    0  501  0.00000000000E+00  0.00000000000E+00 -0.98724890162E+03  0.98724890163E+03  0.50400001928E-02 0. -1.
    10030    2    1    2    0    0  0.00000000000E+00  0.00000000000E+00  0.97100550302E+03  0.29455033063E+04  0.27808520350E+04 0.  0.
        4    1    3    3  502    0  0.88961718845E+03 -0.10217751916E+04  0.81681614782E+03  0.15819714019E+04  0.12699999809E+01 0.  1.
       -4    1    3    3    0  502 -0.88961718845E+03  0.10217751916E+04  0.15418935521E+03  0.13635319044E+04  0.12699999809E+01 0. -1.
</event>
<event>
 5   0  0.3212679E-06  0.2809499E+04  0.7818609E-02  0.8300325E-01
       -2   -1    0    0    0  501  0.00000000000E+00  0.00000000000E+00  0.13859414448E+04  0.13859414448E+04  0.25500000920E-02 0. -1.
        2   -1    0    0  501    0  0.00000000000E+00  0.00000000000E+00 -0.14238124147E+04  0.14238124147E+04  0.25500000920E-02 0.  1.
    10030    2    1    2    0    0  0.00000000000E+00  0.00000000000E+00 -0.37870969962E+02  0.28097538595E+04  0.28094986280E+04 0.  0.
        4    1    3    3  502    0 -0.37121800814E+03 -0.71090593837E+03 -0.11723524278E+04  0.14204231379E+04  0.12699999809E+01 0.  1.
       -4    1    3    3    0  502  0.37121800814E+03  0.71090593837E+03  0.11344814579E+04  0.13893307216E+04  0.12699999809E+01 0. -1.
</event>
<event>
 5   0  0.1065675E-06  0.2787368E+04  0.7818609E-02  0.8307201E-01
       -3   -1    0    0    0  501  0.00000000000E+00  0.00000000000E+00  0.12919414683E+04  0.12919414723E+04  0.10100000352E+00 0.  1.
        3   -1    0    0  501    0  0.00000000000E+00  0.00000000000E+00 -0.15034386645E+04  0.15034386679E+04  0.10100000352E+00 0. -1.
    10030    2    1    2    0    0  0.00000000000E+00  0.00000000000E+00 -0.21149719616E+03  0.27953801402E+04  0.27873677662E+04 0.  0.
        1    1    3    3  502    0 -0.22766220983E+03  0.30250303943E+03  0.12393811789E+04  0.12959181600E+04  0.50400001928E-02 0.  1.
       -1    1    3    3    0  502  0.22766220983E+03 -0.30250303943E+03 -0.14508783751E+04  0.14994619802E+04  0.50400001928E-02 0. -1.
</event>
<event>
 5   0  0.1263513E-06  0.2799770E+04  0.7818609E-02  0.8303340E-01
       -1   -1    0    0    0  501  0.00000000000E+00  0.00000000000E+00  0.81142570045E+03  0.81142570046E+03  0.50400001928E-02 0.  1.
        1   -1    0    0  501    0  0.00000000000E+00  0.00000000000E+00 -0.24151040981E+04  0.24151040981E+04  0.50400001928E-02 0. -1.
    10030    2    1    2    0    0  0.00000000000E+00  0.00000000000E+00 -0.16036783976E+04  0.32265297985E+04  0.27997696580E+04 0.  0.
        3    1    3    3  502    0 -0.16697693241E+03 -0.55997098164E+03 -0.22678370413E+04  0.23419081221E+04  0.10100000352E+00 0. -1.
       -3    1    3    3    0  502  0.16697693241E+03  0.55997098164E+03  0.66415864368E+03  0.88462167644E+03  0.10100000352E+00 0.  1.
</event>
<event>
 5   0  0.3345919E-06  0.2668859E+04  0.7818609E-02  0.8345181E-01
       -2   -1    0    0    0  501  0.00000000000E+00  0.00000000000E+00  0.96434646167E+03  0.96434646167E+03  0.25500000920E-02 0.  1.
        2   -1    0    0  501    0  0.00000000000E+00  0.00000000000E+00 -0.18465372272E+04  0.18465372272E+04  0.25500000920E-02 0. -1.
    10030    2    1    2    0    0  0.00000000000E+00  0.00000000000E+00 -0.88219076556E+03  0.28108836889E+04  0.26688586635E+04 0.  0.
        2    1    3    3  502    0  0.47442419005E+03  0.59984587848E+03  0.71062770553E+03  0.10439756347E+04  0.25500000920E-02 0.  1.
       -2    1    3    3    0  502 -0.47442419005E+03 -0.59984587848E+03 -0.15928184711E+04  0.17669080542E+04  0.25500000920E-02 0. -1.
</event>
<event>
 5   0  0.1235252E-06  0.2802761E+04  0.7818609E-02  0.8302412E-01
        1   -1    0    0  501    0  0.00000000000E+00  0.00000000000E+00  0.25291488282E+04  0.25291488282E+04  0.50400001928E-02 0.  1.
       -1   -1    0    0    0  501  0.00000000000E+00  0.00000000000E+00 -0.77649364442E+03  0.77649364444E+03  0.50400001928E-02 0. -1.
    10030    2    1    2    0    0  0.00000000000E+00  0.00000000000E+00  0.17526551838E+04  0.33056424727E+04  0.28027614889E+04 0.  0.
        1    1    3    3  502    0 -0.59948519117E+03  0.54886996721E+03 -0.47009011833E+03  0.93894912254E+03  0.50400001928E-02 0. -1.
       -1    1    3    3    0  502  0.59948519117E+03 -0.54886996721E+03  0.22227453021E+04  0.23666933501E+04  0.50400001928E-02 0.  1.
</event>
<event>
 5   0  0.3345919E-06  0.2784609E+04  0.7818609E-02  0.8308063E-01
        2   -1    0    0  501    0  0.00000000000E+00  0.00000000000E+00  0.18589166998E+04  0.18589166998E+04  0.25500000920E-02 0. -1.
       -2   -1    0    0    0  501  0.00000000000E+00  0.00000000000E+00 -0.10428179213E+04  0.10428179213E+04  0.25500000920E-02 0.  1.
    10030    2    1    2    0    0  0.00000000000E+00  0.00000000000E+00  0.81609877851E+03  0.29017346212E+04  0.27846088766E+04 0.  0.
        2    1    3    3  502    0  0.17493077381E+03  0.52490016030E+02 -0.10302812178E+04  0.10463438083E+04  0.25500000920E-02 0.  1.
       -2    1    3    3    0  502 -0.17493077381E+03 -0.52490016030E+02  0.18463799963E+04  0.18553908128E+04  0.25500000920E-02 0. -1.
</event>
<event>
 5   0  0.3345919E-06  0.2801155E+04  0.7818609E-02  0.8302910E-01
       -2   -1    0    0    0  501  0.00000000000E+00  0.00000000000E+00  0.12530265303E+04  0.12530265303E+04  0.25500000920E-02 0. -1.
        2   -1    0    0  501    0  0.00000000000E+00  0.00000000000E+00 -0.15655039512E+04  0.15655039512E+04  0.25500000920E-02 0.  1.
    10030    2    1    2    0    0  0.00000000000E+00  0.00000000000E+00 -0.31247742085E+03  0.28185304816E+04  0.28011554646E+04 0.  0.
        2    1    3    3  502    0 -0.88317113569E+03 -0.31367641115E+03  0.89100227849E+03  0.12931624825E+04  0.25500000920E-02 0. -1.
       -2    1    3    3    0  502  0.88317113569E+03  0.31367641115E+03 -0.12034796993E+04  0.15253679991E+04  0.25500000920E-02 0.  1.
</event>
<event>
 5   0  0.1263513E-06  0.2799979E+04  0.7818609E-02  0.8303275E-01
       -1   -1    0    0    0  501  0.00000000000E+00  0.00000000000E+00  0.17557797335E+04  0.17557797335E+04  0.50400001928E-02 0. -1.
        1   -1    0    0  501    0  0.00000000000E+00  0.00000000000E+00 -0.11162960116E+04  0.11162960116E+04  0.50400001928E-02 0.  1.
    10030    2    1    2    0    0  0.00000000000E+00  0.00000000000E+00  0.63948372193E+03  0.28720757451E+04  0.27999785097E+04 0.  0.
        3    1    3    3  502    0  0.12230096510E+04  0.60965541732E+02  0.10158171946E+04  0.15910229372E+04  0.10100000352E+00 0. -1.
       -3    1    3    3    0  502 -0.12230096510E+04 -0.60965541732E+02 -0.37633347268E+03  0.12810528079E+04  0.10100000352E+00 0.  1.
</event>
<event>
 5   0  0.1235252E-06  0.2806565E+04  0.7818609E-02  0.8301233E-01
       -1   -1    0    0    0  501  0.00000000000E+00  0.00000000000E+00  0.68292013441E+03  0.68292013443E+03  0.50400001928E-02 0. -1.
        1   -1    0    0  501    0  0.00000000000E+00  0.00000000000E+00 -0.28835032668E+04  0.28835032668E+04  0.50400001928E-02 0.  1.
    10030    2    1    2    0    0  0.00000000000E+00  0.00000000000E+00 -0.22005831324E+04  0.35664234013E+04  0.28065654730E+04 0.  0.
        1    1    3    3  502    0 -0.93077673475E+03  0.34211402283E+03  0.16140655568E+03  0.10047086199E+04  0.50400001928E-02 0. -1.
       -1    1    3    3    0  502  0.93077673475E+03 -0.34211402283E+03 -0.23619896881E+04  0.25617147814E+04  0.50400001928E-02 0.  1.
</event>
<event>
 5   0  0.1263513E-06  0.2798323E+04  0.7818609E-02  0.8303789E-01
       -1   -1    0    0    0  501  0.00000000000E+00  0.00000000000E+00  0.11529641612E+04  0.11529641612E+04  0.50400001928E-02 0.  1.
        1   -1    0    0  501    0  0.00000000000E+00  0.00000000000E+00 -0.16979299730E+04  0.16979299731E+04  0.50400001928E-02 0. -1.
    10030    2    1    2    0    0  0.00000000000E+00  0.00000000000E+00 -0.54496581182E+03  0.28508941343E+04  0.27983226456E+04 0.  0.
        3    1    3    3  502    0  0.34942314853E+03 -0.13464794379E+04 -0.42546717946E+03  0.14546909446E+04  0.10100000352E+00 0.  1.
       -3    1    3    3    0  502 -0.34942314853E+03  0.13464794379E+04 -0.11949863236E+03  0.13962031896E+04  0.10100000352E+00 0. -1.
</event>
<event>
 5   0  0.1065675E-06  0.2875134E+04  0.7818609E-02  0.8280314E-01
        3   -1    0    0  501    0  0.00000000000E+00  0.00000000000E+00  0.15854386151E+04  0.15854386183E+04  0.10100000352E+00 0.  1.
       -3   -1    0    0    0  501  0.00000000000E+00  0.00000000000E+00 -0.13034874578E+04  0.13034874617E+04  0.10100000352E+00 0. -1.
    10030    2    1    2    0    0  0.00000000000E+00  0.00000000000E+00  0.28195115732E+03  0.28889260800E+04  0.28751343344E+04 0.  0.
        5    1    3    3  502    0 -0.50856726808E+03 -0.13336124906E+04 -0.31353180404E+02  0.14276442320E+04  0.46999998093E+01 0.  1.
       -5    1    3    3    0  502  0.50856726808E+03  0.13336124906E+04  0.31330433773E+03  0.14612818480E+04  0.46999998093E+01 0. -1.
</event>
<event>
 5   0  0.1220265E-06  0.2764032E+04  0.7818609E-02  0.8314523E-01
       -1   -1    0    0    0  501  0.00000000000E+00  0.00000000000E+00  0.10289250096E+04  0.10289250096E+04  0.50400001928E-02 0.  1.
        1   -1    0    0  501    0  0.00000000000E+00  0.00000000000E+00 -0.18562753269E+04  0.18562753269E+04  0.50400001928E-02 0. -1.
    10030    2    1    2    0    0  0.00000000000E+00  0.00000000000E+00 -0.82735031729E+03  0.28852003365E+04  0.27640319163E+04 0.  0.
        4    1    3    3  502    0 -0.87882785361E+03 -0.99442260045E+03 -0.81626612215E+03  0.15580457951E+04  0.12699999809E+01 0. -1.
       -4    1    3    3    0  502  0.87882785361E+03  0.99442260045E+03 -0.11084195141E+02  0.13271545414E+04  0.12699999809E+01 0.  1.
</event>
<event>
 5   0  0.1220265E-06  0.2681223E+04  0.7818609E-02  0.8341123E-01
        1   -1    0    0  501    0  0.00000000000E+00  0.00000000000E+00  0.14690944222E+04  0.14690944223E+04  0.50400001928E-02 0.  1.
       -1   -1    0    0    0  501  0.00000000000E+00  0.00000000000E+00 -0.12233655750E+04  0.12233655751E+04  0.50400001928E-02 0. -1.
    10030    2    1    2    0    0  0.00000000000E+00  0.00000000000E+00  0.24572884720E+03  0.26924599973E+04  0.26812232601E+04 0.  0.
        4    1    3    3  502    0  0.28432235631E+03  0.13098437161E+04  0.96141493323E+02  0.13437911157E+04  0.12699999809E+01 0. -1.
       -4    1    3    3    0  502 -0.28432235631E+03 -0.13098437161E+04  0.14958735388E+03  0.13486688816E+04  0.12699999809E+01 0.  1.
</event>
<event>
 5   0  0.3162695E-06  0.2790814E+04  0.7818609E-02  0.8306126E-01
       -2   -1    0    0    0  501  0.00000000000E+00  0.00000000000E+00  0.79662817492E+03  0.79662817492E+03  0.25500000920E-02 0. -1.
        2   -1    0    0  501    0  0.00000000000E+00  0.00000000000E+00 -0.24442520099E+04  0.24442520099E+04  0.25500000920E-02 0.  1.
    10030    2    1    2    0    0  0.00000000000E+00  0.00000000000E+00 -0.16476238349E+04  0.32408801848E+04  0.27908135141E+04 0.  0.
        1    1    3    3  502    0  0.48373153340E+03  0.11121797426E+04 -0.22436543789E+02  0.12130306569E+04  0.50400001928E-02 0. -1.
       -1    1    3    3    0  502 -0.48373153340E+03 -0.11121797426E+04 -0.16251872912E+04  0.20278495278E+04  0.50400001928E-02 0.  1.
</event>
<event>
 5   0  0.3167616E-06  0.2798371E+04  0.7818609E-02  0.8303774E-01
       -2   -1    0    0    0  501  0.00000000000E+00  0.00000000000E+00  0.70817645840E+03  0.70817645840E+03  0.25500000920E-02 0. -1.
        2   -1    0    0  501    0  0.00000000000E+00  0.00000000000E+00 -0.27644515753E+04  0.27644515753E+04  0.25500000920E-02 0.  1.
    10030    2    1    2    0    0  0.00000000000E+00  0.00000000000E+00 -0.20562751169E+04  0.34726280337E+04  0.27983706159E+04 0.  0.
        3    1    3    3  502    0 -0.31562612030E+03  0.36482388301E+03  0.60171375885E+03  0.77121707140E+03  0.10100000352E+00 0. -1.
       -3    1    3    3    0  502  0.31562612030E+03 -0.36482388301E+03 -0.26579888757E+04  0.27014109623E+04  0.10100000352E+00 0.  1.
</event>
<event>
 5   0  0.1065675E-06  0.2805841E+04  0.7818609E-02  0.8301457E-01
        3   -1    0    0  501    0  0.00000000000E+00  0.00000000000E+00  0.12285241397E+04  0.12285241439E+04  0.10100000352E+00 0. -1.
       -3   -1    0    0    0  501  0.00000000000E+00  0.00000000000E+00 -0.16020729960E+04  0.16020729992E+04  0.10100000352E+00 0.  1.
    10030    2    1    2    0    0  0.00000000000E+00  0.00000000000E+00 -0.37354885630E+03  0.28305971431E+04  0.28058405939E+04 0.  0.
        1    1    3    3  502    0  0.69818789924E+03 -0.10791391204E+04  0.38048371616E+03  0.13404385260E+04  0.50400001928E-02 0. -1.
       -1    1    3    3    0  502 -0.69818789924E+03  0.10791391204E+04 -0.75403257246E+03  0.14901586171E+04  0.50400001928E-02 0.  1.
</event>
<event>
 5   0  0.3345919E-06  0.2807286E+04  0.7818609E-02  0.8301010E-01
       -2   -1    0    0    0  501  0.00000000000E+00  0.00000000000E+00  0.11381192480E+04  0.11381192480E+04  0.25500000920E-02 0.  1.
        2   -1    0    0  501    0  0.00000000000E+00  0.00000000000E+00 -0.17311141432E+04  0.17311141432E+04  0.25500000920E-02 0. -1.
    10030    2    1    2    0    0  0.00000000000E+00  0.00000000000E+00 -0.59299489521E+03  0.28692333911E+04  0.28072864669E+04 0.  0.
        2    1    3    3  502    0 -0.12756721152E+04 -0.45836543324E+03 -0.66892269617E+03  0.15115871755E+04  0.25500000920E-02 0.  1.
       -2    1    3    3    0  502  0.12756721152E+04  0.45836543324E+03  0.75927800956E+02  0.13576462156E+04  0.25500000920E-02 0. -1.
</event>
<event>
 5   0  0.3212679E-06  0.2794278E+04  0.7818609E-02  0.8305047E-01
        2   -1    0    0  501    0  0.00000000000E+00  0.00000000000E+00  0.22185969546E+04  0.22185969546E+04  0.25500000920E-02 0.  1.
       -2   -1    0    0    0  501  0.00000000000E+00  0.00000000000E+00 -0.87983385484E+03  0.87983385484E+03  0.25500000920E-02 0. -1.
    10030    2    1    2    0    0  0.00000000000E+00  0.00000000000E+00  0.13387630998E+04  0.30984308095E+04  0.27942775173E+04 0.  0.
        4    1    3    3  502    0  0.67970658090E+03 -0.85579648406E+03 -0.29576684952E+03  0.11321962288E+04  0.12699999809E+01 0. -1.
       -4    1    3    3    0  502 -0.67970658090E+03  0.85579648406E+03  0.16345299493E+04  0.19662345807E+04  0.12699999809E+01 0.  1.
</event>
<event>
 5   0  0.1220265E-06  0.2797931E+04  0.7818609E-02  0.8303911E-01
        1   -1    0    0  501    0  0.00000000000E+00  0.00000000000E+00  0.19631520392E+04  0.19631520393E+04  0.50400001928E-02 0.  1.
       -1   -1    0    0    0  501  0.00000000000E+00  0.00000000000E+00 -0.99691915777E+03  0.99691915778E+03  0.50400001928E-02 0. -1.
    10030    2    1    2    0    0  0.00000000000E+00  0.00000000000E+00  0.96623288148E+03  0.29600711970E+04  0.27979305764E+04 0.  0.
        4    1    3    3  502    0 -0.10712965466E+04  0.86327685597E+02 -0.46430941550E+03  0.11707747888E+04  0.12699999809E+01 0. -1.
       -4    1    3    3    0  502  0.10712965466E+04 -0.86327685597E+02  0.14305422970E+04  0.17892964082E+04  0.12699999809E+01 0.  1.
</event>
<event>
 5   0  0.3226364E-06  0.2797290E+04  0.7818609E-02  0.8304110E-01
        2   -1    0    0  501    0  0.00000000000E+00  0.00000000000E+00  0.17266570538E+04  0.17266570538E+04  0.25500000920E-02 0.  1.
       -2   -1    0    0    0  501  0.00000000000E+00  0.00000000000E+00 -0.11329455665E+04  0.11329455665E+04  0.25500000920E-02 0. -1.
    10030    2    1    2    0    0  0.00000000000E+00  0.00000000000E+00  0.59371148727E+03  0.28596026203E+04  0.27972904418E+04 0.  0.
        5    1    3    3  502    0 -0.11698951665E+02 -0.12979454490E+04  0.82940861808E+03  0.15403700853E+04  0.46999998093E+01 0.  1.
       -5    1    3    3    0  502  0.11698951665E+02  0.12979454490E+04 -0.23569713081E+03  0.13192325350E+04  0.46999998093E+01 0. -1.
</event>
<event>
 5   0  0.3167616E-06  0.2793469E+04  0.7818609E-02  0.8305299E-01
        2   -1    0    0  501    0  0.00000000000E+00  0.00000000000E+00  0.15838150688E+04  0.15838150688E+04  0.25500000920E-02 0. -1.
       -2   -1    0    0    0  501  0.00000000000E+00  0.00000000000E+00 -0.12317518507E+04  0.12317518507E+04  0.25500000920E-02 0.  1.
    10030    2    1    2    0    0  0.00000000000E+00  0.00000000000E+00  0.35206321816E+03  0.28155669195E+04  0.27934689132E+04 0.  0.
        3    1    3    3  502    0  0.12814752195E+04  0.32097302979E+02 -0.38302556939E+03  0.13378780109E+04  0.10100000352E+00 0.  1.
       -3    1    3    3    0  502 -0.12814752195E+04 -0.32097302979E+02  0.73508878755E+03  0.14776889087E+04  0.10100000352E+00 0. -1.
</event>
<event>
 5   0  0.1220265E-06  0.2789785E+04  0.7818609E-02  0.8306447E-01
        1   -1    0    0  501    0  0.00000000000E+00  0.00000000000E+00  0.15575021428E+04  0.15575021428E+04  0.50400001928E-02 0.  1.
       -1   -1    0    0    0  501  0.00000000000E+00  0.00000000000E+00 -0.12492595781E+04  0.12492595781E+04  0.50400001928E-02 0. -1.
    10030    2    1    2    0    0  0.00000000000E+00  0.00000000000E+00  0.30824256473E+03  0.28067617210E+04  0.27897845579E+04 0.  0.
        4    1    3    3  502    0  0.14496163334E+03  0.99635103838E+03 -0.81715177465E+03  0.12967142717E+04  0.12699999809E+01 0. -1.
       -4    1    3    3    0  502 -0.14496163334E+03 -0.99635103838E+03  0.11253943394E+04  0.15100474492E+04  0.12699999809E+01 0.  1.
</event>
<event>
 5   0  0.1263513E-06  0.2794549E+04  0.7818609E-02  0.8304963E-01
        1   -1    0    0  501    0  0.00000000000E+00  0.00000000000E+00  0.24694340646E+04  0.24694340646E+04  0.50400001928E-02 0. -1.
       -1   -1    0    0    0  501  0.00000000000E+00  0.00000000000E+00 -0.79061689394E+03  0.79061689396E+03  0.50400001928E-02 0.  1.
    10030    2    1    2    0    0  0.00000000000E+00  0.00000000000E+00  0.16788171706E+04  0.32600509585E+04  0.27945491872E+04 0.  0.
        3    1    3    3  502    0 -0.83071242200E+03  0.72640436546E+03  0.18392863621E+04  0.21449290809E+04  0.10100000352E+00 0. -1.
       -3    1    3    3    0  502  0.83071242200E+03 -0.72640436546E+03 -0.16046919151E+03  0.11151218776E+04  0.10100000352E+00 0.  1.
</event>
<event>
 5   0  0.3212679E-06  0.2767190E+04  0.7818609E-02  0.8313528E-01
       -2   -1    0    0    0  501  0.00000000000E+00  0.00000000000E+00  0.13938951842E+04  0.13938951842E+04  0.25500000920E-02 0.  1.
        2   -1    0    0  501    0  0.00000000000E+00  0.00000000000E+00 -0.13733706329E+04  0.13733706329E+04  0.25500000920E-02 0. -1.
    10030    2    1    2    0    0  0.00000000000E+00  0.00000000000E+00  0.20524551232E+02  0.27672658171E+04  0.27671897017E+04 0.  0.
        4    1    3    3  502    0 -0.13780289771E+04  0.10868943729E+03  0.69894803949E+02  0.13840751974E+04  0.12699999809E+01 0. -1.
       -4    1    3    3    0  502  0.13780289771E+04 -0.10868943729E+03 -0.49370252717E+02  0.13831906197E+04  0.12699999809E+01 0.  1.
</event>
<event>
 5   0  0.3167616E-06  0.2797170E+04  0.7818609E-02  0.8304147E-01
        2   -1    0    0  501    0  0.00000000000E+00  0.00000000000E+00  0.17849596856E+04  0.17849596856E+04  0.25500000920E-02 0.  1.
       -2   -1    0    0    0  501  0.00000000000E+00  0.00000000000E+00 -0.10958456012E+04  0.10958456012E+04  0.25500000920E-02 0. -1.
    10030    2    1    2    0    0  0.00000000000E+00  0.00000000000E+00  0.68911408435E+03  0.28808052868E+04  0.27971701556E+04 0.  0.
        3    1    3    3  502    0  0.13153063335E+04 -0.35946926834E+03  0.24141783902E+02  0.13637564819E+04  0.10100000352E+00 0. -1.
       -3    1    3    3    0  502 -0.13153063335E+04  0.35946926834E+03  0.66497230045E+03  0.15170488049E+04  0.10100000352E+00 0.  1.
</event>
<event>
 5   0  0.3345919E-06  0.2808755E+04  0.7818609E-02  0.8300555E-01
       -2   -1    0    0    0  501  0.00000000000E+00  0.00000000000E+00  0.16722294065E+04  0.16722294065E+04  0.25500000920E-02 0.  1.
        2   -1    0    0  501    0  0.00000000000E+00  0.00000000000E+00 -0.11794291809E+04  0.11794291809E+04  0.25500000920E-02 0. -1.
    10030    2    1    2    0    0  0.00000000000E+00  0.00000000000E+00  0.49280022557E+03  0.28516585873E+04  0.28087549976E+04 0.  0.
        2    1    3    3  502    0 -0.84302273346E+03 -0.29585305841E+03 -0.85369131143E+03  0.12357205252E+04  0.25500000920E-02 0. -1.
       -2    1    3    3    0  502  0.84302273346E+03  0.29585305841E+03  0.13464915370E+04  0.16159380621E+04  0.25500000920E-02 0.  1.
</event>
<event>
 5   0  0.3345919E-06  0.2869165E+04  0.7818609E-02  0.8282111E-01
        2   -1    0    0  501    0  0.00000000000E+00  0.00000000000E+00  0.23250215405E+04  0.23250215405E+04  0.25500000920E-02 0. -1.
       -2   -1    0    0    0  501  0.00000000000E+00  0.00000000000E+00 -0.88516488137E+03  0.88516488137E+03  0.25500000920E-02 0.  1.
    10030    2    1    2    0    0  0.00000000000E+00  0.00000000000E+00  0.14398566591E+04  0.32101864219E+04  0.28691653254E+04 0.  0.
        2    1    3    3  502    0  0.59600656519E+03 -0.12015242947E+04  0.12894947632E+04  0.18605593785E+04  0.25500000920E-02 0. -1.
       -2    1    3    3    0  502 -0.59600656519E+03  0.12015242947E+04  0.15036189595E+03  0.13496270434E+04  0.25500000920E-02 0.  1.
</event>
<event>
 5   0  0.3212679E-06  0.2788614E+04  0.7818609E-02  0.8306812E-01
       -2   -1    0    0    0  501  0.00000000000E+00  0.00000000000E+00  0.11543876529E+04  0.11543876529E+04  0.25500000920E-02 0.  1.
        2   -1    0    0  501    0  0.00000000000E+00  0.00000000000E+00 -0.16840896453E+04  0.16840896453E+04  0.25500000920E-02 0. -1.
    10030    2    1    2    0    0  0.00000000000E+00  0.00000000000E+00 -0.52970199237E+03  0.28384772983E+04  0.27886142028E+04 0.  0.
        4    1    3    3  502    0 -0.71374137862E+03 -0.46776261938E+03 -0.13872289900E+04  0.16286910410E+04  0.12699999809E+01 0. -1.
       -4    1    3    3    0  502  0.71374137862E+03  0.46776261938E+03  0.85752699760E+03  0.12097862572E+04  0.12699999809E+01 0.  1.
</event>
<event>
 5   0  0.3226364E-06  0.2801171E+04  0.7818609E-02  0.8302905E-01
       -2   -1    0    0    0  501  0.00000000000E+00  0.00000000000E+00  0.11636348952E+04  0.11636348952E+04  0.25500000920E-02 0.  1.
        2   -1    0    0  501    0  0.00000000000E+00  0.00000000000E+00 -0.16857860551E+04  0.16857860551E+04  0.25500000920E-02 0. -1.
    10030    2    1    2    0    0  0.00000000000E+00  0.00000000000E+00 -0.52215115995E+03  0.28494209503E+04  0.28011708120E+04 0.  0.
        5    1    3    3  502    0 -0.48230840136E+03 -0.38421931601E+03  0.10181112406E+04  0.11903018378E+04  0.46999998093E+01 0.  1.
       -5    1    3    3    0  502  0.48230840136E+03  0.38421931601E+03 -0.15402624006E+04  0.16591191125E+04  0.46999998093E+01 0. -1.
</event>
<event>
 5   0  0.3226364E-06  0.2799797E+04  0.7818609E-02  0.8303331E-01
        2   -1    0    0  501    0  0.00000000000E+00  0.00000000000E+00  0.16958007162E+04  0.16958007162E+04  0.25500000920E-02 0.  1.
       -2   -1    0    0    0  501  0.00000000000E+00  0.00000000000E+00 -0.11556288383E+04  0.11556288383E+04  0.25500000920E-02 0. -1.
    10030    2    1    2    0    0  0.00000000000E+00  0.00000000000E+00  0.54017187784E+03  0.28514295545E+04  0.27997972867E+04 0.  0.
        5    1    3    3  502    0  0.12800167584E+04  0.20558268376E+03  0.80801873939E+03  0.15276202129E+04  0.46999998093E+01 0.  1.
       -5    1    3    3    0  502 -0.12800167584E+04 -0.20558268376E+03 -0.26784686155E+03  0.13238093416E+04  0.46999998093E+01 0. -1.
</event>
<event>
 5   0  0.3167616E-06  0.2791173E+04  0.7818609E-02  0.8306014E-01
       -2   -1    0    0    0  501  0.00000000000E+00  0.00000000000E+00  0.10875675268E+04  0.10875675268E+04  0.25500000920E-02 0.  1.
        2   -1    0    0  501    0  0.00000000000E+00  0.00000000000E+00 -0.17908417037E+04  0.17908417037E+04  0.25500000920E-02 0. -1.
    10030    2    1    2    0    0  0.00000000000E+00  0.00000000000E+00 -0.70327417693E+03  0.28784092305E+04  0.27911727160E+04 0.  0.
        3    1    3    3  502    0  0.44491451994E+02  0.65939837137E+03 -0.16192310952E+04  0.17489125339E+04  0.10100000352E+00 0. -1.
       -3    1    3    3    0  502 -0.44491451994E+02 -0.65939837137E+03  0.91595691822E+03  0.11294966966E+04  0.10100000352E+00 0.  1.
</event>
<event>
 5   0  0.1235252E-06  0.2755498E+04  0.7818609E-02  0.8317219E-01
       -1   -1    0    0    0  501  0.00000000000E+00  0.00000000000E+00  0.16019501115E+04  0.16019501116E+04  0.50400001928E-02 0.  1.
        1   -1    0    0  501    0  0.00000000000E+00  0.00000000000E+00 -0.11849255941E+04  0.11849255941E+04  0.50400001928E-02 0. -1.
    10030    2    1    2    0    0  0.00000000000E+00  0.00000000000E+00  0.41702451748E+03  0.27868757056E+04  0.27554975504E+04 0.  0.
        1    1    3    3  502    0  0.11375764748E+02 -0.68707562175E+03  0.14162585551E+04  0.15741634645E+04  0.50400001928E-02 0.  1.
       -1    1    3    3    0  502 -0.11375764748E+02  0.68707562175E+03 -0.99923403757E+03  0.12127122412E+04  0.50400001928E-02 0. -1.
</event>
<event>
 5   0  0.1235252E-06  0.2803497E+04  0.7818609E-02  0.8302184E-01
       -1   -1    0    0    0  501  0.00000000000E+00  0.00000000000E+00  0.11913287454E+04  0.11913287455E+04  0.50400001928E-02 0. -1.
        1   -1    0    0  501    0  0.00000000000E+00  0.00000000000E+00 -0.16493333084E+04  0.16493333084E+04  0.50400001928E-02 0.  1.
    10030    2    1    2    0    0  0.00000000000E+00  0.00000000000E+00 -0.45800456299E+03  0.28406620539E+04  0.28034965177E+04 0.  0.
        1    1    3    3  502    0  0.95721301901E+03 -0.98369112655E+03  0.59363542119E+02  0.13738373362E+04  0.50400001928E-02 0. -1.
       -1    1    3    3    0  502 -0.95721301901E+03  0.98369112655E+03 -0.51736810511E+03  0.14668247177E+04  0.50400001928E-02 0.  1.
</event>
<event>
 5   0  0.3345919E-06  0.2801902E+04  0.7818609E-02  0.8302678E-01
       -2   -1    0    0    0  501  0.00000000000E+00  0.00000000000E+00  0.22905949150E+04  0.22905949150E+04  0.25500000920E-02 0.  1.
        2   -1    0    0  501    0  0.00000000000E+00  0.00000000000E+00 -0.85683599617E+03  0.85683599617E+03  0.25500000920E-02 0. -1.
    10030    2    1    2    0    0  0.00000000000E+00  0.00000000000E+00  0.14337589188E+04  0.31474309111E+04  0.28019023365E+04 0.  0.
        2    1    3    3  502    0 -0.21706896584E+03  0.55583247645E+03 -0.70694511776E+03  0.92511625071E+03  0.25500000920E-02 0. -1.
       -2    1    3    3    0  502  0.21706896584E+03 -0.55583247645E+03  0.21407040366E+04  0.22223146604E+04  0.25500000920E-02 0.  1.
</event>
<event>
 5   0  0.3212679E-06  0.2801328E+04  0.7818609E-02  0.8302856E-01
       -2   -1    0    0    0  501  0.00000000000E+00  0.00000000000E+00  0.17983730179E+04  0.17983730179E+04  0.25500000920E-02 0.  1.
        2   -1    0    0  501    0  0.00000000000E+00  0.00000000000E+00 -0.10909084474E+04  0.10909084474E+04  0.25500000920E-02 0. -1.
    10030    2    1    2    0    0  0.00000000000E+00  0.00000000000E+00  0.70746457052E+03  0.28892814653E+04  0.28013284826E+04 0.  0.
        4    1    3    3  502    0  0.81062748475E+02 -0.85664678318E+03 -0.78615671682E+03  0.11655294405E+04  0.12699999809E+01 0. -1.
       -4    1    3    3    0  502 -0.81062748475E+02  0.85664678318E+03  0.14936212873E+04  0.17237520249E+04  0.12699999809E+01 0.  1.
</event>
<event>
 5   0  0.1243055E-06  0.2819088E+04  0.7818609E-02  0.8297367E-01
       -1   -1    0    0    0  501  0.00000000000E+00  0.00000000000E+00  0.12252411887E+04  0.12252411887E+04  0.50400001928E-02 0. -1.
        1   -1    0    0  501    0  0.00000000000E+00  0.00000000000E+00 -0.16215695567E+04  0.16215695567E+04  0.50400001928E-02 0.  1.
    10030    2    1    2    0    0  0.00000000000E+00  0.00000000000E+00 -0.39632836797E+03  0.28468107454E+04  0.28190876618E+04 0.  0.
        5    1    3    3  502    0  0.70476369404E+03 -0.12183624100E+04 -0.27435744910E+03  0.14340128753E+04  0.46999998093E+01 0. -1.
       -5    1    3    3    0  502 -0.70476369404E+03  0.12183624100E+04 -0.12197091887E+03  0.14127978701E+04  0.46999998093E+01 0.  1.
</event>
<event>
 5   0  0.3162695E-06  0.2813832E+04  0.7818609E-02  0.8298987E-01
        2   -1    0    0  501    0  0.00000000000E+00  0.00000000000E+00  0.12886150726E+04  0.12886150726E+04  0.25500000920E-02 0.  1.
       -2   -1    0    0    0  501  0.00000000000E+00  0.00000000000E+00 -0.15360780342E+04  0.15360780342E+04  0.25500000920E-02 0. -1.
    10030    2    1    2    0    0  0.00000000000E+00  0.00000000000E+00 -0.24746296167E+03  0.28246931068E+04  0.28138324808E+04 0.  0.
        1    1    3    3  502    0 -0.72527298045E+03 -0.43112480362E+03 -0.12539205316E+04  0.15113590546E+04  0.50400001928E-02 0. -1.
       -1    1    3    3    0  502  0.72527298045E+03  0.43112480362E+03  0.10064575699E+04  0.13133340521E+04  0.50400001928E-02 0.  1.
</event>
<event>
 5   0  0.1243055E-06  0.2797430E+04  0.7818609E-02  0.8304067E-01
       -1   -1    0    0    0  501  0.00000000000E+00  0.00000000000E+00  0.97569465269E+03  0.97569465270E+03  0.50400001928E-02 0. -1.
        1   -1    0    0  501    0  0.00000000000E+00  0.00000000000E+00 -0.20051394693E+04  0.20051394693E+04  0.50400001928E-02 0.  1.
    10030    2    1    2    0    0  0.00000000000E+00  0.00000000000E+00 -0.10294448166E+04  0.29808341220E+04  0.27974301479E+04 0.  0.
        5    1    3    3  502    0 -0.10584150489E+03 -0.12431928033E+04  0.15890385161E+03  0.12577771243E+04  0.46999998093E+01 0. -1.
       -5    1    3    3    0  502  0.10584150489E+03  0.12431928033E+04 -0.11883486682E+04  0.17230569977E+04  0.46999998093E+01 0.  1.
</event>
<event>
 5   0  0.1220265E-06  0.2801973E+04  0.7818609E-02  0.8302656E-01
        1   -1    0    0  501    0  0.00000000000E+00  0.00000000000E+00  0.19711961316E+04  0.19711961316E+04  0.50400001928E-02 0.  1.
       -1   -1    0    0    0  501  0.00000000000E+00  0.00000000000E+00 -0.99572176508E+03  0.99572176509E+03  0.50400001928E-02 0. -1.
    10030    2    1    2    0    0  0.00000000000E+00  0.00000000000E+00  0.97547436656E+03  0.29669178967E+04  0.28019727990E+04 0.  0.
        4    1    3    3  502    0  0.91563642354E+03  0.78097378630E+03  0.12472125466E+04  0.17331620998E+04  0.12699999809E+01 0.  1.
       -4    1    3    3    0  502 -0.91563642354E+03 -0.78097378630E+03 -0.27173818006E+03  0.12337557969E+04  0.12699999809E+01 0. -1.
</event>
<event>
 5   0  0.1235252E-06  0.2802258E+04  0.7818609E-02  0.8302568E-01
        1   -1    0    0  501    0  0.00000000000E+00  0.00000000000E+00  0.10167698624E+04  0.10167698624E+04  0.50400001928E-02 0. -1.
       -1   -1    0    0    0  501  0.00000000000E+00  0.00000000000E+00 -0.19307836142E+04  0.19307836142E+04  0.50400001928E-02 0.  1.
    10030    2    1    2    0    0  0.00000000000E+00  0.00000000000E+00 -0.91401375182E+03  0.29475534766E+04  0.28022580821E+04 0.  0.
        1    1    3    3  502    0  0.30328480337E+02  0.73577480725E+03  0.79680387427E+03  0.10849796301E+04  0.50400001928E-02 0. -1.
       -1    1    3    3    0  502 -0.30328480337E+02 -0.73577480725E+03 -0.17108176261E+04  0.18625738464E+04  0.50400001928E-02 0.  1.
</event>
<event>
 5   0  0.1235252E-06  0.2819141E+04  0.7818609E-02  0.8297350E-01
       -1   -1    0    0    0  501  0.00000000000E+00  0.00000000000E+00  0.12063988012E+04  0.12063988012E+04  0.50400001928E-02 0.  1.
        1   -1    0    0  501    0  0.00000000000E+00  0.00000000000E+00 -0.16469584067E+04  0.16469584068E+04  0.50400001928E-02 0. -1.
    10030    2    1    2    0    0  0.00000000000E+00  0.00000000000E+00 -0.44055960557E+03  0.28533572079E+04  0.28191407539E+04 0.  0.
        1    1    3    3  502    0  0.10917284185E+04  0.67288675844E+03  0.37183439797E+03  0.13352559114E+04  0.50400001928E-02 0.  1.
       -1    1    3    3    0  502 -0.10917284185E+04 -0.67288675844E+03 -0.81239400353E+03  0.15181012965E+04  0.50400001928E-02 0. -1.
</event>
<event>
 5   0  0.1235252E-06  0.2770494E+04  0.7818609E-02  0.8312488E-01
       -1   -1    0    0    0  501  0.00000000000E+00  0.00000000000E+00  0.89603073910E+03  0.89603073912E+03  0.50400001928E-02 0.  1.
        1   -1    0    0  501    0  0.00000000000E+00  0.00000000000E+00 -0.21415656762E+04  0.21415656762E+04  0.50400001928E-02 0. -1.
    10030    2    1    2    0    0  0.00000000000E+00  0.00000000000E+00 -0.12455349371E+04  0.30375964153E+04  0.27704935847E+04 0.  0.
        1    1    3    3  502    0  0.81437660882E+03 -0.38058456956E+03  0.53281666638E+03  0.10449629063E+04  0.50400001928E-02 0.  1.
       -1    1    3    3    0  502 -0.81437660882E+03  0.38058456956E+03 -0.17783516035E+04  0.19926335090E+04  0.50400001928E-02 0. -1.
</event>
<event>
 5   0  0.1246044E-06  0.2776561E+04  0.7818609E-02  0.8310582E-01
       -1   -1    0    0    0  501  0.00000000000E+00  0.00000000000E+00  0.13814459034E+04  0.13814459034E+04  0.50400001928E-02 0.  1.
        1   -1    0    0  501    0  0.00000000000E+00  0.00000000000E+00 -0.13951491618E+04  0.13951491618E+04  0.50400001928E-02 0. -1.
    10030    2    1    2    0    0  0.00000000000E+00  0.00000000000E+00 -0.13703258376E+02  0.27765950652E+04  0.27765612504E+04 0.  0.
        2    1    3    3  502    0 -0.37008445933E+03  0.48366943572E+03  0.12407309832E+04  0.13821403702E+04  0.25500000920E-02 0.  1.
       -2    1    3    3    0  502  0.37008445933E+03 -0.48366943572E+03 -0.12544342416E+04  0.13944546951E+04  0.25500000920E-02 0. -1.
</event>
<event>
 5   0  0.1243055E-06  0.2791011E+04  0.7818609E-02  0.8306065E-01
       -1   -1    0    0    0  501  0.00000000000E+00  0.00000000000E+00  0.88908047499E+03  0.88908047501E+03  0.50400001928E-02 0.  1.
        1   -1    0    0  501    0  0.00000000000E+00  0.00000000000E+00 -0.21903927604E+04  0.21903927604E+04  0.50400001928E-02 0. -1.
    10030    2    1    2    0    0  0.00000000000E+00  0.00000000000E+00 -0.13013122854E+04  0.30794732354E+04  0.27910108820E+04 0.  0.
        5    1    3    3  502    0 -0.38880254634E+03 -0.98407390518E+02  0.82411265159E+03  0.91653433490E+03  0.46999998093E+01 0.  1.
       -5    1    3    3    0  502  0.38880254634E+03  0.98407390518E+02 -0.21254249370E+04  0.21629389005E+04  0.46999998093E+01 0. -1.
</event>
<event>
 5   0  0.3167616E-06  0.2792616E+04  0.7818609E-02  0.8305564E-01
        2   -1    0    0  501    0  0.00000000000E+00  0.00000000000E+00  0.19344622801E+04  0.19344622801E+04  0.25500000920E-02 0. -1.
       -2   -1    0    0    0  501  0.00000000000E+00  0.00000000000E+00 -0.10078645385E+04  0.10078645385E+04  0.25500000920E-02 0.  1.
    10030    2    1    2    0    0  0.00000000000E+00  0.00000000000E+00  0.92659774161E+03  0.29423268187E+04  0.27926159301E+04 0.  0.
        3    1    3    3  502    0  0.61442141537E+03 -0.84258744224E+03 -0.51503229099E+03  0.11630673000E+04  0.10100000352E+00 0.  1.
       -3    1    3    3    0  502 -0.61442141537E+03  0.84258744224E+03  0.14416300326E+04  0.17792595186E+04  0.10100000352E+00 0. -1.
</event>
<event>
 5   0  0.1263513E-06  0.2802511E+04  0.7818609E-02  0.8302489E-01
        1   -1    0    0  501    0  0.00000000000E+00  0.00000000000E+00  0.10315425589E+04  0.10315425589E+04  0.50400001928E-02 0.  1.
       -1   -1    0    0    0  501  0.00000000000E+00  0.00000000000E+00 -0.19034761700E+04  0.19034761700E+04  0.50400001928E-02 0. -1.
    10030    2    1    2    0    0  0.00000000000E+00  0.00000000000E+00 -0.87193361114E+03  0.29350187289E+04  0.28025107880E+04 0.  0.
        3    1    3    3  502    0 -0.13445331838E+04  0.22829117101E+03 -0.77310427288E+03  0.15676659619E+04  0.10100000352E+00 0. -1.
       -3    1    3    3    0  502  0.13445331838E+04 -0.22829117101E+03 -0.98829338263E+02  0.13673527670E+04  0.10100000352E+00 0.  1.
</event>
<event>
 5   0  0.1246044E-06  0.2734921E+04  0.7818609E-02  0.8323763E-01
        1   -1    0    0  501    0  0.00000000000E+00  0.00000000000E+00  0.16282579579E+04  0.16282579579E+04  0.50400001928E-02 0. -1.
       -1   -1    0    0    0  501  0.00000000000E+00  0.00000000000E+00 -0.11484347099E+04  0.11484347099E+04  0.50400001928E-02 0.  1.
    10030    2    1    2    0    0  0.00000000000E+00  0.00000000000E+00  0.47982324796E+03  0.27766926678E+04  0.27349208073E+04 0.  0.
        2    1    3    3  502    0 -0.10535679444E+04 -0.86325400614E+03  0.36315371472E+03  0.14096430445E+04  0.25500000920E-02 0. -1.
       -2    1    3    3    0  502  0.10535679444E+04  0.86325400614E+03  0.11666953324E+03  0.13670496233E+04  0.25500000920E-02 0.  1.
</event>
<event>
 5   0  0.3226364E-06  0.2813415E+04  0.7818609E-02  0.8299116E-01
       -2   -1    0    0    0  501  0.00000000000E+00  0.00000000000E+00  0.14174413968E+04  0.14174413968E+04  0.25500000920E-02 0.  1.
        2   -1    0    0  501    0  0.00000000000E+00  0.00000000000E+00 -0.13960548909E+04  0.13960548909E+04  0.25500000920E-02 0. -1.
    10030    2    1    2    0    0  0.00000000000E+00  0.00000000000E+00  0.21386505948E+02  0.28134962877E+04  0.28134150028E+04 0.  0.
        5    1    3    3  502    0  0.93334611424E+01 -0.52693344521E+03  0.13149770527E+04  0.14166625245E+04  0.46999998093E+01 0.  1.
       -5    1    3    3    0  502 -0.93334611424E+01  0.52693344521E+03 -0.12935905468E+04  0.13968337632E+04  0.46999998093E+01 0. -1.
</event>
<event>
 5   0  0.3167616E-06  0.2804640E+04  0.7818609E-02  0.8301829E-01
        2   -1    0    0  501    0  0.00000000000E+00  0.00000000000E+00  0.14348179442E+04  0.14348179442E+04  0.25500000920E-02 0. -1.
       -2   -1    0    0    0  501  0.00000000000E+00  0.00000000000E+00 -0.13705582613E+04  0.13705582613E+04  0.25500000920E-02 0.  1.
    10030    2    1    2    0    0  0.00000000000E+00  0.00000000000E+00  0.64259682859E+02  0.28053762055E+04  0.28046401458E+04 0.  0.
        3    1    3    3  502    0  0.19118224419E+02 -0.10170676249E+04 -0.93337449465E+03  0.13805723515E+04  0.10100000352E+00 0.  1.
       -3    1    3    3    0  502 -0.19118224419E+02  0.10170676249E+04  0.99763417751E+03  0.14248038540E+04  0.10100000352E+00 0. -1.
</event>
<event>
 5   0  0.1235252E-06  0.2762074E+04  0.7818609E-02  0.8315140E-01
       -1   -1    0    0    0  501  0.00000000000E+00  0.00000000000E+00  0.21394624298E+04  0.21394624298E+04  0.50400001928E-02 0.  1.
        1   -1    0    0  501    0  0.00000000000E+00  0.00000000000E+00 -0.89146853545E+03  0.89146853546E+03  0.50400001928E-02 0. -1.
    10030    2    1    2    0    0  0.00000000000E+00  0.00000000000E+00  0.12479938944E+04  0.30309309653E+04  0.27620741764E+04 0.  0.
        1    1    3    3  502    0  0.91677662613E+03  0.97629518503E+03  0.25409161649E+03  0.13631559779E+04  0.50400001928E-02 0. -1.
       -1    1    3    3    0  502 -0.91677662613E+03 -0.97629518503E+03  0.99390227789E+03  0.16677749874E+04  0.50400001928E-02 0.  1.
</event>
<event>
 5   0  0.3212679E-06  0.2801901E+04  0.7818609E-02  0.8302678E-01
        2   -1    0    0  501    0  0.00000000000E+00  0.00000000000E+00  0.12480550348E+04  0.12480550348E+04  0.25500000920E-02 0.  1.
       -2   -1    0    0    0  501  0.00000000000E+00  0.00000000000E+00 -0.15725769763E+04  0.15725769763E+04  0.25500000920E-02 0. -1.
    10030    2    1    2    0    0  0.00000000000E+00  0.00000000000E+00 -0.32452194152E+03  0.28206320111E+04  0.28019012209E+04 0.  0.
        4    1    3    3  502    0 -0.21240391111E+03  0.18010250865E+03  0.12199101189E+04  0.12512931895E+04  0.12699999809E+01 0.  1.
       -4    1    3    3    0  502  0.21240391111E+03 -0.18010250865E+03 -0.15444320604E+04  0.15693388216E+04  0.12699999809E+01 0. -1.
</event>
<event>
 5   0  0.3162695E-06  0.2789489E+04  0.7818609E-02  0.8306539E-01
        2   -1    0    0  501    0  0.00000000000E+00  0.00000000000E+00  0.15882912086E+04  0.15882912086E+04  0.25500000920E-02 0.  1.
       -2   -1    0    0    0  501  0.00000000000E+00  0.00000000000E+00 -0.12247828158E+04  0.12247828158E+04  0.25500000920E-02 0. -1.
    10030    2    1    2    0    0  0.00000000000E+00  0.00000000000E+00  0.36350839282E+03  0.28130740245E+04  0.27894886835E+04 0.  0.
        1    1    3    3  502    0 -0.42308620775E+02 -0.40497453200E+03  0.15270186741E+04  0.15803735071E+04  0.50400001928E-02 0.  1.
       -1    1    3    3    0  502  0.42308620775E+02  0.40497453200E+03 -0.11635102812E+04  0.12327005174E+04  0.50400001928E-02 0. -1.
</event>
<event>
 5   0  0.3167616E-06  0.2797669E+04  0.7818609E-02  0.8303992E-01
       -2   -1    0    0    0  501  0.00000000000E+00  0.00000000000E+00  0.20866473213E+04  0.20866473213E+04  0.25500000920E-02 0.  1.
        2   -1    0    0  501    0  0.00000000000E+00  0.00000000000E+00 -0.93774240464E+03  0.93774240465E+03  0.25500000920E-02 0. -1.
    10030    2    1    2    0    0  0.00000000000E+00  0.00000000000E+00  0.11489049166E+04  0.30243897259E+04  0.27976687986E+04 0.  0.
        3    1    3    3  502    0 -0.43321335894E+03  0.11926791245E+04  0.12108718848E+04  0.17539578216E+04  0.10100000352E+00 0.  1.
       -3    1    3    3    0  502  0.43321335894E+03 -0.11926791245E+04 -0.61966968156E+02  0.12704319044E+04  0.10100000352E+00 0. -1.
</event>
<event>
 5   0  0.1243055E-06  0.2827469E+04  0.7818609E-02  0.8294791E-01
        1   -1    0    0  501    0  0.00000000000E+00  0.00000000000E+00  0.29847149043E+04  0.29847149043E+04  0.50400001928E-02 0. -1.
       -1   -1    0    0    0  501  0.00000000000E+00  0.00000000000E+00 -0.66962685362E+03  0.66962685364E+03  0.50400001928E-02 0.  1.
    10030    2    1    2    0    0  0.00000000000E+00  0.00000000000E+00  0.23150880507E+04  0.36543417580E+04  0.28274690098E+04 0.  0.
        5    1    3    3  502    0 -0.28319414044E+03 -0.36214894829E+00 -0.63258205032E+03  0.69309537058E+03  0.46999998093E+01 0.  1.
       -5    1    3    3    0  502  0.28319414044E+03  0.36214894829E+00  0.29476701010E+04  0.29612463874E+04  0.46999998093E+01 0. -1.
</event>
<event>
 5   0  0.1246044E-06  0.2766781E+04  0.7818609E-02  0.8313656E-01
        1   -1    0    0  501    0  0.00000000000E+00  0.00000000000E+00  0.16437088211E+04  0.16437088211E+04  0.50400001928E-02 0.  1.
       -1   -1    0    0    0  501  0.00000000000E+00  0.00000000000E+00 -0.11642993646E+04  0.11642993646E+04  0.50400001928E-02 0. -1.
    10030    2    1    2    0    0  0.00000000000E+00  0.00000000000E+00  0.47940945650E+03  0.28080081858E+04  0.27667808992E+04 0.  0.
        2    1    3    3  502    0 -0.87086658119E+03 -0.39024719900E+03 -0.77675157742E+03  0.12304651525E+04  0.25500000920E-02 0. -1.
       -2    1    3    3    0  502  0.87086658119E+03  0.39024719900E+03  0.12561610339E+04  0.15775430332E+04  0.25500000920E-02 0.  1.
</event>
<event>
 5   0  0.1263513E-06  0.2679916E+04  0.7818609E-02  0.8341551E-01
       -1   -1    0    0    0  501  0.00000000000E+00  0.00000000000E+00  0.12525920825E+04  0.12525920825E+04  0.50400001928E-02 0. -1.
        1   -1    0    0  501    0  0.00000000000E+00  0.00000000000E+00 -0.14334174764E+04  0.14334174764E+04  0.50400001928E-02 0.  1.
    10030    2    1    2    0    0  0.00000000000E+00  0.00000000000E+00 -0.18082539389E+03  0.26860095589E+04  0.26799159553E+04 0.  0.
        3    1    3    3  502    0 -0.37912971217E+03  0.37344374748E+03 -0.13229600232E+04  0.14259813478E+04  0.10100000352E+00 0.  1.
       -3    1    3    3    0  502  0.37912971217E+03 -0.37344374748E+03  0.11421346293E+04  0.12600282111E+04  0.10100000352E+00 0. -1.
</event>
<event>
 5   0  0.3345919E-06  0.2803426E+04  0.7818609E-02  0.8302206E-01
       -2   -1    0    0    0  501  0.00000000000E+00  0.00000000000E+00  0.10470777052E+04  0.10470777052E+04  0.25500000920E-02 0. -1.
        2   -1    0    0  501    0  0.00000000000E+00  0.00000000000E+00 -0.18764592867E+04  0.18764592867E+04  0.25500000920E-02 0.  1.
    10030    2    1    2    0    0  0.00000000000E+00  0.00000000000E+00 -0.82938158152E+03  0.29235369919E+04  0.28034255359E+04 0.  0.
        2    1    3    3  502    0  0.10304650434E+03 -0.10256445865E+04  0.57586511289E+03  0.11807565490E+04  0.25500000920E-02 0. -1.
       -2    1    3    3    0  502 -0.10304650434E+03  0.10256445865E+04 -0.14052466944E+04  0.17427804429E+04  0.25500000920E-02 0.  1.
</event>
<event>
 5   0  0.3212679E-06  0.2796186E+04  0.7818609E-02  0.8304453E-01
        2   -1    0    0  501    0  0.00000000000E+00  0.00000000000E+00  0.19126538498E+04  0.19126538498E+04  0.25500000920E-02 0. -1.
       -2   -1    0    0    0  501  0.00000000000E+00  0.00000000000E+00 -0.10219643952E+04  0.10219643952E+04  0.25500000920E-02 0.  1.
    10030    2    1    2    0    0  0.00000000000E+00  0.00000000000E+00  0.89068945459E+03  0.29346182451E+04  0.27961860703E+04 0.  0.
        4    1    3    3  502    0  0.15004705467E+03 -0.63162453112E+03  0.17448701755E+04  0.18617296284E+04  0.12699999809E+01 0. -1.
       -4    1    3    3    0  502 -0.15004705467E+03  0.63162453112E+03 -0.85418072091E+03  0.10728886167E+04  0.12699999809E+01 0.  1.
</event>
<event>
 5   0  0.1246044E-06  0.2788190E+04  0.7818609E-02  0.8306944E-01
       -1   -1    0    0    0  501  0.00000000000E+00  0.00000000000E+00  0.10617345543E+04  0.10617345543E+04  0.50400001928E-02 0.  1.
        1   -1    0    0  501    0  0.00000000000E+00  0.00000000000E+00 -0.18304961861E+04  0.18304961861E+04  0.50400001928E-02 0. -1.
    10030    2    1    2    0    0  0.00000000000E+00  0.00000000000E+00 -0.76876163177E+03  0.28922307405E+04  0.27881901315E+04 0.  0.
        2    1    3    3  502    0  0.75400348765E+03 -0.10640960992E+04  0.12662624970E+03  0.13102885083E+04  0.25500000920E-02 0.  1.
       -2    1    3    3    0  502 -0.75400348765E+03  0.10640960992E+04 -0.89538788147E+03  0.15819422322E+04  0.25500000920E-02 0. -1.
</event>
<event>
 5   0  0.1243055E-06  0.2809944E+04  0.7818609E-02  0.8300188E-01
       -1   -1    0    0    0  501  0.00000000000E+00  0.00000000000E+00  0.75460644366E+03  0.75460644368E+03  0.50400001928E-02 0. -1.
        1   -1    0    0  501    0  0.00000000000E+00  0.00000000000E+00 -0.26158614249E+04  0.26158614249E+04  0.50400001928E-02 0.  1.
    10030    2    1    2    0    0  0.00000000000E+00  0.00000000000E+00 -0.18612549813E+04  0.33704678686E+04  0.28099436913E+04 0.  0.
        5    1    3    3  502    0  0.12861932987E+04  0.23130512604E+03 -0.15494103786E+04  0.20269410140E+04  0.46999998093E+01 0.  1.
       -5    1    3    3    0  502 -0.12861932987E+04 -0.23130512604E+03 -0.31184460265E+03  0.13435268546E+04  0.46999998093E+01 0. -1.
</event>
<event>
 5   0  0.1246044E-06  0.2794977E+04  0.7818609E-02  0.8304829E-01
       -1   -1    0    0    0  501  0.00000000000E+00  0.00000000000E+00  0.11623588094E+04  0.11623588094E+04  0.50400001928E-02 0. -1.
        1   -1    0    0  501    0  0.00000000000E+00  0.00000000000E+00 -0.16801823122E+04  0.16801823122E+04  0.50400001928E-02 0.  1.
    10030    2    1    2    0    0  0.00000000000E+00  0.00000000000E+00 -0.51782350280E+03  0.28425411216E+04  0.27949774325E+04 0.  0.
        2    1    3    3  502    0  0.61505870836E+03  0.88071743335E+02  0.10141573642E+04  0.11893565513E+04  0.25500000920E-02 0. -1.
       -2    1    3    3    0  502 -0.61505870836E+03 -0.88071743335E+02 -0.15319808670E+04  0.16531845703E+04  0.25500000920E-02 0.  1.
</event>
<event>
 5   0  0.3345919E-06  0.2809694E+04  0.7818609E-02  0.8300265E-01
       -2   -1    0    0    0  501  0.00000000000E+00  0.00000000000E+00  0.80499675543E+03  0.80499675543E+03  0.25500000920E-02 0.  1.
        2   -1    0    0  501    0  0.00000000000E+00  0.00000000000E+00 -0.24516816639E+04  0.24516816639E+04  0.25500000920E-02 0. -1.
    10030    2    1    2    0    0  0.00000000000E+00  0.00000000000E+00 -0.16466849085E+04  0.32566784194E+04  0.28096944921E+04 0.  0.
        2    1    3    3  502    0 -0.84112775142E+03  0.89247503049E+03 -0.16176238104E+04  0.20299542769E+04  0.25500000920E-02 0. -1.
       -2    1    3    3    0  502  0.84112775142E+03 -0.89247503049E+03 -0.29061098083E+02  0.12267241425E+04  0.25500000920E-02 0.  1.
</event>
<event>
 5   0  0.3167616E-06  0.2825302E+04  0.7818609E-02  0.8295456E-01
        2   -1    0    0  501    0  0.00000000000E+00  0.00000000000E+00  0.11537672912E+04  0.11537672912E+04  0.25500000920E-02 0. -1.
       -2   -1    0    0    0  501  0.00000000000E+00  0.00000000000E+00 -0.17296239579E+04  0.17296239579E+04  0.25500000920E-02 0.  1.
    10030    2    1    2    0    0  0.00000000000E+00  0.00000000000E+00 -0.57585666672E+03  0.28833912490E+04  0.28253024961E+04 0.  0.
        3    1    3    3  502    0  0.18873878461E+03 -0.47825784960E+03 -0.16307430357E+04  0.17098759482E+04  0.10100000352E+00 0.  1.
       -3    1    3    3    0  502 -0.18873878461E+03  0.47825784960E+03  0.10548863690E+04  0.11735153008E+04  0.10100000352E+00 0. -1.
</event>
<event>
 5   0  0.3345919E-06  0.2801915E+04  0.7818609E-02  0.8302674E-01
        2   -1    0    0  501    0  0.00000000000E+00  0.00000000000E+00  0.18013555429E+04  0.18013555429E+04  0.25500000920E-02 0. -1.
       -2   -1    0    0    0  501  0.00000000000E+00  0.00000000000E+00 -0.10895584158E+04  0.10895584158E+04  0.25500000920E-02 0.  1.
    10030    2    1    2    0    0  0.00000000000E+00  0.00000000000E+00  0.71179712713E+03  0.28909139587E+04  0.28019151248E+04 0.  0.
        2    1    3    3  502    0 -0.83453111612E+03 -0.41714715702E+03  0.14341917840E+04  0.17109529531E+04  0.25500000920E-02 0. -1.
       -2    1    3    3    0  502  0.83453111612E+03  0.41714715702E+03 -0.72239465691E+03  0.11799610056E+04  0.25500000920E-02 0.  1.
</event>
<event>
 5   0  0.1263513E-06  0.2799555E+04  0.7818609E-02  0.8303407E-01
       -1   -1    0    0    0  501  0.00000000000E+00  0.00000000000E+00  0.14542840448E+04  0.14542840448E+04  0.50400001928E-02 0. -1.
        1   -1    0    0  501    0  0.00000000000E+00  0.00000000000E+00 -0.13473137174E+04  0.13473137174E+04  0.50400001928E-02 0.  1.
    10030    2    1    2    0    0  0.00000000000E+00  0.00000000000E+00  0.10697032742E+03  0.28015977622E+04  0.27995548522E+04 0.  0.
        3    1    3    3  502    0  0.94025513069E+03 -0.48851257511E+03  0.96883978713E+03  0.14357488604E+04  0.10100000352E+00 0. -1.
       -3    1    3    3    0  502 -0.94025513069E+03  0.48851257511E+03 -0.86186945972E+03  0.13658489018E+04  0.10100000352E+00 0.  1.
</event>
<event>
 5   0  0.1243055E-06  0.2799502E+04  0.7818609E-02  0.8303423E-01
        1   -1    0    0  501    0  0.00000000000E+00  0.00000000000E+00  0.25998361221E+04  0.25998361221E+04  0.50400001928E-02 0. -1.
       -1   -1    0    0    0  501  0.00000000000E+00  0.00000000000E+00 -0.75362561686E+03  0.75362561688E+03  0.50400001928E-02 0.  1.
    10030    2    1    2    0    0  0.00000000000E+00  0.00000000000E+00  0.18462105052E+04  0.33534617389E+04  0.27995021709E+04 0.  0.
        5    1    3    3  502    0 -0.10992143601E+04  0.27823446215E+03  0.19062371265E+04  0.22179830247E+04  0.46999998093E+01 0. -1.
       -5    1    3    3    0  502  0.10992143601E+04 -0.27823446215E+03 -0.60026621288E+02  0.11354787143E+04  0.46999998093E+01 0.  1.
</event>
<event>
 5   0  0.3226364E-06  0.2805259E+04  0.7818609E-02  0.8301638E-01
        2   -1    0    0  501    0  0.00000000000E+00  0.00000000000E+00  0.20867367411E+04  0.20867367411E+04  0.25500000920E-02 0. -1.
       -2   -1    0    0    0  501  0.00000000000E+00  0.00000000000E+00 -0.94279717663E+03  0.94279717664E+03  0.25500000920E-02 0.  1.
    10030    2    1    2    0    0  0.00000000000E+00  0.00000000000E+00  0.11439395645E+04  0.30295339178E+04  0.28052589955E+04 0.  0.
        5    1    3    3  502    0 -0.11280033895E+04 -0.82918825163E+03  0.47905272968E+03  0.14796818615E+04  0.46999998093E+01 0.  1.
       -5    1    3    3    0  502  0.11280033895E+04  0.82918825163E+03  0.66488683484E+03  0.15498520563E+04  0.46999998093E+01 0. -1.
</event>
<event>
 5   0  0.1243055E-06  0.2797226E+04  0.7818609E-02  0.8304130E-01
        1   -1    0    0  501    0  0.00000000000E+00  0.00000000000E+00  0.18187430248E+04  0.18187430248E+04  0.50400001928E-02 0. -1.
       -1   -1    0    0    0  501  0.00000000000E+00  0.00000000000E+00 -0.10755327448E+04  0.10755327448E+04  0.50400001928E-02 0.  1.
    10030    2    1    2    0    0  0.00000000000E+00  0.00000000000E+00  0.74321028003E+03  0.28942757696E+04  0.27972255380E+04 0.  0.
        5    1    3    3  502    0  0.81086460531E+03  0.54992928476E+03  0.14043179902E+04  0.17123243659E+04  0.46999998093E+01 0. -1.
       -5    1    3    3    0  502 -0.81086460531E+03 -0.54992928476E+03 -0.66110771015E+03  0.11819514037E+04  0.46999998093E+01 0.  1.
</event>
<event>
 5   0  0.1246044E-06  0.2811111E+04  0.7818609E-02  0.8299827E-01
       -1   -1    0    0    0  501  0.00000000000E+00  0.00000000000E+00  0.16490925358E+04  0.16490925358E+04  0.50400001928E-02 0.  1.
        1   -1    0    0  501    0  0.00000000000E+00  0.00000000000E+00 -0.11979838505E+04  0.11979838505E+04  0.50400001928E-02 0. -1.
    10030    2    1    2    0    0  0.00000000000E+00  0.00000000000E+00  0.45110868530E+03  0.28470763864E+04  0.28111109732E+04 0.  0.
        2    1    3    3  502    0  0.51029554343E+03  0.65410666883E+03 -0.92356710514E+03  0.12414641652E+04  0.25500000920E-02 0. -1.
       -2    1    3    3    0  502 -0.51029554343E+03 -0.65410666883E+03  0.13746757904E+04  0.16056122211E+04  0.25500000920E-02 0.  1.
</event>
<event>
 5   0  0.3226364E-06  0.2802894E+04  0.7818609E-02  0.8302371E-01
        2   -1    0    0  501    0  0.00000000000E+00  0.00000000000E+00  0.21845770784E+04  0.21845770784E+04  0.25500000920E-02 0. -1.
       -2   -1    0    0    0  501  0.00000000000E+00  0.00000000000E+00 -0.89905429023E+03  0.89905429023E+03  0.25500000920E-02 0.  1.
    10030    2    1    2    0    0  0.00000000000E+00  0.00000000000E+00  0.12855227881E+04  0.30836313686E+04  0.28028937865E+04 0.  0.
        5    1    3    3  502    0  0.61667262609E+03 -0.77166415098E+03  0.17364557036E+04  0.19977615449E+04  0.46999998093E+01 0. -1.
       -5    1    3    3    0  502 -0.61667262609E+03  0.77166415098E+03 -0.45093291550E+03  0.10858698237E+04  0.46999998093E+01 0.  1.
</event>
<event>
 5   0  0.1235252E-06  0.2800082E+04  0.7818609E-02  0.8303243E-01
       -1   -1    0    0    0  501  0.00000000000E+00  0.00000000000E+00  0.10456294697E+04  0.10456294697E+04  0.50400001928E-02 0.  1.
        1   -1    0    0  501    0  0.00000000000E+00  0.00000000000E+00 -0.18745793046E+04  0.18745793046E+04  0.50400001928E-02 0. -1.
    10030    2    1    2    0    0  0.00000000000E+00  0.00000000000E+00 -0.82894983496E+03  0.29202087743E+04  0.28000824018E+04 0.  0.
        1    1    3    3  502    0  0.86962668695E+03 -0.62515711921E+03 -0.13548474704E+04  0.17270447783E+04  0.50400001928E-02 0. -1.
       -1    1    3    3    0  502 -0.86962668695E+03  0.62515711921E+03  0.52589763541E+03  0.11931639960E+04  0.50400001928E-02 0.  1.
</event>
<event>
 5   0  0.3167616E-06  0.2794662E+04  0.7818609E-02  0.8304927E-01
       -2   -1    0    0    0  501  0.00000000000E+00  0.00000000000E+00  0.88951260417E+03  0.88951260417E+03  0.25500000920E-02 0. -1.
        2   -1    0    0  501    0  0.00000000000E+00  0.00000000000E+00 -0.21950610584E+04  0.21950610584E+04  0.25500000920E-02 0.  1.
    10030    2    1    2    0    0  0.00000000000E+00  0.00000000000E+00 -0.13055484542E+04  0.30845736625E+04  0.27946623970E+04 0.  0.
        3    1    3    3  502    0  0.54370360313E+03 -0.12679885390E+04 -0.40813777736E+03  0.14387442436E+04  0.10100000352E+00 0. -1.
       -3    1    3    3    0  502 -0.54370360313E+03  0.12679885390E+04 -0.89741067685E+03  0.16458294189E+04  0.10100000352E+00 0.  1.
</event>
<event>
 5   0  0.3162695E-06  0.2793316E+04  0.7818609E-02  0.8305346E-01
       -2   -1    0    0    0  501  0.00000000000E+00  0.00000000000E+00  0.79185323188E+03  0.79185323188E+03  0.25500000920E-02 0.  1.
        2   -1    0    0  501    0  0.00000000000E+00  0.00000000000E+00 -0.24634028286E+04  0.24634028286E+04  0.25500000920E-02 0. -1.
    10030    2    1    2    0    0  0.00000000000E+00  0.00000000000E+00 -0.16715495967E+04  0.32552560605E+04  0.27933159444E+04 0.  0.
        1    1    3    3  502    0 -0.52316560803E+03  0.72936951401E+03  0.41121357891E+03  0.98730884170E+03  0.50400001928E-02 0.  1.
       -1    1    3    3    0  502  0.52316560803E+03 -0.72936951401E+03 -0.20827631756E+04  0.22679472188E+04  0.50400001928E-02 0. -1.
</event>
<event>
 5   0  0.3167616E-06  0.2796865E+04  0.7818609E-02  0.8304242E-01
       -2   -1    0    0    0  501  0.00000000000E+00  0.00000000000E+00  0.11078351615E+04  0.11078351615E+04  0.25500000920E-02 0. -1.
        2   -1    0    0  501    0  0.00000000000E+00  0.00000000000E+00 -0.17652571807E+04  0.17652571807E+04  0.25500000920E-02 0.  1.
    10030    2    1    2    0    0  0.00000000000E+00  0.00000000000E+00 -0.65742201923E+03  0.28730923422E+04  0.27968653696E+04 0.  0.
        3    1    3    3  502    0  0.24181991958E+03  0.29683132041E+03 -0.17103694625E+04  0.17526977534E+04  0.10100000352E+00 0.  1.
       -3    1    3    3    0  502 -0.24181991958E+03 -0.29683132041E+03  0.10529474433E+04  0.11203945889E+04  0.10100000352E+00 0. -1.
</event>
<event>
 5   0  0.1246044E-06  0.2808620E+04  0.7818609E-02  0.8300597E-01
       -1   -1    0    0    0  501  0.00000000000E+00  0.00000000000E+00  0.11592787923E+04  0.11592787923E+04  0.50400001928E-02 0. -1.
        1   -1    0    0  501    0  0.00000000000E+00  0.00000000000E+00 -0.17011328472E+04  0.17011328472E+04  0.50400001928E-02 0.  1.
    10030    2    1    2    0    0  0.00000000000E+00  0.00000000000E+00 -0.54185405485E+03  0.28604116395E+04  0.28086204675E+04 0.  0.
        2    1    3    3  502    0  0.13536984090E+03  0.13020672819E+04 -0.78861428512E+03  0.15282724532E+04  0.25500000920E-02 0. -1.
       -2    1    3    3    0  502 -0.13536984090E+03 -0.13020672819E+04  0.24676023027E+03  0.13321391863E+04  0.25500000920E-02 0.  1.
</event>
<event>
 5   0  0.3212679E-06  0.2807548E+04  0.7818609E-02  0.8300929E-01
       -2   -1    0    0    0  501  0.00000000000E+00  0.00000000000E+00  0.14460430492E+04  0.14460430492E+04  0.25500000920E-02 0.  1.
        2   -1    0    0  501    0  0.00000000000E+00  0.00000000000E+00 -0.13627401593E+04  0.13627401593E+04  0.25500000920E-02 0. -1.
    10030    2    1    2    0    0  0.00000000000E+00  0.00000000000E+00  0.83302889863E+02  0.28087832085E+04  0.28075476382E+04 0.  0.
        4    1    3    3  502    0 -0.60342772750E+03 -0.74643433965E+03 -0.98314797028E+03  0.13739981041E+04  0.12699999809E+01 0. -1.
       -4    1    3    3    0  502  0.60342772750E+03  0.74643433965E+03  0.10664508601E+04  0.14347851044E+04  0.12699999809E+01 0.  1.
</event>
<event>
 5   0  0.1243055E-06  0.2808075E+04  0.7818609E-02  0.8300766E-01
       -1   -1    0    0    0  501  0.00000000000E+00  0.00000000000E+00  0.11825012670E+04  0.11825012670E+04  0.50400001928E-02 0.  1.
        1   -1    0    0  501    0  0.00000000000E+00  0.00000000000E+00 -0.16670778416E+04  0.16670778416E+04  0.50400001928E-02 0. -1.
    10030    2    1    2    0    0  0.00000000000E+00  0.00000000000E+00 -0.48457657458E+03  0.28495791086E+04  0.28080752553E+04 0.  0.
        5    1    3    3  502    0  0.11540343407E+04 -0.28696873989E+03 -0.99974760223E+03  0.15535970119E+04  0.46999998093E+01 0. -1.
       -5    1    3    3    0  502 -0.11540343407E+04  0.28696873989E+03  0.51517102764E+03  0.12959820967E+04  0.46999998093E+01 0.  1.
</event>
<event>
 5   0  0.1246044E-06  0.2804217E+04  0.7818609E-02  0.8301960E-01
        1   -1    0    0  501    0  0.00000000000E+00  0.00000000000E+00  0.14084277864E+04  0.14084277864E+04  0.50400001928E-02 0.  1.
       -1   -1    0    0    0  501  0.00000000000E+00  0.00000000000E+00 -0.13958175582E+04  0.13958175582E+04  0.50400001928E-02 0. -1.
    10030    2    1    2    0    0  0.00000000000E+00  0.00000000000E+00  0.12610228175E+02  0.28042453446E+04  0.28042169914E+04 0.  0.
        2    1    3    3  502    0 -0.20066851423E+03  0.13154736568E+04 -0.43547920665E+03  0.14001360412E+04  0.25500000920E-02 0. -1.
       -2    1    3    3    0  502  0.20066851423E+03 -0.13154736568E+04  0.44808943482E+03  0.14041093034E+04  0.25500000920E-02 0.  1.
</event>
<event>
 5   0  0.1246044E-06  0.2799939E+04  0.7818609E-02  0.8303287E-01
        1   -1    0    0  501    0  0.00000000000E+00  0.00000000000E+00  0.13640028306E+04  0.13640028306E+04  0.50400001928E-02 0. -1.
       -1   -1    0    0    0  501  0.00000000000E+00  0.00000000000E+00 -0.14368848773E+04  0.14368848773E+04  0.50400001928E-02 0.  1.
    10030    2    1    2    0    0  0.00000000000E+00  0.00000000000E+00 -0.72882046702E+02  0.28008877079E+04  0.27999393136E+04 0.  0.
        2    1    3    3  502    0  0.58298486597E+03  0.10316499070E+04  0.70929264267E+03  0.13810390789E+04  0.25500000920E-02 0. -1.
       -2    1    3    3    0  502 -0.58298486597E+03 -0.10316499070E+04 -0.78217468937E+03  0.14198486290E+04  0.25500000920E-02 0.  1.
</event>
<event>
 5   0  0.1263513E-06  0.2780040E+04  0.7818609E-02  0.8309492E-01
        1   -1    0    0  501    0  0.00000000000E+00  0.00000000000E+00  0.18136357859E+04  0.18136357860E+04  0.50400001928E-02 0.  1.
       -1   -1    0    0    0  501  0.00000000000E+00  0.00000000000E+00 -0.10653490642E+04  0.10653490642E+04  0.50400001928E-02 0. -1.
    10030    2    1    2    0    0  0.00000000000E+00  0.00000000000E+00  0.74828672176E+03  0.28789848502E+04  0.27800397029E+04 0.  0.
        3    1    3    3  502    0 -0.49546005673E+03 -0.63831368090E+03 -0.79714202675E+03  0.11350596654E+04  0.10100000352E+00 0. -1.
       -3    1    3    3    0  502  0.49546005673E+03  0.63831368090E+03  0.15454287485E+04  0.17439251847E+04  0.10100000352E+00 0.  1.
</event>
<event>
 5   0  0.1243055E-06  0.2807532E+04  0.7818609E-02  0.8300934E-01
       -1   -1    0    0    0  501  0.00000000000E+00  0.00000000000E+00  0.10164732522E+04  0.10164732522E+04  0.50400001928E-02 0. -1.
        1   -1    0    0  501    0  0.00000000000E+00  0.00000000000E+00 -0.19386235142E+04  0.19386235142E+04  0.50400001928E-02 0.  1.
    10030    2    1    2    0    0  0.00000000000E+00  0.00000000000E+00 -0.92215026203E+03  0.29550967664E+04  0.28075319754E+04 0.  0.
        5    1    3    3  502    0  0.11694795339E+04  0.71083143669E+03 -0.13229001360E+03  0.13749496170E+04  0.46999998093E+01 0. -1.
       -5    1    3    3    0  502 -0.11694795339E+04 -0.71083143669E+03 -0.78986024843E+03  0.15801471494E+04  0.46999998093E+01 0.  1.
</event>
<event>
 5   0  0.3226364E-06  0.2840262E+04  0.7818609E-02  0.8290876E-01
        2   -1    0    0  501    0  0.00000000000E+00  0.00000000000E+00  0.19483956352E+04  0.19483956353E+04  0.25500000920E-02 0.  1.
       -2   -1    0    0    0  501  0.00000000000E+00  0.00000000000E+00 -0.10350937400E+04  0.10350937400E+04  0.25500000920E-02 0. -1.
    10030    2    1    2    0    0  0.00000000000E+00  0.00000000000E+00  0.91330189521E+03  0.29834893753E+04  0.28402620479E+04 0.  0.
        5    1    3    3  502    0  0.21256636271E+03  0.64347478857E+03  0.17675852195E+04  0.18930461855E+04  0.46999998093E+01 0.  1.
       -5    1    3    3    0  502 -0.21256636271E+03 -0.64347478857E+03 -0.85428332429E+03  0.10904431898E+04  0.46999998093E+01 0. -1.
</event>
<event>
 5   0  0.1263513E-06  0.2770168E+04  0.7818609E-02  0.8312590E-01
       -1   -1    0    0    0  501  0.00000000000E+00  0.00000000000E+00  0.12199925535E+04  0.12199925535E+04  0.50400001928E-02 0.  1.
        1   -1    0    0  501    0  0.00000000000E+00  0.00000000000E+00 -0.15725161272E+04  0.15725161272E+04  0.50400001928E-02 0. -1.
    10030    2    1    2    0    0  0.00000000000E+00  0.00000000000E+00 -0.35252357370E+03  0.27925086806E+04  0.27701682009E+04 0.  0.
        3    1    3    3  502    0  0.71931970074E+03  0.28813106143E+03 -0.13335699045E+04  0.15423517889E+04  0.10100000352E+00 0. -1.
       -3    1    3    3    0  502 -0.71931970074E+03 -0.28813106143E+03  0.98104633081E+03  0.12501568917E+04  0.10100000352E+00 0.  1.
</event>
<event>
 5   0  0.1243055E-06  0.2805745E+04  0.7818609E-02  0.8301487E-01
       -1   -1    0    0    0  501  0.00000000000E+00  0.00000000000E+00  0.13441808631E+04  0.13441808632E+04  0.50400001928E-02 0.  1.
        1   -1    0    0  501    0  0.00000000000E+00  0.00000000000E+00 -0.14641263836E+04  0.14641263836E+04  0.50400001928E-02 0. -1.
    10030    2    1    2    0    0  0.00000000000E+00  0.00000000000E+00 -0.11994552049E+03  0.28083072468E+04  0.28057445829E+04 0.  0.
        5    1    3    3  502    0 -0.11938286621E+04 -0.35507902831E+03 -0.70610135996E+03  0.14317504012E+04  0.46999998093E+01 0. -1.
       -5    1    3    3    0  502  0.11938286621E+04  0.35507902831E+03  0.58615583946E+03  0.13765568456E+04  0.46999998093E+01 0.  1.
</event>
<event>
 5   0  0.1220265E-06  0.2730198E+04  0.7818609E-02  0.8325273E-01
       -1   -1    0    0    0  501  0.00000000000E+00  0.00000000000E+00  0.93130663591E+03  0.93130663592E+03  0.50400001928E-02 0. -1.
        1   -1    0    0  501    0  0.00000000000E+00  0.00000000000E+00 -0.20009467766E+04  0.20009467766E+04  0.50400001928E-02 0.  1.
    10030    2    1    2    0    0  0.00000000000E+00  0.00000000000E+00 -0.10696401406E+04  0.29322534125E+04  0.27301978032E+04 0.  0.
        4    1    3    3  502    0  0.11641284392E+04  0.49629662939E+03 -0.10845483931E+04  0.16666589924E+04  0.12699999809E+01 0.  1.
       -4    1    3    3    0  502 -0.11641284392E+04 -0.49629662939E+03  0.14908252427E+02  0.12655944201E+04  0.12699999809E+01 0. -1.
</event>
<event>
 5   0  0.1246044E-06  0.2808874E+04  0.7818609E-02  0.8300519E-01
       -1   -1    0    0    0  501  0.00000000000E+00  0.00000000000E+00  0.97296730456E+03  0.97296730457E+03  0.50400001928E-02 0.  1.
        1   -1    0    0  501    0  0.00000000000E+00  0.00000000000E+00 -0.20272449354E+04  0.20272449354E+04  0.50400001928E-02 0. -1.
    10030    2    1    2    0    0  0.00000000000E+00  0.00000000000E+00 -0.10542776309E+04  0.30002122400E+04  0.28088738245E+04 0.  0.
        2    1    3    3  502    0 -0.14003598460E+04 -0.10242450751E+03 -0.49431152207E+03  0.14885705757E+04  0.25500000920E-02 0. -1.
       -2    1    3    3    0  502  0.14003598460E+04  0.10242450751E+03 -0.55996610881E+03  0.15116416643E+04  0.25500000920E-02 0.  1.
</event>
<event>
 5   0  0.3345919E-06  0.2790650E+04  0.7818609E-02  0.8306177E-01
        2   -1    0    0  501    0  0.00000000000E+00  0.00000000000E+00  0.13818849487E+04  0.13818849488E+04  0.25500000920E-02 0.  1.
       -2   -1    0    0    0  501  0.00000000000E+00  0.00000000000E+00 -0.14088957777E+04  0.14088957777E+04  0.25500000920E-02 0. -1.
    10030    2    1    2    0    0  0.00000000000E+00  0.00000000000E+00 -0.27010828975E+02  0.27907807265E+04  0.27906500100E+04 0.  0.
        2    1    3    3  502    0 -0.59921890984E+03  0.73251447554E+03 -0.10388783222E+04  0.14053145296E+04  0.25500000920E-02 0. -1.
       -2    1    3    3    0  502  0.59921890984E+03 -0.73251447554E+03  0.10118674932E+04  0.13854661969E+04  0.25500000920E-02 0.  1.
</event>
<event>
 5   0  0.3167616E-06  0.2801821E+04  0.7818609E-02  0.8302703E-01
       -2   -1    0    0    0  501  0.00000000000E+00  0.00000000000E+00  0.91259607527E+03  0.91259607528E+03  0.25500000920E-02 0.  1.
        2   -1    0    0  501    0  0.00000000000E+00  0.00000000000E+00 -0.21505138625E+04  0.21505138625E+04  0.25500000920E-02 0. -1.
    10030    2    1    2    0    0  0.00000000000E+00  0.00000000000E+00 -0.12379177872E+04  0.30631099378E+04  0.28018212011E+04 0.  0.
        3    1    3    3  502    0  0.49158258735E+03  0.44483304015E+03 -0.19681549393E+04  0.20768157716E+04  0.10100000352E+00 0. -1.
       -3    1    3    3    0  502 -0.49158258735E+03 -0.44483304015E+03  0.73023715208E+03  0.98629416619E+03  0.10100000352E+00 0.  1.
</event>
<event>
 5   0  0.3212679E-06  0.2881095E+04  0.7818609E-02  0.8278525E-01
        2   -1    0    0  501    0  0.00000000000E+00  0.00000000000E+00  0.16522355406E+04  0.16522355406E+04  0.25500000920E-02 0.  1.
       -2   -1    0    0    0  501  0.00000000000E+00  0.00000000000E+00 -0.12559814877E+04  0.12559814877E+04  0.25500000920E-02 0. -1.
    10030    2    1    2    0    0  0.00000000000E+00  0.00000000000E+00  0.39625405296E+03  0.29082170283E+04  0.28810951059E+04 0.  0.
        4    1    3    3  502    0  0.78756298150E+03 -0.10432119428E+03 -0.10148663255E+04  0.12888342147E+04  0.12699999809E+01 0. -1.
       -4    1    3    3    0  502 -0.78756298150E+03  0.10432119428E+03  0.14111203785E+04  0.16193828136E+04  0.12699999809E+01 0.  1.
</event>
<event>
 5   0  0.1243055E-06  0.2798754E+04  0.7818609E-02  0.8303655E-01
        1   -1    0    0  501    0  0.00000000000E+00  0.00000000000E+00  0.10649525256E+04  0.10649525256E+04  0.50400001928E-02 0.  1.
       -1   -1    0    0    0  501  0.00000000000E+00  0.00000000000E+00 -0.18388198130E+04  0.18388198130E+04  0.50400001928E-02 0. -1.
    10030    2    1    2    0    0  0.00000000000E+00  0.00000000000E+00 -0.77386728738E+03  0.29037723386E+04  0.27987538685E+04 0.  0.
        5    1    3    3  502    0 -0.23751630086E+03  0.12052161639E+04 -0.10823635518E+04  0.16372211039E+04  0.46999998093E+01 0. -1.
       -5    1    3    3    0  502  0.23751630086E+03 -0.12052161639E+04  0.30849626439E+03  0.12665512347E+04  0.46999998093E+01 0.  1.
</event>
<event>
 5   0  0.3162695E-06  0.2808799E+04  0.7818609E-02  0.8300542E-01
        2   -1    0    0  501    0  0.00000000000E+00  0.00000000000E+00  0.18306658537E+04  0.18306658537E+04  0.25500000920E-02 0. -1.
       -2   -1    0    0    0  501  0.00000000000E+00  0.00000000000E+00 -0.10773884784E+04  0.10773884784E+04  0.25500000920E-02 0.  1.
    10030    2    1    2    0    0  0.00000000000E+00  0.00000000000E+00  0.75327737525E+03  0.29080543321E+04  0.28087992442E+04 0.  0.
        1    1    3    3  502    0  0.53495451279E+03 -0.64509823512E+03 -0.79013177757E+03  0.11517969828E+04  0.50400001928E-02 0.  1.
       -1    1    3    3    0  502 -0.53495451279E+03  0.64509823512E+03  0.15434091528E+04  0.17562573492E+04  0.50400001928E-02 0. -1.
</event>
<event>
 5   0  0.3226364E-06  0.2796609E+04  0.7818609E-02  0.8304322E-01
        2   -1    0    0  501    0  0.00000000000E+00  0.00000000000E+00  0.16455611746E+04  0.16455611746E+04  0.25500000920E-02 0. -1.
       -2   -1    0    0    0  501  0.00000000000E+00  0.00000000000E+00 -0.11882001056E+04  0.11882001056E+04  0.25500000920E-02 0.  1.
    10030    2    1    2    0    0  0.00000000000E+00  0.00000000000E+00  0.45736106899E+03  0.28337612802E+04  0.27966093480E+04 0.  0.
        5    1    3    3  502    0 -0.89304432630E+03 -0.69728385758E+03 -0.60165718015E+03  0.12828664775E+04  0.46999998093E+01 0.  1.
       -5    1    3    3    0  502  0.89304432630E+03  0.69728385758E+03  0.10590182491E+04  0.15508948026E+04  0.46999998093E+01 0. -1.
</event>
<event>
 5   0  0.1220265E-06  0.2793975E+04  0.7818609E-02  0.8305141E-01
        1   -1    0    0  501    0  0.00000000000E+00  0.00000000000E+00  0.13089393926E+04  0.13089393926E+04  0.50400001928E-02 0.  1.
       -1   -1    0    0    0  501  0.00000000000E+00  0.00000000000E+00 -0.14909586937E+04  0.14909586937E+04  0.50400001928E-02 0. -1.
    10030    2    1    2    0    0  0.00000000000E+00  0.00000000000E+00 -0.18201930113E+03  0.27998980863E+04  0.27939753520E+04 0.  0.
        4    1    3    3  502    0  0.31031934309E+03  0.91342091795E+03  0.92154656334E+03  0.13341235135E+04  0.12699999809E+01 0.  1.
       -4    1    3    3    0  502 -0.31031934309E+03 -0.91342091795E+03 -0.11035658645E+04  0.14657745728E+04  0.12699999809E+01 0. -1.
</event>
<event>
 5   0  0.1246044E-06  0.2743017E+04  0.7818609E-02  0.8321181E-01
       -1   -1    0    0    0  501  0.00000000000E+00  0.00000000000E+00  0.17547217073E+04  0.17547217073E+04  0.50400001928E-02 0.  1.
        1   -1    0    0  501    0  0.00000000000E+00  0.00000000000E+00 -0.10719854236E+04  0.10719854236E+04  0.50400001928E-02 0. -1.
    10030    2    1    2    0    0  0.00000000000E+00  0.00000000000E+00  0.68273628371E+03  0.28267071310E+04  0.27430173844E+04 0.  0.
        2    1    3    3  502    0  0.42050939767E+03 -0.10565573677E+04  0.11315043088E+04  0.16041956320E+04  0.25500000920E-02 0.  1.
       -2    1    3    3    0  502 -0.42050939767E+03  0.10565573677E+04 -0.44876802514E+03  0.12225114990E+04  0.25500000920E-02 0. -1.
</event>
<event>
 5   0  0.1246044E-06  0.2811391E+04  0.7818609E-02  0.8299741E-01
        1   -1    0    0  501    0  0.00000000000E+00  0.00000000000E+00  0.16916657131E+04  0.16916657131E+04  0.50400001928E-02 0.  1.
       -1   -1    0    0    0  501  0.00000000000E+00  0.00000000000E+00 -0.11680677535E+04  0.11680677535E+04  0.50400001928E-02 0. -1.
    10030    2    1    2    0    0  0.00000000000E+00  0.00000000000E+00  0.52359795955E+03  0.28597334666E+04  0.28113912351E+04 0.  0.
        2    1    3    3  502    0 -0.93377911602E+03  0.59415359345E+03 -0.61971562795E+03  0.12684673388E+04  0.25500000920E-02 0. -1.
       -2    1    3    3    0  502  0.93377911602E+03 -0.59415359345E+03  0.11433135875E+04  0.15912661278E+04  0.25500000920E-02 0.  1.
</event>
<event>
 5   0  0.1243055E-06  0.2802590E+04  0.7818609E-02  0.8302465E-01
        1   -1    0    0  501    0  0.00000000000E+00  0.00000000000E+00  0.87282004425E+03  0.87282004427E+03  0.50400001928E-02 0.  1.
       -1   -1    0    0    0  501  0.00000000000E+00  0.00000000000E+00 -0.22497505353E+04  0.22497505353E+04  0.50400001928E-02 0. -1.
    10030    2    1    2    0    0  0.00000000000E+00  0.00000000000E+00 -0.13769304910E+04  0.31225705796E+04  0.28025897750E+04 0.  0.
        5    1    3    3  502    0  0.13035534025E+04 -0.47345722906E+03 -0.91183420101E+03  0.16597821909E+04  0.46999998093E+01 0.  1.
       -5    1    3    3    0  502 -0.13035534025E+04  0.47345722906E+03 -0.46509629002E+03  0.14627883887E+04  0.46999998093E+01 0. -1.
</event>
<event>
 5   0  0.1246044E-06  0.2699165E+04  0.7818609E-02  0.8335276E-01
       -1   -1    0    0    0  501  0.00000000000E+00  0.00000000000E+00  0.83304855376E+03  0.83304855378E+03  0.50400001928E-02 0.  1.
        1   -1    0    0  501    0  0.00000000000E+00  0.00000000000E+00 -0.21863953072E+04  0.21863953072E+04  0.50400001928E-02 0. -1.
    10030    2    1    2    0    0  0.00000000000E+00  0.00000000000E+00 -0.13533467534E+04  0.30194438610E+04  0.26991653885E+04 0.  0.
        2    1    3    3  502    0 -0.12413429447E+04 -0.16610326651E+03 -0.12391826283E+04  0.17618445413E+04  0.25500000920E-02 0. -1.
       -2    1    3    3    0  502  0.12413429447E+04  0.16610326651E+03 -0.11416412518E+03  0.12575993197E+04  0.25500000920E-02 0.  1.
</event>
<event>
 5   0  0.3345919E-06  0.2798777E+04  0.7818609E-02  0.8303648E-01
        2   -1    0    0  501    0  0.00000000000E+00  0.00000000000E+00  0.22294370362E+04  0.22294370362E+04  0.25500000920E-02 0.  1.
       -2   -1    0    0    0  501  0.00000000000E+00  0.00000000000E+00 -0.87837761199E+03  0.87837761199E+03  0.25500000920E-02 0. -1.
    10030    2    1    2    0    0  0.00000000000E+00  0.00000000000E+00  0.13510594242E+04  0.31078146482E+04  0.27987765755E+04 0.  0.
        2    1    3    3  502    0 -0.12759637176E+04 -0.39496599962E+00  0.37445419617E+02  0.12765131116E+04  0.25500000920E-02 0. -1.
       -2    1    3    3    0  502  0.12759637176E+04  0.39496599962E+00  0.13136140046E+04  0.18313015366E+04  0.25500000920E-02 0.  1.
</event>
<event>
 5   0  0.3345919E-06  0.2804951E+04  0.7818609E-02  0.8301733E-01
        2   -1    0    0  501    0  0.00000000000E+00  0.00000000000E+00  0.16103806106E+04  0.16103806106E+04  0.25500000920E-02 0.  1.
       -2   -1    0    0    0  501  0.00000000000E+00  0.00000000000E+00 -0.12214112521E+04  0.12214112521E+04  0.25500000920E-02 0. -1.
    10030    2    1    2    0    0  0.00000000000E+00  0.00000000000E+00  0.38896935855E+03  0.28317918627E+04  0.28049506220E+04 0.  0.
        2    1    3    3  502    0  0.45431884085E+03 -0.12185133541E+04  0.72463504193E+03  0.14887163421E+04  0.25500000920E-02 0. -1.
       -2    1    3    3    0  502 -0.45431884085E+03  0.12185133541E+04 -0.33566568338E+03  0.13430755207E+04  0.25500000920E-02 0.  1.
</event>
<event>
 5   0  0.3167616E-06  0.2796365E+04  0.7818609E-02  0.8304398E-01
        2   -1    0    0  501    0  0.00000000000E+00  0.00000000000E+00  0.12942210976E+04  0.12942210976E+04  0.25500000920E-02 0. -1.
       -2   -1    0    0    0  501  0.00000000000E+00  0.00000000000E+00 -0.15104949194E+04  0.15104949194E+04  0.25500000920E-02 0.  1.
    10030    2    1    2    0    0  0.00000000000E+00  0.00000000000E+00 -0.21627382182E+03  0.28047160170E+04  0.27963650637E+04 0.  0.
        3    1    3    3  502    0 -0.35890629129E+03 -0.10667181350E+04 -0.94020044133E+03  0.14665190710E+04  0.10100000352E+00 0.  1.
       -3    1    3    3    0  502  0.35890629129E+03  0.10667181350E+04  0.72392661951E+03  0.13381969460E+04  0.10100000352E+00 0. -1.
</event>
<event>
 5   0  0.1235252E-06  0.2796286E+04  0.7818609E-02  0.8304422E-01
        1   -1    0    0  501    0  0.00000000000E+00  0.00000000000E+00  0.11545840735E+04  0.11545840735E+04  0.50400001928E-02 0.  1.
       -1   -1    0    0    0  501  0.00000000000E+00  0.00000000000E+00 -0.16930801692E+04  0.16930801692E+04  0.50400001928E-02 0. -1.
    10030    2    1    2    0    0  0.00000000000E+00  0.00000000000E+00 -0.53849609572E+03  0.28476642427E+04  0.27962856782E+04 0.  0.
        1    1    3    3  502    0 -0.83773649836E+03 -0.62355846067E+03  0.67744305325E+03  0.12448119075E+04  0.50400001928E-02 0.  1.
       -1    1    3    3    0  502  0.83773649836E+03  0.62355846067E+03 -0.12159391490E+04  0.16028523352E+04  0.50400001928E-02 0. -1.
</event>
<event>
 5   0  0.1246044E-06  0.2796543E+04  0.7818609E-02  0.8304342E-01
       -1   -1    0    0    0  501  0.00000000000E+00  0.00000000000E+00  0.92820837806E+03  0.92820837807E+03  0.50400001928E-02 0. -1.
        1   -1    0    0  501    0  0.00000000000E+00  0.00000000000E+00 -0.21063841313E+04  0.21063841313E+04  0.50400001928E-02 0.  1.
    10030    2    1    2    0    0  0.00000000000E+00  0.00000000000E+00 -0.11781757533E+04  0.30345925094E+04  0.27965431505E+04 0.  0.
        2    1    3    3  502    0 -0.67180442056E+03  0.79242796030E+03 -0.16046492076E+04  0.19115863389E+04  0.25500000920E-02 0.  1.
       -2    1    3    3    0  502  0.67180442056E+03 -0.79242796030E+03  0.42647345429E+03  0.11230061705E+04  0.25500000920E-02 0. -1.
</event>
<event>
 5   0  0.1246044E-06  0.2802553E+04  0.7818609E-02  0.8302476E-01
       -1   -1    0    0    0  501  0.00000000000E+00  0.00000000000E+00  0.14390992270E+04  0.14390992270E+04  0.50400001928E-02 0.  1.
        1   -1    0    0  501    0  0.00000000000E+00  0.00000000000E+00 -0.13644478891E+04  0.13644478891E+04  0.50400001928E-02 0. -1.
    10030    2    1    2    0    0  0.00000000000E+00  0.00000000000E+00  0.74651337827E+02  0.28035471161E+04  0.28025530521E+04 0.  0.
        2    1    3    3  502    0 -0.21097903806E+03  0.41692922451E+03 -0.12842158765E+04  0.13665842638E+04  0.25500000920E-02 0. -1.
       -2    1    3    3    0  502  0.21097903806E+03 -0.41692922451E+03  0.13588672143E+04  0.14369628523E+04  0.25500000920E-02 0.  1.
</event>
<event>
 5   0  0.3167616E-06  0.2796912E+04  0.7818609E-02  0.8304228E-01
       -2   -1    0    0    0  501  0.00000000000E+00  0.00000000000E+00  0.10193335107E+04  0.10193335107E+04  0.25500000920E-02 0. -1.
        2   -1    0    0  501    0  0.00000000000E+00  0.00000000000E+00 -0.19185856879E+04  0.19185856879E+04  0.25500000920E-02 0.  1.
    10030    2    1    2    0    0  0.00000000000E+00  0.00000000000E+00 -0.89925217717E+03  0.29379191986E+04  0.27969116431E+04 0.  0.
        3    1    3    3  502    0  0.12508391782E+03  0.13441282390E+04 -0.83321037738E+03  0.15863688892E+04  0.10100000352E+00 0.  1.
       -3    1    3    3    0  502 -0.12508391782E+03 -0.13441282390E+04 -0.66041799796E+02  0.13515503094E+04  0.10100000352E+00 0. -1.
</event>
<event>
 5   0  0.3345919E-06  0.2813307E+04  0.7818609E-02  0.8299149E-01
       -2   -1    0    0    0  501  0.00000000000E+00  0.00000000000E+00  0.13659817279E+04  0.13659817279E+04  0.25500000920E-02 0. -1.
        2   -1    0    0  501    0  0.00000000000E+00  0.00000000000E+00 -0.14485363897E+04  0.14485363897E+04  0.25500000920E-02 0.  1.
    10030    2    1    2    0    0  0.00000000000E+00  0.00000000000E+00 -0.82554661790E+02  0.28145181176E+04  0.28133071219E+04 0.  0.
        2    1    3    3  502    0 -0.10515822372E+04  0.88099201733E+03  0.26982614628E+03  0.13981338582E+04  0.25500000920E-02 0. -1.
       -2    1    3    3    0  502  0.10515822372E+04 -0.88099201733E+03 -0.35238080807E+03  0.14163842594E+04  0.25500000920E-02 0.  1.
</event>
<event>
 5   0  0.3345919E-06  0.2791081E+04  0.7818609E-02  0.8306043E-01
       -2   -1    0    0    0  501  0.00000000000E+00  0.00000000000E+00  0.10859571685E+04  0.10859571685E+04  0.25500000920E-02 0. -1.
        2   -1    0    0  501    0  0.00000000000E+00  0.00000000000E+00 -0.17933798556E+04  0.17933798556E+04  0.25500000920E-02 0.  1.
    10030    2    1    2    0    0  0.00000000000E+00  0.00000000000E+00 -0.70742268706E+03  0.28793370241E+04  0.27910813030E+04 0.  0.
        2    1    3    3  502    0  0.35171474678E+03  0.22684451642E+03 -0.17271126491E+04  0.17770987030E+04  0.25500000920E-02 0.  1.
       -2    1    3    3    0  502 -0.35171474678E+03 -0.22684451642E+03  0.10196899620E+04  0.11022383210E+04  0.25500000920E-02 0. -1.
</event>
<event>
 5   0  0.1220265E-06  0.2777761E+04  0.7818609E-02  0.8310206E-01
       -1   -1    0    0    0  501  0.00000000000E+00  0.00000000000E+00  0.94377316584E+03  0.94377316585E+03  0.50400001928E-02 0. -1.
        1   -1    0    0  501    0  0.00000000000E+00  0.00000000000E+00 -0.20439116564E+04  0.20439116564E+04  0.50400001928E-02 0.  1.
    10030    2    1    2    0    0  0.00000000000E+00  0.00000000000E+00 -0.11001384906E+04  0.29876848223E+04  0.27777609506E+04 0.  0.
        4    1    3    3  502    0 -0.23828234615E+03 -0.56423513286E+03  0.79066938626E+03  0.10001497153E+04  0.12699999809E+01 0. -1.
       -4    1    3    3    0  502  0.23828234615E+03  0.56423513286E+03 -0.18908078768E+04  0.19875351070E+04  0.12699999809E+01 0.  1.
</event>
<event>
 5   0  0.3162695E-06  0.2785395E+04  0.7818609E-02  0.8307817E-01
       -2   -1    0    0    0  501  0.00000000000E+00  0.00000000000E+00  0.92332330425E+03  0.92332330425E+03  0.25500000920E-02 0. -1.
        2   -1    0    0  501    0  0.00000000000E+00  0.00000000000E+00 -0.21006797175E+04  0.21006797175E+04  0.25500000920E-02 0.  1.
    10030    2    1    2    0    0  0.00000000000E+00  0.00000000000E+00 -0.11773564133E+04  0.30240030218E+04  0.27853951518E+04 0.  0.
        1    1    3    3  502    0 -0.77946042950E+03  0.87484633408E+03  0.22859807616E+03  0.11938055746E+04  0.50400001928E-02 0. -1.
       -1    1    3    3    0  502  0.77946042950E+03 -0.87484633408E+03 -0.14059544895E+04  0.18301974472E+04  0.50400001928E-02 0.  1.
</event>
<event>
 5   0  0.3167616E-06  0.2760724E+04  0.7818609E-02  0.8315567E-01
       -2   -1    0    0    0  501  0.00000000000E+00  0.00000000000E+00  0.15589697969E+04  0.15589697969E+04  0.25500000920E-02 0. -1.
        2   -1    0    0  501    0  0.00000000000E+00  0.00000000000E+00 -0.12222168640E+04  0.12222168640E+04  0.25500000920E-02 0.  1.
    10030    2    1    2    0    0  0.00000000000E+00  0.00000000000E+00  0.33675293292E+03  0.27811866609E+04  0.27607239458E+04 0.  0.
        3    1    3    3  502    0  0.85434585913E+03  0.25298113199E+03 -0.89371151718E+03  0.12619931007E+04  0.10100000352E+00 0.  1.
       -3    1    3    3    0  502 -0.85434585913E+03 -0.25298113199E+03  0.12304644501E+04  0.15191935602E+04  0.10100000352E+00 0. -1.
</event>
<event>
 5   0  0.1246044E-06  0.2759276E+04  0.7818609E-02  0.8316024E-01
        1   -1    0    0  501    0  0.00000000000E+00  0.00000000000E+00  0.61825832716E+03  0.61825832718E+03  0.50400001928E-02 0. -1.
       -1   -1    0    0    0  501  0.00000000000E+00  0.00000000000E+00 -0.30786499792E+04  0.30786499792E+04  0.50400001928E-02 0.  1.
    10030    2    1    2    0    0  0.00000000000E+00  0.00000000000E+00 -0.24603916521E+04  0.36969083064E+04  0.27592759819E+04 0.  0.
        2    1    3    3  502    0 -0.71163729627E+03  0.11486207037E+04 -0.16035293552E+04  0.20969176320E+04  0.25500000920E-02 0.  1.
       -2    1    3    3    0  502  0.71163729627E+03 -0.11486207037E+04 -0.85686229686E+03  0.15999906744E+04  0.25500000920E-02 0. -1.
</event>
<event>
 5   0  0.3167616E-06  0.2777333E+04  0.7818609E-02  0.8310340E-01
       -2   -1    0    0    0  501  0.00000000000E+00  0.00000000000E+00  0.72265886547E+03  0.72265886547E+03  0.25500000920E-02 0.  1.
        2   -1    0    0  501    0  0.00000000000E+00  0.00000000000E+00 -0.26684712428E+04  0.26684712428E+04  0.25500000920E-02 0. -1.
    10030    2    1    2    0    0  0.00000000000E+00  0.00000000000E+00 -0.19458123774E+04  0.33911301083E+04  0.27773328219E+04 0.  0.
        3    1    3    3  502    0 -0.13457624092E+04  0.23735612195E+03 -0.12744221006E+04  0.18685732770E+04  0.10100000352E+00 0. -1.
       -3    1    3    3    0  502  0.13457624092E+04 -0.23735612195E+03 -0.67139027674E+03  0.15225568313E+04  0.10100000352E+00 0.  1.
</event>
<event>
 5   0  0.3345919E-06  0.2863624E+04  0.7818609E-02  0.8283783E-01
        2   -1    0    0  501    0  0.00000000000E+00  0.00000000000E+00  0.13412112558E+04  0.13412112558E+04  0.25500000920E-02 0. -1.
       -2   -1    0    0    0  501  0.00000000000E+00  0.00000000000E+00 -0.15285334790E+04  0.15285334790E+04  0.25500000920E-02 0.  1.
    10030    2    1    2    0    0  0.00000000000E+00  0.00000000000E+00 -0.18732222320E+03  0.28697447348E+04  0.28636244913E+04 0.  0.
        2    1    3    3  502    0 -0.12485735614E+04  0.40134417858E+03 -0.66940898688E+03  0.14724542368E+04  0.25500000920E-02 0.  1.
       -2    1    3    3    0  502  0.12485735614E+04 -0.40134417858E+03  0.48208676368E+03  0.13972904979E+04  0.25500000920E-02 0. -1.
</event>
<event>
 5   0  0.3226364E-06  0.2800536E+04  0.7818609E-02  0.8303102E-01
       -2   -1    0    0    0  501  0.00000000000E+00  0.00000000000E+00  0.90895975244E+03  0.90895975245E+03  0.25500000920E-02 0. -1.
        2   -1    0    0  501    0  0.00000000000E+00  0.00000000000E+00 -0.21571372369E+04  0.21571372369E+04  0.25500000920E-02 0.  1.
    10030    2    1    2    0    0  0.00000000000E+00  0.00000000000E+00 -0.12481774844E+04  0.30660969893E+04  0.28005363264E+04 0.  0.
        5    1    3    3  502    0  0.11514009595E+04  0.49897500672E+02 -0.14948118328E+04  0.18875111749E+04  0.46999998093E+01 0.  1.
       -5    1    3    3    0  502 -0.11514009595E+04 -0.49897500672E+02  0.24663434838E+03  0.11785858144E+04  0.46999998093E+01 0. -1.
</event>
<event>
 5   0  0.1243055E-06  0.2779061E+04  0.7818609E-02  0.8309799E-01
       -1   -1    0    0    0  501  0.00000000000E+00  0.00000000000E+00  0.12223391292E+04  0.12223391292E+04  0.50400001928E-02 0.  1.
        1   -1    0    0  501    0  0.00000000000E+00  0.00000000000E+00 -0.15795907905E+04  0.15795907905E+04  0.50400001928E-02 0. -1.
    10030    2    1    2    0    0  0.00000000000E+00  0.00000000000E+00 -0.35725166135E+03  0.28019299197E+04  0.27790614469E+04 0.  0.
        5    1    3    3  502    0 -0.71667645864E+02  0.27614088888E+03 -0.15497368101E+04  0.15757843484E+04  0.46999998093E+01 0. -1.
       -5    1    3    3    0  502  0.71667645864E+02 -0.27614088888E+03  0.11924851488E+04  0.12261455713E+04  0.46999998093E+01 0.  1.
</event>
<event>
 5   0  0.1243055E-06  0.2836830E+04  0.7818609E-02  0.8291924E-01
       -1   -1    0    0    0  501  0.00000000000E+00  0.00000000000E+00  0.11253195377E+04  0.11253195377E+04  0.50400001928E-02 0. -1.
        1   -1    0    0  501    0  0.00000000000E+00  0.00000000000E+00 -0.17878487446E+04  0.17878487446E+04  0.50400001928E-02 0.  1.
    10030    2    1    2    0    0  0.00000000000E+00  0.00000000000E+00 -0.66252920685E+03  0.29131682823E+04  0.28368300074E+04 0.  0.
        5    1    3    3  502    0  0.75741627560E+03 -0.52578547129E+03 -0.14381138206E+04  0.17083100502E+04  0.46999998093E+01 0.  1.
       -5    1    3    3    0  502 -0.75741627560E+03  0.52578547129E+03  0.77558461379E+03  0.12048582321E+04  0.46999998093E+01 0. -1.
</event>
<event>
 5   0  0.3162695E-06  0.2795484E+04  0.7818609E-02  0.8304672E-01
       -2   -1    0    0    0  501  0.00000000000E+00  0.00000000000E+00  0.13529854810E+04  0.13529854810E+04  0.25500000920E-02 0.  1.
        2   -1    0    0  501    0  0.00000000000E+00  0.00000000000E+00 -0.14439793887E+04  0.14439793887E+04  0.25500000920E-02 0. -1.
    10030    2    1    2    0    0  0.00000000000E+00  0.00000000000E+00 -0.90993907712E+02  0.27969648697E+04  0.27954843214E+04 0.  0.
        1    1    3    3  502    0 -0.10518807099E+04  0.51611421405E+03  0.71704594248E+03  0.13736745588E+04  0.50400001928E-02 0.  1.
       -1    1    3    3    0  502  0.10518807099E+04 -0.51611421405E+03 -0.80803985019E+03  0.14232903110E+04  0.50400001928E-02 0. -1.
</event>
<event>
 5   0  0.1220265E-06  0.2803923E+04  0.7818609E-02  0.8302051E-01
       -1   -1    0    0    0  501  0.00000000000E+00  0.00000000000E+00  0.18687746282E+04  0.18687746282E+04  0.50400001928E-02 0. -1.
        1   -1    0    0  501    0  0.00000000000E+00  0.00000000000E+00 -0.10517565514E+04  0.10517565514E+04  0.50400001928E-02 0.  1.
    10030    2    1    2    0    0  0.00000000000E+00  0.00000000000E+00  0.81701807683E+03  0.29205311796E+04  0.28039229363E+04 0.  0.
        4    1    3    3  502    0  0.45778666801E+02 -0.52315824105E+03 -0.94543621674E+03  0.10814996460E+04  0.12699999809E+01 0.  1.
       -4    1    3    3    0  502 -0.45778666801E+02  0.52315824105E+03  0.17624542936E+04  0.18390315335E+04  0.12699999809E+01 0. -1.
</event>
<event>
 5   0  0.3345919E-06  0.2787860E+04  0.7818609E-02  0.8307047E-01
       -2   -1    0    0    0  501  0.00000000000E+00  0.00000000000E+00  0.78033759539E+03  0.78033759539E+03  0.25500000920E-02 0. -1.
        2   -1    0    0  501    0  0.00000000000E+00  0.00000000000E+00 -0.24899996284E+04  0.24899996284E+04  0.25500000920E-02 0.  1.
    10030    2    1    2    0    0  0.00000000000E+00  0.00000000000E+00 -0.17096620331E+04  0.32703372238E+04  0.27878596253E+04 0.  0.
        2    1    3    3  502    0  0.47642660307E+03 -0.95023949419E+03  0.20294665466E+03  0.10821851732E+04  0.25500000920E-02 0. -1.
       -2    1    3    3    0  502 -0.47642660307E+03  0.95023949419E+03 -0.19126086877E+04  0.21881520507E+04  0.25500000920E-02 0.  1.
</event>
<event>
 5   0  0.1235252E-06  0.2789600E+04  0.7818609E-02  0.8306505E-01
       -1   -1    0    0    0  501  0.00000000000E+00  0.00000000000E+00  0.12312167332E+04  0.12312167332E+04  0.50400001928E-02 0.  1.
        1   -1    0    0  501    0  0.00000000000E+00  0.00000000000E+00 -0.15801171621E+04  0.15801171621E+04  0.50400001928E-02 0. -1.
    10030    2    1    2    0    0  0.00000000000E+00  0.00000000000E+00 -0.34890042890E+03  0.28113338953E+04  0.27895997493E+04 0.  0.
        1    1    3    3  502    0 -0.95833699584E+03 -0.20133032646E+03  0.82652687924E+03  0.12814407439E+04  0.50400001928E-02 0.  1.
       -1    1    3    3    0  502  0.95833699584E+03  0.20133032646E+03 -0.11754273081E+04  0.15298931514E+04  0.50400001928E-02 0. -1.
</event>
<event>
 5   0  0.3212679E-06  0.2770036E+04  0.7818609E-02  0.8312632E-01
       -2   -1    0    0    0  501  0.00000000000E+00  0.00000000000E+00  0.77191939656E+03  0.77191939656E+03  0.25500000920E-02 0. -1.
        2   -1    0    0  501    0  0.00000000000E+00  0.00000000000E+00 -0.24850705661E+04  0.24850705661E+04  0.25500000920E-02 0.  1.
    10030    2    1    2    0    0  0.00000000000E+00  0.00000000000E+00 -0.17131511696E+04  0.32569899627E+04  0.27700355029E+04 0.  0.
        4    1    3    3  502    0  0.90924851575E+03  0.40692650924E+03  0.27484733657E+03  0.10333754006E+04  0.12699999809E+01 0. -1.
       -4    1    3    3    0  502 -0.90924851575E+03 -0.40692650924E+03 -0.19879985062E+04  0.22236145621E+04  0.12699999809E+01 0.  1.
</event>
<event>
 5   0  0.1220265E-06  0.2794064E+04  0.7818609E-02  0.8305114E-01
       -1   -1    0    0    0  501  0.00000000000E+00  0.00000000000E+00  0.12104971718E+04  0.12104971718E+04  0.50400001928E-02 0. -1.
        1   -1    0    0  501    0  0.00000000000E+00  0.00000000000E+00 -0.16123115365E+04  0.16123115366E+04  0.50400001928E-02 0.  1.
    10030    2    1    2    0    0  0.00000000000E+00  0.00000000000E+00 -0.40181436471E+03  0.28228087084E+04  0.27940641046E+04 0.  0.
        4    1    3    3  502    0 -0.14417186831E+03 -0.13873818358E+04 -0.12211085120E+03  0.14001880441E+04  0.12699999809E+01 0.  1.
       -4    1    3    3    0  502  0.14417186831E+03  0.13873818358E+04 -0.27970351351E+03  0.14226206643E+04  0.12699999809E+01 0. -1.
</event>
<event>
 5   0  0.3226364E-06  0.2773530E+04  0.7818609E-02  0.8311534E-01
        2   -1    0    0  501    0  0.00000000000E+00  0.00000000000E+00  0.23083630220E+04  0.23083630220E+04  0.25500000920E-02 0. -1.
       -2   -1    0    0    0  501  0.00000000000E+00  0.00000000000E+00 -0.83310857509E+03  0.83310857510E+03  0.25500000920E-02 0.  1.
    10030    2    1    2    0    0  0.00000000000E+00  0.00000000000E+00  0.14752544469E+04  0.31414715971E+04  0.27735299011E+04 0.  0.
        5    1    3    3  502    0 -0.43359453053E+03 -0.11811509816E+04  0.13980507713E+04  0.18808747719E+04  0.46999998093E+01 0. -1.
       -5    1    3    3    0  502  0.43359453053E+03  0.11811509816E+04  0.77203675657E+02  0.12605968253E+04  0.46999998093E+01 0.  1.
</event>
<event>
 5   0  0.1220265E-06  0.2796896E+04  0.7818609E-02  0.8304233E-01
        1   -1    0    0  501    0  0.00000000000E+00  0.00000000000E+00  0.15888487733E+04  0.15888487733E+04  0.50400001928E-02 0. -1.
       -1   -1    0    0    0  501  0.00000000000E+00  0.00000000000E+00 -0.12308640003E+04  0.12308640004E+04  0.50400001928E-02 0.  1.
    10030    2    1    2    0    0  0.00000000000E+00  0.00000000000E+00  0.35798477293E+03  0.28197127736E+04  0.27968959630E+04 0.  0.
        4    1    3    3  502    0 -0.13794496179E+04  0.17042148805E+03  0.23688901247E+02  0.13901393846E+04  0.12699999809E+01 0. -1.
       -4    1    3    3    0  502  0.13794496179E+04 -0.17042148805E+03  0.33429587168E+03  0.14295733890E+04  0.12699999809E+01 0.  1.
</event>
<event>
 5   0  0.1243055E-06  0.2782416E+04  0.7818609E-02  0.8308748E-01
       -1   -1    0    0    0  501  0.00000000000E+00  0.00000000000E+00  0.11942087036E+04  0.11942087036E+04  0.50400001928E-02 0. -1.
        1   -1    0    0  501    0  0.00000000000E+00  0.00000000000E+00 -0.16207046387E+04  0.16207046387E+04  0.50400001928E-02 0.  1.
    10030    2    1    2    0    0  0.00000000000E+00  0.00000000000E+00 -0.42649593517E+03  0.28149133423E+04  0.27824159182E+04 0.  0.
        5    1    3    3  502    0 -0.11730041169E+04 -0.74799650132E+03 -0.21297785150E+03  0.14074157451E+04  0.46999998093E+01 0. -1.
       -5    1    3    3    0  502  0.11730041169E+04  0.74799650132E+03 -0.21351808367E+03  0.14074975972E+04  0.46999998093E+01 0.  1.
</event>
<event>
 5   0  0.3162695E-06  0.2802595E+04  0.7818609E-02  0.8302463E-01
        2   -1    0    0  501    0  0.00000000000E+00  0.00000000000E+00  0.22256736017E+04  0.22256736017E+04  0.25500000920E-02 0.  1.
       -2   -1    0    0    0  501  0.00000000000E+00  0.00000000000E+00 -0.88226514249E+03  0.88226514249E+03  0.25500000920E-02 0. -1.
    10030    2    1    2    0    0  0.00000000000E+00  0.00000000000E+00  0.13434084592E+04  0.31079387442E+04  0.28025946816E+04 0.  0.
        1    1    3    3  502    0 -0.44232872940E+03  0.89962285474E+03 -0.41408133732E+03  0.10846378841E+04  0.50400001928E-02 0. -1.
       -1    1    3    3    0  502  0.44232872940E+03 -0.89962285474E+03  0.17574897965E+04  0.20233008601E+04  0.50400001928E-02 0.  1.
</event>
<event>
 5   0  0.1243055E-06  0.2777107E+04  0.7818609E-02  0.8310411E-01
        1   -1    0    0  501    0  0.00000000000E+00  0.00000000000E+00  0.98333173338E+03  0.98333173339E+03  0.50400001928E-02 0. -1.
       -1   -1    0    0    0  501  0.00000000000E+00  0.00000000000E+00 -0.19607631325E+04  0.19607631325E+04  0.50400001928E-02 0.  1.
    10030    2    1    2    0    0  0.00000000000E+00  0.00000000000E+00 -0.97743139910E+03  0.29440948659E+04  0.27771068469E+04 0.  0.
        5    1    3    3  502    0 -0.10723761409E+04 -0.25345610535E+03 -0.13844021007E+04  0.17694128550E+04  0.46999998093E+01 0.  1.
       -5    1    3    3    0  502  0.10723761409E+04  0.25345610535E+03  0.40697070160E+03  0.11746820109E+04  0.46999998093E+01 0. -1.
</event>
<event>
 5   0  0.3162695E-06  0.2799679E+04  0.7818609E-02  0.8303368E-01
        2   -1    0    0  501    0  0.00000000000E+00  0.00000000000E+00  0.19563215676E+04  0.19563215676E+04  0.25500000920E-02 0. -1.
       -2   -1    0    0    0  501  0.00000000000E+00  0.00000000000E+00 -0.10016508621E+04  0.10016508621E+04  0.25500000920E-02 0.  1.
    10030    2    1    2    0    0  0.00000000000E+00  0.00000000000E+00  0.95467070542E+03  0.29579724297E+04  0.27996793994E+04 0.  0.
        1    1    3    3  502    0 -0.16446804343E+03  0.13151137613E+04  0.95333813808E+03  0.16326137167E+04  0.50400001928E-02 0. -1.
       -1    1    3    3    0  502  0.16446804343E+03 -0.13151137613E+04  0.13325673472E+01  0.13253587130E+04  0.50400001928E-02 0.  1.
</event>
<event>
 5   0  0.1263513E-06  0.2775797E+04  0.7818609E-02  0.8310822E-01
        1   -1    0    0  501    0  0.00000000000E+00  0.00000000000E+00  0.12274693136E+04  0.12274693136E+04  0.50400001928E-02 0. -1.
       -1   -1    0    0    0  501  0.00000000000E+00  0.00000000000E+00 -0.15692958496E+04  0.15692958496E+04  0.50400001928E-02 0.  1.
    10030    2    1    2    0    0  0.00000000000E+00  0.00000000000E+00 -0.34182653605E+03  0.27967651632E+04  0.27757971823E+04 0.  0.
        3    1    3    3  502    0 -0.10027126283E+04  0.71794274321E+03 -0.81242376087E+03  0.14767893468E+04  0.10100000352E+00 0.  1.
       -3    1    3    3    0  502  0.10027126283E+04 -0.71794274321E+03  0.47059722482E+03  0.13199758163E+04  0.10100000352E+00 0. -1.
</event>
<event>
 5   0  0.1243055E-06  0.2809311E+04  0.7818609E-02  0.8300383E-01
        1   -1    0    0  501    0  0.00000000000E+00  0.00000000000E+00  0.16291458483E+04  0.16291458483E+04  0.50400001928E-02 0. -1.
       -1   -1    0    0    0  501  0.00000000000E+00  0.00000000000E+00 -0.12110993976E+04  0.12110993976E+04  0.50400001928E-02 0.  1.
    10030    2    1    2    0    0  0.00000000000E+00  0.00000000000E+00  0.41804645076E+03  0.28402452459E+04  0.28093113430E+04 0.  0.
        5    1    3    3  502    0 -0.46148321475E+03  0.57032291907E+03  0.14200443668E+04  0.15983688820E+04  0.46999998093E+01 0. -1.
       -5    1    3    3    0  502  0.46148321475E+03 -0.57032291907E+03 -0.10019979160E+04  0.12418763639E+04  0.46999998093E+01 0.  1.
</event>
<event>
 5   0  0.3212679E-06  0.2759491E+04  0.7818609E-02  0.8315956E-01
       -2   -1    0    0    0  501  0.00000000000E+00  0.00000000000E+00  0.81783486074E+03  0.81783486074E+03  0.25500000920E-02 0.  1.
        2   -1    0    0  501    0  0.00000000000E+00  0.00000000000E+00 -0.23277282297E+04  0.23277282297E+04  0.25500000920E-02 0. -1.
    10030    2    1    2    0    0  0.00000000000E+00  0.00000000000E+00 -0.15098933690E+04  0.31455630905E+04  0.27594907448E+04 0.  0.
        4    1    3    3  502    0 -0.34330996769E+03  0.10276961319E+04 -0.17286666491E+04  0.20401742745E+04  0.12699999809E+01 0. -1.
       -4    1    3    3    0  502  0.34330996769E+03 -0.10276961319E+04  0.21877328016E+03  0.11053888160E+04  0.12699999809E+01 0.  1.
</event>
<event>
 5   0  0.3345919E-06  0.2814365E+04  0.7818609E-02  0.8298823E-01
        2   -1    0    0  501    0  0.00000000000E+00  0.00000000000E+00  0.20911059399E+04  0.20911059399E+04  0.25500000920E-02 0.  1.
       -2   -1    0    0    0  501  0.00000000000E+00  0.00000000000E+00 -0.94694481808E+03  0.94694481808E+03  0.25500000920E-02 0. -1.
    10030    2    1    2    0    0  0.00000000000E+00  0.00000000000E+00  0.11441611218E+04  0.30380507580E+04  0.28143645349E+04 0.  0.
        2    1    3    3  502    0 -0.60458875860E+03  0.22854711159E+03  0.19213878688E+04  0.20271883710E+04  0.25500000920E-02 0.  1.
       -2    1    3    3    0  502  0.60458875860E+03 -0.22854711159E+03 -0.77722674695E+03  0.10108623870E+04  0.25500000920E-02 0. -1.
</event>
<event>
 5   0  0.1220265E-06  0.2793453E+04  0.7818609E-02  0.8305304E-01
        1   -1    0    0  501    0  0.00000000000E+00  0.00000000000E+00  0.16450974395E+04  0.16450974395E+04  0.50400001928E-02 0.  1.
       -1   -1    0    0    0  501  0.00000000000E+00  0.00000000000E+00 -0.11858538033E+04  0.11858538033E+04  0.50400001928E-02 0. -1.
    10030    2    1    2    0    0  0.00000000000E+00  0.00000000000E+00  0.45924363624E+03  0.28309512428E+04  0.27934530999E+04 0.  0.
        4    1    3    3  502    0 -0.70737156908E+03  0.10594000402E+04  0.81014677790E+03  0.15096497595E+04  0.12699999809E+01 0.  1.
       -4    1    3    3    0  502  0.70737156908E+03 -0.10594000402E+04 -0.35090314166E+03  0.13213014832E+04  0.12699999809E+01 0. -1.
</event>
<event>
 5   0  0.3226364E-06  0.2796419E+04  0.7818609E-02  0.8304381E-01
        2   -1    0    0  501    0  0.00000000000E+00  0.00000000000E+00  0.10404949980E+04  0.10404949980E+04  0.25500000920E-02 0. -1.
       -2   -1    0    0    0  501  0.00000000000E+00  0.00000000000E+00 -0.18789030399E+04  0.18789030399E+04  0.25500000920E-02 0.  1.
    10030    2    1    2    0    0  0.00000000000E+00  0.00000000000E+00 -0.83840804196E+03  0.29193980379E+04  0.27964185772E+04 0.  0.
        5    1    3    3  502    0 -0.86486032484E+03 -0.83936068569E+03 -0.11592194063E+04  0.16722205190E+04  0.46999998093E+01 0.  1.
       -5    1    3    3    0  502  0.86486032484E+03  0.83936068569E+03  0.32081136435E+03  0.12471775189E+04  0.46999998093E+01 0. -1.
</event>
<event>
 5   0  0.1235252E-06  0.2806684E+04  0.7818609E-02  0.8301196E-01
       -1   -1    0    0    0  501  0.00000000000E+00  0.00000000000E+00  0.72626233980E+03  0.72626233982E+03  0.50400001928E-02 0. -1.
        1   -1    0    0  501    0  0.00000000000E+00  0.00000000000E+00 -0.27116487583E+04  0.27116487583E+04  0.50400001928E-02 0.  1.
    10030    2    1    2    0    0  0.00000000000E+00  0.00000000000E+00 -0.19853864185E+04  0.34379110982E+04  0.28066837171E+04 0.  0.
        1    1    3    3  502    0 -0.12645951839E+04  0.28922867217E+02 -0.17370976681E+04  0.21488475562E+04  0.50400001928E-02 0.  1.
       -1    1    3    3    0  502  0.12645951839E+04 -0.28922867217E+02 -0.24828875046E+03  0.12890635419E+04  0.50400001928E-02 0. -1.
</event>
<event>
 5   0  0.3212679E-06  0.2826627E+04  0.7818609E-02  0.8295049E-01
        2   -1    0    0  501    0  0.00000000000E+00  0.00000000000E+00  0.15624932997E+04  0.15624932997E+04  0.25500000920E-02 0.  1.
       -2   -1    0    0    0  501  0.00000000000E+00  0.00000000000E+00 -0.12783763970E+04  0.12783763970E+04  0.25500000920E-02 0. -1.
    10030    2    1    2    0    0  0.00000000000E+00  0.00000000000E+00  0.28411690268E+03  0.28408696967E+04  0.28266266502E+04 0.  0.
        4    1    3    3  502    0 -0.50367402393E+03 -0.93621598104E+03 -0.79390478208E+03  0.13268286632E+04  0.12699999809E+01 0.  1.
       -4    1    3    3    0  502  0.50367402393E+03  0.93621598104E+03  0.10780216848E+04  0.15140410335E+04  0.12699999809E+01 0. -1.
</event>
<event>
 5   0  0.1246044E-06  0.2815110E+04  0.7818609E-02  0.8298593E-01
        1   -1    0    0  501    0  0.00000000000E+00  0.00000000000E+00  0.15203722548E+04  0.15203722548E+04  0.50400001928E-02 0. -1.
       -1   -1    0    0    0  501  0.00000000000E+00  0.00000000000E+00 -0.13031088338E+04  0.13031088338E+04  0.50400001928E-02 0.  1.
    10030    2    1    2    0    0  0.00000000000E+00  0.00000000000E+00  0.21726342103E+03  0.28234810886E+04  0.28151096006E+04 0.  0.
        2    1    3    3  502    0  0.72339523149E+03  0.11426706341E+04 -0.28267420530E+03  0.13816300320E+04  0.25500000920E-02 0. -1.
       -2    1    3    3    0  502 -0.72339523149E+03 -0.11426706341E+04  0.49993762633E+03  0.14418510565E+04  0.25500000920E-02 0.  1.
</event>
<event>
 5   0  0.1246044E-06  0.2796988E+04  0.7818609E-02  0.8304204E-01
       -1   -1    0    0    0  501  0.00000000000E+00  0.00000000000E+00  0.99666495118E+03  0.99666495119E+03  0.50400001928E-02 0.  1.
        1   -1    0    0  501    0  0.00000000000E+00  0.00000000000E+00 -0.19623293095E+04  0.19623293095E+04  0.50400001928E-02 0. -1.
    10030    2    1    2    0    0  0.00000000000E+00  0.00000000000E+00 -0.96566435829E+03  0.29589942607E+04  0.27969875548E+04 0.  0.
        2    1    3    3  502    0  0.12433817147E+04 -0.25063737554E+03 -0.11059900565E+04  0.16828639836E+04  0.25500000920E-02 0. -1.
       -2    1    3    3    0  502 -0.12433817147E+04  0.25063737554E+03  0.14032569820E+03  0.12761302770E+04  0.25500000920E-02 0.  1.
</event>
<event>
 5   0  0.3345919E-06  0.2805843E+04  0.7818609E-02  0.8301457E-01
        2   -1    0    0  501    0  0.00000000000E+00  0.00000000000E+00  0.26335477957E+04  0.26335477957E+04  0.25500000920E-02 0.  1.
       -2   -1    0    0    0  501  0.00000000000E+00  0.00000000000E+00 -0.74735254507E+03  0.74735254507E+03  0.25500000920E-02 0. -1.
    10030    2    1    2    0    0  0.00000000000E+00  0.00000000000E+00  0.18861952507E+04  0.33809003408E+04  0.28058429377E+04 0.  0.
        2    1    3    3  502    0 -0.13867165085E+04  0.16141588256E+03  0.11098467043E+04  0.17834790353E+04  0.25500000920E-02 0.  1.
       -2    1    3    3    0  502  0.13867165085E+04 -0.16141588256E+03  0.77634854633E+03  0.15974213056E+04  0.25500000920E-02 0. -1.
</event>
<event>
 5   0  0.1065675E-06  0.2809391E+04  0.7818609E-02  0.8300359E-01
        3   -1    0    0  501    0  0.00000000000E+00  0.00000000000E+00  0.17304962210E+04  0.17304962239E+04  0.10100000352E+00 0.  1.
       -3   -1    0    0    0  501  0.00000000000E+00  0.00000000000E+00 -0.11402337021E+04  0.11402337066E+04  0.10100000352E+00 0. -1.
    10030    2    1    2    0    0  0.00000000000E+00  0.00000000000E+00  0.59026251887E+03  0.28707299305E+04  0.28093914808E+04 0.  0.
        2    1    3    3  502    0  0.40107725841E+02  0.13442622270E+04 -0.11933593745E+03  0.13501446702E+04  0.25500000920E-02 0.  1.
       -2    1    3    3    0  502 -0.40107725841E+02 -0.13442622270E+04  0.70959845632E+03  0.15205852603E+04  0.25500000920E-02 0. -1.
</event>
<event>
 5   0  0.1235252E-06  0.2797740E+04  0.7818609E-02  0.8303970E-01
       -1   -1    0    0    0  501  0.00000000000E+00  0.00000000000E+00  0.10588795485E+04  0.10588795485E+04  0.50400001928E-02 0. -1.
        1   -1    0    0  501    0  0.00000000000E+00  0.00000000000E+00 -0.18480266230E+04  0.18480266230E+04  0.50400001928E-02 0.  1.
    10030    2    1    2    0    0  0.00000000000E+00  0.00000000000E+00 -0.78914707455E+03  0.29069061715E+04  0.27977402282E+04 0.  0.
        1    1    3    3  502    0 -0.90429775470E+03  0.33769897681E+03  0.65737520080E+03  0.11678772122E+04  0.50400001928E-02 0. -1.
       -1    1    3    3    0  502  0.90429775470E+03 -0.33769897681E+03 -0.14465222754E+04  0.17390289593E+04  0.50400001928E-02 0.  1.
</event>
<event>
 5   0  0.1243055E-06  0.2802615E+04  0.7818609E-02  0.8302457E-01
        1   -1    0    0  501    0  0.00000000000E+00  0.00000000000E+00  0.20123099640E+04  0.20123099640E+04  0.50400001928E-02 0. -1.
       -1   -1    0    0    0  501  0.00000000000E+00  0.00000000000E+00 -0.97582521281E+03  0.97582521282E+03  0.50400001928E-02 0.  1.
    10030    2    1    2    0    0  0.00000000000E+00  0.00000000000E+00  0.10364847511E+04  0.29881351768E+04  0.28026150637E+04 0.  0.
        5    1    3    3  502    0 -0.10784312871E+04  0.45993616535E+03  0.13365675556E+04  0.17779173878E+04  0.46999998093E+01 0. -1.
       -5    1    3    3    0  502  0.10784312871E+04 -0.45993616535E+03 -0.30008280446E+03  0.12102177890E+04  0.46999998093E+01 0.  1.
</event>
<event>
 5   0  0.3345919E-06  0.2795536E+04  0.7818609E-02  0.8304656E-01
       -2   -1    0    0    0  501  0.00000000000E+00  0.00000000000E+00  0.16169324794E+04  0.16169324794E+04  0.25500000920E-02 0.  1.
        2   -1    0    0  501    0  0.00000000000E+00  0.00000000000E+00 -0.12083095412E+04  0.12083095412E+04  0.25500000920E-02 0. -1.
    10030    2    1    2    0    0  0.00000000000E+00  0.00000000000E+00  0.40862293826E+03  0.28252420206E+04  0.27955356856E+04 0.  0.
        2    1    3    3  502    0 -0.36141181069E+02  0.13159102223E+04 -0.27060662138E+03  0.13439322310E+04  0.25500000920E-02 0. -1.
       -2    1    3    3    0  502  0.36141181069E+02 -0.13159102223E+04  0.67922955963E+03  0.14813097896E+04  0.25500000920E-02 0.  1.
</event>
<event>
 5   0  0.3345919E-06  0.2799579E+04  0.7818609E-02  0.8303399E-01
        2   -1    0    0  501    0  0.00000000000E+00  0.00000000000E+00  0.10658221678E+04  0.10658221678E+04  0.25500000920E-02 0.  1.
       -2   -1    0    0    0  501  0.00000000000E+00  0.00000000000E+00 -0.18384024772E+04  0.18384024772E+04  0.25500000920E-02 0. -1.
    10030    2    1    2    0    0  0.00000000000E+00  0.00000000000E+00 -0.77258030939E+03  0.29042246450E+04  0.27995786208E+04 0.  0.
        2    1    3    3  502    0 -0.40378238792E+03  0.44051635232E+03 -0.16994316336E+04  0.18014335266E+04  0.25500000920E-02 0. -1.
       -2    1    3    3    0  502  0.40378238792E+03 -0.44051635232E+03  0.92685132425E+03  0.11027911184E+04  0.25500000920E-02 0.  1.
</event>
<event>
 5   0  0.1235252E-06  0.2803461E+04  0.7818609E-02  0.8302195E-01
        1   -1    0    0  501    0  0.00000000000E+00  0.00000000000E+00  0.15454266122E+04  0.15454266122E+04  0.50400001928E-02 0. -1.
       -1   -1    0    0    0  501  0.00000000000E+00  0.00000000000E+00 -0.12713957225E+04  0.12713957225E+04  0.50400001928E-02 0.  1.
    10030    2    1    2    0    0  0.00000000000E+00  0.00000000000E+00  0.27403088969E+03  0.28168223348E+04  0.28034612780E+04 0.  0.
        1    1    3    3  502    0  0.15395837364E+03  0.13922410126E+04  0.83748006385E+02  0.14032291141E+04  0.50400001928E-02 0.  1.
       -1    1    3    3    0  502 -0.15395837364E+03 -0.13922410126E+04  0.19028288331E+03  0.14135932207E+04  0.50400001928E-02 0. -1.
</event>
<event>
 5   0  0.3167616E-06  0.2794304E+04  0.7818609E-02  0.8305039E-01
       -2   -1    0    0    0  501  0.00000000000E+00  0.00000000000E+00  0.84263288898E+03  0.84263288899E+03  0.25500000920E-02 0.  1.
        2   -1    0    0  501    0  0.00000000000E+00  0.00000000000E+00 -0.23165878022E+04  0.23165878022E+04  0.25500000920E-02 0. -1.
    10030    2    1    2    0    0  0.00000000000E+00  0.00000000000E+00 -0.14739549132E+04  0.31592206912E+04  0.27943035428E+04 0.  0.
        3    1    3    3  502    0  0.81826260763E+03  0.63700566552E+02  0.54135387788E+03  0.98319656657E+03  0.10100000352E+00 0.  1.
       -3    1    3    3    0  502 -0.81826260763E+03 -0.63700566552E+02 -0.20153087911E+04  0.21760241246E+04  0.10100000352E+00 0. -1.
</event>
<event>
 5   0  0.3167616E-06  0.2601607E+04  0.7818609E-02  0.8367655E-01
       -2   -1    0    0    0  501  0.00000000000E+00  0.00000000000E+00  0.11248958026E+04  0.11248958026E+04  0.25500000920E-02 0.  1.
        2   -1    0    0  501    0  0.00000000000E+00  0.00000000000E+00 -0.15042195080E+04  0.15042195080E+04  0.25500000920E-02 0. -1.
    10030    2    1    2    0    0  0.00000000000E+00  0.00000000000E+00 -0.37932370535E+03  0.26291153106E+04  0.26016073576E+04 0.  0.
        3    1    3    3  502    0 -0.12471337217E+04 -0.14031539175E+03  0.15609499553E+03  0.12646725216E+04  0.10100000352E+00 0.  1.
       -3    1    3    3    0  502  0.12471337217E+04  0.14031539175E+03 -0.53541870089E+03  0.13644427890E+04  0.10100000352E+00 0. -1.
</event>
<event>
 5   0  0.3212679E-06  0.2797490E+04  0.7818609E-02  0.8304048E-01
       -2   -1    0    0    0  501  0.00000000000E+00  0.00000000000E+00  0.17543045890E+04  0.17543045890E+04  0.25500000920E-02 0. -1.
        2   -1    0    0  501    0  0.00000000000E+00  0.00000000000E+00 -0.11152497382E+04  0.11152497382E+04  0.25500000920E-02 0.  1.
    10030    2    1    2    0    0  0.00000000000E+00  0.00000000000E+00  0.63905485078E+03  0.28695543273E+04  0.27974901135E+04 0.  0.
        4    1    3    3  502    0  0.34610788436E+03 -0.13134760391E+04  0.66200872882E+03  0.15110483588E+04  0.12699999809E+01 0. -1.
       -4    1    3    3    0  502 -0.34610788436E+03  0.13134760391E+04 -0.22953878038E+02  0.13585059684E+04  0.12699999809E+01 0.  1.
</event>
<event>
 5   0  0.1220265E-06  0.2826142E+04  0.7818609E-02  0.8295198E-01
       -1   -1    0    0    0  501  0.00000000000E+00  0.00000000000E+00  0.82469588347E+03  0.82469588348E+03  0.50400001928E-02 0.  1.
        1   -1    0    0  501    0  0.00000000000E+00  0.00000000000E+00 -0.24212187452E+04  0.24212187452E+04  0.50400001928E-02 0. -1.
    10030    2    1    2    0    0  0.00000000000E+00  0.00000000000E+00 -0.15965228617E+04  0.32459146287E+04  0.28261416328E+04 0.  0.
        4    1    3    3  502    0  0.13345028657E+04  0.39167053525E+03 -0.51121152115E+03  0.14817700695E+04  0.12699999809E+01 0. -1.
       -4    1    3    3    0  502 -0.13345028657E+04 -0.39167053525E+03 -0.10853113406E+04  0.17641445592E+04  0.12699999809E+01 0.  1.
</event>
<event>
 5   0  0.1220265E-06  0.2819236E+04  0.7818609E-02  0.8297321E-01
       -1   -1    0    0    0  501  0.00000000000E+00  0.00000000000E+00  0.92515693672E+03  0.92515693673E+03  0.50400001928E-02 0. -1.
        1   -1    0    0  501    0  0.00000000000E+00  0.00000000000E+00 -0.21477682402E+04  0.21477682402E+04  0.50400001928E-02 0.  1.
    10030    2    1    2    0    0  0.00000000000E+00  0.00000000000E+00 -0.12226113035E+04  0.30729251769E+04  0.28192358439E+04 0.  0.
        4    1    3    3  502    0 -0.59448718611E+03  0.94754314961E+03  0.32365005405E+03  0.11644758500E+04  0.12699999809E+01 0. -1.
       -4    1    3    3    0  502  0.59448718611E+03 -0.94754314961E+03 -0.15462613575E+04  0.19084493269E+04  0.12699999809E+01 0.  1.
</event>
<event>
 5   0  0.3226364E-06  0.2809810E+04  0.7818609E-02  0.8300229E-01
        2   -1    0    0  501    0  0.00000000000E+00  0.00000000000E+00  0.30078648565E+04  0.30078648565E+04  0.25500000920E-02 0. -1.
       -2   -1    0    0    0  501  0.00000000000E+00  0.00000000000E+00 -0.65619881805E+03  0.65619881805E+03  0.25500000920E-02 0.  1.
    10030    2    1    2    0    0  0.00000000000E+00  0.00000000000E+00  0.23516660385E+04  0.36640636746E+04  0.28098095051E+04 0.  0.
        5    1    3    3  502    0 -0.64861351552E+03 -0.88044885419E+03  0.23259256843E+04  0.25701832729E+04  0.46999998093E+01 0. -1.
       -5    1    3    3    0  502  0.64861351552E+03  0.88044885419E+03  0.25740354169E+02  0.10938804017E+04  0.46999998093E+01 0.  1.
</event>
<event>
 5   0  0.1220265E-06  0.2760043E+04  0.7818609E-02  0.8315782E-01
       -1   -1    0    0    0  501  0.00000000000E+00  0.00000000000E+00  0.27664008401E+04  0.27664008401E+04  0.50400001928E-02 0.  1.
        1   -1    0    0  501    0  0.00000000000E+00  0.00000000000E+00 -0.68842508784E+03  0.68842508786E+03  0.50400001928E-02 0. -1.
    10030    2    1    2    0    0  0.00000000000E+00  0.00000000000E+00  0.20779757523E+04  0.34548259280E+04  0.27600432905E+04 0.  0.
        4    1    3    3  502    0  0.63198373249E+03 -0.29033455375E+03 -0.45301863776E+03  0.83001511450E+03  0.12699999809E+01 0. -1.
       -4    1    3    3    0  502 -0.63198373249E+03  0.29033455375E+03  0.25309943900E+04  0.26248108135E+04  0.12699999809E+01 0.  1.
</event>
<event>
 5   0  0.3167616E-06  0.2795672E+04  0.7818609E-02  0.8304613E-01
       -2   -1    0    0    0  501  0.00000000000E+00  0.00000000000E+00  0.11460107267E+04  0.11460107267E+04  0.25500000920E-02 0.  1.
        2   -1    0    0  501    0  0.00000000000E+00  0.00000000000E+00 -0.17049975343E+04  0.17049975343E+04  0.25500000920E-02 0. -1.
    10030    2    1    2    0    0  0.00000000000E+00  0.00000000000E+00 -0.55898680755E+03  0.28510082610E+04  0.27956719860E+04 0.  0.
        3    1    3    3  502    0  0.10474768506E+04 -0.90458441965E+03 -0.47949966722E+03  0.14647186303E+04  0.10100000352E+00 0. -1.
       -3    1    3    3    0  502 -0.10474768506E+04  0.90458441965E+03 -0.79487140325E+02  0.13862896308E+04  0.10100000352E+00 0.  1.
</event>
<event>
 5   0  0.3226364E-06  0.2807124E+04  0.7818609E-02  0.8301060E-01
        2   -1    0    0  501    0  0.00000000000E+00  0.00000000000E+00  0.17210093864E+04  0.17210093864E+04  0.25500000920E-02 0.  1.
       -2   -1    0    0    0  501  0.00000000000E+00  0.00000000000E+00 -0.11446688421E+04  0.11446688421E+04  0.25500000920E-02 0. -1.
    10030    2    1    2    0    0  0.00000000000E+00  0.00000000000E+00  0.57634054429E+03  0.28656782285E+04  0.28071236678E+04 0.  0.
        5    1    3    3  502    0 -0.28522697789E+03  0.87636275664E+03 -0.79249383325E+03  0.12154977071E+04  0.46999998093E+01 0. -1.
       -5    1    3    3    0  502  0.28522697789E+03 -0.87636275664E+03  0.13688343775E+04  0.16501805214E+04  0.46999998093E+01 0.  1.
</event>
<event>
 5   0  0.1220265E-06  0.2804698E+04  0.7818609E-02  0.8301811E-01
       -1   -1    0    0    0  501  0.00000000000E+00  0.00000000000E+00  0.27996918757E+04  0.27996918757E+04  0.50400001928E-02 0. -1.
        1   -1    0    0  501    0  0.00000000000E+00  0.00000000000E+00 -0.70242848835E+03  0.70242848836E+03  0.50400001928E-02 0.  1.
    10030    2    1    2    0    0  0.00000000000E+00  0.00000000000E+00  0.20972633874E+04  0.35021203641E+04  0.28046984381E+04 0.  0.
        4    1    3    3  502    0 -0.63408379945E+03  0.39219404011E+03 -0.43444201199E+03  0.86291361358E+03  0.12699999809E+01 0.  1.
       -4    1    3    3    0  502  0.63408379945E+03 -0.39219404011E+03  0.25317053994E+04  0.26392067505E+04  0.12699999809E+01 0. -1.
</event>
<event>
 5   0  0.1263513E-06  0.2789117E+04  0.7818609E-02  0.8306655E-01
       -1   -1    0    0    0  501  0.00000000000E+00  0.00000000000E+00  0.79273631237E+03  0.79273631238E+03  0.50400001928E-02 0. -1.
        1   -1    0    0  501    0  0.00000000000E+00  0.00000000000E+00 -0.24532657335E+04  0.24532657335E+04  0.50400001928E-02 0.  1.
    10030    2    1    2    0    0  0.00000000000E+00  0.00000000000E+00 -0.16605294212E+04  0.32460020459E+04  0.27891165848E+04 0.  0.
        3    1    3    3  502    0 -0.78243684771E+03 -0.86314827939E+03  0.61824727764E+02  0.11666424817E+04  0.10100000352E+00 0. -1.
       -3    1    3    3    0  502  0.78243684771E+03  0.86314827939E+03 -0.17223541489E+04  0.20793595642E+04  0.10100000352E+00 0.  1.
</event>
<event>
 5   0  0.1220265E-06  0.2802319E+04  0.7818609E-02  0.8302549E-01
       -1   -1    0    0    0  501  0.00000000000E+00  0.00000000000E+00  0.89622995162E+03  0.89622995164E+03  0.50400001928E-02 0. -1.
        1   -1    0    0  501    0  0.00000000000E+00  0.00000000000E+00 -0.21905634752E+04  0.21905634752E+04  0.50400001928E-02 0.  1.
    10030    2    1    2    0    0  0.00000000000E+00  0.00000000000E+00 -0.12943335236E+04  0.30867934269E+04  0.28023194660E+04 0.  0.
        4    1    3    3  502    0  0.99558773500E+03  0.43752157803E+03 -0.16203882375E+04  0.19514814174E+04  0.12699999809E+01 0.  1.
       -4    1    3    3    0  502 -0.99558773500E+03 -0.43752157803E+03  0.32605471396E+03  0.11353120094E+04  0.12699999809E+01 0. -1.
</event>
<event>
 5   0  0.3226364E-06  0.2755830E+04  0.7818609E-02  0.8317114E-01
       -2   -1    0    0    0  501  0.00000000000E+00  0.00000000000E+00  0.15865169887E+04  0.15865169887E+04  0.25500000920E-02 0.  1.
        2   -1    0    0  501    0  0.00000000000E+00  0.00000000000E+00 -0.11967405264E+04  0.11967405264E+04  0.25500000920E-02 0. -1.
    10030    2    1    2    0    0  0.00000000000E+00  0.00000000000E+00  0.38977646225E+03  0.27832575151E+04  0.27558295856E+04 0.  0.
        5    1    3    3  502    0  0.10523530846E+04 -0.63280902899E+02  0.10909477212E+04  0.15171158518E+04  0.46999998093E+01 0.  1.
       -5    1    3    3    0  502 -0.10523530846E+04  0.63280902899E+02 -0.70117125898E+03  0.12661416634E+04  0.46999998093E+01 0. -1.
</event>
<event>
 5   0  0.1220265E-06  0.2794432E+04  0.7818609E-02  0.8304999E-01
       -1   -1    0    0    0  501  0.00000000000E+00  0.00000000000E+00  0.13179464028E+04  0.13179464028E+04  0.50400001928E-02 0.  1.
        1   -1    0    0  501    0  0.00000000000E+00  0.00000000000E+00 -0.14812538578E+04  0.14812538579E+04  0.50400001928E-02 0. -1.
    10030    2    1    2    0    0  0.00000000000E+00  0.00000000000E+00 -0.16330745507E+03  0.27992002607E+04  0.27944324602E+04 0.  0.
        4    1    3    3  502    0 -0.20872455469E+03  0.10357598675E+04 -0.99746035551E+03  0.14530289799E+04  0.12699999809E+01 0. -1.
       -4    1    3    3    0  502  0.20872455469E+03 -0.10357598675E+04  0.83415290045E+03  0.13461712807E+04  0.12699999809E+01 0.  1.
</event>
<event>
 5   0  0.1246044E-06  0.2802244E+04  0.7818609E-02  0.8302572E-01
        1   -1    0    0  501    0  0.00000000000E+00  0.00000000000E+00  0.16284279577E+04  0.16284279577E+04  0.50400001928E-02 0.  1.
       -1   -1    0    0    0  501  0.00000000000E+00  0.00000000000E+00 -0.12055449667E+04  0.12055449667E+04  0.50400001928E-02 0. -1.
    10030    2    1    2    0    0  0.00000000000E+00  0.00000000000E+00  0.42288299106E+03  0.28339729244E+04  0.28022441921E+04 0.  0.
        2    1    3    3  502    0  0.41289930197E+03 -0.80720494000E+03  0.12917487339E+04  0.15781889749E+04  0.25500000920E-02 0.  1.
       -2    1    3    3    0  502 -0.41289930197E+03  0.80720494000E+03 -0.86886574288E+03  0.12557839495E+04  0.25500000920E-02 0. -1.
</event>
<event>
 5   0  0.1243055E-06  0.2794423E+04  0.7818609E-02  0.8305002E-01
        1   -1    0    0  501    0  0.00000000000E+00  0.00000000000E+00  0.11737915655E+04  0.11737915655E+04  0.50400001928E-02 0. -1.
       -1   -1    0    0    0  501  0.00000000000E+00  0.00000000000E+00 -0.16631572320E+04  0.16631572320E+04  0.50400001928E-02 0.  1.
    10030    2    1    2    0    0  0.00000000000E+00  0.00000000000E+00 -0.48936566648E+03  0.28369487976E+04  0.27944229681E+04 0.  0.
        5    1    3    3  502    0  0.11843041841E+04  0.42227816434E+03 -0.86328530267E+03  0.15251815801E+04  0.46999998093E+01 0.  1.
       -5    1    3    3    0  502 -0.11843041841E+04 -0.42227816434E+03  0.37391963618E+03  0.13117672175E+04  0.46999998093E+01 0. -1.
</event>
<event>
 5   0  0.3345919E-06  0.2795096E+04  0.7818609E-02  0.8304792E-01
       -2   -1    0    0    0  501  0.00000000000E+00  0.00000000000E+00  0.10275853540E+04  0.10275853540E+04  0.25500000920E-02 0. -1.
        2   -1    0    0  501    0  0.00000000000E+00  0.00000000000E+00 -0.19007092206E+04  0.19007092206E+04  0.25500000920E-02 0.  1.
    10030    2    1    2    0    0  0.00000000000E+00  0.00000000000E+00 -0.87312386657E+03  0.29282945746E+04  0.27950963900E+04 0.  0.
        2    1    3    3  502    0  0.11302906768E+04 -0.45642312917E+02  0.42321740961E+03  0.12077885621E+04  0.25500000920E-02 0. -1.
       -2    1    3    3    0  502 -0.11302906768E+04  0.45642312917E+02 -0.12963412762E+04  0.17205060125E+04  0.25500000920E-02 0.  1.
</event>
<event>
 5   0  0.3212679E-06  0.2802514E+04  0.7818609E-02  0.8302488E-01
       -2   -1    0    0    0  501  0.00000000000E+00  0.00000000000E+00  0.10803020976E+04  0.10803020976E+04  0.25500000920E-02 0. -1.
        2   -1    0    0  501    0  0.00000000000E+00  0.00000000000E+00 -0.18175668618E+04  0.18175668618E+04  0.25500000920E-02 0.  1.
    10030    2    1    2    0    0  0.00000000000E+00  0.00000000000E+00 -0.73726476427E+03  0.28978689594E+04  0.28025140809E+04 0.  0.
        4    1    3    3  502    0  0.28391528459E+03 -0.12554000174E+04  0.20418615458E+03  0.13032001731E+04  0.12699999809E+01 0. -1.
       -4    1    3    3    0  502 -0.28391528459E+03  0.12554000174E+04 -0.94145091884E+03  0.15946687863E+04  0.12699999809E+01 0.  1.
</event>
<event>
 5   0  0.3167616E-06  0.2802571E+04  0.7818609E-02  0.8302471E-01
        2   -1    0    0  501    0  0.00000000000E+00  0.00000000000E+00  0.12563593985E+04  0.12563593985E+04  0.25500000920E-02 0.  1.
       -2   -1    0    0    0  501  0.00000000000E+00  0.00000000000E+00 -0.15629294764E+04  0.15629294764E+04  0.25500000920E-02 0. -1.
    10030    2    1    2    0    0  0.00000000000E+00  0.00000000000E+00 -0.30657007795E+03  0.28192888749E+04  0.28025710602E+04 0.  0.
        3    1    3    3  502    0  0.99258552257E+03  0.97964748719E+03 -0.29072325349E+03  0.14245894984E+04  0.10100000352E+00 0. -1.
       -3    1    3    3    0  502 -0.99258552257E+03 -0.97964748719E+03 -0.15846824463E+02  0.13946993765E+04  0.10100000352E+00 0.  1.
</event>
<event>
 5   0  0.1235252E-06  0.2830885E+04  0.7818609E-02  0.8293743E-01
       -1   -1    0    0    0  501  0.00000000000E+00  0.00000000000E+00  0.14353379720E+04  0.14353379720E+04  0.50400001928E-02 0.  1.
        1   -1    0    0  501    0  0.00000000000E+00  0.00000000000E+00 -0.13958231883E+04  0.13958231883E+04  0.50400001928E-02 0. -1.
    10030    2    1    2    0    0  0.00000000000E+00  0.00000000000E+00  0.39514783636E+02  0.28311611603E+04  0.28308853911E+04 0.  0.
        1    1    3    3  502    0  0.71099416636E+02  0.14119539099E+04  0.89111487586E+02  0.14165485618E+04  0.50400001928E-02 0. -1.
       -1    1    3    3    0  502 -0.71099416636E+02 -0.14119539099E+04 -0.49596703950E+02  0.14146125985E+04  0.50400001928E-02 0.  1.
</event>
<event>
 5   0  0.1263513E-06  0.2819613E+04  0.7818609E-02  0.8297205E-01
        1   -1    0    0  501    0  0.00000000000E+00  0.00000000000E+00  0.24725667549E+04  0.24725667549E+04  0.50400001928E-02 0. -1.
       -1   -1    0    0    0  501  0.00000000000E+00  0.00000000000E+00 -0.80384259281E+03  0.80384259282E+03  0.50400001928E-02 0.  1.
    10030    2    1    2    0    0  0.00000000000E+00  0.00000000000E+00  0.16687241621E+04  0.32764093477E+04  0.28196130736E+04 0.  0.
        3    1    3    3  502    0 -0.71584395417E+03 -0.11928766386E+04  0.56895806830E+03  0.15030304506E+04  0.10100000352E+00 0.  1.
       -3    1    3    3    0  502  0.71584395417E+03  0.11928766386E+04  0.10997660938E+04  0.17733788971E+04  0.10100000352E+00 0. -1.
</event>
<event>
 5   0  0.1243055E-06  0.2765683E+04  0.7818609E-02  0.8314002E-01
       -1   -1    0    0    0  501  0.00000000000E+00  0.00000000000E+00  0.10630386115E+04  0.10630386115E+04  0.50400001928E-02 0. -1.
        1   -1    0    0  501    0  0.00000000000E+00  0.00000000000E+00 -0.17988534297E+04  0.17988534297E+04  0.50400001928E-02 0.  1.
    10030    2    1    2    0    0  0.00000000000E+00  0.00000000000E+00 -0.73581481823E+03  0.28618920412E+04  0.27656830275E+04 0.  0.
        5    1    3    3  502    0 -0.54558970462E+03 -0.11905474007E+04  0.91562737328E+02  0.13128126538E+04  0.46999998093E+01 0. -1.
       -5    1    3    3    0  502  0.54558970462E+03  0.11905474007E+04 -0.82737755556E+03  0.15490793874E+04  0.46999998093E+01 0.  1.
</event>
<event>
 5   0  0.1243055E-06  0.2810092E+04  0.7818609E-02  0.8300142E-01
       -1   -1    0    0    0  501  0.00000000000E+00  0.00000000000E+00  0.18218517410E+04  0.18218517410E+04  0.50400001928E-02 0. -1.
        1   -1    0    0  501    0  0.00000000000E+00  0.00000000000E+00 -0.10835979054E+04  0.10835979054E+04  0.50400001928E-02 0.  1.
    10030    2    1    2    0    0  0.00000000000E+00  0.00000000000E+00  0.73825383564E+03  0.29054496464E+04  0.28100923334E+04 0.  0.
        5    1    3    3  502    0 -0.99301428485E+03 -0.38342765989E+03 -0.57907472100E+03  0.12117936139E+04  0.46999998093E+01 0.  1.
       -5    1    3    3    0  502  0.99301428485E+03  0.38342765989E+03  0.13173285566E+04  0.16936560325E+04  0.46999998093E+01 0. -1.
</event>
<event>
 5   0  0.3345919E-06  0.2797894E+04  0.7818609E-02  0.8303922E-01
       -2   -1    0    0    0  501  0.00000000000E+00  0.00000000000E+00  0.85585488986E+03  0.85585488986E+03  0.25500000920E-02 0. -1.
        2   -1    0    0  501    0  0.00000000000E+00  0.00000000000E+00 -0.22866648412E+04  0.22866648412E+04  0.25500000920E-02 0.  1.
    10030    2    1    2    0    0  0.00000000000E+00  0.00000000000E+00 -0.14308099513E+04  0.31425197310E+04  0.27978944124E+04 0.  0.
        2    1    3    3  502    0 -0.51956277057E+03  0.12835811191E+04 -0.49210154331E+03  0.14695883406E+04  0.25500000920E-02 0.  1.
       -2    1    3    3    0  502  0.51956277057E+03 -0.12835811191E+04 -0.93870840798E+03  0.16729313904E+04  0.25500000920E-02 0. -1.
</event>
<event>
 5   0  0.3345919E-06  0.2806342E+04  0.7818609E-02  0.8301302E-01
       -2   -1    0    0    0  501  0.00000000000E+00  0.00000000000E+00  0.12152202258E+04  0.12152202259E+04  0.25500000920E-02 0. -1.
        2   -1    0    0  501    0  0.00000000000E+00  0.00000000000E+00 -0.16201909432E+04  0.16201909432E+04  0.25500000920E-02 0.  1.
    10030    2    1    2    0    0  0.00000000000E+00  0.00000000000E+00 -0.40497071733E+03  0.28354111690E+04  0.28063419634E+04 0.  0.
        2    1    3    3  502    0 -0.26769672124E+03  0.41909281446E+03  0.11231989922E+04  0.12283632597E+04  0.25500000920E-02 0. -1.
       -2    1    3    3    0  502  0.26769672124E+03 -0.41909281446E+03 -0.15281697095E+04  0.16070479093E+04  0.25500000920E-02 0.  1.
</event>
<event>
 5   0  0.1263513E-06  0.2794570E+04  0.7818609E-02  0.8304956E-01
        1   -1    0    0  501    0  0.00000000000E+00  0.00000000000E+00  0.12242025047E+04  0.12242025047E+04  0.50400001928E-02 0. -1.
       -1   -1    0    0    0  501  0.00000000000E+00  0.00000000000E+00 -0.15948383867E+04  0.15948383867E+04  0.50400001928E-02 0.  1.
    10030    2    1    2    0    0  0.00000000000E+00  0.00000000000E+00 -0.37063588202E+03  0.28190408914E+04  0.27945698400E+04 0.  0.
        3    1    3    3  502    0  0.13485052737E+04  0.14610853395E+03 -0.52380196086E+03  0.14540229301E+04  0.10100000352E+00 0.  1.
       -3    1    3    3    0  502 -0.13485052737E+04 -0.14610853395E+03  0.15316607884E+03  0.13650179613E+04  0.10100000352E+00 0. -1.
</event>
<event>
 5   0  0.1235252E-06  0.2803498E+04  0.7818609E-02  0.8302183E-01
        1   -1    0    0  501    0  0.00000000000E+00  0.00000000000E+00  0.22833282706E+04  0.22833282706E+04  0.50400001928E-02 0.  1.
       -1   -1    0    0    0  501  0.00000000000E+00  0.00000000000E+00 -0.86054225364E+03  0.86054225365E+03  0.50400001928E-02 0. -1.
    10030    2    1    2    0    0  0.00000000000E+00  0.00000000000E+00  0.14227860170E+04  0.31438705243E+04  0.28034981404E+04 0.  0.
        1    1    3    3  502    0 -0.76651139606E+03  0.67415709569E+03 -0.36590371002E+03  0.10843952393E+04  0.50400001928E-02 0. -1.
       -1    1    3    3    0  502  0.76651139606E+03 -0.67415709569E+03  0.17886897270E+04  0.20594752850E+04  0.50400001928E-02 0.  1.
</event>
<event>
 5   0  0.3167616E-06  0.2798093E+04  0.7818609E-02  0.8303861E-01
       -2   -1    0    0    0  501  0.00000000000E+00  0.00000000000E+00  0.14296806721E+04  0.14296806721E+04  0.25500000920E-02 0.  1.
        2   -1    0    0  501    0  0.00000000000E+00  0.00000000000E+00 -0.13690687475E+04  0.13690687475E+04  0.25500000920E-02 0. -1.
    10030    2    1    2    0    0  0.00000000000E+00  0.00000000000E+00  0.60611924552E+02  0.27987494196E+04  0.27980930128E+04 0.  0.
        3    1    3    3  502    0  0.45201508533E+02  0.35174855896E+03 -0.13233632466E+04  0.13700585819E+04  0.10100000352E+00 0. -1.
       -3    1    3    3    0  502 -0.45201508533E+02 -0.35174855896E+03  0.13839751712E+04  0.14286908377E+04  0.10100000352E+00 0.  1.
</event>
<event>
 5   0  0.3226364E-06  0.2802887E+04  0.7818609E-02  0.8302373E-01
       -2   -1    0    0    0  501  0.00000000000E+00  0.00000000000E+00  0.12609583158E+04  0.12609583158E+04  0.25500000920E-02 0. -1.
        2   -1    0    0  501    0  0.00000000000E+00  0.00000000000E+00 -0.15575804261E+04  0.15575804261E+04  0.25500000920E-02 0.  1.
    10030    2    1    2    0    0  0.00000000000E+00  0.00000000000E+00 -0.29662211029E+03  0.28185387420E+04  0.28028870765E+04 0.  0.
        5    1    3    3  502    0 -0.11615760948E+03  0.18128805159E+03  0.12442192649E+04  0.12627199282E+04  0.46999998093E+01 0. -1.
       -5    1    3    3    0  502  0.11615760948E+03 -0.18128805159E+03 -0.15408413752E+04  0.15558188138E+04  0.46999998093E+01 0.  1.
</event>
<event>
 5   0  0.1246044E-06  0.2783291E+04  0.7818609E-02  0.8308475E-01
       -1   -1    0    0    0  501  0.00000000000E+00  0.00000000000E+00  0.10267565526E+04  0.10267565526E+04  0.50400001928E-02 0. -1.
        1   -1    0    0  501    0  0.00000000000E+00  0.00000000000E+00 -0.18862081051E+04  0.18862081051E+04  0.50400001928E-02 0.  1.
    10030    2    1    2    0    0  0.00000000000E+00  0.00000000000E+00 -0.85945155249E+03  0.29129646577E+04  0.27832905213E+04 0.  0.
        2    1    3    3  502    0 -0.63736961689E+03  0.12370894728E+04 -0.43683482609E+03  0.14585798084E+04  0.25500000920E-02 0. -1.
       -2    1    3    3    0  502  0.63736961689E+03 -0.12370894728E+04 -0.42261672641E+03  0.14543848493E+04  0.25500000920E-02 0.  1.
</event>
<event>
 5   0  0.1246044E-06  0.2789723E+04  0.7818609E-02  0.8306466E-01
       -1   -1    0    0    0  501  0.00000000000E+00  0.00000000000E+00  0.10984897448E+04  0.10984897448E+04  0.50400001928E-02 0. -1.
        1   -1    0    0  501    0  0.00000000000E+00  0.00000000000E+00 -0.17711947163E+04  0.17711947163E+04  0.50400001928E-02 0.  1.
    10030    2    1    2    0    0  0.00000000000E+00  0.00000000000E+00 -0.67270497149E+03  0.28696844611E+04  0.27897234500E+04 0.  0.
        2    1    3    3  502    0 -0.98629373454E+02 -0.13239286411E+04  0.10384356127E+03  0.13316524641E+04  0.25500000920E-02 0. -1.
       -2    1    3    3    0  502  0.98629373454E+02  0.13239286411E+04 -0.77654853276E+03  0.15380319970E+04  0.25500000920E-02 0.  1.
</event>
<event>
 5   0  0.1263513E-06  0.2793899E+04  0.7818609E-02  0.8305165E-01
       -1   -1    0    0    0  501  0.00000000000E+00  0.00000000000E+00  0.12679741247E+04  0.12679741247E+04  0.50400001928E-02 0. -1.
        1   -1    0    0  501    0  0.00000000000E+00  0.00000000000E+00 -0.15390436524E+04  0.15390436524E+04  0.50400001928E-02 0.  1.
    10030    2    1    2    0    0  0.00000000000E+00  0.00000000000E+00 -0.27106952768E+03  0.28070177771E+04  0.27938987298E+04 0.  0.
        3    1    3    3  502    0 -0.70915866161E+03 -0.10063305139E+04 -0.79883203870E+03  0.14675625189E+04  0.10100000352E+00 0.  1.
       -3    1    3    3    0  502  0.70915866161E+03  0.10063305139E+04  0.52776251103E+03  0.13394552582E+04  0.10100000352E+00 0. -1.
</event>
<event>
 5   0  0.3167616E-06  0.2794126E+04  0.7818609E-02  0.8305094E-01
        2   -1    0    0  501    0  0.00000000000E+00  0.00000000000E+00  0.14965295387E+04  0.14965295387E+04  0.25500000920E-02 0. -1.
       -2   -1    0    0    0  501  0.00000000000E+00  0.00000000000E+00 -0.13042075359E+04  0.13042075359E+04  0.25500000920E-02 0.  1.
    10030    2    1    2    0    0  0.00000000000E+00  0.00000000000E+00  0.19232200279E+03  0.28007370745E+04  0.27941260544E+04 0.  0.
        3    1    3    3  502    0 -0.37953843375E+03  0.98018559348E+03  0.10186492426E+04  0.14637142857E+04  0.10100000352E+00 0. -1.
       -3    1    3    3    0  502  0.37953843375E+03 -0.98018559348E+03 -0.82632723986E+03  0.13370227888E+04  0.10100000352E+00 0.  1.
</event>
<event>
 5   0  0.1243055E-06  0.2795587E+04  0.7818609E-02  0.8304640E-01
        1   -1    0    0  501    0  0.00000000000E+00  0.00000000000E+00  0.16187191421E+04  0.16187191421E+04  0.50400001928E-02 0. -1.
       -1   -1    0    0    0  501  0.00000000000E+00  0.00000000000E+00 -0.12070200075E+04  0.12070200076E+04  0.50400001928E-02 0.  1.
    10030    2    1    2    0    0  0.00000000000E+00  0.00000000000E+00  0.41169913458E+03  0.28257391497E+04  0.27955868015E+04 0.  0.
        5    1    3    3  502    0  0.78276100919E+03 -0.96201316335E+03  0.85748906290E+03  0.15078108989E+04  0.46999998093E+01 0. -1.
       -5    1    3    3    0  502 -0.78276100919E+03  0.96201316335E+03 -0.44578992831E+03  0.13179282508E+04  0.46999998093E+01 0.  1.
</event>
<event>
 5   0  0.1220265E-06  0.2789440E+04  0.7818609E-02  0.8306554E-01
       -1   -1    0    0    0  501  0.00000000000E+00  0.00000000000E+00  0.11149870929E+04  0.11149870929E+04  0.50400001928E-02 0.  1.
        1   -1    0    0  501    0  0.00000000000E+00  0.00000000000E+00 -0.17446337921E+04  0.17446337921E+04  0.50400001928E-02 0. -1.
    10030    2    1    2    0    0  0.00000000000E+00  0.00000000000E+00 -0.62964669924E+03  0.28596208850E+04  0.27894402019E+04 0.  0.
        4    1    3    3  502    0 -0.13200233839E+04 -0.29773664731E+03 -0.66115992360E+03  0.15060686912E+04  0.12699999809E+01 0. -1.
       -4    1    3    3    0  502  0.13200233839E+04  0.29773664731E+03  0.31513224363E+02  0.13535521938E+04  0.12699999809E+01 0.  1.
</event>
<event>
 5   0  0.3167616E-06  0.2803454E+04  0.7818609E-02  0.8302197E-01
        2   -1    0    0  501    0  0.00000000000E+00  0.00000000000E+00  0.16198582195E+04  0.16198582195E+04  0.25500000920E-02 0.  1.
       -2   -1    0    0    0  501  0.00000000000E+00  0.00000000000E+00 -0.12129694324E+04  0.12129694324E+04  0.25500000920E-02 0. -1.
    10030    2    1    2    0    0  0.00000000000E+00  0.00000000000E+00  0.40688878713E+03  0.28328276519E+04  0.28034539448E+04 0.  0.
        3    1    3    3  502    0  0.34288762502E+03 -0.56837418429E+03 -0.10440832527E+04  0.12372271358E+04  0.10100000352E+00 0. -1.
       -3    1    3    3    0  502 -0.34288762502E+03  0.56837418429E+03  0.14509720398E+04  0.15956005162E+04  0.10100000352E+00 0.  1.
</event>
<event>
 5   0  0.3226364E-06  0.2800631E+04  0.7818609E-02  0.8303072E-01
       -2   -1    0    0    0  501  0.00000000000E+00  0.00000000000E+00  0.15788241441E+04  0.15788241441E+04  0.25500000920E-02 0. -1.
        2   -1    0    0  501    0  0.00000000000E+00  0.00000000000E+00 -0.12419900130E+04  0.12419900130E+04  0.25500000920E-02 0.  1.
    10030    2    1    2    0    0  0.00000000000E+00  0.00000000000E+00  0.33683413111E+03  0.28208141570E+04  0.28006312282E+04 0.  0.
        5    1    3    3  502    0 -0.94372140467E+03 -0.99058480184E+03 -0.13205037836E+03  0.13745281851E+04  0.46999998093E+01 0.  1.
       -5    1    3    3    0  502  0.94372140467E+03  0.99058480184E+03  0.46888450947E+03  0.14462859719E+04  0.46999998093E+01 0. -1.
</event>
<event>
 5   0  0.3226364E-06  0.2769147E+04  0.7818609E-02  0.8312911E-01
       -2   -1    0    0    0  501  0.00000000000E+00  0.00000000000E+00  0.13220005101E+04  0.13220005101E+04  0.25500000920E-02 0.  1.
        2   -1    0    0  501    0  0.00000000000E+00  0.00000000000E+00 -0.14501082076E+04  0.14501082076E+04  0.25500000920E-02 0. -1.
    10030    2    1    2    0    0  0.00000000000E+00  0.00000000000E+00 -0.12810769749E+03  0.27721087176E+04  0.27691470095E+04 0.  0.
        5    1    3    3  502    0  0.10134047314E+04  0.50738783250E+03 -0.86025986473E+03  0.14228494956E+04  0.46999998093E+01 0. -1.
       -5    1    3    3    0  502 -0.10134047314E+04 -0.50738783250E+03  0.73215216724E+03  0.13492592220E+04  0.46999998093E+01 0.  1.
</event>
<event>
 5   0  0.3226364E-06  0.2805869E+04  0.7818609E-02  0.8301449E-01
       -2   -1    0    0    0  501  0.00000000000E+00  0.00000000000E+00  0.14600173802E+04  0.14600173802E+04  0.25500000920E-02 0.  1.
        2   -1    0    0  501    0  0.00000000000E+00  0.00000000000E+00 -0.13480835813E+04  0.13480835813E+04  0.25500000920E-02 0. -1.
    10030    2    1    2    0    0  0.00000000000E+00  0.00000000000E+00  0.11193379884E+03  0.28081009615E+04  0.28058691764E+04 0.  0.
        5    1    3    3  502    0  0.11070938687E+04 -0.34583214850E+03  0.84586438381E+03  0.14355366087E+04  0.46999998093E+01 0.  1.
       -5    1    3    3    0  502 -0.11070938687E+04  0.34583214850E+03 -0.73393058497E+03  0.13725643528E+04  0.46999998093E+01 0. -1.
</event>
<event>
 5   0  0.3345919E-06  0.2773576E+04  0.7818609E-02  0.8311519E-01
       -2   -1    0    0    0  501  0.00000000000E+00  0.00000000000E+00  0.25934249537E+04  0.25934249537E+04  0.25500000920E-02 0.  1.
        2   -1    0    0  501    0  0.00000000000E+00  0.00000000000E+00 -0.74156007318E+03  0.74156007318E+03  0.25500000920E-02 0. -1.
    10030    2    1    2    0    0  0.00000000000E+00  0.00000000000E+00  0.18518648805E+04  0.33349850269E+04  0.27735755973E+04 0.  0.
        2    1    3    3  502    0  0.35348600306E+03 -0.28352361327E+03  0.25018937103E+04  0.25425990898E+04  0.25500000920E-02 0.  1.
       -2    1    3    3    0  502 -0.35348600306E+03  0.28352361327E+03 -0.65002882983E+03  0.79238593707E+03  0.25500000920E-02 0. -1.
</event>
<event>
 5   0  0.3212679E-06  0.2790369E+04  0.7818609E-02  0.8306265E-01
       -2   -1    0    0    0  501  0.00000000000E+00  0.00000000000E+00  0.13217245036E+04  0.13217245036E+04  0.25500000920E-02 0.  1.
        2   -1    0    0  501    0  0.00000000000E+00  0.00000000000E+00 -0.14727268183E+04  0.14727268183E+04  0.25500000920E-02 0. -1.
    10030    2    1    2    0    0  0.00000000000E+00  0.00000000000E+00 -0.15100231465E+03  0.27944513220E+04  0.27903685226E+04 0.  0.
        4    1    3    3  502    0 -0.63009736999E+03  0.59361726924E+03  0.10202356486E+04  0.13380159003E+04  0.12699999809E+01 0.  1.
       -4    1    3    3    0  502  0.63009736999E+03 -0.59361726924E+03 -0.11712379632E+04  0.14564354216E+04  0.12699999809E+01 0. -1.
</event>
<event>
 5   0  0.3167616E-06  0.2803953E+04  0.7818609E-02  0.8302042E-01
        2   -1    0    0  501    0  0.00000000000E+00  0.00000000000E+00  0.16465486829E+04  0.16465486829E+04  0.25500000920E-02 0. -1.
       -2   -1    0    0    0  501  0.00000000000E+00  0.00000000000E+00 -0.11937320484E+04  0.11937320484E+04  0.25500000920E-02 0.  1.
    10030    2    1    2    0    0  0.00000000000E+00  0.00000000000E+00  0.45281663450E+03  0.28402807313E+04  0.28039528755E+04 0.  0.
        3    1    3    3  502    0  0.41633565708E+03  0.11562780723E+04 -0.45703566423E+03  0.13111811349E+04  0.10100000352E+00 0.  1.
       -3    1    3    3    0  502 -0.41633565708E+03 -0.11562780723E+04  0.90985229873E+03  0.15290995964E+04  0.10100000352E+00 0. -1.
</event>
<event>
 5   0  0.3226364E-06  0.2821864E+04  0.7818609E-02  0.8296512E-01
        2   -1    0    0  501    0  0.00000000000E+00  0.00000000000E+00  0.17996603186E+04  0.17996603186E+04  0.25500000920E-02 0.  1.
       -2   -1    0    0    0  501  0.00000000000E+00  0.00000000000E+00 -0.11061694783E+04  0.11061694783E+04  0.25500000920E-02 0. -1.
    10030    2    1    2    0    0  0.00000000000E+00  0.00000000000E+00  0.69349084035E+03  0.29058297969E+04  0.28218641468E+04 0.  0.
        5    1    3    3  502    0 -0.10880118326E+04  0.72836043662E+03 -0.19466364196E+03  0.13237049131E+04  0.46999998093E+01 0. -1.
       -5    1    3    3    0  502  0.10880118326E+04 -0.72836043662E+03  0.88815448231E+03  0.15821248838E+04  0.46999998093E+01 0.  1.
</event>
<event>
 5   0  0.3162695E-06  0.2798607E+04  0.7818609E-02  0.8303701E-01
        2   -1    0    0  501    0  0.00000000000E+00  0.00000000000E+00  0.16466506475E+04  0.16466506475E+04  0.25500000920E-02 0. -1.
       -2   -1    0    0    0  501  0.00000000000E+00  0.00000000000E+00 -0.11891105947E+04  0.11891105947E+04  0.25500000920E-02 0.  1.
    10030    2    1    2    0    0  0.00000000000E+00  0.00000000000E+00  0.45754005283E+03  0.28357612422E+04  0.27986066038E+04 0.  0.
        1    1    3    3  502    0 -0.11033757998E+04  0.85733751489E+03  0.30448799969E+03  0.14300974484E+04  0.50400001928E-02 0.  1.
       -1    1    3    3    0  502  0.11033757998E+04 -0.85733751489E+03  0.15305205314E+03  0.14056637937E+04  0.50400001928E-02 0. -1.
</event>
<event>
 5   0  0.3162695E-06  0.2824615E+04  0.7818609E-02  0.8295667E-01
       -2   -1    0    0    0  501  0.00000000000E+00  0.00000000000E+00  0.12576269808E+04  0.12576269808E+04  0.25500000920E-02 0.  1.
        2   -1    0    0  501    0  0.00000000000E+00  0.00000000000E+00 -0.15860122794E+04  0.15860122794E+04  0.25500000920E-02 0. -1.
    10030    2    1    2    0    0  0.00000000000E+00  0.00000000000E+00 -0.32838529856E+03  0.28436392602E+04  0.28246145467E+04 0.  0.
        1    1    3    3  502    0  0.11204930619E+04 -0.83408543687E+03  0.45557985038E+02  0.13975974913E+04  0.50400001928E-02 0. -1.
       -1    1    3    3    0  502 -0.11204930619E+04  0.83408543687E+03 -0.37394328360E+03  0.14460417688E+04  0.50400001928E-02 0.  1.
</event>
<event>
 5   0  0.1246044E-06  0.2798702E+04  0.7818609E-02  0.8303672E-01
       -1   -1    0    0    0  501  0.00000000000E+00  0.00000000000E+00  0.10020948852E+04  0.10020948853E+04  0.50400001928E-02 0. -1.
        1   -1    0    0  501    0  0.00000000000E+00  0.00000000000E+00 -0.19540892175E+04  0.19540892175E+04  0.50400001928E-02 0.  1.
    10030    2    1    2    0    0  0.00000000000E+00  0.00000000000E+00 -0.95199433221E+03  0.29561841027E+04  0.27987017063E+04 0.  0.
        2    1    3    3  502    0  0.58738096021E+03 -0.20105761149E+03  0.84866045411E+03  0.10515061207E+04  0.25500000920E-02 0. -1.
       -2    1    3    3    0  502 -0.58738096021E+03  0.20105761149E+03 -0.18006547863E+04  0.19046779820E+04  0.25500000920E-02 0.  1.
</event>
<event>
 5   0  0.3167616E-06  0.2810580E+04  0.7818609E-02  0.8299991E-01
       -2   -1    0    0    0  501  0.00000000000E+00  0.00000000000E+00  0.18477766227E+04  0.18477766227E+04  0.25500000920E-02 0. -1.
        2   -1    0    0  501    0  0.00000000000E+00  0.00000000000E+00 -0.10687658351E+04  0.10687658352E+04  0.25500000920E-02 0.  1.
    10030    2    1    2    0    0  0.00000000000E+00  0.00000000000E+00  0.77901078756E+03  0.29165424579E+04  0.28105803851E+04 0.  0.
        3    1    3    3  502    0  0.50343564303E+03 -0.10111623013E+04  0.12570532519E+04  0.16899939451E+04  0.10100000352E+00 0. -1.
       -3    1    3    3    0  502 -0.50343564303E+03  0.10111623013E+04 -0.47804246430E+03  0.12265485128E+04  0.10100000352E+00 0.  1.
</event>
<event>
 5   0  0.1220265E-06  0.2800460E+04  0.7818609E-02  0.8303126E-01
       -1   -1    0    0    0  501  0.00000000000E+00  0.00000000000E+00  0.20326528569E+04  0.20326528570E+04  0.50400001928E-02 0. -1.
        1   -1    0    0  501    0  0.00000000000E+00  0.00000000000E+00 -0.96457366047E+03  0.96457366048E+03  0.50400001928E-02 0.  1.
    10030    2    1    2    0    0  0.00000000000E+00  0.00000000000E+00  0.10680791965E+04  0.29972265174E+04  0.28004595385E+04 0.  0.
        4    1    3    3  502    0 -0.22608423879E+03  0.13546896512E+04  0.24222149375E+03  0.13946221707E+04  0.12699999809E+01 0. -1.
       -4    1    3    3    0  502  0.22608423879E+03 -0.13546896512E+04  0.82585770273E+03  0.16026043467E+04  0.12699999809E+01 0.  1.
</event>
<event>
 5   0  0.1235252E-06  0.2712777E+04  0.7818609E-02  0.8330871E-01
       -1   -1    0    0    0  501  0.00000000000E+00  0.00000000000E+00  0.13385951311E+04  0.13385951311E+04  0.50400001928E-02 0. -1.
        1   -1    0    0  501    0  0.00000000000E+00  0.00000000000E+00 -0.13744186001E+04  0.13744186001E+04  0.50400001928E-02 0.  1.
    10030    2    1    2    0    0  0.00000000000E+00  0.00000000000E+00 -0.35823468964E+02  0.27130137312E+04  0.27127772089E+04 0.  0.
        1    1    3    3  502    0 -0.76334662654E+03  0.11206037355E+04 -0.54510579503E+02  0.13569901280E+04  0.50400001928E-02 0. -1.
       -1    1    3    3    0  502  0.76334662654E+03 -0.11206037355E+04  0.18687110538E+02  0.13560236032E+04  0.50400001928E-02 0.  1.
</event>
<event>
 5   0  0.1243055E-06  0.2812124E+04  0.7818609E-02  0.8299514E-01
       -1   -1    0    0    0  501  0.00000000000E+00  0.00000000000E+00  0.15018316574E+04  0.15018316574E+04  0.50400001928E-02 0. -1.
        1   -1    0    0  501    0  0.00000000000E+00  0.00000000000E+00 -0.13163995414E+04  0.13163995414E+04  0.50400001928E-02 0.  1.
    10030    2    1    2    0    0  0.00000000000E+00  0.00000000000E+00  0.18543211599E+03  0.28182311988E+04  0.28121241119E+04 0.  0.
        5    1    3    3  502    0 -0.37660722032E+03 -0.43665117708E+03  0.13778781496E+04  0.14936758463E+04  0.46999998093E+01 0. -1.
       -5    1    3    3    0  502  0.37660722032E+03  0.43665117708E+03 -0.11924460336E+04  0.13245553525E+04  0.46999998093E+01 0.  1.
</event>
<event>
 5   0  0.3212679E-06  0.2797174E+04  0.7818609E-02  0.8304146E-01
       -2   -1    0    0    0  501  0.00000000000E+00  0.00000000000E+00  0.10272913837E+04  0.10272913837E+04  0.25500000920E-02 0.  1.
        2   -1    0    0  501    0  0.00000000000E+00  0.00000000000E+00 -0.19040799986E+04  0.19040799986E+04  0.25500000920E-02 0. -1.
    10030    2    1    2    0    0  0.00000000000E+00  0.00000000000E+00 -0.87678861493E+03  0.29313713823E+04  0.27971735566E+04 0.  0.
        4    1    3    3  502    0 -0.80850759530E+03 -0.10481599592E+04  0.34612906745E+02  0.13242067429E+04  0.12699999809E+01 0.  1.
       -4    1    3    3    0  502  0.80850759530E+03  0.10481599592E+04 -0.91140152167E+03  0.16071646394E+04  0.12699999809E+01 0. -1.
</event>
<event>
 5   0  0.1246044E-06  0.2784118E+04  0.7818609E-02  0.8308216E-01
        1   -1    0    0  501    0  0.00000000000E+00  0.00000000000E+00  0.13415182671E+04  0.13415182672E+04  0.50400001928E-02 0.  1.
       -1   -1    0    0    0  501  0.00000000000E+00  0.00000000000E+00 -0.14445033777E+04  0.14445033777E+04  0.50400001928E-02 0. -1.
    10030    2    1    2    0    0  0.00000000000E+00  0.00000000000E+00 -0.10298511051E+03  0.27860216448E+04  0.27841175752E+04 0.  0.
        2    1    3    3  502    0  0.12556039935E+02 -0.13845833178E+04  0.92129292442E+02  0.13877018501E+04  0.25500000920E-02 0.  1.
       -2    1    3    3    0  502 -0.12556039935E+02  0.13845833178E+04 -0.19511440295E+03  0.13983197947E+04  0.25500000920E-02 0. -1.
</event>
<event>
 5   0  0.3345919E-06  0.2694982E+04  0.7818609E-02  0.8336635E-01
       -2   -1    0    0    0  501  0.00000000000E+00  0.00000000000E+00  0.89091556251E+03  0.89091556251E+03  0.25500000920E-02 0.  1.
        2   -1    0    0  501    0  0.00000000000E+00  0.00000000000E+00 -0.20380516302E+04  0.20380516302E+04  0.25500000920E-02 0. -1.
    10030    2    1    2    0    0  0.00000000000E+00  0.00000000000E+00 -0.11471360677E+04  0.29289671927E+04  0.26949819403E+04 0.  0.
        2    1    3    3  502    0 -0.18818035801E+03 -0.72178548666E+03  0.64607051721E+03  0.98680963165E+03  0.25500000920E-02 0.  1.
       -2    1    3    3    0  502  0.18818035801E+03  0.72178548666E+03 -0.17932065849E+04  0.19421575611E+04  0.25500000920E-02 0. -1.
</event>
<event>
 5   0  0.3162695E-06  0.2799943E+04  0.7818609E-02  0.8303286E-01
        2   -1    0    0  501    0  0.00000000000E+00  0.00000000000E+00  0.22235417074E+04  0.22235417074E+04  0.25500000920E-02 0.  1.
       -2   -1    0    0    0  501  0.00000000000E+00  0.00000000000E+00 -0.88144097271E+03  0.88144097272E+03  0.25500000920E-02 0. -1.
    10030    2    1    2    0    0  0.00000000000E+00  0.00000000000E+00  0.13421007347E+04  0.31049826801E+04  0.27999434033E+04 0.  0.
        1    1    3    3  502    0  0.96435067393E+02 -0.69885903955E+03  0.20120104693E+04  0.21321092392E+04  0.50400001928E-02 0.  1.
       -1    1    3    3    0  502 -0.96435067393E+02  0.69885903955E+03 -0.66990973463E+03  0.97287344088E+03  0.50400001928E-02 0. -1.
</event>
<event>
 5   0  0.3226364E-06  0.2813437E+04  0.7818609E-02  0.8299109E-01
        2   -1    0    0  501    0  0.00000000000E+00  0.00000000000E+00  0.12553335984E+04  0.12553335984E+04  0.25500000920E-02 0.  1.
       -2   -1    0    0    0  501  0.00000000000E+00  0.00000000000E+00 -0.15763595189E+04  0.15763595189E+04  0.25500000920E-02 0. -1.
    10030    2    1    2    0    0  0.00000000000E+00  0.00000000000E+00 -0.32102592043E+03  0.28316931173E+04  0.28134370917E+04 0.  0.
        5    1    3    3  502    0  0.41933501518E+03  0.48171319191E+03  0.11009936742E+04  0.12728309451E+04  0.46999998093E+01 0.  1.
       -5    1    3    3    0  502 -0.41933501518E+03 -0.48171319191E+03 -0.14220195946E+04  0.15588621722E+04  0.46999998093E+01 0. -1.
</event>
<event>
 5   0  0.1246044E-06  0.2780204E+04  0.7818609E-02  0.8309441E-01
       -1   -1    0    0    0  501  0.00000000000E+00  0.00000000000E+00  0.10745412758E+04  0.10745412758E+04  0.50400001928E-02 0. -1.
        1   -1    0    0  501    0  0.00000000000E+00  0.00000000000E+00 -0.17983329895E+04  0.17983329895E+04  0.50400001928E-02 0.  1.
    10030    2    1    2    0    0  0.00000000000E+00  0.00000000000E+00 -0.72379171371E+03  0.28728742654E+04  0.27802036076E+04 0.  0.
        2    1    3    3  502    0  0.76243022205E+03 -0.47859232783E+03 -0.14564638571E+04  0.17122025075E+04  0.25500000920E-02 0.  1.
       -2    1    3    3    0  502 -0.76243022205E+03  0.47859232783E+03  0.73267214340E+03  0.11606717579E+04  0.25500000920E-02 0. -1.
</event>
<event>
 5   0  0.1220265E-06  0.2800624E+04  0.7818609E-02  0.8303075E-01
       -1   -1    0    0    0  501  0.00000000000E+00  0.00000000000E+00  0.12854708935E+04  0.12854708935E+04  0.50400001928E-02 0. -1.
        1   -1    0    0  501    0  0.00000000000E+00  0.00000000000E+00 -0.15254128944E+04  0.15254128944E+04  0.50400001928E-02 0.  1.
    10030    2    1    2    0    0  0.00000000000E+00  0.00000000000E+00 -0.23994200091E+03  0.28108837878E+04  0.28006241278E+04 0.  0.
        4    1    3    3  502    0 -0.44927559284E+03 -0.49054826806E+03  0.11167711842E+04  0.12998713984E+04  0.12699999809E+01 0. -1.
       -4    1    3    3    0  502  0.44927559284E+03  0.49054826806E+03 -0.13567131851E+04  0.15110123895E+04  0.12699999809E+01 0.  1.
</event>
<event>
 5   0  0.3212679E-06  0.2808165E+04  0.7818609E-02  0.8300738E-01
       -2   -1    0    0    0  501  0.00000000000E+00  0.00000000000E+00  0.20632733081E+04  0.20632733081E+04  0.25500000920E-02 0.  1.
        2   -1    0    0  501    0  0.00000000000E+00  0.00000000000E+00 -0.95549500564E+03  0.95549500564E+03  0.25500000920E-02 0. -1.
    10030    2    1    2    0    0  0.00000000000E+00  0.00000000000E+00  0.11077783025E+04  0.30187683138E+04  0.28081647681E+04 0.  0.
        4    1    3    3  502    0  0.12359166654E+04  0.34322915681E+03  0.11678144572E+04  0.17346724409E+04  0.12699999809E+01 0.  1.
       -4    1    3    3    0  502 -0.12359166654E+04 -0.34322915681E+03 -0.60036154718E+02  0.12840958729E+04  0.12699999809E+01 0. -1.
</event>
<event>
 5   0  0.3167616E-06  0.2786412E+04  0.7818609E-02  0.8307499E-01
       -2   -1    0    0    0  501  0.00000000000E+00  0.00000000000E+00  0.10040578762E+04  0.10040578762E+04  0.25500000920E-02 0. -1.
        2   -1    0    0  501    0  0.00000000000E+00  0.00000000000E+00 -0.19331783681E+04  0.19331783681E+04  0.25500000920E-02 0.  1.
    10030    2    1    2    0    0  0.00000000000E+00  0.00000000000E+00 -0.92912049184E+03  0.29372362443E+04  0.27864120058E+04 0.  0.
        3    1    3    3  502    0  0.11007723844E+04  0.85272458250E+03 -0.41529848101E+03  0.14530354072E+04  0.10100000352E+00 0.  1.
       -3    1    3    3    0  502 -0.11007723844E+04 -0.85272458250E+03 -0.51382201083E+03  0.14842008371E+04  0.10100000352E+00 0. -1.
</event>
<event>
 5   0  0.1235252E-06  0.2805105E+04  0.7818609E-02  0.8301685E-01
       -1   -1    0    0    0  501  0.00000000000E+00  0.00000000000E+00  0.94392362300E+03  0.94392362302E+03  0.50400001928E-02 0.  1.
        1   -1    0    0  501    0  0.00000000000E+00  0.00000000000E+00 -0.20840173540E+04  0.20840173540E+04  0.50400001928E-02 0. -1.
    10030    2    1    2    0    0  0.00000000000E+00  0.00000000000E+00 -0.11400937310E+04  0.30279409771E+04  0.28051047833E+04 0.  0.
        1    1    3    3  502    0  0.87775521166E+03 -0.79695835468E+03 -0.13789471714E+04  0.18185412099E+04  0.50400001928E-02 0. -1.
       -1    1    3    3    0  502 -0.87775521166E+03  0.79695835468E+03  0.23885344038E+03  0.12093997671E+04  0.50400001928E-02 0.  1.
</event>
<event>
 5   0  0.1263513E-06  0.2803663E+04  0.7818609E-02  0.8302132E-01
        1   -1    0    0  501    0  0.00000000000E+00  0.00000000000E+00  0.15836183561E+04  0.15836183561E+04  0.50400001928E-02 0. -1.
       -1   -1    0    0    0  501  0.00000000000E+00  0.00000000000E+00 -0.12409118997E+04  0.12409118997E+04  0.50400001928E-02 0.  1.
    10030    2    1    2    0    0  0.00000000000E+00  0.00000000000E+00  0.34270645639E+03  0.28245302558E+04  0.28036625066E+04 0.  0.
        3    1    3    3  502    0 -0.12044693512E+04  0.71522384064E+03  0.22503483972E+03  0.14187784357E+04  0.10100000352E+00 0.  1.
       -3    1    3    3    0  502  0.12044693512E+04 -0.71522384064E+03  0.11767161667E+03  0.14057518201E+04  0.10100000352E+00 0. -1.
</event>
<event>
 5   0  0.1246044E-06  0.2802068E+04  0.7818609E-02  0.8302627E-01
       -1   -1    0    0    0  501  0.00000000000E+00  0.00000000000E+00  0.89270550678E+03  0.89270550679E+03  0.50400001928E-02 0.  1.
        1   -1    0    0  501    0  0.00000000000E+00  0.00000000000E+00 -0.21988174443E+04  0.21988174443E+04  0.50400001928E-02 0. -1.
    10030    2    1    2    0    0  0.00000000000E+00  0.00000000000E+00 -0.13061119376E+04  0.30915229511E+04  0.28020681226E+04 0.  0.
        2    1    3    3  502    0 -0.16468475649E+03  0.57680955794E+03  0.74385748932E+03  0.95559107340E+03  0.25500000920E-02 0.  1.
       -2    1    3    3    0  502  0.16468475649E+03 -0.57680955794E+03 -0.20499694269E+04  0.21359318777E+04  0.25500000920E-02 0. -1.
</event>
<event>
 5   0  0.1246044E-06  0.2803274E+04  0.7818609E-02  0.8302253E-01
        1   -1    0    0  501    0  0.00000000000E+00  0.00000000000E+00  0.18847619760E+04  0.18847619760E+04  0.50400001928E-02 0.  1.
       -1   -1    0    0    0  501  0.00000000000E+00  0.00000000000E+00 -0.10423524948E+04  0.10423524948E+04  0.50400001928E-02 0. -1.
    10030    2    1    2    0    0  0.00000000000E+00  0.00000000000E+00  0.84240948117E+03  0.29271144708E+04  0.28032740486E+04 0.  0.
        2    1    3    3  502    0  0.85165364919E+03  0.10982244129E+04  0.61139278192E+03  0.15182924399E+04  0.25500000920E-02 0.  1.
       -2    1    3    3    0  502 -0.85165364919E+03 -0.10982244129E+04  0.23101669924E+03  0.14088220309E+04  0.25500000920E-02 0. -1.
</event>
<event>
 5   0  0.3226364E-06  0.2784425E+04  0.7818609E-02  0.8308120E-01
        2   -1    0    0  501    0  0.00000000000E+00  0.00000000000E+00  0.13798722759E+04  0.13798722759E+04  0.25500000920E-02 0.  1.
       -2   -1    0    0    0  501  0.00000000000E+00  0.00000000000E+00 -0.14046627351E+04  0.14046627351E+04  0.25500000920E-02 0. -1.
    10030    2    1    2    0    0  0.00000000000E+00  0.00000000000E+00 -0.24790459283E+02  0.27845350110E+04  0.27844246552E+04 0.  0.
        5    1    3    3  502    0 -0.10824802832E+04 -0.81300611671E+03 -0.33720121447E+03  0.13951592233E+04  0.46999998093E+01 0. -1.
       -5    1    3    3    0  502  0.10824802832E+04  0.81300611671E+03  0.31241075519E+03  0.13893757877E+04  0.46999998093E+01 0.  1.
</event>
<event>
 5   0  0.1243055E-06  0.2801986E+04  0.7818609E-02  0.8302652E-01
       -1   -1    0    0    0  501  0.00000000000E+00  0.00000000000E+00  0.17301671942E+04  0.17301671942E+04  0.50400001928E-02 0. -1.
        1   -1    0    0  501    0  0.00000000000E+00  0.00000000000E+00 -0.11344459316E+04  0.11344459316E+04  0.50400001928E-02 0.  1.
    10030    2    1    2    0    0  0.00000000000E+00  0.00000000000E+00  0.59572126260E+03  0.28646131259E+04  0.28019858205E+04 0.  0.
        5    1    3    3  502    0  0.17781898460E+03  0.69215071224E+02  0.17168119616E+04  0.17273898572E+04  0.46999998093E+01 0. -1.
       -5    1    3    3    0  502 -0.17781898460E+03 -0.69215071224E+02 -0.11210906990E+04  0.11372232687E+04  0.46999998093E+01 0.  1.
</event>
<event>
 5   0  0.1263513E-06  0.2796226E+04  0.7818609E-02  0.8304441E-01
       -1   -1    0    0    0  501  0.00000000000E+00  0.00000000000E+00  0.16575694527E+04  0.16575694527E+04  0.50400001928E-02 0. -1.
        1   -1    0    0  501    0  0.00000000000E+00  0.00000000000E+00 -0.11792688077E+04  0.11792688077E+04  0.50400001928E-02 0.  1.
    10030    2    1    2    0    0  0.00000000000E+00  0.00000000000E+00  0.47830064498E+03  0.28368382604E+04  0.27962259939E+04 0.  0.
        3    1    3    3  502    0 -0.12625771722E+04 -0.11998311058E+03 -0.35780274611E+03  0.13177707987E+04  0.10100000352E+00 0.  1.
       -3    1    3    3    0  502  0.12625771722E+04  0.11998311058E+03  0.83610339109E+03  0.15190674617E+04  0.10100000352E+00 0. -1.
</event>
<event>
 5   0  0.1243055E-06  0.2797347E+04  0.7818609E-02  0.8304093E-01
        1   -1    0    0  501    0  0.00000000000E+00  0.00000000000E+00  0.17349070371E+04  0.17349070371E+04  0.50400001928E-02 0.  1.
       -1   -1    0    0    0  501  0.00000000000E+00  0.00000000000E+00 -0.11276032820E+04  0.11276032820E+04  0.50400001928E-02 0. -1.
    10030    2    1    2    0    0  0.00000000000E+00  0.00000000000E+00  0.60730375513E+03  0.28625103192E+04  0.27973465063E+04 0.  0.
        5    1    3    3  502    0  0.13557470272E+04 -0.31195334133E+03  0.15571624333E+03  0.13998694679E+04  0.46999998093E+01 0.  1.
       -5    1    3    3    0  502 -0.13557470272E+04  0.31195334133E+03  0.45158751179E+03  0.14626408512E+04  0.46999998093E+01 0. -1.
</event>
<event>
 5   0  0.1235252E-06  0.2786815E+04  0.7818609E-02  0.8307373E-01
        1   -1    0    0  501    0  0.00000000000E+00  0.00000000000E+00  0.10765818251E+04  0.10765818251E+04  0.50400001928E-02 0. -1.
       -1   -1    0    0    0  501  0.00000000000E+00  0.00000000000E+00 -0.18034717725E+04  0.18034717725E+04  0.50400001928E-02 0.  1.
    10030    2    1    2    0    0  0.00000000000E+00  0.00000000000E+00 -0.72688994746E+03  0.28800535976E+04  0.27868153382E+04 0.  0.
        1    1    3    3  502    0 -0.10913961499E+03 -0.13542483604E+04 -0.68312387902E+03  0.15207098051E+04  0.50400001928E-02 0.  1.
       -1    1    3    3    0  502  0.10913961499E+03  0.13542483604E+04 -0.43766068442E+02  0.13593437925E+04  0.50400001928E-02 0. -1.
</event>
<event>
 5   0  0.3345919E-06  0.2782049E+04  0.7818609E-02  0.8308863E-01
        2   -1    0    0  501    0  0.00000000000E+00  0.00000000000E+00  0.17840247025E+04  0.17840247025E+04  0.25500000920E-02 0. -1.
       -2   -1    0    0    0  501  0.00000000000E+00  0.00000000000E+00 -0.10845976289E+04  0.10845976290E+04  0.25500000920E-02 0.  1.
    10030    2    1    2    0    0  0.00000000000E+00  0.00000000000E+00  0.69942707357E+03  0.28686223315E+04  0.27820488582E+04 0.  0.
        2    1    3    3  502    0 -0.11728835556E+04  0.71791975997E+03  0.56571835336E+03  0.14869774282E+04  0.25500000920E-02 0. -1.
       -2    1    3    3    0  502  0.11728835556E+04 -0.71791975997E+03  0.13370872021E+03  0.13816449032E+04  0.25500000920E-02 0.  1.
</event>
<event>
 5   0  0.3162695E-06  0.2799231E+04  0.7818609E-02  0.8303507E-01
        2   -1    0    0  501    0  0.00000000000E+00  0.00000000000E+00  0.24114252585E+04  0.24114252585E+04  0.25500000920E-02 0.  1.
       -2   -1    0    0    0  501  0.00000000000E+00  0.00000000000E+00 -0.81235104110E+03  0.81235104111E+03  0.25500000920E-02 0. -1.
    10030    2    1    2    0    0  0.00000000000E+00  0.00000000000E+00  0.15990742174E+04  0.32237762996E+04  0.27992311939E+04 0.  0.
        1    1    3    3  502    0  0.59608926815E+03  0.86614277563E+03  0.18634399377E+04  0.21396107415E+04  0.50400001928E-02 0.  1.
       -1    1    3    3    0  502 -0.59608926815E+03 -0.86614277563E+03 -0.26436572033E+03  0.10841655582E+04  0.50400001928E-02 0. -1.
</event>
<event>
 5   0  0.1065675E-06  0.2772559E+04  0.7818609E-02  0.8311839E-01
        3   -1    0    0  501    0  0.00000000000E+00  0.00000000000E+00  0.10468885165E+04  0.10468885214E+04  0.10100000352E+00 0.  1.
       -3   -1    0    0    0  501  0.00000000000E+00  0.00000000000E+00 -0.18356973623E+04  0.18356973651E+04  0.10100000352E+00 0. -1.
    10030    2    1    2    0    0  0.00000000000E+00  0.00000000000E+00 -0.78880884578E+03  0.28825858865E+04  0.27725587456E+04 0.  0.
        1    1    3    3  502    0 -0.33636119275E+03 -0.65981222681E+03 -0.16127793787E+04  0.17746966927E+04  0.50400001928E-02 0. -1.
       -1    1    3    3    0  502  0.33636119275E+03  0.65981222681E+03  0.82397053290E+03  0.11078891938E+04  0.50400001928E-02 0.  1.
</event>
<event>
 5   0  0.1246044E-06  0.2775902E+04  0.7818609E-02  0.8310789E-01
        1   -1    0    0  501    0  0.00000000000E+00  0.00000000000E+00  0.14344334110E+04  0.14344334110E+04  0.50400001928E-02 0.  1.
       -1   -1    0    0    0  501  0.00000000000E+00  0.00000000000E+00 -0.13429752578E+04  0.13429752578E+04  0.50400001928E-02 0. -1.
    10030    2    1    2    0    0  0.00000000000E+00  0.00000000000E+00  0.91458153196E+02  0.27774086689E+04  0.27759024335E+04 0.  0.
        2    1    3    3  502    0 -0.61075850792E+03 -0.12349411367E+04 -0.12259720584E+03  0.13831614660E+04  0.25500000920E-02 0. -1.
       -2    1    3    3    0  502  0.61075850792E+03  0.12349411367E+04  0.21405535903E+03  0.13942472029E+04  0.25500000920E-02 0.  1.
</event>
<event>
 5   0  0.1263513E-06  0.2806040E+04  0.7818609E-02  0.8301396E-01
       -1   -1    0    0    0  501  0.00000000000E+00  0.00000000000E+00  0.11054124777E+04  0.11054124777E+04  0.50400001928E-02 0. -1.
        1   -1    0    0  501    0  0.00000000000E+00  0.00000000000E+00 -0.17807518714E+04  0.17807518714E+04  0.50400001928E-02 0.  1.
    10030    2    1    2    0    0  0.00000000000E+00  0.00000000000E+00 -0.67533939369E+03  0.28861643491E+04  0.28060401554E+04 0.  0.
        3    1    3    3  502    0 -0.64815387685E+03  0.85252811355E+03 -0.12699493593E+04  0.16612281655E+04  0.10100000352E+00 0.  1.
       -3    1    3    3    0  502  0.64815387685E+03 -0.85252811355E+03  0.59460996565E+03  0.12249361836E+04  0.10100000352E+00 0. -1.
</event>
<event>
 5   0  0.3345919E-06  0.2747380E+04  0.7818609E-02  0.8319793E-01
        2   -1    0    0  501    0  0.00000000000E+00  0.00000000000E+00  0.13707595705E+04  0.13707595705E+04  0.25500000920E-02 0. -1.
       -2   -1    0    0    0  501  0.00000000000E+00  0.00000000000E+00 -0.13766268935E+04  0.13766268935E+04  0.25500000920E-02 0.  1.
    10030    2    1    2    0    0  0.00000000000E+00  0.00000000000E+00 -0.58673230656E+01  0.27473864640E+04  0.27473801988E+04 0.  0.
        2    1    3    3  502    0 -0.35055011264E+03 -0.12763079472E+04 -0.37059892821E+03  0.13744784185E+04  0.25500000920E-02 0.  1.
       -2    1    3    3    0  502  0.35055011264E+03  0.12763079472E+04  0.36473160514E+03  0.13729080454E+04  0.25500000920E-02 0. -1.
</event>
<event>
 5   0  0.3167616E-06  0.2790492E+04  0.7818609E-02  0.8306226E-01
       -2   -1    0    0    0  501  0.00000000000E+00  0.00000000000E+00  0.11737589595E+04  0.11737589595E+04  0.25500000920E-02 0. -1.
        2   -1    0    0  501    0  0.00000000000E+00  0.00000000000E+00 -0.16585278044E+04  0.16585278044E+04  0.25500000920E-02 0.  1.
    10030    2    1    2    0    0  0.00000000000E+00  0.00000000000E+00 -0.48476884491E+03  0.28322867639E+04  0.27904923365E+04 0.  0.
        3    1    3    3  502    0  0.76600934444E+03 -0.11059653792E+04  0.13299551741E+03  0.13518940615E+04  0.10100000352E+00 0. -1.
       -3    1    3    3    0  502 -0.76600934444E+03  0.11059653792E+04 -0.61776436232E+03  0.14803927024E+04  0.10100000352E+00 0.  1.
</event>
<event>
 5   0  0.1235252E-06  0.2790304E+04  0.7818609E-02  0.8306285E-01
       -1   -1    0    0    0  501  0.00000000000E+00  0.00000000000E+00  0.11223242441E+04  0.11223242441E+04  0.50400001928E-02 0.  1.
        1   -1    0    0  501    0  0.00000000000E+00  0.00000000000E+00 -0.17343013790E+04  0.17343013790E+04  0.50400001928E-02 0. -1.
    10030    2    1    2    0    0  0.00000000000E+00  0.00000000000E+00 -0.61197713486E+03  0.28566256231E+04  0.27903035564E+04 0.  0.
        1    1    3    3  502    0 -0.11791303598E+04 -0.15811423302E+03  0.44009935962E+03  0.12684778131E+04  0.50400001928E-02 0.  1.
       -1    1    3    3    0  502  0.11791303598E+04  0.15811423302E+03 -0.10520764945E+04  0.15881478100E+04  0.50400001928E-02 0. -1.
</event>
<event>
 5   0  0.3345919E-06  0.2789959E+04  0.7818609E-02  0.8306393E-01
        2   -1    0    0  501    0  0.00000000000E+00  0.00000000000E+00  0.15130637456E+04  0.15130637456E+04  0.25500000920E-02 0. -1.
       -2   -1    0    0    0  501  0.00000000000E+00  0.00000000000E+00 -0.12861106317E+04  0.12861106317E+04  0.25500000920E-02 0.  1.
    10030    2    1    2    0    0  0.00000000000E+00  0.00000000000E+00  0.22695311386E+03  0.27991743772E+04  0.27899586876E+04 0.  0.
        2    1    3    3  502    0  0.32604803598E+03  0.12311577414E+04 -0.45753487674E+03  0.13532903863E+04  0.25500000920E-02 0. -1.
       -2    1    3    3    0  502 -0.32604803598E+03 -0.12311577414E+04  0.68448799061E+03  0.14458839910E+04  0.25500000920E-02 0.  1.
</event>
<event>
 5   0  0.1220265E-06  0.2782862E+04  0.7818609E-02  0.8308609E-01
       -1   -1    0    0    0  501  0.00000000000E+00  0.00000000000E+00  0.71473276827E+03  0.71473276829E+03  0.50400001928E-02 0.  1.
        1   -1    0    0  501    0  0.00000000000E+00  0.00000000000E+00 -0.27088169339E+04  0.27088169339E+04  0.50400001928E-02 0. -1.
    10030    2    1    2    0    0  0.00000000000E+00  0.00000000000E+00 -0.19940841656E+04  0.34235497022E+04  0.27828619987E+04 0.  0.
        4    1    3    3  502    0 -0.53018300582E+03  0.99918289200E+03 -0.16547375667E+00  0.11311331096E+04  0.12699999809E+01 0.  1.
       -4    1    3    3    0  502  0.53018300582E+03 -0.99918289200E+03 -0.19939186919E+04  0.22924165926E+04  0.12699999809E+01 0. -1.
</event>
<event>
 5   0  0.1263513E-06  0.2801004E+04  0.7818609E-02  0.8302957E-01
       -1   -1    0    0    0  501  0.00000000000E+00  0.00000000000E+00  0.30128317969E+04  0.30128317969E+04  0.50400001928E-02 0.  1.
        1   -1    0    0  501    0  0.00000000000E+00  0.00000000000E+00 -0.65101731784E+03  0.65101731786E+03  0.50400001928E-02 0. -1.
    10030    2    1    2    0    0  0.00000000000E+00  0.00000000000E+00  0.23618144790E+04  0.36638491147E+04  0.28010038740E+04 0.  0.
        3    1    3    3  502    0 -0.78311759229E+03 -0.79503858538E+03  0.74042946269E+02  0.11184104272E+04  0.10100000352E+00 0. -1.
       -3    1    3    3    0  502  0.78311759229E+03  0.79503858538E+03  0.22877715328E+04  0.25454386875E+04  0.10100000352E+00 0.  1.
</event>
<event>
 5   0  0.3226364E-06  0.2812064E+04  0.7818609E-02  0.8299533E-01
       -2   -1    0    0    0  501  0.00000000000E+00  0.00000000000E+00  0.18606437845E+04  0.18606437845E+04  0.25500000920E-02 0.  1.
        2   -1    0    0  501    0  0.00000000000E+00  0.00000000000E+00 -0.10624955771E+04  0.10624955771E+04  0.25500000920E-02 0. -1.
    10030    2    1    2    0    0  0.00000000000E+00  0.00000000000E+00  0.79814820737E+03  0.29231393617E+04  0.28120638625E+04 0.  0.
        5    1    3    3  502    0 -0.93078056177E+03  0.97340696176E+03  0.81879277061E+03  0.15761717097E+04  0.46999998093E+01 0. -1.
       -5    1    3    3    0  502  0.93078056177E+03 -0.97340696176E+03 -0.20644563237E+02  0.13469676519E+04  0.46999998093E+01 0.  1.
</event>
<event>
 5   0  0.3345919E-06  0.2810612E+04  0.7818609E-02  0.8299981E-01
        2   -1    0    0  501    0  0.00000000000E+00  0.00000000000E+00  0.97797650694E+03  0.97797650694E+03  0.25500000920E-02 0.  1.
       -2   -1    0    0    0  501  0.00000000000E+00  0.00000000000E+00 -0.20193586392E+04  0.20193586392E+04  0.25500000920E-02 0. -1.
    10030    2    1    2    0    0  0.00000000000E+00  0.00000000000E+00 -0.10413821322E+04  0.29973351461E+04  0.28106122523E+04 0.  0.
        2    1    3    3  502    0  0.37995066856E+03 -0.69328084520E+03 -0.17597234889E+04  0.19291520412E+04  0.25500000920E-02 0. -1.
       -2    1    3    3    0  502 -0.37995066856E+03  0.69328084520E+03  0.71834135666E+03  0.10681831049E+04  0.25500000920E-02 0.  1.
</event>
<event>
 5   0  0.1065675E-06  0.2806506E+04  0.7818609E-02  0.8301251E-01
        3   -1    0    0  501    0  0.00000000000E+00  0.00000000000E+00  0.11426880979E+04  0.11426881024E+04  0.10100000352E+00 0. -1.
       -3   -1    0    0    0  501  0.00000000000E+00  0.00000000000E+00 -0.17232335545E+04  0.17232335575E+04  0.10100000352E+00 0.  1.
    10030    2    1    2    0    0  0.00000000000E+00  0.00000000000E+00 -0.58054545660E+03  0.28659216598E+04  0.28065056446E+04 0.  0.
        2    1    3    3  502    0  0.93575872675E+03 -0.66549680826E+03  0.53339385729E+03  0.12661119238E+04  0.25500000920E-02 0. -1.
       -2    1    3    3    0  502 -0.93575872675E+03  0.66549680826E+03 -0.11139393139E+04  0.15998097360E+04  0.25500000920E-02 0.  1.
</event>
<event>
 5   0  0.1246044E-06  0.2799480E+04  0.7818609E-02  0.8303430E-01
        1   -1    0    0  501    0  0.00000000000E+00  0.00000000000E+00  0.10214943581E+04  0.10214943581E+04  0.50400001928E-02 0. -1.
       -1   -1    0    0    0  501  0.00000000000E+00  0.00000000000E+00 -0.19180445047E+04  0.19180445048E+04  0.50400001928E-02 0.  1.
    10030    2    1    2    0    0  0.00000000000E+00  0.00000000000E+00 -0.89655014665E+03  0.29395388629E+04  0.27994796947E+04 0.  0.
        2    1    3    3  502    0 -0.12096012242E+04 -0.55735386961E+03  0.39616864042E+01  0.13318386361E+04  0.25500000920E-02 0.  1.
       -2    1    3    3    0  502  0.12096012242E+04  0.55735386961E+03 -0.90051183305E+03  0.16077002268E+04  0.25500000920E-02 0. -1.
</event>
<event>
 5   0  0.1235252E-06  0.2818903E+04  0.7818609E-02  0.8297424E-01
       -1   -1    0    0    0  501  0.00000000000E+00  0.00000000000E+00  0.17399500769E+04  0.17399500769E+04  0.50400001928E-02 0.  1.
        1   -1    0    0  501    0  0.00000000000E+00  0.00000000000E+00 -0.11417305504E+04  0.11417305504E+04  0.50400001928E-02 0. -1.
    10030    2    1    2    0    0  0.00000000000E+00  0.00000000000E+00  0.59821952650E+03  0.28816806273E+04  0.28189034456E+04 0.  0.
        1    1    3    3  502    0  0.60535711163E+03 -0.10066779362E+04 -0.49714377749E+03  0.12755428787E+04  0.50400001928E-02 0. -1.
       -1    1    3    3    0  502 -0.60535711163E+03  0.10066779362E+04  0.10953633040E+04  0.16061377486E+04  0.50400001928E-02 0.  1.
</event>
<event>
 5   0  0.3345919E-06  0.2798986E+04  0.7818609E-02  0.8303583E-01
       -2   -1    0    0    0  501  0.00000000000E+00  0.00000000000E+00  0.86233179004E+03  0.86233179005E+03  0.25500000920E-02 0.  1.
        2   -1    0    0  501    0  0.00000000000E+00  0.00000000000E+00 -0.22712606668E+04  0.22712606668E+04  0.25500000920E-02 0. -1.
    10030    2    1    2    0    0  0.00000000000E+00  0.00000000000E+00 -0.14089288768E+04  0.31335924568E+04  0.27989857281E+04 0.  0.
        2    1    3    3  502    0 -0.13471482476E+04 -0.22662683896E+03 -0.10447992465E+04  0.17198178946E+04  0.25500000920E-02 0. -1.
       -2    1    3    3    0  502  0.13471482476E+04  0.22662683896E+03 -0.36412963021E+03  0.14137745622E+04  0.25500000920E-02 0.  1.
</event>
<event>
 5   0  0.1235252E-06  0.2798687E+04  0.7818609E-02  0.8303676E-01
       -1   -1    0    0    0  501  0.00000000000E+00  0.00000000000E+00  0.83157842786E+03  0.83157842788E+03  0.50400001928E-02 0. -1.
        1   -1    0    0  501    0  0.00000000000E+00  0.00000000000E+00 -0.23547539556E+04  0.23547539556E+04  0.50400001928E-02 0.  1.
    10030    2    1    2    0    0  0.00000000000E+00  0.00000000000E+00 -0.15231755277E+04  0.31863323835E+04  0.27986872583E+04 0.  0.
        1    1    3    3  502    0 -0.10537492310E+04  0.87483762266E+03 -0.43470603702E+03  0.14369055802E+04  0.50400001928E-02 0. -1.
       -1    1    3    3    0  502  0.10537492310E+04 -0.87483762266E+03 -0.10884694907E+04  0.17494268033E+04  0.50400001928E-02 0.  1.
</event>
<event>
 5   0  0.3226364E-06  0.2749804E+04  0.7818609E-02  0.8319024E-01
       -2   -1    0    0    0  501  0.00000000000E+00  0.00000000000E+00  0.11691732205E+04  0.11691732205E+04  0.25500000920E-02 0.  1.
        2   -1    0    0  501    0  0.00000000000E+00  0.00000000000E+00 -0.16168305161E+04  0.16168305161E+04  0.25500000920E-02 0. -1.
    10030    2    1    2    0    0  0.00000000000E+00  0.00000000000E+00 -0.44765729560E+03  0.27860037367E+04  0.27498035869E+04 0.  0.
        5    1    3    3  502    0 -0.26637173520E+03  0.28909173667E+03 -0.15586725371E+04  0.16074856458E+04  0.46999998093E+01 0. -1.
       -5    1    3    3    0  502  0.26637173520E+03 -0.28909173667E+03  0.11110152415E+04  0.11785180909E+04  0.46999998093E+01 0.  1.
</event>
<event>
 5   0  0.1263513E-06  0.2812852E+04  0.7818609E-02  0.8299289E-01
        1   -1    0    0  501    0  0.00000000000E+00  0.00000000000E+00  0.10505168111E+04  0.10505168111E+04  0.50400001928E-02 0.  1.
       -1   -1    0    0    0  501  0.00000000000E+00  0.00000000000E+00 -0.18829149353E+04  0.18829149353E+04  0.50400001928E-02 0. -1.
    10030    2    1    2    0    0  0.00000000000E+00  0.00000000000E+00 -0.83239812414E+03  0.29334317464E+04  0.28128517866E+04 0.  0.
        3    1    3    3  502    0  0.87350832177E+03  0.59140828239E+03 -0.13862638830E+04  0.17419839575E+04  0.10100000352E+00 0. -1.
       -3    1    3    3    0  502 -0.87350832177E+03 -0.59140828239E+03  0.55386575883E+03  0.11914477889E+04  0.10100000352E+00 0.  1.
</event>
<event>
 5   0  0.1065675E-06  0.2784228E+04  0.7818609E-02  0.8308182E-01
        3   -1    0    0  501    0  0.00000000000E+00  0.00000000000E+00  0.13162912573E+04  0.13162912612E+04  0.10100000352E+00 0.  1.
       -3   -1    0    0    0  501  0.00000000000E+00  0.00000000000E+00 -0.14723045743E+04  0.14723045778E+04  0.10100000352E+00 0. -1.
    10030    2    1    2    0    0  0.00000000000E+00  0.00000000000E+00 -0.15601331699E+03  0.27885958390E+04  0.27842281871E+04 0.  0.
        5    1    3    3  502    0  0.38425652386E+02  0.11877216499E+04  0.64825174132E+03  0.13536660070E+04  0.46999998093E+01 0.  1.
       -5    1    3    3    0  502 -0.38425652386E+02 -0.11877216499E+04 -0.80426505831E+03  0.14349298319E+04  0.46999998093E+01 0. -1.
</event>
<event>
 5   0  0.1243055E-06  0.2786681E+04  0.7818609E-02  0.8307415E-01
        1   -1    0    0  501    0  0.00000000000E+00  0.00000000000E+00  0.18542899505E+04  0.18542899505E+04  0.50400001928E-02 0.  1.
       -1   -1    0    0    0  501  0.00000000000E+00  0.00000000000E+00 -0.10469761895E+04  0.10469761895E+04  0.50400001928E-02 0. -1.
    10030    2    1    2    0    0  0.00000000000E+00  0.00000000000E+00  0.80731376100E+03  0.29012661400E+04  0.27866807686E+04 0.  0.
        5    1    3    3  502    0  0.10365084804E+04  0.56375800238E+03 -0.36789755215E+03  0.12359383537E+04  0.46999998093E+01 0. -1.
       -5    1    3    3    0  502 -0.10365084804E+04 -0.56375800238E+03  0.11752113131E+04  0.16653277863E+04  0.46999998093E+01 0.  1.
</event>
<event>
 5   0  0.3345919E-06  0.2793610E+04  0.7818609E-02  0.8305255E-01
       -2   -1    0    0    0  501  0.00000000000E+00  0.00000000000E+00  0.10882103812E+04  0.10882103812E+04  0.25500000920E-02 0.  1.
        2   -1    0    0  501    0  0.00000000000E+00  0.00000000000E+00 -0.17929102347E+04  0.17929102347E+04  0.25500000920E-02 0. -1.
    10030    2    1    2    0    0  0.00000000000E+00  0.00000000000E+00 -0.70469985349E+03  0.28811206159E+04  0.27936095145E+04 0.  0.
        2    1    3    3  502    0 -0.11272407902E+04 -0.65479390847E+03  0.16499798703E+03  0.13140210034E+04  0.25500000920E-02 0.  1.
       -2    1    3    3    0  502  0.11272407902E+04  0.65479390847E+03 -0.86969784052E+03  0.15670996125E+04  0.25500000920E-02 0. -1.
</event>
<event>
 5   0  0.1235252E-06  0.2798199E+04  0.7818609E-02  0.8303828E-01
        1   -1    0    0  501    0  0.00000000000E+00  0.00000000000E+00  0.18609738619E+04  0.18609738619E+04  0.50400001928E-02 0. -1.
       -1   -1    0    0    0  501  0.00000000000E+00  0.00000000000E+00 -0.10518574985E+04  0.10518574985E+04  0.50400001928E-02 0.  1.
    10030    2    1    2    0    0  0.00000000000E+00  0.00000000000E+00  0.80911636339E+03  0.29128313605E+04  0.27981989288E+04 0.  0.
        1    1    3    3  502    0 -0.62608867536E+02  0.55014308136E+03 -0.93295295432E+03  0.10848863974E+04  0.50400001928E-02 0.  1.
       -1    1    3    3    0  502  0.62608867536E+02 -0.55014308136E+03  0.17420693177E+04  0.18279449631E+04  0.50400001928E-02 0. -1.
</event>
<event>
 5   0  0.3345919E-06  0.2794245E+04  0.7818609E-02  0.8305057E-01
        2   -1    0    0  501    0  0.00000000000E+00  0.00000000000E+00  0.19325555789E+04  0.19325555789E+04  0.25500000920E-02 0.  1.
       -2   -1    0    0    0  501  0.00000000000E+00  0.00000000000E+00 -0.10100366077E+04  0.10100366077E+04  0.25500000920E-02 0. -1.
    10030    2    1    2    0    0  0.00000000000E+00  0.00000000000E+00  0.92251897115E+03  0.29425921866E+04  0.27942454302E+04 0.  0.
        2    1    3    3  502    0 -0.68679653238E+03  0.79452268321E+03 -0.50906810029E+03  0.11670930133E+04  0.25500000920E-02 0. -1.
       -2    1    3    3    0  502  0.68679653238E+03 -0.79452268321E+03  0.14315870714E+04  0.17754991732E+04  0.25500000920E-02 0.  1.
</event>
<event>
 5   0  0.1246044E-06  0.2796456E+04  0.7818609E-02  0.8304369E-01
        1   -1    0    0  501    0  0.00000000000E+00  0.00000000000E+00  0.22706215219E+04  0.22706215219E+04  0.50400001928E-02 0. -1.
       -1   -1    0    0    0  501  0.00000000000E+00  0.00000000000E+00 -0.86101619159E+03  0.86101619161E+03  0.50400001928E-02 0.  1.
    10030    2    1    2    0    0  0.00000000000E+00  0.00000000000E+00  0.14096053303E+04  0.31316377135E+04  0.27964562541E+04 0.  0.
        2    1    3    3  502    0  0.57966848188E+03  0.36478750204E+03 -0.66030379421E+03  0.95136037924E+03  0.25500000920E-02 0.  1.
       -2    1    3    3    0  502 -0.57966848188E+03 -0.36478750204E+03  0.20699091245E+04  0.21802773342E+04  0.25500000920E-02 0. -1.
</event>
<event>
 5   0  0.1246044E-06  0.2796033E+04  0.7818609E-02  0.8304501E-01
        1   -1    0    0  501    0  0.00000000000E+00  0.00000000000E+00  0.18635346254E+04  0.18635346254E+04  0.50400001928E-02 0.  1.
       -1   -1    0    0    0  501  0.00000000000E+00  0.00000000000E+00 -0.10487865347E+04  0.10487865347E+04  0.50400001928E-02 0. -1.
    10030    2    1    2    0    0  0.00000000000E+00  0.00000000000E+00  0.81474809070E+03  0.29123211600E+04  0.27960329197E+04 0.  0.
        2    1    3    3  502    0  0.63625517583E+03 -0.30266281956E+03 -0.85033275669E+03  0.11043057675E+04  0.25500000920E-02 0. -1.
       -2    1    3    3    0  502 -0.63625517583E+03  0.30266281956E+03  0.16650808474E+04  0.18080153925E+04  0.25500000920E-02 0.  1.
</event>
<event>
 5   0  0.1220265E-06  0.2791343E+04  0.7818609E-02  0.8305961E-01
       -1   -1    0    0    0  501  0.00000000000E+00  0.00000000000E+00  0.10913855867E+04  0.10913855867E+04  0.50400001928E-02 0.  1.
        1   -1    0    0  501    0  0.00000000000E+00  0.00000000000E+00 -0.17847946542E+04  0.17847946542E+04  0.50400001928E-02 0. -1.
    10030    2    1    2    0    0  0.00000000000E+00  0.00000000000E+00 -0.69340906750E+03  0.28761802409E+04  0.27913431612E+04 0.  0.
        4    1    3    3  502    0 -0.48251663141E+03  0.75005959120E+03  0.75946239446E+03  0.11714078843E+04  0.12699999809E+01 0.  1.
       -4    1    3    3    0  502  0.48251663141E+03 -0.75005959120E+03 -0.14528714620E+04  0.17047723566E+04  0.12699999809E+01 0. -1.
</event>
<event>
 5   0  0.1220265E-06  0.2756717E+04  0.7818609E-02  0.8316834E-01
       -1   -1    0    0    0  501  0.00000000000E+00  0.00000000000E+00  0.90755282259E+03  0.90755282260E+03  0.50400001928E-02 0. -1.
        1   -1    0    0  501    0  0.00000000000E+00  0.00000000000E+00 -0.20934005147E+04  0.20934005147E+04  0.50400001928E-02 0.  1.
    10030    2    1    2    0    0  0.00000000000E+00  0.00000000000E+00 -0.11858476921E+04  0.30009533373E+04  0.27567165585E+04 0.  0.
        4    1    3    3  502    0  0.95995777029E+02  0.65233036096E+03  0.72473718733E+03  0.97979369901E+03  0.12699999809E+01 0. -1.
       -4    1    3    3    0  502 -0.95995777029E+02 -0.65233036096E+03 -0.19105848794E+04  0.20211596383E+04  0.12699999809E+01 0.  1.
</event>
<event>
 5   0  0.1243055E-06  0.2774159E+04  0.7818609E-02  0.8311336E-01
       -1   -1    0    0    0  501  0.00000000000E+00  0.00000000000E+00  0.20867174614E+04  0.20867174614E+04  0.50400001928E-02 0. -1.
        1   -1    0    0  501    0  0.00000000000E+00  0.00000000000E+00 -0.92201728553E+03  0.92201728554E+03  0.50400001928E-02 0.  1.
    10030    2    1    2    0    0  0.00000000000E+00  0.00000000000E+00  0.11647001759E+04  0.30087347469E+04  0.27741590217E+04 0.  0.
        5    1    3    3  502    0 -0.12375577088E+04  0.20653845258E+03 -0.59062950115E+02  0.12560723455E+04  0.46999998093E+01 0.  1.
       -5    1    3    3    0  502  0.12375577088E+04 -0.20653845258E+03  0.12237631260E+04  0.17526624015E+04  0.46999998093E+01 0. -1.
</event>
<event>
 5   0  0.1263513E-06  0.2748391E+04  0.7818609E-02  0.8319472E-01
        1   -1    0    0  501    0  0.00000000000E+00  0.00000000000E+00  0.14147256884E+04  0.14147256884E+04  0.50400001928E-02 0.  1.
       -1   -1    0    0    0  501  0.00000000000E+00  0.00000000000E+00 -0.13348267925E+04  0.13348267925E+04  0.50400001928E-02 0. -1.
    10030    2    1    2    0    0  0.00000000000E+00  0.00000000000E+00  0.79898895897E+02  0.27495524809E+04  0.27483913498E+04 0.  0.
        3    1    3    3  502    0  0.81163596656E+03  0.10004968790E+04  0.51834264321E+03  0.13886778075E+04  0.10100000352E+00 0.  1.
       -3    1    3    3    0  502 -0.81163596656E+03 -0.10004968790E+04 -0.43844374731E+03  0.13608746734E+04  0.10100000352E+00 0. -1.
</event>
<event>
 5   0  0.3226364E-06  0.2793721E+04  0.7818609E-02  0.8305220E-01
        2   -1    0    0  501    0  0.00000000000E+00  0.00000000000E+00  0.17100195278E+04  0.17100195278E+04  0.25500000920E-02 0.  1.
       -2   -1    0    0    0  501  0.00000000000E+00  0.00000000000E+00 -0.11410511068E+04  0.11410511068E+04  0.25500000920E-02 0. -1.
    10030    2    1    2    0    0  0.00000000000E+00  0.00000000000E+00  0.56896842104E+03  0.28510706346E+04  0.27937212995E+04 0.  0.
        5    1    3    3  502    0  0.95339586966E+03  0.79235482456E+03 -0.37247563155E+03  0.12944303915E+04  0.46999998093E+01 0. -1.
       -5    1    3    3    0  502 -0.95339586966E+03 -0.79235482456E+03  0.94144405259E+03  0.15566402431E+04  0.46999998093E+01 0.  1.
</event>
<event>
 5   0  0.1243055E-06  0.2810300E+04  0.7818609E-02  0.8300078E-01
        1   -1    0    0  501    0  0.00000000000E+00  0.00000000000E+00  0.14424673552E+04  0.14424673552E+04  0.50400001928E-02 0. -1.
       -1   -1    0    0    0  501  0.00000000000E+00  0.00000000000E+00 -0.13687980389E+04  0.13687980389E+04  0.50400001928E-02 0.  1.
    10030    2    1    2    0    0  0.00000000000E+00  0.00000000000E+00  0.73669316382E+02  0.28112653941E+04  0.28102999747E+04 0.  0.
        5    1    3    3  502    0 -0.13405517477E+04  0.40580966970E+03  0.14940740325E+03  0.14085826701E+04  0.46999998093E+01 0.  1.
       -5    1    3    3    0  502  0.13405517477E+04 -0.40580966970E+03 -0.75738086865E+02  0.14026827240E+04  0.46999998093E+01 0. -1.
</event>
<event>
 5   0  0.3162695E-06  0.2777977E+04  0.7818609E-02  0.8310138E-01
        2   -1    0    0  501    0  0.00000000000E+00  0.00000000000E+00  0.11037161071E+04  0.11037161071E+04  0.25500000920E-02 0. -1.
       -2   -1    0    0    0  501  0.00000000000E+00  0.00000000000E+00 -0.17479942922E+04  0.17479942922E+04  0.25500000920E-02 0.  1.
    10030    2    1    2    0    0  0.00000000000E+00  0.00000000000E+00 -0.64427818508E+03  0.28517103992E+04  0.27779772896E+04 0.  0.
        1    1    3    3  502    0 -0.13474163170E+04 -0.33361957774E+03 -0.37301977261E+03  0.14373505156E+04  0.50400001928E-02 0. -1.
       -1    1    3    3    0  502  0.13474163170E+04  0.33361957774E+03 -0.27125841247E+03  0.14143598836E+04  0.50400001928E-02 0.  1.
</event>
<event>
 5   0  0.1263513E-06  0.2773423E+04  0.7818609E-02  0.8311567E-01
       -1   -1    0    0    0  501  0.00000000000E+00  0.00000000000E+00  0.24626059256E+04  0.24626059256E+04  0.50400001928E-02 0.  1.
        1   -1    0    0  501    0  0.00000000000E+00  0.00000000000E+00 -0.78086755695E+03  0.78086755696E+03  0.50400001928E-02 0. -1.
    10030    2    1    2    0    0  0.00000000000E+00  0.00000000000E+00  0.16817383687E+04  0.32434734826E+04  0.27734232082E+04 0.  0.
        3    1    3    3  502    0  0.81071417668E+03 -0.16752608428E+03 -0.46017645770E+03  0.94714563168E+03  0.10100000352E+00 0. -1.
       -3    1    3    3    0  502 -0.81071417668E+03  0.16752608428E+03  0.21419148264E+04  0.22963278509E+04  0.10100000352E+00 0.  1.
</event>
<event>
 5   0  0.1220265E-06  0.2800864E+04  0.7818609E-02  0.8303000E-01
       -1   -1    0    0    0  501  0.00000000000E+00  0.00000000000E+00  0.31680919753E+04  0.31680919753E+04  0.50400001928E-02 0.  1.
        1   -1    0    0  501    0  0.00000000000E+00  0.00000000000E+00 -0.61905086943E+03  0.61905086945E+03  0.50400001928E-02 0. -1.
    10030    2    1    2    0    0  0.00000000000E+00  0.00000000000E+00  0.25490411059E+04  0.37871428448E+04  0.28008642179E+04 0.  0.
        4    1    3    3  502    0 -0.10513322423E+04  0.92039034709E+03  0.14012942032E+04  0.19788999296E+04  0.12699999809E+01 0.  1.
       -4    1    3    3    0  502  0.10513322423E+04 -0.92039034709E+03  0.11477469027E+04  0.18082429151E+04  0.12699999809E+01 0. -1.
</event>
<event>
 5   0  0.3162695E-06  0.2798270E+04  0.7818609E-02  0.8303806E-01
        2   -1    0    0  501    0  0.00000000000E+00  0.00000000000E+00  0.30099184205E+04  0.30099184205E+04  0.25500000920E-02 0.  1.
       -2   -1    0    0    0  501  0.00000000000E+00  0.00000000000E+00 -0.65037592732E+03  0.65037592732E+03  0.25500000920E-02 0. -1.
    10030    2    1    2    0    0  0.00000000000E+00  0.00000000000E+00  0.23595424932E+04  0.36602943478E+04  0.27982698111E+04 0.  0.
        1    1    3    3  502    0  0.82994853276E+03  0.31890069908E+03  0.25928754268E+04  0.27410792039E+04  0.50400001928E-02 0.  1.
       -1    1    3    3    0  502 -0.82994853276E+03 -0.31890069908E+03 -0.23333293364E+03  0.91921514394E+03  0.50400001928E-02 0. -1.
</event>
<event>
 5   0  0.3167616E-06  0.2802517E+04  0.7818609E-02  0.8302487E-01
       -2   -1    0    0    0  501  0.00000000000E+00  0.00000000000E+00  0.10872841959E+04  0.10872841959E+04  0.25500000920E-02 0. -1.
        2   -1    0    0  501    0  0.00000000000E+00  0.00000000000E+00 -0.18058988447E+04  0.18058988447E+04  0.25500000920E-02 0.  1.
    10030    2    1    2    0    0  0.00000000000E+00  0.00000000000E+00 -0.71861464881E+03  0.28931830405E+04  0.28025169210E+04 0.  0.
        3    1    3    3  502    0  0.75977798755E+03 -0.10315708086E+04  0.22661417999E+03  0.13010591532E+04  0.10100000352E+00 0. -1.
       -3    1    3    3    0  502 -0.75977798755E+03  0.10315708086E+04 -0.94522882880E+03  0.15921238873E+04  0.10100000352E+00 0.  1.
</event>
<event>
 5   0  0.3162695E-06  0.2777411E+04  0.7818609E-02  0.8310316E-01
       -2   -1    0    0    0  501  0.00000000000E+00  0.00000000000E+00  0.14477718863E+04  0.14477718863E+04  0.25500000920E-02 0.  1.
        2   -1    0    0  501    0  0.00000000000E+00  0.00000000000E+00 -0.13320488662E+04  0.13320488662E+04  0.25500000920E-02 0. -1.
    10030    2    1    2    0    0  0.00000000000E+00  0.00000000000E+00  0.11572302014E+03  0.27798207525E+04  0.27774109524E+04 0.  0.
        1    1    3    3  502    0  0.39482861655E+03  0.68888094207E+03 -0.10824497570E+04  0.13424395947E+04  0.50400001928E-02 0. -1.
       -1    1    3    3    0  502 -0.39482861655E+03 -0.68888094207E+03  0.11981727772E+04  0.14373811578E+04  0.50400001928E-02 0.  1.
</event>
<event>
 5   0  0.3167616E-06  0.2799419E+04  0.7818609E-02  0.8303449E-01
        2   -1    0    0  501    0  0.00000000000E+00  0.00000000000E+00  0.23863334258E+04  0.23863334258E+04  0.25500000920E-02 0.  1.
       -2   -1    0    0    0  501  0.00000000000E+00  0.00000000000E+00 -0.82100297320E+03  0.82100297320E+03  0.25500000920E-02 0. -1.
    10030    2    1    2    0    0  0.00000000000E+00  0.00000000000E+00  0.15653304526E+04  0.32073363990E+04  0.27994191095E+04 0.  0.
        3    1    3    3  502    0  0.60716669896E+03  0.12589788427E+04  0.69763726588E+03  0.15621705706E+04  0.10100000352E+00 0.  1.
       -3    1    3    3    0  502 -0.60716669896E+03 -0.12589788427E+04  0.86769318670E+03  0.16451658284E+04  0.10100000352E+00 0. -1.
</event>
<event>
 5   0  0.3345919E-06  0.2780732E+04  0.7818609E-02  0.8309275E-01
       -2   -1    0    0    0  501  0.00000000000E+00  0.00000000000E+00  0.86605760994E+03  0.86605760994E+03  0.25500000920E-02 0.  1.
        2   -1    0    0  501    0  0.00000000000E+00  0.00000000000E+00 -0.22320886617E+04  0.22320886617E+04  0.25500000920E-02 0. -1.
    10030    2    1    2    0    0  0.00000000000E+00  0.00000000000E+00 -0.13660310518E+04  0.30981462717E+04  0.27807318257E+04 0.  0.
        2    1    3    3  502    0  0.50398614366E+03 -0.14125246771E+03 -0.21181326551E+04  0.21818433118E+04  0.25500000920E-02 0. -1.
       -2    1    3    3    0  502 -0.50398614366E+03  0.14125246771E+03  0.75210160329E+03  0.91630295989E+03  0.25500000920E-02 0.  1.
</event>
<event>
 5   0  0.3162695E-06  0.2795213E+04  0.7818609E-02  0.8304756E-01
        2   -1    0    0  501    0  0.00000000000E+00  0.00000000000E+00  0.19245882085E+04  0.19245882085E+04  0.25500000920E-02 0. -1.
       -2   -1    0    0    0  501  0.00000000000E+00  0.00000000000E+00 -0.10149203867E+04  0.10149203867E+04  0.25500000920E-02 0.  1.
    10030    2    1    2    0    0  0.00000000000E+00  0.00000000000E+00  0.90966782181E+03  0.29395085952E+04  0.27952129141E+04 0.  0.
        1    1    3    3  502    0  0.81848973994E+03 -0.80546333443E+03 -0.38291202186E+03  0.12105033061E+04  0.50400001928E-02 0.  1.
       -1    1    3    3    0  502 -0.81848973994E+03  0.80546333443E+03  0.12925798437E+04  0.17290052891E+04  0.50400001928E-02 0. -1.
</event>
<event>
 5   0  0.1243055E-06  0.2800251E+04  0.7818609E-02  0.8303190E-01
        1   -1    0    0  501    0  0.00000000000E+00  0.00000000000E+00  0.16521924820E+04  0.16521924820E+04  0.50400001928E-02 0.  1.
       -1   -1    0    0    0  501  0.00000000000E+00  0.00000000000E+00 -0.11865151738E+04  0.11865151738E+04  0.50400001928E-02 0. -1.
    10030    2    1    2    0    0  0.00000000000E+00  0.00000000000E+00  0.46567730823E+03  0.28387076558E+04  0.28002510245E+04 0.  0.
        5    1    3    3  502    0  0.22374794036E+03  0.79322252771E+03  0.13802236292E+04  0.16075772068E+04  0.46999998093E+01 0.  1.
       -5    1    3    3    0  502 -0.22374794036E+03 -0.79322252771E+03 -0.91454632098E+03  0.12311304490E+04  0.46999998093E+01 0. -1.
</event>
<event>
 5   0  0.1243055E-06  0.2800001E+04  0.7818609E-02  0.8303268E-01
       -1   -1    0    0    0  501  0.00000000000E+00  0.00000000000E+00  0.11523596419E+04  0.11523596419E+04  0.50400001928E-02 0. -1.
        1   -1    0    0  501    0  0.00000000000E+00  0.00000000000E+00 -0.17008591476E+04  0.17008591476E+04  0.50400001928E-02 0.  1.
    10030    2    1    2    0    0  0.00000000000E+00  0.00000000000E+00 -0.54849950575E+03  0.28532187895E+04  0.28000010274E+04 0.  0.
        5    1    3    3  502    0 -0.27877440471E+03  0.13665691441E+04 -0.15047947168E+03  0.14028159380E+04  0.46999998093E+01 0. -1.
       -5    1    3    3    0  502  0.27877440471E+03 -0.13665691441E+04 -0.39802003407E+03  0.14504028516E+04  0.46999998093E+01 0.  1.
</event>
<event>
 5   0  0.3345919E-06  0.2797178E+04  0.7818609E-02  0.8304145E-01
       -2   -1    0    0    0  501  0.00000000000E+00  0.00000000000E+00  0.10511863776E+04  0.10511863776E+04  0.25500000920E-02 0. -1.
        2   -1    0    0  501    0  0.00000000000E+00  0.00000000000E+00 -0.18608040530E+04  0.18608040530E+04  0.25500000920E-02 0.  1.
    10030    2    1    2    0    0  0.00000000000E+00  0.00000000000E+00 -0.80961767537E+03  0.29119904306E+04  0.27971784869E+04 0.  0.
        2    1    3    3  502    0 -0.17233948058E+03  0.99933293135E+03  0.59788871154E+03  0.11772162570E+04  0.25500000920E-02 0. -1.
       -2    1    3    3    0  502  0.17233948058E+03 -0.99933293135E+03 -0.14075063869E+04  0.17347741736E+04  0.25500000920E-02 0.  1.
</event>
<event>
 5   0  0.1263513E-06  0.2793929E+04  0.7818609E-02  0.8305156E-01
       -1   -1    0    0    0  501  0.00000000000E+00  0.00000000000E+00  0.11382801272E+04  0.11382801272E+04  0.50400001928E-02 0.  1.
        1   -1    0    0  501    0  0.00000000000E+00  0.00000000000E+00 -0.17144374856E+04  0.17144374856E+04  0.50400001928E-02 0. -1.
    10030    2    1    2    0    0  0.00000000000E+00  0.00000000000E+00 -0.57615735839E+03  0.28527176127E+04  0.27939292182E+04 0.  0.
        3    1    3    3  502    0 -0.54205038400E+03  0.12479125942E+04 -0.61161456187E+03  0.14917026661E+04  0.10100000352E+00 0. -1.
       -3    1    3    3    0  502  0.54205038400E+03 -0.12479125942E+04  0.35457203479E+02  0.13610149466E+04  0.10100000352E+00 0.  1.
</event>
<event>
 5   0  0.1243055E-06  0.2780567E+04  0.7818609E-02  0.8309327E-01
        1   -1    0    0  501    0  0.00000000000E+00  0.00000000000E+00  0.12859441641E+04  0.12859441641E+04  0.50400001928E-02 0.  1.
       -1   -1    0    0    0  501  0.00000000000E+00  0.00000000000E+00 -0.15030882334E+04  0.15030882334E+04  0.50400001928E-02 0. -1.
    10030    2    1    2    0    0  0.00000000000E+00  0.00000000000E+00 -0.21714406928E+03  0.27890323975E+04  0.27805665192E+04 0.  0.
        5    1    3    3  502    0  0.74616884248E+03 -0.87515009461E+03 -0.89210967970E+03  0.14555196324E+04  0.46999998093E+01 0. -1.
       -5    1    3    3    0  502 -0.74616884248E+03  0.87515009461E+03  0.67496561042E+03  0.13335127652E+04  0.46999998093E+01 0.  1.
</event>
<event>
 5   0  0.1065675E-06  0.2796707E+04  0.7818609E-02  0.8304291E-01
        4   -1    0    0  501    0  0.00000000000E+00  0.00000000000E+00  0.13158498040E+04  0.13158504169E+04  0.12699999809E+01 0.  1.
       -4   -1    0    0    0  501  0.00000000000E+00  0.00000000000E+00 -0.14860292582E+04  0.14860298009E+04  0.12699999809E+01 0. -1.
    10030    2    1    2    0    0  0.00000000000E+00  0.00000000000E+00 -0.17017945420E+03  0.28018802177E+04  0.27967072975E+04 0.  0.
        1    1    3    3  502    0  0.41708636274E+03 -0.13291594487E+04 -0.20683425925E+03  0.14083345784E+04  0.50400001928E-02 0. -1.
       -1    1    3    3    0  502 -0.41708636274E+03  0.13291594487E+04  0.36654805052E+02  0.13935456393E+04  0.50400001928E-02 0.  1.
</event>
<event>
 5   0  0.3167616E-06  0.2800117E+04  0.7818609E-02  0.8303232E-01
        2   -1    0    0  501    0  0.00000000000E+00  0.00000000000E+00  0.60645375730E+03  0.60645375730E+03  0.25500000920E-02 0. -1.
       -2   -1    0    0    0  501  0.00000000000E+00  0.00000000000E+00 -0.32321743213E+04  0.32321743213E+04  0.25500000920E-02 0.  1.
    10030    2    1    2    0    0  0.00000000000E+00  0.00000000000E+00 -0.26257205640E+04  0.38386280786E+04  0.28001173271E+04 0.  0.
        3    1    3    3  502    0  0.12272412590E+03 -0.12547613812E+04 -0.21474971746E+04  0.24902271905E+04  0.10100000352E+00 0.  1.
       -3    1    3    3    0  502 -0.12272412590E+03  0.12547613812E+04 -0.47822338940E+03  0.13484008882E+04  0.10100000352E+00 0. -1.
</event>
<event>
 5   0  0.1065675E-06  0.2803900E+04  0.7818609E-02  0.8302059E-01
        3   -1    0    0  501    0  0.00000000000E+00  0.00000000000E+00  0.15451255428E+04  0.15451255461E+04  0.10100000352E+00 0. -1.
       -3   -1    0    0    0  501  0.00000000000E+00  0.00000000000E+00 -0.12720410895E+04  0.12720410935E+04  0.10100000352E+00 0.  1.
    10030    2    1    2    0    0  0.00000000000E+00  0.00000000000E+00  0.27308445334E+03  0.28171666396E+04  0.28038995625E+04 0.  0.
        4    1    3    3  502    0 -0.43089571391E+03 -0.12161321073E+04  0.68760173221E+03  0.14620007434E+04  0.12699999809E+01 0. -1.
       -4    1    3    3    0  502  0.43089571391E+03  0.12161321073E+04 -0.41451727887E+03  0.13551658962E+04  0.12699999809E+01 0.  1.
</event>
<event>
 5   0  0.3345919E-06  0.2768472E+04  0.7818609E-02  0.8313124E-01
        2   -1    0    0  501    0  0.00000000000E+00  0.00000000000E+00  0.16359211510E+04  0.16359211510E+04  0.25500000920E-02 0.  1.
       -2   -1    0    0    0  501  0.00000000000E+00  0.00000000000E+00 -0.11712725560E+04  0.11712725560E+04  0.25500000920E-02 0. -1.
    10030    2    1    2    0    0  0.00000000000E+00  0.00000000000E+00  0.46464859499E+03  0.28071937070E+04  0.27684721765E+04 0.  0.
        2    1    3    3  502    0  0.42138687481E+03  0.29697362952E+03  0.15349515409E+04  0.16192085931E+04  0.25500000920E-02 0.  1.
       -2    1    3    3    0  502 -0.42138687481E+03 -0.29697362952E+03 -0.10703029459E+04  0.11879851140E+04  0.25500000920E-02 0. -1.
</event>
<event>
 5   0  0.1235252E-06  0.2800147E+04  0.7818609E-02  0.8303223E-01
        1   -1    0    0  501    0  0.00000000000E+00  0.00000000000E+00  0.12595248106E+04  0.12595248106E+04  0.50400001928E-02 0.  1.
       -1   -1    0    0    0  501  0.00000000000E+00  0.00000000000E+00 -0.15563059926E+04  0.15563059926E+04  0.50400001928E-02 0. -1.
    10030    2    1    2    0    0  0.00000000000E+00  0.00000000000E+00 -0.29678118201E+03  0.28158308032E+04  0.28001471465E+04 0.  0.
        1    1    3    3  502    0 -0.55190772777E+03  0.43593814431E+03 -0.13657750984E+04  0.15362245360E+04  0.50400001928E-02 0. -1.
       -1    1    3    3    0  502  0.55190772777E+03 -0.43593814431E+03  0.10689939164E+04  0.12796062672E+04  0.50400001928E-02 0.  1.
</event>
<event>
 5   0  0.3167616E-06  0.2804140E+04  0.7818609E-02  0.8301984E-01
        2   -1    0    0  501    0  0.00000000000E+00  0.00000000000E+00  0.26412202490E+04  0.26412202490E+04  0.25500000920E-02 0. -1.
       -2   -1    0    0    0  501  0.00000000000E+00  0.00000000000E+00 -0.74427756078E+03  0.74427756079E+03  0.25500000920E-02 0.  1.
    10030    2    1    2    0    0  0.00000000000E+00  0.00000000000E+00  0.18969426882E+04  0.33854978098E+04  0.28041404847E+04 0.  0.
        3    1    3    3  502    0 -0.50100882208E+03  0.11365354714E+04  0.16317583753E+03  0.12527366370E+04  0.10100000352E+00 0. -1.
       -3    1    3    3    0  502  0.50100882208E+03 -0.11365354714E+04  0.17337668507E+04  0.21327611728E+04  0.10100000352E+00 0.  1.
</event>
<event>
 5   0  0.1246044E-06  0.2813419E+04  0.7818609E-02  0.8299114E-01
        1   -1    0    0  501    0  0.00000000000E+00  0.00000000000E+00  0.20393463908E+04  0.20393463908E+04  0.50400001928E-02 0. -1.
       -1   -1    0    0    0  501  0.00000000000E+00  0.00000000000E+00 -0.97032658584E+03  0.97032658585E+03  0.50400001928E-02 0.  1.
    10030    2    1    2    0    0  0.00000000000E+00  0.00000000000E+00  0.10690198050E+04  0.30096729766E+04  0.28134192867E+04 0.  0.
        2    1    3    3  502    0 -0.13511922837E+04  0.35206035667E+03  0.71720015716E+03  0.15697270934E+04  0.25500000920E-02 0.  1.
       -2    1    3    3    0  502  0.13511922837E+04 -0.35206035667E+03  0.35181964779E+03  0.14399458833E+04  0.25500000920E-02 0. -1.
</event>
<event>
 5   0  0.1263513E-06  0.2802746E+04  0.7818609E-02  0.8302416E-01
       -1   -1    0    0    0  501  0.00000000000E+00  0.00000000000E+00  0.12919217646E+04  0.12919217646E+04  0.50400001928E-02 0.  1.
        1   -1    0    0  501    0  0.00000000000E+00  0.00000000000E+00 -0.15200968844E+04  0.15200968844E+04  0.50400001928E-02 0. -1.
    10030    2    1    2    0    0  0.00000000000E+00  0.00000000000E+00 -0.22817511981E+03  0.28120186490E+04  0.28027459744E+04 0.  0.
        3    1    3    3  502    0  0.30663289451E+03 -0.93934323562E+03  0.88290865595E+03  0.13251102412E+04  0.10100000352E+00 0.  1.
       -3    1    3    3    0  502 -0.30663289451E+03  0.93934323562E+03 -0.11110837758E+04  0.14869084078E+04  0.10100000352E+00 0. -1.
</event>
<event>
 5   0  0.1243055E-06  0.2806947E+04  0.7818609E-02  0.8301115E-01
        1   -1    0    0  501    0  0.00000000000E+00  0.00000000000E+00  0.21380879231E+04  0.21380879231E+04  0.50400001928E-02 0. -1.
       -1   -1    0    0    0  501  0.00000000000E+00  0.00000000000E+00 -0.92126110512E+03  0.92126110514E+03  0.50400001928E-02 0.  1.
    10030    2    1    2    0    0  0.00000000000E+00  0.00000000000E+00  0.12168268180E+04  0.30593490282E+04  0.28069465566E+04 0.  0.
        5    1    3    3  502    0 -0.95188439679E+03  0.87303878231E+02 -0.51161425678E+03  0.10841942214E+04  0.46999998093E+01 0.  1.
       -5    1    3    3    0  502  0.95188439679E+03 -0.87303878231E+02  0.17284410747E+04  0.19751548068E+04  0.46999998093E+01 0. -1.
</event>
<event>
 5   0  0.1246044E-06  0.2745502E+04  0.7818609E-02  0.8320390E-01
        1   -1    0    0  501    0  0.00000000000E+00  0.00000000000E+00  0.12713901166E+04  0.12713901166E+04  0.50400001928E-02 0. -1.
       -1   -1    0    0    0  501  0.00000000000E+00  0.00000000000E+00 -0.14821933468E+04  0.14821933468E+04  0.50400001928E-02 0.  1.
    10030    2    1    2    0    0  0.00000000000E+00  0.00000000000E+00 -0.21080323025E+03  0.27535834634E+04  0.27455024837E+04 0.  0.
        2    1    3    3  502    0  0.12200301390E+04 -0.28947694856E+03 -0.66577284712E+03  0.14196914903E+04  0.25500000920E-02 0.  1.
       -2    1    3    3    0  502 -0.12200301390E+04  0.28947694856E+03  0.45496961687E+03  0.13338919731E+04  0.25500000920E-02 0. -1.
</event>
<event>
 5   0  0.3212679E-06  0.2813937E+04  0.7818609E-02  0.8298955E-01
       -2   -1    0    0    0  501  0.00000000000E+00  0.00000000000E+00  0.84106249591E+03  0.84106249592E+03  0.25500000920E-02 0. -1.
        2   -1    0    0  501    0  0.00000000000E+00  0.00000000000E+00 -0.23536419293E+04  0.23536419293E+04  0.25500000920E-02 0.  1.
    10030    2    1    2    0    0  0.00000000000E+00  0.00000000000E+00 -0.15125794333E+04  0.31947044252E+04  0.28139367125E+04 0.  0.
        4    1    3    3  502    0 -0.74148747917E+03 -0.11351277914E+04 -0.11829620989E+04  0.17993664788E+04  0.12699999809E+01 0.  1.
       -4    1    3    3    0  502  0.74148747917E+03  0.11351277914E+04 -0.32961733449E+03  0.13953379464E+04  0.12699999809E+01 0. -1.
</event>
<event>
 5   0  0.1220265E-06  0.2787613E+04  0.7818609E-02  0.8307124E-01
       -1   -1    0    0    0  501  0.00000000000E+00  0.00000000000E+00  0.66737830904E+03  0.66737830905E+03  0.50400001928E-02 0. -1.
        1   -1    0    0  501    0  0.00000000000E+00  0.00000000000E+00 -0.29109381596E+04  0.29109381596E+04  0.50400001928E-02 0.  1.
    10030    2    1    2    0    0  0.00000000000E+00  0.00000000000E+00 -0.22435598506E+04  0.35783164687E+04  0.27876133065E+04 0.  0.
        4    1    3    3  502    0 -0.15008278162E+03  0.13851903213E+04 -0.10734371889E+04  0.17588479408E+04  0.12699999809E+01 0. -1.
       -4    1    3    3    0  502  0.15008278162E+03 -0.13851903213E+04 -0.11701226617E+04  0.18194685279E+04  0.12699999809E+01 0.  1.
</event>
<event>
 5   0  0.1243055E-06  0.2782698E+04  0.7818609E-02  0.8308660E-01
        1   -1    0    0  501    0  0.00000000000E+00  0.00000000000E+00  0.10445792091E+04  0.10445792091E+04  0.50400001928E-02 0.  1.
       -1   -1    0    0    0  501  0.00000000000E+00  0.00000000000E+00 -0.18532357616E+04  0.18532357616E+04  0.50400001928E-02 0. -1.
    10030    2    1    2    0    0  0.00000000000E+00  0.00000000000E+00 -0.80865655248E+03  0.28978149707E+04  0.27826976452E+04 0.  0.
        5    1    3    3  502    0  0.88670804623E+03  0.11282135653E+03  0.70601213198E+03  0.11390588388E+04  0.46999998093E+01 0.  1.
       -5    1    3    3    0  502 -0.88670804623E+03 -0.11282135653E+03 -0.15146686845E+04  0.17587561319E+04  0.46999998093E+01 0. -1.
</event>
<event>
 5   0  0.1246044E-06  0.2868435E+04  0.7818609E-02  0.8282331E-01
        1   -1    0    0  501    0  0.00000000000E+00  0.00000000000E+00  0.16230726215E+04  0.16230726215E+04  0.50400001928E-02 0. -1.
       -1   -1    0    0    0  501  0.00000000000E+00  0.00000000000E+00 -0.12673367516E+04  0.12673367516E+04  0.50400001928E-02 0.  1.
    10030    2    1    2    0    0  0.00000000000E+00  0.00000000000E+00  0.35573586986E+03  0.28904093731E+04  0.28684348232E+04 0.  0.
        2    1    3    3  502    0 -0.92591595881E+03 -0.78250966201E+03  0.95011873182E+03  0.15402491157E+04  0.25500000920E-02 0. -1.
       -2    1    3    3    0  502  0.92591595881E+03  0.78250966201E+03 -0.59438286196E+03  0.13501602573E+04  0.25500000920E-02 0.  1.
</event>
<event>
 5   0  0.3162695E-06  0.2789452E+04  0.7818609E-02  0.8306551E-01
       -2   -1    0    0    0  501  0.00000000000E+00  0.00000000000E+00  0.22199920500E+04  0.22199920500E+04  0.25500000920E-02 0. -1.
        2   -1    0    0  501    0  0.00000000000E+00  0.00000000000E+00 -0.87624640846E+03  0.87624640846E+03  0.25500000920E-02 0.  1.
    10030    2    1    2    0    0  0.00000000000E+00  0.00000000000E+00  0.13437456416E+04  0.30962384585E+04  0.27894516025E+04 0.  0.
        1    1    3    3  502    0 -0.11736631317E+04  0.59920039482E+03  0.11789942475E+04  0.17682063498E+04  0.50400001928E-02 0. -1.
       -1    1    3    3    0  502  0.11736631317E+04 -0.59920039482E+03  0.16475139401E+03  0.13280321087E+04  0.50400001928E-02 0.  1.
</event>
<event>
 5   0  0.3167616E-06  0.2807133E+04  0.7818609E-02  0.8301057E-01
       -2   -1    0    0    0  501  0.00000000000E+00  0.00000000000E+00  0.13240958057E+04  0.13240958057E+04  0.25500000920E-02 0. -1.
        2   -1    0    0  501    0  0.00000000000E+00  0.00000000000E+00 -0.14878074031E+04  0.14878074031E+04  0.25500000920E-02 0.  1.
    10030    2    1    2    0    0  0.00000000000E+00  0.00000000000E+00 -0.16371159738E+03  0.28119032088E+04  0.28071334433E+04 0.  0.
        3    1    3    3  502    0 -0.15216900112E+03  0.11291816787E+04 -0.90287819097E+03  0.14537522851E+04  0.10100000352E+00 0.  1.
       -3    1    3    3    0  502  0.15216900112E+03 -0.11291816787E+04  0.73916659360E+03  0.13581509237E+04  0.10100000352E+00 0. -1.
</event>
<event>
 5   0  0.3167616E-06  0.2752725E+04  0.7818609E-02  0.8318098E-01
       -2   -1    0    0    0  501  0.00000000000E+00  0.00000000000E+00  0.16903030348E+04  0.16903030348E+04  0.25500000920E-02 0.  1.
        2   -1    0    0  501    0  0.00000000000E+00  0.00000000000E+00 -0.11207300281E+04  0.11207300281E+04  0.25500000920E-02 0. -1.
    10030    2    1    2    0    0  0.00000000000E+00  0.00000000000E+00  0.56957300674E+03  0.28110330629E+04  0.27527247358E+04 0.  0.
        3    1    3    3  502    0  0.39093223129E+03  0.64707978127E+03  0.14592937367E+04  0.16434958086E+04  0.10100000352E+00 0.  1.
       -3    1    3    3    0  502 -0.39093223129E+03 -0.64707978127E+03 -0.88972072994E+03  0.11675372543E+04  0.10100000352E+00 0. -1.
</event>
<event>
 5   0  0.1220265E-06  0.2797849E+04  0.7818609E-02  0.8303937E-01
       -1   -1    0    0    0  501  0.00000000000E+00  0.00000000000E+00  0.15217307434E+04  0.15217307434E+04  0.50400001928E-02 0.  1.
        1   -1    0    0  501    0  0.00000000000E+00  0.00000000000E+00 -0.12860285136E+04  0.12860285136E+04  0.50400001928E-02 0. -1.
    10030    2    1    2    0    0  0.00000000000E+00  0.00000000000E+00  0.23570222980E+03  0.28077592571E+04  0.27978485492E+04 0.  0.
        4    1    3    3  502    0 -0.13443778372E+04 -0.36477194560E+03 -0.11357326048E+02  0.13930330014E+04  0.12699999809E+01 0.  1.
       -4    1    3    3    0  502  0.13443778372E+04  0.36477194560E+03  0.24705955584E+03  0.14147262556E+04  0.12699999809E+01 0. -1.
</event>
<event>
 5   0  0.3162695E-06  0.2751367E+04  0.7818609E-02  0.8318528E-01
       -2   -1    0    0    0  501  0.00000000000E+00  0.00000000000E+00  0.25671177450E+04  0.25671177450E+04  0.25500000920E-02 0.  1.
        2   -1    0    0  501    0  0.00000000000E+00  0.00000000000E+00 -0.73721028403E+03  0.73721028404E+03  0.25500000920E-02 0. -1.
    10030    2    1    2    0    0  0.00000000000E+00  0.00000000000E+00  0.18299074610E+04  0.33043280290E+04  0.27513673706E+04 0.  0.
        1    1    3    3  502    0  0.11645718992E+04 -0.24310804334E+03  0.17445638437E+04  0.21115947135E+04  0.50400001928E-02 0.  1.
       -1    1    3    3    0  502 -0.11645718992E+04  0.24310804334E+03  0.85343617230E+02  0.11927333156E+04  0.50400001928E-02 0. -1.
</event>
<event>
 5   0  0.1246044E-06  0.2812786E+04  0.7818609E-02  0.8299310E-01
       -1   -1    0    0    0  501  0.00000000000E+00  0.00000000000E+00  0.15834507494E+04  0.15834507494E+04  0.50400001928E-02 0.  1.
        1   -1    0    0  501    0  0.00000000000E+00  0.00000000000E+00 -0.12491337375E+04  0.12491337375E+04  0.50400001928E-02 0. -1.
    10030    2    1    2    0    0  0.00000000000E+00  0.00000000000E+00  0.33431701185E+03  0.28325844869E+04  0.28127863429E+04 0.  0.
        2    1    3    3  502    0  0.79126489357E+03  0.11453590701E+04 -0.34234670279E+02  0.13925227265E+04  0.25500000920E-02 0. -1.
       -2    1    3    3    0  502 -0.79126489357E+03 -0.11453590701E+04  0.36855168212E+03  0.14400617604E+04  0.25500000920E-02 0.  1.
</event>
<event>
 5   0  0.1263513E-06  0.2800764E+04  0.7818609E-02  0.8303031E-01
       -1   -1    0    0    0  501  0.00000000000E+00  0.00000000000E+00  0.14618854071E+04  0.14618854071E+04  0.50400001928E-02 0. -1.
        1   -1    0    0  501    0  0.00000000000E+00  0.00000000000E+00 -0.13414657807E+04  0.13414657807E+04  0.50400001928E-02 0.  1.
    10030    2    1    2    0    0  0.00000000000E+00  0.00000000000E+00  0.12041962639E+03  0.28033511879E+04  0.28007636452E+04 0.  0.
        3    1    3    3  502    0 -0.41891617380E+03  0.11425099023E+04 -0.63343086319E+03  0.13718798440E+04  0.10100000352E+00 0.  1.
       -3    1    3    3    0  502  0.41891617380E+03 -0.11425099023E+04  0.75385048958E+03  0.14314713439E+04  0.10100000352E+00 0. -1.
</event>
<event>
 5   0  0.1243055E-06  0.2795050E+04  0.7818609E-02  0.8304807E-01
        1   -1    0    0  501    0  0.00000000000E+00  0.00000000000E+00  0.29238693255E+04  0.29238693255E+04  0.50400001928E-02 0.  1.
       -1   -1    0    0    0  501  0.00000000000E+00  0.00000000000E+00 -0.66797639196E+03  0.66797639198E+03  0.50400001928E-02 0. -1.
    10030    2    1    2    0    0  0.00000000000E+00  0.00000000000E+00  0.22558929336E+04  0.35918457175E+04  0.27950496830E+04 0.  0.
        5    1    3    3  502    0  0.56682667035E+03 -0.12774039834E+04  0.11273988861E+04  0.17955789455E+04  0.46999998093E+01 0.  1.
       -5    1    3    3    0  502 -0.56682667035E+03  0.12774039834E+04  0.11284940475E+04  0.17962667720E+04  0.46999998093E+01 0. -1.
</event>
<event>
 5   0  0.3345919E-06  0.2819721E+04  0.7818609E-02  0.8297172E-01
        2   -1    0    0  501    0  0.00000000000E+00  0.00000000000E+00  0.17523226777E+04  0.17523226777E+04  0.25500000920E-02 0.  1.
       -2   -1    0    0    0  501  0.00000000000E+00  0.00000000000E+00 -0.11343268009E+04  0.11343268009E+04  0.25500000920E-02 0. -1.
    10030    2    1    2    0    0  0.00000000000E+00  0.00000000000E+00  0.61799587683E+03  0.28866494786E+04  0.28197209628E+04 0.  0.
        2    1    3    3  502    0 -0.33728371590E+03  0.12237115940E+04 -0.31914240170E+03  0.13088476775E+04  0.25500000920E-02 0. -1.
       -2    1    3    3    0  502  0.33728371590E+03 -0.12237115940E+04  0.93713827854E+03  0.15778018011E+04  0.25500000920E-02 0.  1.
</event>
<event>
 5   0  0.3162695E-06  0.2798576E+04  0.7818609E-02  0.8303711E-01
        2   -1    0    0  501    0  0.00000000000E+00  0.00000000000E+00  0.11424101288E+04  0.11424101288E+04  0.25500000920E-02 0. -1.
       -2   -1    0    0    0  501  0.00000000000E+00  0.00000000000E+00 -0.17139265584E+04  0.17139265584E+04  0.25500000920E-02 0.  1.
    10030    2    1    2    0    0  0.00000000000E+00  0.00000000000E+00 -0.57151642956E+03  0.28563366872E+04  0.27985761096E+04 0.  0.
        1    1    3    3  502    0 -0.78108515942E+03  0.16923080572E+03  0.88654450404E+03  0.11936055670E+04  0.50400001928E-02 0. -1.
       -1    1    3    3    0  502  0.78108515942E+03 -0.16923080572E+03 -0.14580609336E+04  0.16627311202E+04  0.50400001928E-02 0.  1.
</event>
<event>
 5   0  0.3226364E-06  0.2787309E+04  0.7818609E-02  0.8307219E-01
        2   -1    0    0  501    0  0.00000000000E+00  0.00000000000E+00  0.12721173825E+04  0.12721173825E+04  0.25500000920E-02 0. -1.
       -2   -1    0    0    0  501  0.00000000000E+00  0.00000000000E+00 -0.15268036527E+04  0.15268036527E+04  0.25500000920E-02 0.  1.
    10030    2    1    2    0    0  0.00000000000E+00  0.00000000000E+00 -0.25468627014E+03  0.27989210352E+04  0.27873094312E+04 0.  0.
        5    1    3    3  502    0  0.56759314419E+03  0.10514271563E+04  0.59299477896E+03  0.13339137679E+04  0.46999998093E+01 0. -1.
       -5    1    3    3    0  502 -0.56759314419E+03 -0.10514271563E+04 -0.84768104910E+03  0.14650072673E+04  0.46999998093E+01 0.  1.
</event>
<event>
 5   0  0.1246044E-06  0.2796615E+04  0.7818609E-02  0.8304320E-01
        1   -1    0    0  501    0  0.00000000000E+00  0.00000000000E+00  0.10877873645E+04  0.10877873645E+04  0.50400001928E-02 0. -1.
       -1   -1    0    0    0  501  0.00000000000E+00  0.00000000000E+00 -0.17974685795E+04  0.17974685795E+04  0.50400001928E-02 0.  1.
    10030    2    1    2    0    0  0.00000000000E+00  0.00000000000E+00 -0.70968121492E+03  0.28852559440E+04  0.27966148172E+04 0.  0.
        2    1    3    3  502    0  0.89339818179E+03  0.60413320020E+03  0.56338399917E+03  0.12167739171E+04  0.25500000920E-02 0. -1.
       -2    1    3    3    0  502 -0.89339818179E+03 -0.60413320020E+03 -0.12730652141E+04  0.16684820269E+04  0.25500000920E-02 0.  1.
</event>
<event>
 5   0  0.3212679E-06  0.2804237E+04  0.7818609E-02  0.8301954E-01
        2   -1    0    0  501    0  0.00000000000E+00  0.00000000000E+00  0.18301811307E+04  0.18301811307E+04  0.25500000920E-02 0.  1.
       -2   -1    0    0    0  501  0.00000000000E+00  0.00000000000E+00 -0.10741761740E+04  0.10741761740E+04  0.25500000920E-02 0. -1.
    10030    2    1    2    0    0  0.00000000000E+00  0.00000000000E+00  0.75600495670E+03  0.29043573046E+04  0.28042374825E+04 0.  0.
        4    1    3    3  502    0  0.65657453714E+03  0.10185257468E+04  0.11084856302E+04  0.16423236055E+04  0.12699999809E+01 0.  1.
       -4    1    3    3    0  502 -0.65657453714E+03 -0.10185257468E+04 -0.35248067355E+03  0.12620336992E+04  0.12699999809E+01 0. -1.
</event>
<event>
 5   0  0.3162695E-06  0.2810870E+04  0.7818609E-02  0.8299902E-01
        2   -1    0    0  501    0  0.00000000000E+00  0.00000000000E+00  0.15508310966E+04  0.15508310966E+04  0.25500000920E-02 0. -1.
       -2   -1    0    0    0  501  0.00000000000E+00  0.00000000000E+00 -0.12736703805E+04  0.12736703805E+04  0.25500000920E-02 0.  1.
    10030    2    1    2    0    0  0.00000000000E+00  0.00000000000E+00  0.27716071610E+03  0.28245014772E+04  0.28108700667E+04 0.  0.
        1    1    3    3  502    0  0.12736374040E+04 -0.57060415279E+03 -0.28074162899E+02  0.13958973797E+04  0.50400001928E-02 0. -1.
       -1    1    3    3    0  502 -0.12736374040E+04  0.57060415279E+03  0.30523487900E+03  0.14286040975E+04  0.50400001928E-02 0.  1.
</event>
<event>
 5   0  0.1235252E-06  0.2795920E+04  0.7818609E-02  0.8304536E-01
        1   -1    0    0  501    0  0.00000000000E+00  0.00000000000E+00  0.20893161152E+04  0.20893161152E+04  0.50400001928E-02 0. -1.
       -1   -1    0    0    0  501  0.00000000000E+00  0.00000000000E+00 -0.93537417084E+03  0.93537417085E+03  0.50400001928E-02 0.  1.
    10030    2    1    2    0    0  0.00000000000E+00  0.00000000000E+00  0.11539419443E+04  0.30246902860E+04  0.27959201196E+04 0.  0.
        1    1    3    3  502    0  0.23763434289E+03 -0.87322531830E+03  0.17296580679E+04  0.19521038828E+04  0.50400001928E-02 0. -1.
       -1    1    3    3    0  502 -0.23763434289E+03  0.87322531830E+03 -0.57571612355E+03  0.10725864032E+04  0.50400001928E-02 0.  1.
</event>
<event>
 5   0  0.1243055E-06  0.2790319E+04  0.7818609E-02  0.8306280E-01
        1   -1    0    0  501    0  0.00000000000E+00  0.00000000000E+00  0.14572720289E+04  0.14572720289E+04  0.50400001928E-02 0.  1.
       -1   -1    0    0    0  501  0.00000000000E+00  0.00000000000E+00 -0.13356946315E+04  0.13356946315E+04  0.50400001928E-02 0. -1.
    10030    2    1    2    0    0  0.00000000000E+00  0.00000000000E+00  0.12157739741E+03  0.27929666604E+04  0.27903192832E+04 0.  0.
        5    1    3    3  502    0 -0.11134185112E+04 -0.73267807161E+03 -0.35182855897E+03  0.13785221662E+04  0.46999998093E+01 0.  1.
       -5    1    3    3    0  502  0.11134185112E+04  0.73267807161E+03  0.47340595638E+03  0.14144444942E+04  0.46999998093E+01 0. -1.
</event>
<event>
 5   0  0.3226364E-06  0.2809414E+04  0.7818609E-02  0.8300352E-01
        2   -1    0    0  501    0  0.00000000000E+00  0.00000000000E+00  0.14676482579E+04  0.14676482579E+04  0.25500000920E-02 0.  1.
       -2   -1    0    0    0  501  0.00000000000E+00  0.00000000000E+00 -0.13444653219E+04  0.13444653219E+04  0.25500000920E-02 0. -1.
    10030    2    1    2    0    0  0.00000000000E+00  0.00000000000E+00  0.12318293606E+03  0.28121135798E+04  0.28094143073E+04 0.  0.
        5    1    3    3  502    0 -0.21148259220E+03 -0.13545883593E+04  0.36773756100E+03  0.14194673345E+04  0.46999998093E+01 0.  1.
       -5    1    3    3    0  502  0.21148259220E+03  0.13545883593E+04 -0.24455462493E+03  0.13926462453E+04  0.46999998093E+01 0. -1.
</event>
<event>
 5   0  0.3226364E-06  0.2760398E+04  0.7818609E-02  0.8315670E-01
       -2   -1    0    0    0  501  0.00000000000E+00  0.00000000000E+00  0.14283580903E+04  0.14283580903E+04  0.25500000920E-02 0.  1.
        2   -1    0    0  501    0  0.00000000000E+00  0.00000000000E+00 -0.13336639215E+04  0.13336639215E+04  0.25500000920E-02 0. -1.
    10030    2    1    2    0    0  0.00000000000E+00  0.00000000000E+00  0.94694168852E+02  0.27620220118E+04  0.27603982699E+04 0.  0.
        5    1    3    3  502    0  0.61026180958E+03 -0.29646904357E+03 -0.11552809608E+04  0.13397796679E+04  0.46999998093E+01 0. -1.
       -5    1    3    3    0  502 -0.61026180958E+03  0.29646904357E+03  0.12499751297E+04  0.14222423439E+04  0.46999998093E+01 0.  1.
</event>
<event>
 5   0  0.3226364E-06  0.2788926E+04  0.7818609E-02  0.8306715E-01
        2   -1    0    0  501    0  0.00000000000E+00  0.00000000000E+00  0.14269672764E+04  0.14269672764E+04  0.25500000920E-02 0.  1.
       -2   -1    0    0    0  501  0.00000000000E+00  0.00000000000E+00 -0.13626992915E+04  0.13626992915E+04  0.25500000920E-02 0. -1.
    10030    2    1    2    0    0  0.00000000000E+00  0.00000000000E+00  0.64267984910E+02  0.27896665680E+04  0.27889261709E+04 0.  0.
        5    1    3    3  502    0  0.50881232583E+02  0.34470573284E+03  0.13827125255E+04  0.14259477411E+04  0.46999998093E+01 0.  1.
       -5    1    3    3    0  502 -0.50881232583E+02 -0.34470573284E+03 -0.13184445406E+04  0.13637188269E+04  0.46999998093E+01 0. -1.
</event>
<event>
 5   0  0.3212679E-06  0.2716360E+04  0.7818609E-02  0.8329716E-01
        2   -1    0    0  501    0  0.00000000000E+00  0.00000000000E+00  0.20547847273E+04  0.20547847273E+04  0.25500000920E-02 0. -1.
       -2   -1    0    0    0  501  0.00000000000E+00  0.00000000000E+00 -0.89773535732E+03  0.89773535733E+03  0.25500000920E-02 0.  1.
    10030    2    1    2    0    0  0.00000000000E+00  0.00000000000E+00  0.11570493700E+04  0.29525200847E+04  0.27163599919E+04 0.  0.
        4    1    3    3  502    0 -0.50453297074E+03 -0.12382160399E+04  0.31920622398E+03  0.13746369362E+04  0.12699999809E+01 0.  1.
       -4    1    3    3    0  502  0.50453297074E+03  0.12382160399E+04  0.83784314604E+03  0.15778831485E+04  0.12699999809E+01 0. -1.
</event>
<event>
 5   0  0.3212679E-06  0.2793867E+04  0.7818609E-02  0.8305175E-01
        2   -1    0    0  501    0  0.00000000000E+00  0.00000000000E+00  0.25143126028E+04  0.25143126028E+04  0.25500000920E-02 0.  1.
       -2   -1    0    0    0  501  0.00000000000E+00  0.00000000000E+00 -0.77612601221E+03  0.77612601221E+03  0.25500000920E-02 0. -1.
    10030    2    1    2    0    0  0.00000000000E+00  0.00000000000E+00  0.17381865906E+04  0.32904386150E+04  0.27938671507E+04 0.  0.
        4    1    3    3  502    0  0.12527770022E+04  0.50630345811E+02  0.15945330819E+04  0.20284356069E+04  0.12699999809E+01 0.  1.
       -4    1    3    3    0  502 -0.12527770022E+04 -0.50630345811E+02  0.14365350872E+03  0.12620030082E+04  0.12699999809E+01 0. -1.
</event>
<event>
 5   0  0.1243055E-06  0.2806686E+04  0.7818609E-02  0.8301196E-01
        1   -1    0    0  501    0  0.00000000000E+00  0.00000000000E+00  0.22079042761E+04  0.22079042761E+04  0.50400001928E-02 0.  1.
       -1   -1    0    0    0  501  0.00000000000E+00  0.00000000000E+00 -0.89196399494E+03  0.89196399495E+03  0.50400001928E-02 0. -1.
    10030    2    1    2    0    0  0.00000000000E+00  0.00000000000E+00  0.13159402812E+04  0.30998682711E+04  0.28066856743E+04 0.  0.
        5    1    3    3  502    0  0.70599666044E+03  0.99903575759E+03 -0.10149701848E+03  0.12275290075E+04  0.46999998093E+01 0. -1.
       -5    1    3    3    0  502 -0.70599666044E+03 -0.99903575759E+03  0.14174372997E+04  0.18723392636E+04  0.46999998093E+01 0.  1.
</event>
<event>
 5   0  0.3167616E-06  0.2797645E+04  0.7818609E-02  0.8304000E-01
       -2   -1    0    0    0  501  0.00000000000E+00  0.00000000000E+00  0.71718793671E+03  0.71718793671E+03  0.25500000920E-02 0.  1.
        2   -1    0    0  501    0  0.00000000000E+00  0.00000000000E+00 -0.27282999008E+04  0.27282999008E+04  0.25500000920E-02 0. -1.
    10030    2    1    2    0    0  0.00000000000E+00  0.00000000000E+00 -0.20111119641E+04  0.34454878375E+04  0.27976445640E+04 0.  0.
        3    1    3    3  502    0 -0.11434967012E+04 -0.57164547388E+03 -0.30633310317E+03  0.13146114384E+04  0.10100000352E+00 0.  1.
       -3    1    3    3    0  502  0.11434967012E+04  0.57164547388E+03 -0.17047788609E+04  0.21308763991E+04  0.10100000352E+00 0. -1.
</event>
<event>
 5   0  0.3212679E-06  0.2712795E+04  0.7818609E-02  0.8330865E-01
        2   -1    0    0  501    0  0.00000000000E+00  0.00000000000E+00  0.17662066213E+04  0.17662066213E+04  0.25500000920E-02 0.  1.
       -2   -1    0    0    0  501  0.00000000000E+00  0.00000000000E+00 -0.10416758581E+04  0.10416758581E+04  0.25500000920E-02 0. -1.
    10030    2    1    2    0    0  0.00000000000E+00  0.00000000000E+00  0.72453076326E+03  0.28078824794E+04  0.27127954569E+04 0.  0.
        4    1    3    3  502    0  0.22054530746E+03 -0.12614740306E+04 -0.10045722165E+03  0.12845428092E+04  0.12699999809E+01 0.  1.
       -4    1    3    3    0  502 -0.22054530746E+03  0.12614740306E+04  0.82498798491E+03  0.15233396701E+04  0.12699999809E+01 0. -1.
</event>
<event>
 5   0  0.1263513E-06  0.2823253E+04  0.7818609E-02  0.8296085E-01
       -1   -1    0    0    0  501  0.00000000000E+00  0.00000000000E+00  0.11980701699E+04  0.11980701699E+04  0.50400001928E-02 0.  1.
        1   -1    0    0  501    0  0.00000000000E+00  0.00000000000E+00 -0.16632497918E+04  0.16632497918E+04  0.50400001928E-02 0. -1.
    10030    2    1    2    0    0  0.00000000000E+00  0.00000000000E+00 -0.46517962198E+03  0.28613199617E+04  0.28232534145E+04 0.  0.
        3    1    3    3  502    0  0.22430168569E+02 -0.71245182895E+03 -0.14674596348E+04  0.16314191708E+04  0.10100000352E+00 0.  1.
       -3    1    3    3    0  502 -0.22430168569E+02  0.71245182895E+03  0.10022800128E+04  0.12299007909E+04  0.10100000352E+00 0. -1.
</event>
<event>
 5   0  0.3226364E-06  0.2796555E+04  0.7818609E-02  0.8304339E-01
       -2   -1    0    0    0  501  0.00000000000E+00  0.00000000000E+00  0.12873542916E+04  0.12873542916E+04  0.25500000920E-02 0.  1.
        2   -1    0    0  501    0  0.00000000000E+00  0.00000000000E+00 -0.15187586106E+04  0.15187586106E+04  0.25500000920E-02 0. -1.
    10030    2    1    2    0    0  0.00000000000E+00  0.00000000000E+00 -0.23140431896E+03  0.28061129022E+04  0.27965553206E+04 0.  0.
        5    1    3    3  502    0 -0.35135657417E+03 -0.22907895319E+03 -0.14541385544E+04  0.15134297587E+04  0.46999998093E+01 0. -1.
       -5    1    3    3    0  502  0.35135657417E+03  0.22907895319E+03  0.12227342354E+04  0.12926831435E+04  0.46999998093E+01 0.  1.
</event>
<event>
 5   0  0.3345919E-06  0.2825341E+04  0.7818609E-02  0.8295444E-01
        2   -1    0    0  501    0  0.00000000000E+00  0.00000000000E+00  0.14398887114E+04  0.14398887114E+04  0.25500000920E-02 0.  1.
       -2   -1    0    0    0  501  0.00000000000E+00  0.00000000000E+00 -0.13859672650E+04  0.13859672650E+04  0.25500000920E-02 0. -1.
    10030    2    1    2    0    0  0.00000000000E+00  0.00000000000E+00  0.53921446468E+02  0.28258559764E+04  0.28253414797E+04 0.  0.
        2    1    3    3  502    0 -0.13700886027E+04 -0.24250405152E+03 -0.21739427513E+03  0.14082653391E+04  0.25500000920E-02 0. -1.
       -2    1    3    3    0  502  0.13700886027E+04  0.24250405152E+03  0.27131572160E+03  0.14175906374E+04  0.25500000920E-02 0.  1.
</event>
<event>
 5   0  0.1235252E-06  0.2801916E+04  0.7818609E-02  0.8302674E-01
       -1   -1    0    0    0  501  0.00000000000E+00  0.00000000000E+00  0.22091259792E+04  0.22091259792E+04  0.50400001928E-02 0.  1.
        1   -1    0    0  501    0  0.00000000000E+00  0.00000000000E+00 -0.88844309750E+03  0.88844309751E+03  0.50400001928E-02 0. -1.
    10030    2    1    2    0    0  0.00000000000E+00  0.00000000000E+00  0.13206828817E+04  0.30975690767E+04  0.28019155789E+04 0.  0.
        1    1    3    3  502    0 -0.75770404686E+03  0.80940608692E+03  0.16071126010E+04  0.19524509080E+04  0.50400001928E-02 0. -1.
       -1    1    3    3    0  502  0.75770404686E+03 -0.80940608692E+03 -0.28642971924E+03  0.11451181687E+04  0.50400001928E-02 0.  1.
</event>
<event>
 5   0  0.3226364E-06  0.2784291E+04  0.7818609E-02  0.8308162E-01
       -2   -1    0    0    0  501  0.00000000000E+00  0.00000000000E+00  0.13096887626E+04  0.13096887626E+04  0.25500000920E-02 0.  1.
        2   -1    0    0  501    0  0.00000000000E+00  0.00000000000E+00 -0.14797933306E+04  0.14797933306E+04  0.25500000920E-02 0. -1.
    10030    2    1    2    0    0  0.00000000000E+00  0.00000000000E+00 -0.17010456807E+03  0.27894820932E+04  0.27842907147E+04 0.  0.
        5    1    3    3  502    0  0.21506583731E+03  0.11643899870E+04  0.64842562533E+03  0.13500130509E+04  0.46999998093E+01 0.  1.
       -5    1    3    3    0  502 -0.21506583731E+03 -0.11643899870E+04 -0.81853019340E+03  0.14394690423E+04  0.46999998093E+01 0. -1.
</event>
<event>
 5   0  0.1065675E-06  0.2789852E+04  0.7818609E-02  0.8306426E-01
       -4   -1    0    0    0  501  0.00000000000E+00  0.00000000000E+00  0.13855818742E+04  0.13855824562E+04  0.12699999809E+01 0. -1.
        4   -1    0    0  501    0  0.00000000000E+00  0.00000000000E+00 -0.14043320064E+04  0.14043325806E+04  0.12699999809E+01 0.  1.
    10030    2    1    2    0    0  0.00000000000E+00  0.00000000000E+00 -0.18750132165E+02  0.27899150369E+04  0.27898520293E+04 0.  0.
        4    1    3    3  502    0  0.15151212498E+03 -0.38007459810E+03  0.13242233289E+04  0.13859948275E+04  0.12699999809E+01 0. -1.
       -4    1    3    3    0  502 -0.15151212498E+03  0.38007459810E+03 -0.13429734611E+04  0.14039202093E+04  0.12699999809E+01 0.  1.
</event>
<event>
 5   0  0.3167616E-06  0.2793237E+04  0.7818609E-02  0.8305371E-01
       -2   -1    0    0    0  501  0.00000000000E+00  0.00000000000E+00  0.96076785221E+03  0.96076785221E+03  0.25500000920E-02 0.  1.
        2   -1    0    0  501    0  0.00000000000E+00  0.00000000000E+00 -0.20301927191E+04  0.20301927191E+04  0.25500000920E-02 0. -1.
    10030    2    1    2    0    0  0.00000000000E+00  0.00000000000E+00 -0.10694248668E+04  0.29909605713E+04  0.27932374752E+04 0.  0.
        3    1    3    3  502    0 -0.83336199711E+03  0.14979683784E+03 -0.17240146330E+04  0.19207180366E+04  0.10100000352E+00 0. -1.
       -3    1    3    3    0  502  0.83336199711E+03 -0.14979683784E+03  0.65458976620E+03  0.10702425347E+04  0.10100000352E+00 0.  1.
</event>
<event>
 5   0  0.1246044E-06  0.2818612E+04  0.7818609E-02  0.8297513E-01
        1   -1    0    0  501    0  0.00000000000E+00  0.00000000000E+00  0.12643237959E+04  0.12643237960E+04  0.50400001928E-02 0. -1.
       -1   -1    0    0    0  501  0.00000000000E+00  0.00000000000E+00 -0.15709130764E+04  0.15709130764E+04  0.50400001928E-02 0.  1.
    10030    2    1    2    0    0  0.00000000000E+00  0.00000000000E+00 -0.30658928049E+03  0.28352368724E+04  0.28186115617E+04 0.  0.
        2    1    3    3  502    0  0.10261788484E+04 -0.67185639921E+03  0.54485156142E+03  0.13421241649E+04  0.25500000920E-02 0. -1.
       -2    1    3    3    0  502 -0.10261788484E+04  0.67185639921E+03 -0.85144084190E+03  0.14931127075E+04  0.25500000920E-02 0.  1.
</event>
<event>
 5   0  0.1243055E-06  0.2793823E+04  0.7818609E-02  0.8305189E-01
       -1   -1    0    0    0  501  0.00000000000E+00  0.00000000000E+00  0.10485700018E+04  0.10485700018E+04  0.50400001928E-02 0. -1.
        1   -1    0    0  501    0  0.00000000000E+00  0.00000000000E+00 -0.18609738793E+04  0.18609738793E+04  0.50400001928E-02 0.  1.
    10030    2    1    2    0    0  0.00000000000E+00  0.00000000000E+00 -0.81240387753E+03  0.29095438812E+04  0.27938227460E+04 0.  0.
        5    1    3    3  502    0 -0.24101525543E+03  0.53690109543E+03  0.91315400642E+03  0.10863809042E+04  0.46999998093E+01 0. -1.
       -5    1    3    3    0  502  0.24101525543E+03 -0.53690109543E+03 -0.17255578839E+04  0.18231629769E+04  0.46999998093E+01 0.  1.
</event>
<event>
 5   0  0.3345919E-06  0.2787527E+04  0.7818609E-02  0.8307151E-01
        2   -1    0    0  501    0  0.00000000000E+00  0.00000000000E+00  0.16898960018E+04  0.16898960018E+04  0.25500000920E-02 0.  1.
       -2   -1    0    0    0  501  0.00000000000E+00  0.00000000000E+00 -0.11495242566E+04  0.11495242566E+04  0.25500000920E-02 0. -1.
    10030    2    1    2    0    0  0.00000000000E+00  0.00000000000E+00  0.54037174525E+03  0.28394202584E+04  0.27875268215E+04 0.  0.
        2    1    3    3  502    0  0.95902515374E+03 -0.93605931684E+03  0.66025095684E+03  0.14939436456E+04  0.25500000920E-02 0.  1.
       -2    1    3    3    0  502 -0.95902515374E+03  0.93605931684E+03 -0.11987921159E+03  0.13454766128E+04  0.25500000920E-02 0. -1.
</event>
<event>
 5   0  0.3162695E-06  0.2798969E+04  0.7818609E-02  0.8303589E-01
        2   -1    0    0  501    0  0.00000000000E+00  0.00000000000E+00  0.15755675958E+04  0.15755675958E+04  0.25500000920E-02 0.  1.
       -2   -1    0    0    0  501  0.00000000000E+00  0.00000000000E+00 -0.12430800059E+04  0.12430800059E+04  0.25500000920E-02 0. -1.
    10030    2    1    2    0    0  0.00000000000E+00  0.00000000000E+00  0.33248758993E+03  0.28186476017E+04  0.27989687932E+04 0.  0.
        1    1    3    3  502    0  0.76190743161E+03  0.58211527711E+03 -0.86033276373E+03  0.12882288595E+04  0.50400001928E-02 0. -1.
       -1    1    3    3    0  502 -0.76190743161E+03 -0.58211527711E+03  0.11928203537E+04  0.15304187422E+04  0.50400001928E-02 0.  1.
</event>
<event>
 5   0  0.1220265E-06  0.2793514E+04  0.7818609E-02  0.8305285E-01
       -1   -1    0    0    0  501  0.00000000000E+00  0.00000000000E+00  0.11061443533E+04  0.11061443533E+04  0.50400001928E-02 0.  1.
        1   -1    0    0  501    0  0.00000000000E+00  0.00000000000E+00 -0.17637214696E+04  0.17637214696E+04  0.50400001928E-02 0. -1.
    10030    2    1    2    0    0  0.00000000000E+00  0.00000000000E+00 -0.65757711633E+03  0.28698658230E+04  0.27935143060E+04 0.  0.
        4    1    3    3  502    0  0.55918342097E+03  0.52528361048E+03  0.87029722177E+03  0.11601843978E+04  0.12699999809E+01 0.  1.
       -4    1    3    3    0  502 -0.55918342097E+03 -0.52528361048E+03 -0.15278743381E+04  0.17096814252E+04  0.12699999809E+01 0. -1.
</event>
<event>
 5   0  0.1263513E-06  0.2802484E+04  0.7818609E-02  0.8302498E-01
        1   -1    0    0  501    0  0.00000000000E+00  0.00000000000E+00  0.19261741632E+04  0.19261741632E+04  0.50400001928E-02 0.  1.
       -1   -1    0    0    0  501  0.00000000000E+00  0.00000000000E+00 -0.10193670956E+04  0.10193670957E+04  0.50400001928E-02 0. -1.
    10030    2    1    2    0    0  0.00000000000E+00  0.00000000000E+00  0.90680706755E+03  0.29455412589E+04  0.28024835860E+04 0.  0.
        3    1    3    3  502    0 -0.12022355028E+04  0.69143757679E+03  0.66367180072E+03  0.15375032995E+04  0.10100000352E+00 0.  1.
       -3    1    3    3    0  502  0.12022355028E+04 -0.69143757679E+03  0.24313526683E+03  0.14080379593E+04  0.10100000352E+00 0. -1.
</event>
<event>
 5   0  0.3345919E-06  0.2751753E+04  0.7818609E-02  0.8318405E-01
        2   -1    0    0  501    0  0.00000000000E+00  0.00000000000E+00  0.80477760235E+03  0.80477760236E+03  0.25500000920E-02 0.  1.
       -2   -1    0    0    0  501  0.00000000000E+00  0.00000000000E+00 -0.23522483619E+04  0.23522483619E+04  0.25500000920E-02 0. -1.
    10030    2    1    2    0    0  0.00000000000E+00  0.00000000000E+00 -0.15474707595E+04  0.31570259642E+04  0.27517534750E+04 0.  0.
        2    1    3    3  502    0  0.12635985906E+04 -0.10839947682E+03 -0.16168121655E+03  0.12785040713E+04  0.25500000920E-02 0. -1.
       -2    1    3    3    0  502 -0.12635985906E+04  0.10839947682E+03 -0.13857895430E+04  0.18785218929E+04  0.25500000920E-02 0.  1.
</event>
<event>
 5   0  0.1263513E-06  0.2791035E+04  0.7818609E-02  0.8306057E-01
       -1   -1    0    0    0  501  0.00000000000E+00  0.00000000000E+00  0.15525234077E+04  0.15525234077E+04  0.50400001928E-02 0.  1.
        1   -1    0    0  501    0  0.00000000000E+00  0.00000000000E+00 -0.12543891685E+04  0.12543891685E+04  0.50400001928E-02 0. -1.
    10030    2    1    2    0    0  0.00000000000E+00  0.00000000000E+00  0.29813423919E+03  0.28069125762E+04  0.27910346085E+04 0.  0.
        3    1    3    3  502    0  0.60544744944E+03 -0.23661815134E+03 -0.10928319682E+04  0.12715488525E+04  0.10100000352E+00 0. -1.
       -3    1    3    3    0  502 -0.60544744944E+03  0.23661815134E+03  0.13909662073E+04  0.15353637236E+04  0.10100000352E+00 0.  1.
</event>
<event>
 5   0  0.1235252E-06  0.2788778E+04  0.7818609E-02  0.8306761E-01
        1   -1    0    0  501    0  0.00000000000E+00  0.00000000000E+00  0.15033977583E+04  0.15033977583E+04  0.50400001928E-02 0. -1.
       -1   -1    0    0    0  501  0.00000000000E+00  0.00000000000E+00 -0.12932845388E+04  0.12932845388E+04  0.50400001928E-02 0.  1.
    10030    2    1    2    0    0  0.00000000000E+00  0.00000000000E+00  0.21011321952E+03  0.27966822971E+04  0.27887782820E+04 0.  0.
        1    1    3    3  502    0  0.78813299724E+03  0.76487106289E+03  0.96664220874E+03  0.14630716059E+04  0.50400001928E-02 0. -1.
       -1    1    3    3    0  502 -0.78813299724E+03 -0.76487106289E+03 -0.75652898922E+03  0.13336106912E+04  0.50400001928E-02 0.  1.
</event>
<event>
 5   0  0.1246044E-06  0.2818410E+04  0.7818609E-02  0.8297576E-01
       -1   -1    0    0    0  501  0.00000000000E+00  0.00000000000E+00  0.71588275791E+03  0.71588275792E+03  0.50400001928E-02 0. -1.
        1   -1    0    0  501    0  0.00000000000E+00  0.00000000000E+00 -0.27739991486E+04  0.27739991486E+04  0.50400001928E-02 0.  1.
    10030    2    1    2    0    0  0.00000000000E+00  0.00000000000E+00 -0.20581163907E+04  0.34898819066E+04  0.28184095948E+04 0.  0.
        2    1    3    3  502    0  0.46455408508E+03  0.76497011923E+03  0.31879215978E+03  0.95006222029E+03  0.25500000920E-02 0. -1.
       -2    1    3    3    0  502 -0.46455408508E+03 -0.76497011923E+03 -0.23769085505E+04  0.25398196863E+04  0.25500000920E-02 0.  1.
</event>
<event>
 5   0  0.3212679E-06  0.2860723E+04  0.7818609E-02  0.8284660E-01
       -2   -1    0    0    0  501  0.00000000000E+00  0.00000000000E+00  0.72611585998E+03  0.72611585998E+03  0.25500000920E-02 0. -1.
        2   -1    0    0  501    0  0.00000000000E+00  0.00000000000E+00 -0.28176405937E+04  0.28176405937E+04  0.25500000920E-02 0.  1.
    10030    2    1    2    0    0  0.00000000000E+00  0.00000000000E+00 -0.20915247337E+04  0.35437564537E+04  0.28607226519E+04 0.  0.
        4    1    3    3  502    0 -0.52621048776E+03  0.11228678945E+04 -0.16266955402E+03  0.12506769298E+04  0.12699999809E+01 0. -1.
       -4    1    3    3    0  502  0.52621048776E+03 -0.11228678945E+04 -0.19288551797E+04  0.22930795239E+04  0.12699999809E+01 0.  1.
</event>
<event>
 5   0  0.1065675E-06  0.2779503E+04  0.7818609E-02  0.8309660E-01
       -4   -1    0    0    0  501  0.00000000000E+00  0.00000000000E+00  0.18186255589E+04  0.18186260023E+04  0.12699999809E+01 0. -1.
        4   -1    0    0  501    0  0.00000000000E+00  0.00000000000E+00 -0.10620148482E+04  0.10620156075E+04  0.12699999809E+01 0.  1.
    10030    2    1    2    0    0  0.00000000000E+00  0.00000000000E+00  0.75661071074E+03  0.28806416099E+04  0.27795028903E+04 0.  0.
        3    1    3    3  502    0  0.97951124685E+03  0.65337831658E+03 -0.38684304487E+03  0.12393518705E+04  0.10100000352E+00 0.  1.
       -3    1    3    3    0  502 -0.97951124685E+03 -0.65337831658E+03  0.11434537556E+04  0.16412897394E+04  0.10100000352E+00 0. -1.
</event>
<event>
 5   0  0.3212679E-06  0.2759202E+04  0.7818609E-02  0.8316047E-01
       -2   -1    0    0    0  501  0.00000000000E+00  0.00000000000E+00  0.13842868124E+04  0.13842868124E+04  0.25500000920E-02 0. -1.
        2   -1    0    0  501    0  0.00000000000E+00  0.00000000000E+00 -0.13749313749E+04  0.13749313749E+04  0.25500000920E-02 0.  1.
    10030    2    1    2    0    0  0.00000000000E+00  0.00000000000E+00  0.93554374657E+01  0.27592181873E+04  0.27592023269E+04 0.  0.
        4    1    3    3  502    0  0.16139996043E+03  0.42524922893E+03 -0.12977931661E+04  0.13751929206E+04  0.12699999809E+01 0.  1.
       -4    1    3    3    0  502 -0.16139996043E+03 -0.42524922893E+03  0.13071486036E+04  0.13840252667E+04  0.12699999809E+01 0. -1.
</event>
<event>
 5   0  0.3162695E-06  0.2812802E+04  0.7818609E-02  0.8299305E-01
       -2   -1    0    0    0  501  0.00000000000E+00  0.00000000000E+00  0.14215046826E+04  0.14215046826E+04  0.25500000920E-02 0.  1.
        2   -1    0    0  501    0  0.00000000000E+00  0.00000000000E+00 -0.13914573544E+04  0.13914573544E+04  0.25500000920E-02 0. -1.
    10030    2    1    2    0    0  0.00000000000E+00  0.00000000000E+00  0.30047328245E+02  0.28129620370E+04  0.28128015536E+04 0.  0.
        1    1    3    3  502    0  0.60852701924E+03  0.11013289489E+04 -0.61328963510E+03  0.13997695394E+04  0.50400001928E-02 0. -1.
       -1    1    3    3    0  502 -0.60852701924E+03 -0.11013289489E+04  0.64333696335E+03  0.14131924976E+04  0.50400001928E-02 0.  1.
</event>
<event>
 5   0  0.3226364E-06  0.2812224E+04  0.7818609E-02  0.8299483E-01
       -2   -1    0    0    0  501  0.00000000000E+00  0.00000000000E+00  0.13115249086E+04  0.13115249086E+04  0.25500000920E-02 0.  1.
        2   -1    0    0  501    0  0.00000000000E+00  0.00000000000E+00 -0.15075209214E+04  0.15075209214E+04  0.25500000920E-02 0. -1.
    10030    2    1    2    0    0  0.00000000000E+00  0.00000000000E+00 -0.19599601281E+03  0.28190458300E+04  0.28122242007E+04 0.  0.
        5    1    3    3  502    0 -0.68036941609E+03  0.46950975523E+02 -0.13306238832E+04  0.14952220387E+04  0.46999998093E+01 0. -1.
       -5    1    3    3    0  502  0.68036941609E+03 -0.46950975523E+02  0.11346278704E+04  0.13238237914E+04  0.46999998093E+01 0.  1.
</event>
<event>
 5   0  0.3167616E-06  0.2757362E+04  0.7818609E-02  0.8316629E-01
        2   -1    0    0  501    0  0.00000000000E+00  0.00000000000E+00  0.18820451948E+04  0.18820451948E+04  0.25500000920E-02 0.  1.
       -2   -1    0    0    0  501  0.00000000000E+00  0.00000000000E+00 -0.10099447734E+04  0.10099447734E+04  0.25500000920E-02 0. -1.
    10030    2    1    2    0    0  0.00000000000E+00  0.00000000000E+00  0.87210042142E+03  0.28919899682E+04  0.27573622960E+04 0.  0.
        3    1    3    3  502    0 -0.11094900468E+04 -0.61914261812E+03 -0.12529739517E+03  0.12767165672E+04  0.10100000352E+00 0. -1.
       -3    1    3    3    0  502  0.11094900468E+04  0.61914261812E+03  0.99739781659E+03  0.16152734011E+04  0.10100000352E+00 0.  1.
</event>
<event>
 5   0  0.3212679E-06  0.2836613E+04  0.7818609E-02  0.8291991E-01
       -2   -1    0    0    0  501  0.00000000000E+00  0.00000000000E+00  0.13346114112E+04  0.13346114112E+04  0.25500000920E-02 0.  1.
        2   -1    0    0  501    0  0.00000000000E+00  0.00000000000E+00 -0.15072507138E+04  0.15072507138E+04  0.25500000920E-02 0. -1.
    10030    2    1    2    0    0  0.00000000000E+00  0.00000000000E+00 -0.17263930261E+03  0.28418621250E+04  0.28366134754E+04 0.  0.
        4    1    3    3  502    0 -0.54302857538E+03  0.83424344648E+03 -0.10985109161E+04  0.14824203207E+04  0.12699999809E+01 0. -1.
       -4    1    3    3    0  502  0.54302857538E+03 -0.83424344648E+03  0.92587161346E+03  0.13594418043E+04  0.12699999809E+01 0.  1.
</event>
<event>
 5   0  0.1263513E-06  0.2798467E+04  0.7818609E-02  0.8303745E-01
        1   -1    0    0  501    0  0.00000000000E+00  0.00000000000E+00  0.21967180905E+04  0.21967180905E+04  0.50400001928E-02 0. -1.
       -1   -1    0    0    0  501  0.00000000000E+00  0.00000000000E+00 -0.89126312077E+03  0.89126312079E+03  0.50400001928E-02 0.  1.
    10030    2    1    2    0    0  0.00000000000E+00  0.00000000000E+00  0.13054549697E+04  0.30879812113E+04  0.27984665950E+04 0.  0.
        3    1    3    3  502    0 -0.10473744500E+04  0.21776176390E+03 -0.34248860208E+03  0.11232594879E+04  0.10100000352E+00 0.  1.
       -3    1    3    3    0  502  0.10473744500E+04 -0.21776176390E+03  0.16479435718E+04  0.19647217234E+04  0.10100000352E+00 0. -1.
</event>
<event>
 5   0  0.1246044E-06  0.2803384E+04  0.7818609E-02  0.8302218E-01
       -1   -1    0    0    0  501  0.00000000000E+00  0.00000000000E+00  0.17085764088E+04  0.17085764088E+04  0.50400001928E-02 0. -1.
        1   -1    0    0  501    0  0.00000000000E+00  0.00000000000E+00 -0.11499287479E+04  0.11499287479E+04  0.50400001928E-02 0.  1.
    10030    2    1    2    0    0  0.00000000000E+00  0.00000000000E+00  0.55864766085E+03  0.28585051567E+04  0.28033844763E+04 0.  0.
        2    1    3    3  502    0 -0.73045584368E+01  0.14014123480E+04  0.25175135120E+03  0.14238639923E+04  0.25500000920E-02 0. -1.
       -2    1    3    3    0  502  0.73045584368E+01 -0.14014123480E+04  0.30689630966E+03  0.14346411644E+04  0.25500000920E-02 0.  1.
</event>
<event>
 5   0  0.1243055E-06  0.2806226E+04  0.7818609E-02  0.8301338E-01
        1   -1    0    0  501    0  0.00000000000E+00  0.00000000000E+00  0.20421205689E+04  0.20421205689E+04  0.50400001928E-02 0. -1.
       -1   -1    0    0    0  501  0.00000000000E+00  0.00000000000E+00 -0.96405977150E+03  0.96405977151E+03  0.50400001928E-02 0.  1.
    10030    2    1    2    0    0  0.00000000000E+00  0.00000000000E+00  0.10780607974E+04  0.30061803404E+04  0.28062261413E+04 0.  0.
        5    1    3    3  502    0  0.11111181503E+04 -0.43851750723E+03 -0.24950483426E+03  0.12203097559E+04  0.46999998093E+01 0.  1.
       -5    1    3    3    0  502 -0.11111181503E+04  0.43851750723E+03  0.13275656317E+04  0.17858705845E+04  0.46999998093E+01 0. -1.
</event>
<event>
 5   0  0.3212679E-06  0.2810526E+04  0.7818609E-02  0.8300008E-01
        2   -1    0    0  501    0  0.00000000000E+00  0.00000000000E+00  0.19632635549E+04  0.19632635549E+04  0.25500000920E-02 0. -1.
       -2   -1    0    0    0  501  0.00000000000E+00  0.00000000000E+00 -0.10058575519E+04  0.10058575520E+04  0.25500000920E-02 0.  1.
    10030    2    1    2    0    0  0.00000000000E+00  0.00000000000E+00  0.95740600298E+03  0.29691211069E+04  0.28105255546E+04 0.  0.
        4    1    3    3  502    0  0.55822981488E+03  0.94911864665E+03  0.14010782561E+04  0.17819844624E+04  0.12699999809E+01 0. -1.
       -4    1    3    3    0  502 -0.55822981488E+03 -0.94911864665E+03 -0.44367225309E+03  0.11871366445E+04  0.12699999809E+01 0.  1.
</event>
<event>
 5   0  0.1235252E-06  0.2788946E+04  0.7818609E-02  0.8306709E-01
       -1   -1    0    0    0  501  0.00000000000E+00  0.00000000000E+00  0.11045316278E+04  0.11045316278E+04  0.50400001928E-02 0. -1.
        1   -1    0    0  501    0  0.00000000000E+00  0.00000000000E+00 -0.17605240772E+04  0.17605240772E+04  0.50400001928E-02 0.  1.
    10030    2    1    2    0    0  0.00000000000E+00  0.00000000000E+00 -0.65599244945E+03  0.28650557050E+04  0.27889456967E+04 0.  0.
        1    1    3    3  502    0 -0.26539643639E+03  0.70999888538E+03  0.87442490312E+03  0.11572176100E+04  0.50400001928E-02 0. -1.
       -1    1    3    3    0  502  0.26539643639E+03 -0.70999888538E+03 -0.15304173526E+04  0.17078380950E+04  0.50400001928E-02 0.  1.
</event>
<event>
 5   0  0.1243055E-06  0.2796648E+04  0.7818609E-02  0.8304310E-01
       -1   -1    0    0    0  501  0.00000000000E+00  0.00000000000E+00  0.11337198727E+04  0.11337198727E+04  0.50400001928E-02 0.  1.
        1   -1    0    0  501    0  0.00000000000E+00  0.00000000000E+00 -0.17246853168E+04  0.17246853168E+04  0.50400001928E-02 0. -1.
    10030    2    1    2    0    0  0.00000000000E+00  0.00000000000E+00 -0.59096544414E+03  0.28584051895E+04  0.27966480063E+04 0.  0.
        5    1    3    3  502    0 -0.24991640294E+03 -0.77675713302E+03  0.86514506655E+03  0.11892467903E+04  0.46999998093E+01 0.  1.
       -5    1    3    3    0  502  0.24991640294E+03  0.77675713302E+03 -0.14561105107E+04  0.16691583992E+04  0.46999998093E+01 0. -1.
</event>
<event>
 5   0  0.1235252E-06  0.2804114E+04  0.7818609E-02  0.8301992E-01
       -1   -1    0    0    0  501  0.00000000000E+00  0.00000000000E+00  0.12820069157E+04  0.12820069157E+04  0.50400001928E-02 0.  1.
        1   -1    0    0  501    0  0.00000000000E+00  0.00000000000E+00 -0.15333484291E+04  0.15333484291E+04  0.50400001928E-02 0. -1.
    10030    2    1    2    0    0  0.00000000000E+00  0.00000000000E+00 -0.25134151333E+03  0.28153553448E+04  0.28041136142E+04 0.  0.
        1    1    3    3  502    0 -0.13347990876E+04 -0.26838237624E+03 -0.46174481354E+03  0.14376807632E+04  0.50400001928E-02 0.  1.
       -1    1    3    3    0  502  0.13347990876E+04  0.26838237624E+03  0.21040330020E+03  0.13776745816E+04  0.50400001928E-02 0. -1.
</event>
<event>
 5   0  0.1246044E-06  0.2808134E+04  0.7818609E-02  0.8300748E-01
       -1   -1    0    0    0  501  0.00000000000E+00  0.00000000000E+00  0.18232616223E+04  0.18232616223E+04  0.50400001928E-02 0. -1.
        1   -1    0    0  501    0  0.00000000000E+00  0.00000000000E+00 -0.10812510761E+04  0.10812510761E+04  0.50400001928E-02 0.  1.
    10030    2    1    2    0    0  0.00000000000E+00  0.00000000000E+00  0.74201054626E+03  0.29045126984E+04  0.28081336087E+04 0.  0.
        2    1    3    3  502    0  0.92051791736E+03  0.21494170427E+03 -0.70282281490E+03  0.11779274517E+04  0.25500000920E-02 0.  1.
       -2    1    3    3    0  502 -0.92051791736E+03 -0.21494170427E+03  0.14448333612E+04  0.17265852467E+04  0.25500000920E-02 0. -1.
</event>
<event>
 5   0  0.3226364E-06  0.2764864E+04  0.7818609E-02  0.8314260E-01
       -2   -1    0    0    0  501  0.00000000000E+00  0.00000000000E+00  0.71057719584E+03  0.71057719585E+03  0.25500000920E-02 0. -1.
        2   -1    0    0  501    0  0.00000000000E+00  0.00000000000E+00 -0.26895295983E+04  0.26895295983E+04  0.25500000920E-02 0.  1.
    10030    2    1    2    0    0  0.00000000000E+00  0.00000000000E+00 -0.19789524024E+04  0.34001067941E+04  0.27648641197E+04 0.  0.
        5    1    3    3  502    0 -0.11455130152E+04 -0.50043379105E+03 -0.26354303000E+03  0.12775410231E+04  0.46999998093E+01 0. -1.
       -5    1    3    3    0  502  0.11455130152E+04  0.50043379105E+03 -0.17154093724E+04  0.21225657710E+04  0.46999998093E+01 0.  1.
</event>
<event>
 5   0  0.3212679E-06  0.2802555E+04  0.7818609E-02  0.8302476E-01
       -2   -1    0    0    0  501  0.00000000000E+00  0.00000000000E+00  0.11812276392E+04  0.11812276392E+04  0.25500000920E-02 0.  1.
        2   -1    0    0  501    0  0.00000000000E+00  0.00000000000E+00 -0.16623202941E+04  0.16623202941E+04  0.25500000920E-02 0. -1.
    10030    2    1    2    0    0  0.00000000000E+00  0.00000000000E+00 -0.48109265493E+03  0.28435479332E+04  0.28025550317E+04 0.  0.
        4    1    3    3  502    0 -0.69887304506E+03 -0.11531126265E+04 -0.62755011586E+03  0.14872501550E+04  0.12699999809E+01 0. -1.
       -4    1    3    3    0  502  0.69887304506E+03  0.11531126265E+04  0.14645746093E+03  0.13562977783E+04  0.12699999809E+01 0.  1.
</event>
<event>
 5   0  0.1263513E-06  0.2795861E+04  0.7818609E-02  0.8304555E-01
        1   -1    0    0  501    0  0.00000000000E+00  0.00000000000E+00  0.17071876931E+04  0.17071876931E+04  0.50400001928E-02 0. -1.
       -1   -1    0    0    0  501  0.00000000000E+00  0.00000000000E+00 -0.11446952010E+04  0.11446952010E+04  0.50400001928E-02 0.  1.
    10030    2    1    2    0    0  0.00000000000E+00  0.00000000000E+00  0.56249249208E+03  0.28518828942E+04  0.27958609119E+04 0.  0.
        3    1    3    3  502    0  0.48818614544E+03  0.27159318758E+03 -0.10258835075E+04  0.11681290825E+04  0.10100000352E+00 0.  1.
       -3    1    3    3    0  502 -0.48818614544E+03 -0.27159318758E+03  0.15883759996E+04  0.16837538117E+04  0.10100000352E+00 0. -1.
</event>
<event>
 5   0  0.1246044E-06  0.2809518E+04  0.7818609E-02  0.8300319E-01
       -1   -1    0    0    0  501  0.00000000000E+00  0.00000000000E+00  0.83711552576E+03  0.83711552577E+03  0.50400001928E-02 0.  1.
        1   -1    0    0  501    0  0.00000000000E+00  0.00000000000E+00 -0.23573192578E+04  0.23573192578E+04  0.50400001928E-02 0. -1.
    10030    2    1    2    0    0  0.00000000000E+00  0.00000000000E+00 -0.15202037320E+04  0.31944347836E+04  0.28095184996E+04 0.  0.
        2    1    3    3  502    0  0.76969018587E+03  0.15722178212E+03  0.56401129266E+03  0.96708345516E+03  0.25500000920E-02 0.  1.
       -2    1    3    3    0  502 -0.76969018587E+03 -0.15722178212E+03 -0.20842150247E+04  0.22273513284E+04  0.25500000920E-02 0. -1.
</event>
<event>
 5   0  0.3212679E-06  0.2825292E+04  0.7818609E-02  0.8295459E-01
       -2   -1    0    0    0  501  0.00000000000E+00  0.00000000000E+00  0.11583800604E+04  0.11583800604E+04  0.25500000920E-02 0.  1.
        2   -1    0    0  501    0  0.00000000000E+00  0.00000000000E+00 -0.17227232009E+04  0.17227232009E+04  0.25500000920E-02 0. -1.
    10030    2    1    2    0    0  0.00000000000E+00  0.00000000000E+00 -0.56434314052E+03  0.28811032613E+04  0.28252916349E+04 0.  0.
        4    1    3    3  502    0 -0.52756574459E+03  0.71081261173E+03  0.84047851913E+03  0.12206498015E+04  0.12699999809E+01 0.  1.
       -4    1    3    3    0  502  0.52756574459E+03 -0.71081261173E+03 -0.14048216596E+04  0.16604534598E+04  0.12699999809E+01 0. -1.
</event>
<event>
 5   0  0.1235252E-06  0.2781473E+04  0.7818609E-02  0.8309043E-01
        1   -1    0    0  501    0  0.00000000000E+00  0.00000000000E+00  0.12742226820E+04  0.12742226820E+04  0.50400001928E-02 0. -1.
       -1   -1    0    0    0  501  0.00000000000E+00  0.00000000000E+00 -0.15179040853E+04  0.15179040853E+04  0.50400001928E-02 0.  1.
    10030    2    1    2    0    0  0.00000000000E+00  0.00000000000E+00 -0.24368140326E+03  0.27921267673E+04  0.27814728577E+04 0.  0.
        1    1    3    3  502    0 -0.75561988773E+03 -0.13018721790E+02  0.10501142765E+04  0.12937816259E+04  0.50400001928E-02 0. -1.
       -1    1    3    3    0  502  0.75561988773E+03  0.13018721790E+02 -0.12937956797E+04  0.14983451414E+04  0.50400001928E-02 0.  1.
</event>
<event>
 5   0  0.3162695E-06  0.2803481E+04  0.7818609E-02  0.8302189E-01
        2   -1    0    0  501    0  0.00000000000E+00  0.00000000000E+00  0.26302445365E+04  0.26302445365E+04  0.25500000920E-02 0.  1.
       -2   -1    0    0    0  501  0.00000000000E+00  0.00000000000E+00 -0.74703170624E+03  0.74703170625E+03  0.25500000920E-02 0. -1.
    10030    2    1    2    0    0  0.00000000000E+00  0.00000000000E+00  0.18832128303E+04  0.33772762428E+04  0.28034807393E+04 0.  0.
        1    1    3    3  502    0 -0.83980715245E+03  0.86054928390E+03  0.18095183748E+04  0.21725970339E+04  0.50400001928E-02 0.  1.
       -1    1    3    3    0  502  0.83980715245E+03 -0.86054928390E+03  0.73694455513E+02  0.12046792088E+04  0.50400001928E-02 0. -1.
</event>
<event>
 5   0  0.1235252E-06  0.2785599E+04  0.7818609E-02  0.8307753E-01
        1   -1    0    0  501    0  0.00000000000E+00  0.00000000000E+00  0.14158497779E+04  0.14158497779E+04  0.50400001928E-02 0. -1.
       -1   -1    0    0    0  501  0.00000000000E+00  0.00000000000E+00 -0.13701240312E+04  0.13701240312E+04  0.50400001928E-02 0.  1.
    10030    2    1    2    0    0  0.00000000000E+00  0.00000000000E+00  0.45725746656E+02  0.27859738091E+04  0.27855985391E+04 0.  0.
        1    1    3    3  502    0  0.82069441103E+03  0.97651847843E+03 -0.53646388733E+03  0.13838067630E+04  0.50400001928E-02 0.  1.
       -1    1    3    3    0  502 -0.82069441103E+03 -0.97651847843E+03  0.58218963398E+03  0.14021670460E+04  0.50400001928E-02 0. -1.
</event>
<event>
 5   0  0.1235252E-06  0.2792790E+04  0.7818609E-02  0.8305510E-01
        1   -1    0    0  501    0  0.00000000000E+00  0.00000000000E+00  0.13859005129E+04  0.13859005129E+04  0.50400001928E-02 0.  1.
       -1   -1    0    0    0  501  0.00000000000E+00  0.00000000000E+00 -0.14069694007E+04  0.14069694007E+04  0.50400001928E-02 0. -1.
    10030    2    1    2    0    0  0.00000000000E+00  0.00000000000E+00 -0.21068887798E+02  0.27928699137E+04  0.27927904427E+04 0.  0.
        1    1    3    3  502    0  0.11082540582E+04  0.14678846436E+02  0.83888780044E+03  0.13900270744E+04  0.50400001928E-02 0.  1.
       -1    1    3    3    0  502 -0.11082540582E+04 -0.14678846436E+02 -0.85995668824E+03  0.14028428392E+04  0.50400001928E-02 0. -1.
</event>
<event>
 5   0  0.3167616E-06  0.2755090E+04  0.7818609E-02  0.8317348E-01
       -2   -1    0    0    0  501  0.00000000000E+00  0.00000000000E+00  0.11620451738E+04  0.11620451738E+04  0.25500000920E-02 0.  1.
        2   -1    0    0  501    0  0.00000000000E+00  0.00000000000E+00 -0.16330085199E+04  0.16330085199E+04  0.25500000920E-02 0. -1.
    10030    2    1    2    0    0  0.00000000000E+00  0.00000000000E+00 -0.47096334612E+03  0.27950536936E+04  0.27550895951E+04 0.  0.
        3    1    3    3  502    0 -0.14532615320E+02  0.12965034102E+04 -0.70752378050E+03  0.14770654013E+04  0.10100000352E+00 0. -1.
       -3    1    3    3    0  502  0.14532615320E+02 -0.12965034102E+04  0.23656043438E+03  0.13179882924E+04  0.10100000352E+00 0.  1.
</event>
<event>
 5   0  0.1065675E-06  0.2793760E+04  0.7818609E-02  0.8305208E-01
       -3   -1    0    0    0  501  0.00000000000E+00  0.00000000000E+00  0.11378235302E+04  0.11378235347E+04  0.10100000352E+00 0.  1.
        3   -1    0    0  501    0  0.00000000000E+00  0.00000000000E+00 -0.17149182377E+04  0.17149182407E+04  0.10100000352E+00 0. -1.
    10030    2    1    2    0    0  0.00000000000E+00  0.00000000000E+00 -0.57709470745E+03  0.28527417754E+04  0.27937604292E+04 0.  0.
        4    1    3    3  502    0  0.17065948200E+03  0.70538726175E+02  0.11253044125E+04  0.11403560866E+04  0.12699999809E+01 0.  1.
       -4    1    3    3    0  502 -0.17065948200E+03 -0.70538726175E+02 -0.17023991199E+04  0.17123856888E+04  0.12699999809E+01 0. -1.
</event>
<event>
 5   0  0.3167616E-06  0.2804386E+04  0.7818609E-02  0.8301908E-01
        2   -1    0    0  501    0  0.00000000000E+00  0.00000000000E+00  0.21937580287E+04  0.21937580287E+04  0.25500000920E-02 0. -1.
       -2   -1    0    0    0  501  0.00000000000E+00  0.00000000000E+00 -0.89624523808E+03  0.89624523808E+03  0.25500000920E-02 0.  1.
    10030    2    1    2    0    0  0.00000000000E+00  0.00000000000E+00  0.12975127906E+04  0.30900032668E+04  0.28043859840E+04 0.  0.
        3    1    3    3  502    0 -0.99204375851E+03  0.90487649049E+03  0.20364186291E+03  0.13580950999E+04  0.10100000352E+00 0.  1.
       -3    1    3    3    0  502  0.99204375851E+03 -0.90487649049E+03  0.10938709277E+04  0.17319081669E+04  0.10100000352E+00 0. -1.
</event>
<event>
 5   0  0.3212679E-06  0.2792898E+04  0.7818609E-02  0.8305477E-01
        2   -1    0    0  501    0  0.00000000000E+00  0.00000000000E+00  0.10647925567E+04  0.10647925567E+04  0.25500000920E-02 0.  1.
       -2   -1    0    0    0  501  0.00000000000E+00  0.00000000000E+00 -0.18314086219E+04  0.18314086219E+04  0.25500000920E-02 0. -1.
    10030    2    1    2    0    0  0.00000000000E+00  0.00000000000E+00 -0.76661606518E+03  0.28962011786E+04  0.27928983289E+04 0.  0.
        4    1    3    3  502    0  0.49390809301E+03 -0.67328798888E+03  0.77738035540E+03  0.11408697341E+04  0.12699999809E+01 0.  1.
       -4    1    3    3    0  502 -0.49390809301E+03  0.67328798888E+03 -0.15439964206E+04  0.17553314445E+04  0.12699999809E+01 0. -1.
</event>
<event>
 5   0  0.3167616E-06  0.2793127E+04  0.7818609E-02  0.8305405E-01
        2   -1    0    0  501    0  0.00000000000E+00  0.00000000000E+00  0.89934251192E+03  0.89934251193E+03  0.25500000920E-02 0. -1.
       -2   -1    0    0    0  501  0.00000000000E+00  0.00000000000E+00 -0.21686831513E+04  0.21686831513E+04  0.25500000920E-02 0.  1.
    10030    2    1    2    0    0  0.00000000000E+00  0.00000000000E+00 -0.12693406393E+04  0.30680256632E+04  0.27931265298E+04 0.  0.
        3    1    3    3  502    0  0.13439936447E+04 -0.27442285517E+03 -0.34663681143E+03  0.14148441291E+04  0.10100000352E+00 0. -1.
       -3    1    3    3    0  502 -0.13439936447E+04  0.27442285517E+03 -0.92270382790E+03  0.16531815341E+04  0.10100000352E+00 0.  1.
</event>
<event>
 5   0  0.3162695E-06  0.2799366E+04  0.7818609E-02  0.8303465E-01
        2   -1    0    0  501    0  0.00000000000E+00  0.00000000000E+00  0.13598586651E+04  0.13598586651E+04  0.25500000920E-02 0. -1.
       -2   -1    0    0    0  501  0.00000000000E+00  0.00000000000E+00 -0.14406736426E+04  0.14406736426E+04  0.25500000920E-02 0.  1.
    10030    2    1    2    0    0  0.00000000000E+00  0.00000000000E+00 -0.80814977494E+02  0.28005323078E+04  0.27993660258E+04 0.  0.
        1    1    3    3  502    0 -0.10934098059E+04  0.85795676206E+03 -0.20624062132E+03  0.14050516016E+04  0.50400001928E-02 0.  1.
       -1    1    3    3    0  502  0.10934098059E+04 -0.85795676206E+03  0.12542564382E+03  0.13954807062E+04  0.50400001928E-02 0. -1.
</event>
<event>
 5   0  0.1246044E-06  0.2805501E+04  0.7818609E-02  0.8301563E-01
       -1   -1    0    0    0  501  0.00000000000E+00  0.00000000000E+00  0.13734791120E+04  0.13734791120E+04  0.50400001928E-02 0.  1.
        1   -1    0    0  501    0  0.00000000000E+00  0.00000000000E+00 -0.14326457478E+04  0.14326457478E+04  0.50400001928E-02 0. -1.
    10030    2    1    2    0    0  0.00000000000E+00  0.00000000000E+00 -0.59166635787E+02  0.28061248599E+04  0.28055010316E+04 0.  0.
        2    1    3    3  502    0 -0.13547205088E+04 -0.17455379255E+03 -0.34898538451E+03  0.14097969648E+04  0.25500000920E-02 0. -1.
       -2    1    3    3    0  502  0.13547205088E+04  0.17455379255E+03  0.28981874872E+03  0.13963278951E+04  0.25500000920E-02 0.  1.
</event>
<event>
 5   0  0.1220265E-06  0.2805529E+04  0.7818609E-02  0.8301554E-01
       -1   -1    0    0    0  501  0.00000000000E+00  0.00000000000E+00  0.10577452818E+04  0.10577452818E+04  0.50400001928E-02 0.  1.
        1   -1    0    0  501    0  0.00000000000E+00  0.00000000000E+00 -0.18603236986E+04  0.18603236986E+04  0.50400001928E-02 0. -1.
    10030    2    1    2    0    0  0.00000000000E+00  0.00000000000E+00 -0.80257841687E+03  0.29180689804E+04  0.28055292654E+04 0.  0.
        4    1    3    3  502    0  0.69830915150E+03  0.88131477518E+03 -0.12736187369E+04  0.16989578288E+04  0.12699999809E+01 0. -1.
       -4    1    3    3    0  502 -0.69830915150E+03 -0.88131477518E+03  0.47104032004E+03  0.12191111516E+04  0.12699999809E+01 0.  1.
</event>
<event>
 5   0  0.3226364E-06  0.2789731E+04  0.7818609E-02  0.8306463E-01
        2   -1    0    0  501    0  0.00000000000E+00  0.00000000000E+00  0.22425774313E+04  0.22425774313E+04  0.25500000920E-02 0. -1.
       -2   -1    0    0    0  501  0.00000000000E+00  0.00000000000E+00 -0.86759549642E+03  0.86759549642E+03  0.25500000920E-02 0.  1.
    10030    2    1    2    0    0  0.00000000000E+00  0.00000000000E+00  0.13749819349E+04  0.31101729277E+04  0.27897312270E+04 0.  0.
        5    1    3    3  502    0  0.13232454113E+04  0.43748453220E+03  0.62386690218E+03  0.15269587866E+04  0.46999998093E+01 0. -1.
       -5    1    3    3    0  502 -0.13232454113E+04 -0.43748453220E+03  0.75111503273E+03  0.15832141411E+04  0.46999998093E+01 0.  1.
</event>
<event>
 5   0  0.1235252E-06  0.2806065E+04  0.7818609E-02  0.8301388E-01
       -1   -1    0    0    0  501  0.00000000000E+00  0.00000000000E+00  0.15542581657E+04  0.15542581657E+04  0.50400001928E-02 0.  1.
        1   -1    0    0  501    0  0.00000000000E+00  0.00000000000E+00 -0.12665206508E+04  0.12665206508E+04  0.50400001928E-02 0. -1.
    10030    2    1    2    0    0  0.00000000000E+00  0.00000000000E+00  0.28773751496E+03  0.28207788165E+04  0.28060649055E+04 0.  0.
        1    1    3    3  502    0 -0.70893043052E+03  0.76094101951E+03  0.10905534106E+04  0.15069573093E+04  0.50400001928E-02 0.  1.
       -1    1    3    3    0  502  0.70893043052E+03 -0.76094101951E+03 -0.80281589568E+03  0.13138215072E+04  0.50400001928E-02 0. -1.
</event>
<event>
 5   0  0.1220265E-06  0.2856554E+04  0.7818609E-02  0.8285923E-01
       -1   -1    0    0    0  501  0.00000000000E+00  0.00000000000E+00  0.12756586279E+04  0.12756586279E+04  0.50400001928E-02 0. -1.
        1   -1    0    0  501    0  0.00000000000E+00  0.00000000000E+00 -0.15991543581E+04  0.15991543581E+04  0.50400001928E-02 0.  1.
    10030    2    1    2    0    0  0.00000000000E+00  0.00000000000E+00 -0.32349573018E+03  0.28748129861E+04  0.28565539059E+04 0.  0.
        4    1    3    3  502    0 -0.25802214571E+02 -0.91375378332E+03  0.94270107786E+03  0.13131255332E+04  0.12699999809E+01 0. -1.
       -4    1    3    3    0  502  0.25802214571E+02  0.91375378332E+03 -0.12661968080E+04  0.15616874529E+04  0.12699999809E+01 0.  1.
</event>
<event>
 5   0  0.1243055E-06  0.2799176E+04  0.7818609E-02  0.8303524E-01
       -1   -1    0    0    0  501  0.00000000000E+00  0.00000000000E+00  0.88755158306E+03  0.88755158307E+03  0.50400001928E-02 0. -1.
        1   -1    0    0  501    0  0.00000000000E+00  0.00000000000E+00 -0.22070231724E+04  0.22070231724E+04  0.50400001928E-02 0.  1.
    10030    2    1    2    0    0  0.00000000000E+00  0.00000000000E+00 -0.13194715893E+04  0.30945747554E+04  0.27991762435E+04 0.  0.
        5    1    3    3  502    0  0.52114293910E+03 -0.10542704368E+04  0.17911982653E+03  0.11896142733E+04  0.46999998093E+01 0. -1.
       -5    1    3    3    0  502 -0.52114293910E+03  0.10542704368E+04 -0.14985914158E+04  0.19049604822E+04  0.46999998093E+01 0.  1.
</event>
<event>
 5   0  0.3212679E-06  0.2798793E+04  0.7818609E-02  0.8303643E-01
        2   -1    0    0  501    0  0.00000000000E+00  0.00000000000E+00  0.32083209059E+04  0.32083209059E+04  0.25500000920E-02 0.  1.
       -2   -1    0    0    0  501  0.00000000000E+00  0.00000000000E+00 -0.61038479550E+03  0.61038479551E+03  0.25500000920E-02 0. -1.
    10030    2    1    2    0    0  0.00000000000E+00  0.00000000000E+00  0.25979361104E+04  0.38187057014E+04  0.27987928113E+04 0.  0.
        4    1    3    3  502    0  0.12396969891E+04 -0.38244841660E+03  0.20147229803E+04  0.23962941632E+04  0.12699999809E+01 0.  1.
       -4    1    3    3    0  502 -0.12396969891E+04  0.38244841660E+03  0.58321313008E+03  0.14224115382E+04  0.12699999809E+01 0. -1.
</event>
<event>
 5   0  0.1235252E-06  0.2810914E+04  0.7818609E-02  0.8299888E-01
       -1   -1    0    0    0  501  0.00000000000E+00  0.00000000000E+00  0.87059250687E+03  0.87059250689E+03  0.50400001928E-02 0. -1.
        1   -1    0    0  501    0  0.00000000000E+00  0.00000000000E+00 -0.22689258877E+04  0.22689258877E+04  0.50400001928E-02 0.  1.
    10030    2    1    2    0    0  0.00000000000E+00  0.00000000000E+00 -0.13983333808E+04  0.31395183946E+04  0.28109143541E+04 0.  0.
        1    1    3    3  502    0 -0.12935032385E+03 -0.12029276605E+04 -0.14980009228E+04  0.19255579003E+04  0.50400001928E-02 0.  1.
       -1    1    3    3    0  502  0.12935032385E+03  0.12029276605E+04  0.99667541989E+02  0.12139604943E+04  0.50400001928E-02 0. -1.
</event>
<event>
 5   0  0.3345919E-06  0.2791625E+04  0.7818609E-02  0.8305873E-01
       -2   -1    0    0    0  501  0.00000000000E+00  0.00000000000E+00  0.81940042646E+03  0.81940042647E+03  0.25500000920E-02 0.  1.
        2   -1    0    0  501    0  0.00000000000E+00  0.00000000000E+00 -0.23777056393E+04  0.23777056393E+04  0.25500000920E-02 0. -1.
    10030    2    1    2    0    0  0.00000000000E+00  0.00000000000E+00 -0.15583052129E+04  0.31971060658E+04  0.27916253437E+04 0.  0.
        2    1    3    3  502    0  0.21412641428E+03 -0.10815646477E+03  0.79561473934E+03  0.83099383609E+03  0.25500000920E-02 0.  1.
       -2    1    3    3    0  502 -0.21412641428E+03  0.10815646477E+03 -0.23539199522E+04  0.23661122297E+04  0.25500000920E-02 0. -1.
</event>
<event>
 5   0  0.3226364E-06  0.2800567E+04  0.7818609E-02  0.8303092E-01
       -2   -1    0    0    0  501  0.00000000000E+00  0.00000000000E+00  0.13620491659E+04  0.13620491659E+04  0.25500000920E-02 0. -1.
        2   -1    0    0  501    0  0.00000000000E+00  0.00000000000E+00 -0.14395909535E+04  0.14395909535E+04  0.25500000920E-02 0.  1.
    10030    2    1    2    0    0  0.00000000000E+00  0.00000000000E+00 -0.77541787665E+02  0.28016401194E+04  0.28005668408E+04 0.  0.
        5    1    3    3  502    0 -0.90623153147E+03  0.51929529187E+03 -0.97178494581E+03  0.14266433541E+04  0.46999998093E+01 0.  1.
       -5    1    3    3    0  502  0.90623153147E+03 -0.51929529187E+03  0.89424315814E+03  0.13749967653E+04  0.46999998093E+01 0. -1.
</event>
<event>
 5   0  0.1263513E-06  0.2795561E+04  0.7818609E-02  0.8304648E-01
        1   -1    0    0  501    0  0.00000000000E+00  0.00000000000E+00  0.26084124122E+04  0.26084124122E+04  0.50400001928E-02 0.  1.
       -1   -1    0    0    0  501  0.00000000000E+00  0.00000000000E+00 -0.74903405338E+03  0.74903405339E+03  0.50400001928E-02 0. -1.
    10030    2    1    2    0    0  0.00000000000E+00  0.00000000000E+00  0.18593783588E+04  0.33574464656E+04  0.27955605678E+04 0.  0.
        3    1    3    3  502    0 -0.46298101868E+02 -0.13965801513E+04  0.88791124494E+03  0.16555863077E+04  0.10100000352E+00 0. -1.
       -3    1    3    3    0  502  0.46298101868E+02  0.13965801513E+04  0.97146711386E+03  0.17018601578E+04  0.10100000352E+00 0.  1.
</event>
<event>
 5   0  0.1243055E-06  0.2811209E+04  0.7818609E-02  0.8299797E-01
       -1   -1    0    0    0  501  0.00000000000E+00  0.00000000000E+00  0.73230132033E+03  0.73230132035E+03  0.50400001928E-02 0. -1.
        1   -1    0    0  501    0  0.00000000000E+00  0.00000000000E+00 -0.26979659460E+04  0.26979659460E+04  0.50400001928E-02 0.  1.
    10030    2    1    2    0    0  0.00000000000E+00  0.00000000000E+00 -0.19656646256E+04  0.34302672663E+04  0.28112090100E+04 0.  0.
        5    1    3    3  502    0 -0.37535596451E+03  0.12752821770E+04 -0.15399559821E+04  0.20343852260E+04  0.46999998093E+01 0.  1.
       -5    1    3    3    0  502  0.37535596451E+03 -0.12752821770E+04 -0.42570864357E+03  0.13958820403E+04  0.46999998093E+01 0. -1.
</event>
<event>
 5   0  0.3345919E-06  0.2797053E+04  0.7818609E-02  0.8304184E-01
        2   -1    0    0  501    0  0.00000000000E+00  0.00000000000E+00  0.16909016740E+04  0.16909016740E+04  0.25500000920E-02 0. -1.
       -2   -1    0    0    0  501  0.00000000000E+00  0.00000000000E+00 -0.11567065410E+04  0.11567065410E+04  0.25500000920E-02 0.  1.
    10030    2    1    2    0    0  0.00000000000E+00  0.00000000000E+00  0.53419513302E+03  0.28476082149E+04  0.27970534685E+04 0.  0.
        2    1    3    3  502    0  0.94034649857E+03  0.90365037603E+03  0.78124169978E+03  0.15202546277E+04  0.25500000920E-02 0. -1.
       -2    1    3    3    0  502 -0.94034649857E+03 -0.90365037603E+03 -0.24704656676E+03  0.13273535873E+04  0.25500000920E-02 0.  1.
</event>
<event>
 5   0  0.1220265E-06  0.2776033E+04  0.7818609E-02  0.8310748E-01
        1   -1    0    0  501    0  0.00000000000E+00  0.00000000000E+00  0.13497424752E+04  0.13497424752E+04  0.50400001928E-02 0. -1.
       -1   -1    0    0    0  501  0.00000000000E+00  0.00000000000E+00 -0.14273754678E+04  0.14273754678E+04  0.50400001928E-02 0.  1.
    10030    2    1    2    0    0  0.00000000000E+00  0.00000000000E+00 -0.77632992580E+02  0.27771179430E+04  0.27760326345E+04 0.  0.
        4    1    3    3  502    0 -0.13056317428E+04 -0.14394293892E+03  0.40990525866E+03  0.13760151713E+04  0.12699999809E+01 0. -1.
       -4    1    3    3    0  502  0.13056317428E+04  0.14394293892E+03 -0.48753825124E+03  0.14011027717E+04  0.12699999809E+01 0.  1.
</event>
<event>
 5   0  0.3167616E-06  0.2785408E+04  0.7818609E-02  0.8307813E-01
        2   -1    0    0  501    0  0.00000000000E+00  0.00000000000E+00  0.16026430150E+04  0.16026430150E+04  0.25500000920E-02 0.  1.
       -2   -1    0    0    0  501  0.00000000000E+00  0.00000000000E+00 -0.12102657732E+04  0.12102657732E+04  0.25500000920E-02 0. -1.
    10030    2    1    2    0    0  0.00000000000E+00  0.00000000000E+00  0.39237724177E+03  0.28129087881E+04  0.27854076812E+04 0.  0.
        3    1    3    3  502    0 -0.12377564189E+04  0.17258369353E+03 -0.42453267734E+03  0.13198689662E+04  0.10100000352E+00 0. -1.
       -3    1    3    3    0  502  0.12377564189E+04 -0.17258369353E+03  0.81690991911E+03  0.14930398219E+04  0.10100000352E+00 0.  1.
</event>
<event>
 5   0  0.3226364E-06  0.2802134E+04  0.7818609E-02  0.8302606E-01
        2   -1    0    0  501    0  0.00000000000E+00  0.00000000000E+00  0.14708327902E+04  0.14708327902E+04  0.25500000920E-02 0. -1.
       -2   -1    0    0    0  501  0.00000000000E+00  0.00000000000E+00 -0.13346103600E+04  0.13346103600E+04  0.25500000920E-02 0.  1.
    10030    2    1    2    0    0  0.00000000000E+00  0.00000000000E+00  0.13622243027E+03  0.28054431502E+04  0.28021339580E+04 0.  0.
        5    1    3    3  502    0  0.57862867746E+03  0.43293055508E+01 -0.12093802648E+04  0.13406910920E+04  0.46999998093E+01 0.  1.
       -5    1    3    3    0  502 -0.57862867746E+03 -0.43293055508E+01  0.13456026950E+04  0.14647520582E+04  0.46999998093E+01 0. -1.
</event>
<event>
 5   0  0.3162695E-06  0.2802509E+04  0.7818609E-02  0.8302490E-01
        2   -1    0    0  501    0  0.00000000000E+00  0.00000000000E+00  0.17123275127E+04  0.17123275127E+04  0.25500000920E-02 0.  1.
       -2   -1    0    0    0  501  0.00000000000E+00  0.00000000000E+00 -0.11466929091E+04  0.11466929091E+04  0.25500000920E-02 0. -1.
    10030    2    1    2    0    0  0.00000000000E+00  0.00000000000E+00  0.56563460362E+03  0.28590204218E+04  0.28025087453E+04 0.  0.
        1    1    3    3  502    0 -0.51456929958E+02  0.65281922294E+03  0.15466251445E+04  0.16795446082E+04  0.50400001928E-02 0.  1.
       -1    1    3    3    0  502  0.51456929958E+02 -0.65281922294E+03 -0.98099054086E+03  0.11794758136E+04  0.50400001928E-02 0. -1.
</event>
<event>
 5   0  0.1235252E-06  0.2841462E+04  0.7818609E-02  0.8290510E-01
       -1   -1    0    0    0  501  0.00000000000E+00  0.00000000000E+00  0.13385137977E+04  0.13385137977E+04  0.50400001928E-02 0. -1.
        1   -1    0    0  501    0  0.00000000000E+00  0.00000000000E+00 -0.15079985764E+04  0.15079985764E+04  0.50400001928E-02 0.  1.
    10030    2    1    2    0    0  0.00000000000E+00  0.00000000000E+00 -0.16948477867E+03  0.28465123741E+04  0.28414622302E+04 0.  0.
        1    1    3    3  502    0 -0.12350333719E+04  0.11757613387E+02  0.61866739238E+03  0.13813743206E+04  0.50400001928E-02 0. -1.
       -1    1    3    3    0  502  0.12350333719E+04 -0.11757613387E+02 -0.78815217105E+03  0.14651380535E+04  0.50400001928E-02 0.  1.
</event>
<event>
 5   0  0.3162695E-06  0.2793158E+04  0.7818609E-02  0.8305396E-01
       -2   -1    0    0    0  501  0.00000000000E+00  0.00000000000E+00  0.86328482458E+03  0.86328482458E+03  0.25500000920E-02 0.  1.
        2   -1    0    0  501    0  0.00000000000E+00  0.00000000000E+00 -0.22593164327E+04  0.22593164327E+04  0.25500000920E-02 0. -1.
    10030    2    1    2    0    0  0.00000000000E+00  0.00000000000E+00 -0.13960316081E+04  0.31226012572E+04  0.27931584919E+04 0.  0.
        1    1    3    3  502    0  0.12150563847E+04 -0.29597055245E+03 -0.13930089672E+04  0.18720135065E+04  0.50400001928E-02 0. -1.
       -1    1    3    3    0  502 -0.12150563847E+04  0.29597055245E+03 -0.30226408584E+01  0.12505877507E+04  0.50400001928E-02 0.  1.
</event>
<event>
 5   0  0.1235252E-06  0.2804362E+04  0.7818609E-02  0.8301915E-01
       -1   -1    0    0    0  501  0.00000000000E+00  0.00000000000E+00  0.17546066812E+04  0.17546066812E+04  0.50400001928E-02 0.  1.
        1   -1    0    0  501    0  0.00000000000E+00  0.00000000000E+00 -0.11205425548E+04  0.11205425548E+04  0.50400001928E-02 0. -1.
    10030    2    1    2    0    0  0.00000000000E+00  0.00000000000E+00  0.63406412637E+03  0.28751492360E+04  0.28043619262E+04 0.  0.
        1    1    3    3  502    0 -0.49871069230E+03 -0.10599278304E+04 -0.47310428020E+03  0.12633237986E+04  0.50400001928E-02 0. -1.
       -1    1    3    3    0  502  0.49871069230E+03  0.10599278304E+04  0.11071684066E+04  0.16118254374E+04  0.50400001928E-02 0.  1.
</event>
<event>
 5   0  0.3212679E-06  0.2799375E+04  0.7818609E-02  0.8303462E-01
       -2   -1    0    0    0  501  0.00000000000E+00  0.00000000000E+00  0.10401126320E+04  0.10401126320E+04  0.25500000920E-02 0.  1.
        2   -1    0    0  501    0  0.00000000000E+00  0.00000000000E+00 -0.18835703846E+04  0.18835703846E+04  0.25500000920E-02 0. -1.
    10030    2    1    2    0    0  0.00000000000E+00  0.00000000000E+00 -0.84345775261E+03  0.29236830167E+04  0.27993751806E+04 0.  0.
        4    1    3    3  502    0  0.13016688215E+02 -0.13347004115E+04 -0.86178084774E+03  0.15887927697E+04  0.12699999809E+01 0. -1.
       -4    1    3    3    0  502 -0.13016688215E+02  0.13347004115E+04  0.18323095129E+02  0.13348902469E+04  0.12699999809E+01 0.  1.
</event>
<event>
 5   0  0.1235252E-06  0.2799288E+04  0.7818609E-02  0.8303489E-01
        1   -1    0    0  501    0  0.00000000000E+00  0.00000000000E+00  0.24434424658E+04  0.24434424658E+04  0.50400001928E-02 0. -1.
       -1   -1    0    0    0  501  0.00000000000E+00  0.00000000000E+00 -0.80173928323E+03  0.80173928325E+03  0.50400001928E-02 0.  1.
    10030    2    1    2    0    0  0.00000000000E+00  0.00000000000E+00  0.16417031826E+04  0.32451817491E+04  0.27992883461E+04 0.  0.
        1    1    3    3  502    0 -0.44141940096E+02  0.12769583456E+04  0.15850057574E+03  0.12875144892E+04  0.50400001928E-02 0.  1.
       -1    1    3    3    0  502  0.44141940096E+02 -0.12769583456E+04  0.14832026068E+04  0.19576672599E+04  0.50400001928E-02 0. -1.
</event>
<event>
 5   0  0.3226364E-06  0.2791758E+04  0.7818609E-02  0.8305832E-01
        2   -1    0    0  501    0  0.00000000000E+00  0.00000000000E+00  0.15525527324E+04  0.15525527324E+04  0.25500000920E-02 0.  1.
       -2   -1    0    0    0  501  0.00000000000E+00  0.00000000000E+00 -0.12550157086E+04  0.12550157086E+04  0.25500000920E-02 0. -1.
    10030    2    1    2    0    0  0.00000000000E+00  0.00000000000E+00  0.29753702377E+03  0.28075684410E+04  0.27917579176E+04 0.  0.
        5    1    3    3  502    0 -0.82216048429E+03 -0.80093036128E+03 -0.65009705185E+03  0.13191230316E+04  0.46999998093E+01 0. -1.
       -5    1    3    3    0  502  0.82216048429E+03  0.80093036128E+03  0.94763407562E+03  0.14884454094E+04  0.46999998093E+01 0.  1.
</event>
<event>
 5   0  0.3226364E-06  0.2766037E+04  0.7818609E-02  0.8313891E-01
       -2   -1    0    0    0  501  0.00000000000E+00  0.00000000000E+00  0.59678105061E+03  0.59678105061E+03  0.25500000920E-02 0.  1.
        2   -1    0    0  501    0  0.00000000000E+00  0.00000000000E+00 -0.32050948188E+04  0.32050948188E+04  0.25500000920E-02 0. -1.
    10030    2    1    2    0    0  0.00000000000E+00  0.00000000000E+00 -0.26083137682E+04  0.38018758694E+04  0.27660367700E+04 0.  0.
        5    1    3    3  502    0  0.67317026153E+00 -0.11735543534E+04 -0.29834989612E+03  0.12108943076E+04  0.46999998093E+01 0.  1.
       -5    1    3    3    0  502 -0.67317026153E+00  0.11735543534E+04 -0.23099638720E+04  0.25909815618E+04  0.46999998093E+01 0. -1.
</event>
<event>
 5   0  0.3345919E-06  0.2801042E+04  0.7818609E-02  0.8302945E-01
       -2   -1    0    0    0  501  0.00000000000E+00  0.00000000000E+00  0.86422721256E+03  0.86422721257E+03  0.25500000920E-02 0. -1.
        2   -1    0    0  501    0  0.00000000000E+00  0.00000000000E+00 -0.22696096408E+04  0.22696096408E+04  0.25500000920E-02 0.  1.
    10030    2    1    2    0    0  0.00000000000E+00  0.00000000000E+00 -0.14053824283E+04  0.31338368534E+04  0.28010415302E+04 0.  0.
        2    1    3    3  502    0  0.90407346597E+03 -0.77993534700E+03  0.11626827538E+03  0.11996525702E+04  0.25500000920E-02 0. -1.
       -2    1    3    3    0  502 -0.90407346597E+03  0.77993534700E+03 -0.15216507037E+04  0.19341842832E+04  0.25500000920E-02 0.  1.
</event>
<event>
 5   0  0.3345919E-06  0.2793582E+04  0.7818609E-02  0.8305264E-01
        2   -1    0    0  501    0  0.00000000000E+00  0.00000000000E+00  0.18843442027E+04  0.18843442027E+04  0.25500000920E-02 0.  1.
       -2   -1    0    0    0  501  0.00000000000E+00  0.00000000000E+00 -0.10353868256E+04  0.10353868256E+04  0.25500000920E-02 0. -1.
    10030    2    1    2    0    0  0.00000000000E+00  0.00000000000E+00  0.84895737707E+03  0.29197310283E+04  0.27935820464E+04 0.  0.
        2    1    3    3  502    0  0.12728772102E+04 -0.50694143743E+03  0.14051295805E+03  0.13772980450E+04  0.25500000920E-02 0. -1.
       -2    1    3    3    0  502 -0.12728772102E+04  0.50694143743E+03  0.70844441902E+03  0.15424329834E+04  0.25500000920E-02 0.  1.
</event>
<event>
 5   0  0.3162695E-06  0.2792255E+04  0.7818609E-02  0.8305677E-01
        2   -1    0    0  501    0  0.00000000000E+00  0.00000000000E+00  0.18465757385E+04  0.18465757385E+04  0.25500000920E-02 0. -1.
       -2   -1    0    0    0  501  0.00000000000E+00  0.00000000000E+00 -0.10555600100E+04  0.10555600100E+04  0.25500000920E-02 0.  1.
    10030    2    1    2    0    0  0.00000000000E+00  0.00000000000E+00  0.79101572848E+03  0.29021357485E+04  0.27922546481E+04 0.  0.
        1    1    3    3  502    0 -0.13110981766E+04 -0.34790666914E+03  0.73889385978E+03  0.15446622981E+04  0.50400001928E-02 0. -1.
       -1    1    3    3    0  502  0.13110981766E+04  0.34790666914E+03  0.52121868699E+02  0.13574734504E+04  0.50400001928E-02 0.  1.
</event>
<event>
 5   0  0.1243055E-06  0.2792649E+04  0.7818609E-02  0.8305554E-01
        1   -1    0    0  501    0  0.00000000000E+00  0.00000000000E+00  0.19859854258E+04  0.19859854258E+04  0.50400001928E-02 0.  1.
       -1   -1    0    0    0  501  0.00000000000E+00  0.00000000000E+00 -0.98174060725E+03  0.98174060726E+03  0.50400001928E-02 0. -1.
    10030    2    1    2    0    0  0.00000000000E+00  0.00000000000E+00  0.10042448186E+04  0.29677260331E+04  0.27926493070E+04 0.  0.
        5    1    3    3  502    0 -0.97699819237E+03  0.90824482052E+03  0.63620198491E+02  0.13354788435E+04  0.46999998093E+01 0. -1.
       -5    1    3    3    0  502  0.97699819237E+03 -0.90824482052E+03  0.94062462009E+03  0.16322471896E+04  0.46999998093E+01 0.  1.
</event>
<event>
 5   0  0.1263513E-06  0.2799692E+04  0.7818609E-02  0.8303364E-01
        1   -1    0    0  501    0  0.00000000000E+00  0.00000000000E+00  0.11025971467E+04  0.11025971467E+04  0.50400001928E-02 0.  1.
       -1   -1    0    0    0  501  0.00000000000E+00  0.00000000000E+00 -0.17772304036E+04  0.17772304036E+04  0.50400001928E-02 0. -1.
    10030    2    1    2    0    0  0.00000000000E+00  0.00000000000E+00 -0.67463325685E+03  0.28798275503E+04  0.27996922488E+04 0.  0.
        3    1    3    3  502    0 -0.12094903790E+04 -0.61612710152E+03  0.14661202489E+02  0.13574588551E+04  0.10100000352E+00 0. -1.
       -3    1    3    3    0  502  0.12094903790E+04  0.61612710152E+03 -0.68929445934E+03  0.15223686952E+04  0.10100000352E+00 0.  1.
</event>
<event>
 5   0  0.3167616E-06  0.2801095E+04  0.7818609E-02  0.8302928E-01
        2   -1    0    0  501    0  0.00000000000E+00  0.00000000000E+00  0.22821748246E+04  0.22821748246E+04  0.25500000920E-02 0. -1.
       -2   -1    0    0    0  501  0.00000000000E+00  0.00000000000E+00 -0.85950197061E+03  0.85950197062E+03  0.25500000920E-02 0.  1.
    10030    2    1    2    0    0  0.00000000000E+00  0.00000000000E+00  0.14226728540E+04  0.31416767952E+04  0.28010953279E+04 0.  0.
        3    1    3    3  502    0  0.61406872564E+03 -0.92287806339E+03  0.16714251299E+04  0.20056037233E+04  0.10100000352E+00 0. -1.
       -3    1    3    3    0  502 -0.61406872564E+03  0.92287806339E+03 -0.24875227599E+03  0.11360730719E+04  0.10100000352E+00 0.  1.
</event>
<event>
 5   0  0.1235252E-06  0.2792795E+04  0.7818609E-02  0.8305509E-01
        1   -1    0    0  501    0  0.00000000000E+00  0.00000000000E+00  0.18819103986E+04  0.18819103986E+04  0.50400001928E-02 0. -1.
       -1   -1    0    0    0  501  0.00000000000E+00  0.00000000000E+00 -0.10361414709E+04  0.10361414709E+04  0.50400001928E-02 0.  1.
    10030    2    1    2    0    0  0.00000000000E+00  0.00000000000E+00  0.84576892775E+03  0.29180518696E+04  0.27927945922E+04 0.  0.
        1    1    3    3  502    0  0.90591753404E+03 -0.88141819249E+03  0.10430897744E+04  0.16387864065E+04  0.50400001928E-02 0. -1.
       -1    1    3    3    0  502 -0.90591753404E+03  0.88141819249E+03 -0.19732084663E+03  0.12792654631E+04  0.50400001928E-02 0.  1.
</event>
<event>
 5   0  0.3345919E-06  0.2798380E+04  0.7818609E-02  0.8303771E-01
       -2   -1    0    0    0  501  0.00000000000E+00  0.00000000000E+00  0.15121959588E+04  0.15121959588E+04  0.25500000920E-02 0. -1.
        2   -1    0    0  501    0  0.00000000000E+00  0.00000000000E+00 -0.12946290106E+04  0.12946290106E+04  0.25500000920E-02 0.  1.
    10030    2    1    2    0    0  0.00000000000E+00  0.00000000000E+00  0.21756694821E+03  0.28068249693E+04  0.27983800727E+04 0.  0.
        2    1    3    3  502    0  0.74617657154E+03  0.97761907642E+03  0.77804082032E+03  0.14552889928E+04  0.25500000920E-02 0. -1.
       -2    1    3    3    0  502 -0.74617657154E+03 -0.97761907642E+03 -0.56047387211E+03  0.13515359765E+04  0.25500000920E-02 0.  1.
</event>
<event>
 5   0  0.1220265E-06  0.2797690E+04  0.7818609E-02  0.8303986E-01
        1   -1    0    0  501    0  0.00000000000E+00  0.00000000000E+00  0.17861203643E+04  0.17861203643E+04  0.50400001928E-02 0. -1.
       -1   -1    0    0    0  501  0.00000000000E+00  0.00000000000E+00 -0.10955403701E+04  0.10955403701E+04  0.50400001928E-02 0.  1.
    10030    2    1    2    0    0  0.00000000000E+00  0.00000000000E+00  0.69057999421E+03  0.28816607344E+04  0.27976897361E+04 0.  0.
        4    1    3    3  502    0  0.12811024373E+04  0.54847255279E+03  0.22032349759E+03  0.14108825793E+04  0.12699999809E+01 0. -1.
       -4    1    3    3    0  502 -0.12811024373E+04 -0.54847255279E+03  0.47025649662E+03  0.14707781551E+04  0.12699999809E+01 0.  1.
</event>
<event>
 5   0  0.1235252E-06  0.2801835E+04  0.7818609E-02  0.8302699E-01
        1   -1    0    0  501    0  0.00000000000E+00  0.00000000000E+00  0.15516218786E+04  0.15516218786E+04  0.50400001928E-02 0.  1.
       -1   -1    0    0    0  501  0.00000000000E+00  0.00000000000E+00 -0.12648508830E+04  0.12648508830E+04  0.50400001928E-02 0. -1.
    10030    2    1    2    0    0  0.00000000000E+00  0.00000000000E+00  0.28677099561E+03  0.28164727616E+04  0.28018353294E+04 0.  0.
        1    1    3    3  502    0  0.84932691001E+03 -0.86432688655E+03  0.85001819048E+03  0.14801851543E+04  0.50400001928E-02 0. -1.
       -1    1    3    3    0  502 -0.84932691001E+03  0.86432688655E+03 -0.56324719487E+03  0.13362876073E+04  0.50400001928E-02 0.  1.
</event>
<event>
 5   0  0.1246044E-06  0.2795003E+04  0.7818609E-02  0.8304822E-01
       -1   -1    0    0    0  501  0.00000000000E+00  0.00000000000E+00  0.11173219511E+04  0.11173219511E+04  0.50400001928E-02 0. -1.
        1   -1    0    0  501    0  0.00000000000E+00  0.00000000000E+00 -0.17479382483E+04  0.17479382483E+04  0.50400001928E-02 0.  1.
    10030    2    1    2    0    0  0.00000000000E+00  0.00000000000E+00 -0.63061629716E+03  0.28652601994E+04  0.27950025217E+04 0.  0.
        2    1    3    3  502    0  0.22150015782E+03  0.29795171601E+03  0.10658416435E+04  0.11286522733E+04  0.25500000920E-02 0. -1.
       -2    1    3    3    0  502 -0.22150015782E+03 -0.29795171601E+03 -0.16964579406E+04  0.17366079262E+04  0.25500000920E-02 0.  1.
</event>
<event>
 5   0  0.1243055E-06  0.2811687E+04  0.7818609E-02  0.8299649E-01
       -1   -1    0    0    0  501  0.00000000000E+00  0.00000000000E+00  0.11875634238E+04  0.11875634238E+04  0.50400001928E-02 0.  1.
        1   -1    0    0  501    0  0.00000000000E+00  0.00000000000E+00 -0.16642443819E+04  0.16642443819E+04  0.50400001928E-02 0. -1.
    10030    2    1    2    0    0  0.00000000000E+00  0.00000000000E+00 -0.47668095809E+03  0.28518078058E+04  0.28116868647E+04 0.  0.
        5    1    3    3  502    0  0.16370211805E+02  0.46124462756E+03  0.11085233200E+04  0.12007750128E+04  0.46999998093E+01 0.  1.
       -5    1    3    3    0  502 -0.16370211805E+02 -0.46124462756E+03 -0.15852042781E+04  0.16510327930E+04  0.46999998093E+01 0. -1.
</event>
<event>
 5   0  0.3212679E-06  0.2804022E+04  0.7818609E-02  0.8302021E-01
        2   -1    0    0  501    0  0.00000000000E+00  0.00000000000E+00  0.94432802066E+03  0.94432802066E+03  0.25500000920E-02 0.  1.
       -2   -1    0    0    0  501  0.00000000000E+00  0.00000000000E+00 -0.20815162910E+04  0.20815162910E+04  0.25500000920E-02 0. -1.
    10030    2    1    2    0    0  0.00000000000E+00  0.00000000000E+00 -0.11371882704E+04  0.30258443117E+04  0.28040215114E+04 0.  0.
        4    1    3    3  502    0 -0.12937528357E+04 -0.44784488361E+02  0.12353886908E+02  0.12945873017E+04  0.12699999809E+01 0.  1.
       -4    1    3    3    0  502  0.12937528357E+04  0.44784488361E+02 -0.11495421573E+04  0.17312570100E+04  0.12699999809E+01 0. -1.
</event>
<event>
 5   0  0.3212679E-06  0.2827961E+04  0.7818609E-02  0.8294640E-01
        2   -1    0    0  501    0  0.00000000000E+00  0.00000000000E+00  0.21253380623E+04  0.21253380623E+04  0.25500000920E-02 0. -1.
       -2   -1    0    0    0  501  0.00000000000E+00  0.00000000000E+00 -0.94071646585E+03  0.94071646585E+03  0.25500000920E-02 0.  1.
    10030    2    1    2    0    0  0.00000000000E+00  0.00000000000E+00  0.11846215965E+04  0.30660545282E+04  0.28279607570E+04 0.  0.
        4    1    3    3  502    0  0.85114541286E+03 -0.66869631144E+03  0.15787091091E+04  0.19141387972E+04  0.12699999809E+01 0. -1.
       -4    1    3    3    0  502 -0.85114541286E+03  0.66869631144E+03 -0.39408751265E+03  0.11519157310E+04  0.12699999809E+01 0.  1.
</event>
<event>
 5   0  0.1246044E-06  0.2800949E+04  0.7818609E-02  0.8302974E-01
       -1   -1    0    0    0  501  0.00000000000E+00  0.00000000000E+00  0.13694116184E+04  0.13694116184E+04  0.50400001928E-02 0. -1.
        1   -1    0    0  501    0  0.00000000000E+00  0.00000000000E+00 -0.14322423458E+04  0.14322423458E+04  0.50400001928E-02 0.  1.
    10030    2    1    2    0    0  0.00000000000E+00  0.00000000000E+00 -0.62830727423E+02  0.28016539642E+04  0.28009493452E+04 0.  0.
        2    1    3    3  502    0  0.39633266135E+03 -0.93126455491E+03  0.93681371446E+03  0.13791131880E+04  0.25500000920E-02 0. -1.
       -2    1    3    3    0  502 -0.39633266135E+03  0.93126455491E+03 -0.99964444189E+03  0.14225407762E+04  0.25500000920E-02 0.  1.
</event>
<event>
 5   0  0.3212679E-06  0.2801007E+04  0.7818609E-02  0.8302956E-01
       -2   -1    0    0    0  501  0.00000000000E+00  0.00000000000E+00  0.94896534521E+03  0.94896534521E+03  0.25500000920E-02 0. -1.
        2   -1    0    0  501    0  0.00000000000E+00  0.00000000000E+00 -0.20668927187E+04  0.20668927187E+04  0.25500000920E-02 0.  1.
    10030    2    1    2    0    0  0.00000000000E+00  0.00000000000E+00 -0.11179273735E+04  0.30158580640E+04  0.28010066493E+04 0.  0.
        4    1    3    3  502    0  0.12809517013E+04 -0.55188831430E+02 -0.11656799544E+04  0.17328284501E+04  0.12699999809E+01 0. -1.
       -4    1    3    3    0  502 -0.12809517013E+04  0.55188831430E+02  0.47752580889E+02  0.12830296139E+04  0.12699999809E+01 0.  1.
</event>
<event>
 5   0  0.3162695E-06  0.2809966E+04  0.7818609E-02  0.8300181E-01
       -2   -1    0    0    0  501  0.00000000000E+00  0.00000000000E+00  0.10659629009E+04  0.10659629010E+04  0.25500000920E-02 0.  1.
        2   -1    0    0  501    0  0.00000000000E+00  0.00000000000E+00 -0.18518253927E+04  0.18518253927E+04  0.25500000920E-02 0. -1.
    10030    2    1    2    0    0  0.00000000000E+00  0.00000000000E+00 -0.78586249180E+03  0.29177882937E+04  0.28099659555E+04 0.  0.
        1    1    3    3  502    0  0.12489906561E+04  0.47148612463E+02  0.27338976397E+03  0.12794305818E+04  0.50400001928E-02 0.  1.
       -1    1    3    3    0  502 -0.12489906561E+04 -0.47148612463E+02 -0.10592522558E+04  0.16383577119E+04  0.50400001928E-02 0. -1.
</event>
<event>
 5   0  0.3212679E-06  0.2801449E+04  0.7818609E-02  0.8302819E-01
        2   -1    0    0  501    0  0.00000000000E+00  0.00000000000E+00  0.17891299279E+04  0.17891299279E+04  0.25500000920E-02 0. -1.
       -2   -1    0    0    0  501  0.00000000000E+00  0.00000000000E+00 -0.10966384349E+04  0.10966384349E+04  0.25500000920E-02 0.  1.
    10030    2    1    2    0    0  0.00000000000E+00  0.00000000000E+00  0.69249149306E+03  0.28857683628E+04  0.28014486566E+04 0.  0.
        4    1    3    3  502    0  0.10583710921E+04  0.13551539853E+03  0.12810358227E+04  0.16672037020E+04  0.12699999809E+01 0. -1.
       -4    1    3    3    0  502 -0.10583710921E+04 -0.13551539853E+03 -0.58854432966E+03  0.12185646609E+04  0.12699999809E+01 0.  1.
</event>
<event>
 5   0  0.1243055E-06  0.2802455E+04  0.7818609E-02  0.8302506E-01
        1   -1    0    0  501    0  0.00000000000E+00  0.00000000000E+00  0.98810546917E+03  0.98810546918E+03  0.50400001928E-02 0. -1.
       -1   -1    0    0    0  501  0.00000000000E+00  0.00000000000E+00 -0.19870742335E+04  0.19870742335E+04  0.50400001928E-02 0.  1.
    10030    2    1    2    0    0  0.00000000000E+00  0.00000000000E+00 -0.99896876436E+03  0.29751797027E+04  0.28024552934E+04 0.  0.
        5    1    3    3  502    0 -0.59335077138E+03 -0.32790783377E+03 -0.18013723502E+04  0.19247215693E+04  0.46999998093E+01 0.  1.
       -5    1    3    3    0  502  0.59335077138E+03  0.32790783377E+03  0.80240358587E+03  0.10504581334E+04  0.46999998093E+01 0. -1.
</event>
<event>
 5   0  0.3226364E-06  0.2793501E+04  0.7818609E-02  0.8305289E-01
        2   -1    0    0  501    0  0.00000000000E+00  0.00000000000E+00  0.15421097543E+04  0.15421097543E+04  0.25500000920E-02 0. -1.
       -2   -1    0    0    0  501  0.00000000000E+00  0.00000000000E+00 -0.12650926437E+04  0.12650926438E+04  0.25500000920E-02 0.  1.
    10030    2    1    2    0    0  0.00000000000E+00  0.00000000000E+00  0.27701711052E+03  0.28072023980E+04  0.27935008187E+04 0.  0.
        5    1    3    3  502    0  0.13616727206E+04 -0.72467707834E+02 -0.16544059650E+03  0.13736072392E+04  0.46999998093E+01 0. -1.
       -5    1    3    3    0  502 -0.13616727206E+04  0.72467707834E+02  0.44245770702E+03  0.14335951588E+04  0.46999998093E+01 0.  1.
</event>
<event>
 5   0  0.1243055E-06  0.2797961E+04  0.7818609E-02  0.8303902E-01
        1   -1    0    0  501    0  0.00000000000E+00  0.00000000000E+00  0.20187345673E+04  0.20187345673E+04  0.50400001928E-02 0. -1.
       -1   -1    0    0    0  501  0.00000000000E+00  0.00000000000E+00 -0.96949153497E+03  0.96949153498E+03  0.50400001928E-02 0.  1.
    10030    2    1    2    0    0  0.00000000000E+00  0.00000000000E+00  0.10492430323E+04  0.29882261022E+04  0.27979607391E+04 0.  0.
        5    1    3    3  502    0  0.13884097695E+04  0.16690207164E+03  0.48208883810E+03  0.14791787341E+04  0.46999998093E+01 0. -1.
       -5    1    3    3    0  502 -0.13884097695E+04 -0.16690207164E+03  0.56715419418E+03  0.15090473682E+04  0.46999998093E+01 0.  1.
</event>
<event>
 5   0  0.1263513E-06  0.2758186E+04  0.7818609E-02  0.8316369E-01
       -1   -1    0    0    0  501  0.00000000000E+00  0.00000000000E+00  0.93213582273E+03  0.93213582274E+03  0.50400001928E-02 0.  1.
        1   -1    0    0  501    0  0.00000000000E+00  0.00000000000E+00 -0.20403645211E+04  0.20403645211E+04  0.50400001928E-02 0. -1.
    10030    2    1    2    0    0  0.00000000000E+00  0.00000000000E+00 -0.11082286984E+04  0.29725003438E+04  0.27581855351E+04 0.  0.
        3    1    3    3  502    0 -0.83941179818E+03 -0.10935242858E+04 -0.59570469714E+03  0.15017561809E+04  0.10100000352E+00 0.  1.
       -3    1    3    3    0  502  0.83941179818E+03  0.10935242858E+04 -0.51252400122E+03  0.14707441629E+04  0.10100000352E+00 0. -1.
</event>
<event>
 5   0  0.3167616E-06  0.2799579E+04  0.7818609E-02  0.8303399E-01
       -2   -1    0    0    0  501  0.00000000000E+00  0.00000000000E+00  0.16748854246E+04  0.16748854246E+04  0.25500000920E-02 0.  1.
        2   -1    0    0  501    0  0.00000000000E+00  0.00000000000E+00 -0.11698774666E+04  0.11698774666E+04  0.25500000920E-02 0. -1.
    10030    2    1    2    0    0  0.00000000000E+00  0.00000000000E+00  0.50500795802E+03  0.28447628911E+04  0.27995790521E+04 0.  0.
        3    1    3    3  502    0 -0.10347273114E+04  0.85183454570E+03  0.66291366418E+03  0.14952381879E+04  0.10100000352E+00 0.  1.
       -3    1    3    3    0  502  0.10347273114E+04 -0.85183454570E+03 -0.15790570616E+03  0.13495247032E+04  0.10100000352E+00 0. -1.
</event>
<event>
 5   0  0.1235252E-06  0.2798940E+04  0.7818609E-02  0.8303597E-01
       -1   -1    0    0    0  501  0.00000000000E+00  0.00000000000E+00  0.10829585760E+04  0.10829585760E+04  0.50400001928E-02 0. -1.
        1   -1    0    0  501    0  0.00000000000E+00  0.00000000000E+00 -0.18084873098E+04  0.18084873098E+04  0.50400001928E-02 0.  1.
    10030    2    1    2    0    0  0.00000000000E+00  0.00000000000E+00 -0.72552873389E+03  0.28914458858E+04  0.27989404007E+04 0.  0.
        1    1    3    3  502    0 -0.97691942689E+03 -0.44537611819E+03 -0.12900875384E+04  0.16784091605E+04  0.50400001928E-02 0.  1.
       -1    1    3    3    0  502  0.97691942689E+03  0.44537611819E+03  0.56455880448E+03  0.12130367253E+04  0.50400001928E-02 0. -1.
</event>
<event>
 5   0  0.1220265E-06  0.2781399E+04  0.7818609E-02  0.8309067E-01
        1   -1    0    0  501    0  0.00000000000E+00  0.00000000000E+00  0.21408761581E+04  0.21408761581E+04  0.50400001928E-02 0.  1.
       -1   -1    0    0    0  501  0.00000000000E+00  0.00000000000E+00 -0.90338968872E+03  0.90338968873E+03  0.50400001928E-02 0. -1.
    10030    2    1    2    0    0  0.00000000000E+00  0.00000000000E+00  0.12374864694E+04  0.30442658469E+04  0.27813992494E+04 0.  0.
        4    1    3    3  502    0 -0.10033227544E+04 -0.94247049561E+03  0.40221673331E+03  0.14341154410E+04  0.12699999809E+01 0. -1.
       -4    1    3    3    0  502  0.10033227544E+04  0.94247049561E+03  0.83526973611E+03  0.16101504059E+04  0.12699999809E+01 0.  1.
</event>
<event>
 5   0  0.1243055E-06  0.2804522E+04  0.7818609E-02  0.8301866E-01
        1   -1    0    0  501    0  0.00000000000E+00  0.00000000000E+00  0.10497478665E+04  0.10497478665E+04  0.50400001928E-02 0. -1.
       -1   -1    0    0    0  501  0.00000000000E+00  0.00000000000E+00 -0.18731501450E+04  0.18731501450E+04  0.50400001928E-02 0.  1.
    10030    2    1    2    0    0  0.00000000000E+00  0.00000000000E+00 -0.82340227848E+03  0.29228980115E+04  0.28045216122E+04 0.  0.
        5    1    3    3  502    0 -0.11013260669E+04  0.86657469317E+03 -0.46320856307E+03  0.14759590331E+04  0.46999998093E+01 0. -1.
       -5    1    3    3    0  502  0.11013260669E+04 -0.86657469317E+03 -0.36019371541E+03  0.14469389784E+04  0.46999998093E+01 0.  1.
</event>
<event>
 5   0  0.1235252E-06  0.2776803E+04  0.7818609E-02  0.8310506E-01
        1   -1    0    0  501    0  0.00000000000E+00  0.00000000000E+00  0.11000748284E+04  0.11000748285E+04  0.50400001928E-02 0. -1.
       -1   -1    0    0    0  501  0.00000000000E+00  0.00000000000E+00 -0.17522980774E+04  0.17522980774E+04  0.50400001928E-02 0.  1.
    10030    2    1    2    0    0  0.00000000000E+00  0.00000000000E+00 -0.65222324895E+03  0.28523729059E+04  0.27768032029E+04 0.  0.
        1    1    3    3  502    0 -0.63088590846E+03 -0.12138876815E+04 -0.56945240781E+03  0.14818287275E+04  0.50400001928E-02 0. -1.
       -1    1    3    3    0  502  0.63088590846E+03  0.12138876815E+04 -0.82770841135E+02  0.13705441784E+04  0.50400001928E-02 0.  1.
</event>
<event>
 5   0  0.1235252E-06  0.2795269E+04  0.7818609E-02  0.8304739E-01
       -1   -1    0    0    0  501  0.00000000000E+00  0.00000000000E+00  0.11431812665E+04  0.11431812665E+04  0.50400001928E-02 0. -1.
        1   -1    0    0  501    0  0.00000000000E+00  0.00000000000E+00 -0.17087248372E+04  0.17087248372E+04  0.50400001928E-02 0.  1.
    10030    2    1    2    0    0  0.00000000000E+00  0.00000000000E+00 -0.56554357072E+03  0.28519061036E+04  0.27952690199E+04 0.  0.
        1    1    3    3  502    0 -0.56108940202E+03 -0.12083021123E+04  0.14836204761E+03  0.13404576118E+04  0.50400001928E-02 0. -1.
       -1    1    3    3    0  502  0.56108940202E+03  0.12083021123E+04 -0.71390561833E+03  0.15114484919E+04  0.50400001928E-02 0.  1.
</event>
<event>
 5   0  0.3212679E-06  0.2794460E+04  0.7818609E-02  0.8304990E-01
       -2   -1    0    0    0  501  0.00000000000E+00  0.00000000000E+00  0.93583310548E+03  0.93583310548E+03  0.25500000920E-02 0. -1.
        2   -1    0    0  501    0  0.00000000000E+00  0.00000000000E+00 -0.20861112522E+04  0.20861112522E+04  0.25500000920E-02 0.  1.
    10030    2    1    2    0    0  0.00000000000E+00  0.00000000000E+00 -0.11502781468E+04  0.30219443577E+04  0.27944602138E+04 0.  0.
        4    1    3    3  502    0  0.95763911420E+02  0.15406347979E+03 -0.20733223712E+04  0.20812432704E+04  0.12699999809E+01 0.  1.
       -4    1    3    3    0  502 -0.95763911420E+02 -0.15406347979E+03  0.92304422446E+03  0.94070108735E+03  0.12699999809E+01 0. -1.
</event>
<event>
 5   0  0.1220265E-06  0.2805690E+04  0.7818609E-02  0.8301504E-01
        1   -1    0    0  501    0  0.00000000000E+00  0.00000000000E+00  0.94678106934E+03  0.94678106936E+03  0.50400001928E-02 0.  1.
       -1   -1    0    0    0  501  0.00000000000E+00  0.00000000000E+00 -0.20785946325E+04  0.20785946325E+04  0.50400001928E-02 0. -1.
    10030    2    1    2    0    0  0.00000000000E+00  0.00000000000E+00 -0.11318135632E+04  0.30253757019E+04  0.28056899679E+04 0.  0.
        4    1    3    3  502    0 -0.18330513174E+03 -0.85191297281E+03  0.61954473390E+03  0.10692024012E+04  0.12699999809E+01 0.  1.
       -4    1    3    3    0  502  0.18330513174E+03  0.85191297281E+03 -0.17513582971E+04  0.19561733007E+04  0.12699999809E+01 0. -1.
</event>
<event>
 5   0  0.1235252E-06  0.2804616E+04  0.7818609E-02  0.8301837E-01
        1   -1    0    0  501    0  0.00000000000E+00  0.00000000000E+00  0.13323638777E+04  0.13323638778E+04  0.50400001928E-02 0. -1.
       -1   -1    0    0    0  501  0.00000000000E+00  0.00000000000E+00 -0.14759241743E+04  0.14759241743E+04  0.50400001928E-02 0.  1.
    10030    2    1    2    0    0  0.00000000000E+00  0.00000000000E+00 -0.14356029657E+03  0.28082880521E+04  0.28046162348E+04 0.  0.
        1    1    3    3  502    0  0.91958637925E+03 -0.99323137786E+03 -0.43875741363E+03  0.14229039837E+04  0.50400001928E-02 0.  1.
       -1    1    3    3    0  502 -0.91958637925E+03  0.99323137786E+03  0.29519711707E+03  0.13853840683E+04  0.50400001928E-02 0. -1.
</event>
<event>
 5   0  0.1263513E-06  0.2794014E+04  0.7818609E-02  0.8305129E-01
        1   -1    0    0  501    0  0.00000000000E+00  0.00000000000E+00  0.24056168208E+04  0.24056168208E+04  0.50400001928E-02 0.  1.
       -1   -1    0    0    0  501  0.00000000000E+00  0.00000000000E+00 -0.81128002950E+03  0.81128002951E+03  0.50400001928E-02 0. -1.
    10030    2    1    2    0    0  0.00000000000E+00  0.00000000000E+00  0.15943367913E+04  0.32168968503E+04  0.27940142343E+04 0.  0.
        3    1    3    3  502    0  0.69792112610E+02  0.53183939443E+03 -0.68798994224E+03  0.87238423374E+03  0.10100000352E+00 0. -1.
       -3    1    3    3    0  502 -0.69792112610E+02 -0.53183939443E+03  0.22823267335E+04  0.23445126166E+04  0.10100000352E+00 0.  1.
</event>
<event>
 5   0  0.1243055E-06  0.2804711E+04  0.7818609E-02  0.8301807E-01
        1   -1    0    0  501    0  0.00000000000E+00  0.00000000000E+00  0.21324389695E+04  0.21324389695E+04  0.50400001928E-02 0. -1.
       -1   -1    0    0    0  501  0.00000000000E+00  0.00000000000E+00 -0.92223051845E+03  0.92223051846E+03  0.50400001928E-02 0.  1.
    10030    2    1    2    0    0  0.00000000000E+00  0.00000000000E+00  0.12102084511E+04  0.30546694880E+04  0.28047105351E+04 0.  0.
        5    1    3    3  502    0 -0.49578496730E+03 -0.12099532142E+04  0.53199479376E+02  0.13086794065E+04  0.46999998093E+01 0.  1.
       -5    1    3    3    0  502  0.49578496730E+03  0.12099532142E+04  0.11570089717E+04  0.17459900816E+04  0.46999998093E+01 0. -1.
</event>
<event>
 5   0  0.3212679E-06  0.2828349E+04  0.7818609E-02  0.8294521E-01
       -2   -1    0    0    0  501  0.00000000000E+00  0.00000000000E+00  0.14136155985E+04  0.14136155985E+04  0.25500000920E-02 0. -1.
        2   -1    0    0  501    0  0.00000000000E+00  0.00000000000E+00 -0.14147331369E+04  0.14147331369E+04  0.25500000920E-02 0.  1.
    10030    2    1    2    0    0  0.00000000000E+00  0.00000000000E+00 -0.11175383470E+01  0.28283487354E+04  0.28283485147E+04 0.  0.
        4    1    3    3  502    0  0.99462131859E+03 -0.12771853519E+03  0.99658905377E+03  0.14137803743E+04  0.12699999809E+01 0. -1.
       -4    1    3    3    0  502 -0.99462131859E+03  0.12771853519E+03 -0.99770659211E+03  0.14145683612E+04  0.12699999809E+01 0.  1.
</event>
<event>
 5   0  0.1246044E-06  0.2783961E+04  0.7818609E-02  0.8308265E-01
        1   -1    0    0  501    0  0.00000000000E+00  0.00000000000E+00  0.20419188818E+04  0.20419188818E+04  0.50400001928E-02 0. -1.
       -1   -1    0    0    0  501  0.00000000000E+00  0.00000000000E+00 -0.94891642458E+03  0.94891642459E+03  0.50400001928E-02 0.  1.
    10030    2    1    2    0    0  0.00000000000E+00  0.00000000000E+00  0.10930024572E+04  0.29908353064E+04  0.27839614686E+04 0.  0.
        2    1    3    3  502    0  0.10405770744E+04  0.15222867038E+03  0.15262076575E+04  0.18534519227E+04  0.25500000920E-02 0. -1.
       -2    1    3    3    0  502 -0.10405770744E+04 -0.15222867038E+03 -0.43320520030E+03  0.11373833837E+04  0.25500000920E-02 0.  1.
</event>
<event>
 5   0  0.1220265E-06  0.2919733E+04  0.7818609E-02  0.8267030E-01
        1   -1    0    0  501    0  0.00000000000E+00  0.00000000000E+00  0.12865439558E+04  0.12865439558E+04  0.50400001928E-02 0.  1.
       -1   -1    0    0    0  501  0.00000000000E+00  0.00000000000E+00 -0.16565392290E+04  0.16565392290E+04  0.50400001928E-02 0. -1.
    10030    2    1    2    0    0  0.00000000000E+00  0.00000000000E+00 -0.36999527320E+03  0.29430831849E+04  0.29197332294E+04 0.  0.
        4    1    3    3  502    0  0.18690578004E+03 -0.46264388063E+03 -0.15679154737E+04  0.16453977259E+04  0.12699999809E+01 0. -1.
       -4    1    3    3    0  502 -0.18690578004E+03  0.46264388063E+03  0.11979202005E+04  0.12976854590E+04  0.12699999809E+01 0.  1.
</event>
<event>
 5   0  0.3212679E-06  0.2802103E+04  0.7818609E-02  0.8302616E-01
       -2   -1    0    0    0  501  0.00000000000E+00  0.00000000000E+00  0.15165791635E+04  0.15165791636E+04  0.25500000920E-02 0.  1.
        2   -1    0    0  501    0  0.00000000000E+00  0.00000000000E+00 -0.12943241090E+04  0.12943241090E+04  0.25500000920E-02 0. -1.
    10030    2    1    2    0    0  0.00000000000E+00  0.00000000000E+00  0.22225505456E+03  0.28109032725E+04  0.28021027637E+04 0.  0.
        4    1    3    3  502    0  0.32737878251E+03 -0.27022042449E+03 -0.12282615427E+04  0.12995476040E+04  0.12699999809E+01 0. -1.
       -4    1    3    3    0  502 -0.32737878251E+03  0.27022042449E+03  0.14505165972E+04  0.15113556685E+04  0.12699999809E+01 0.  1.
</event>
<event>
 5   0  0.3226364E-06  0.2791902E+04  0.7818609E-02  0.8305787E-01
       -2   -1    0    0    0  501  0.00000000000E+00  0.00000000000E+00  0.91585468631E+03  0.91585468632E+03  0.25500000920E-02 0.  1.
        2   -1    0    0  501    0  0.00000000000E+00  0.00000000000E+00 -0.21277160292E+04  0.21277160292E+04  0.25500000920E-02 0. -1.
    10030    2    1    2    0    0  0.00000000000E+00  0.00000000000E+00 -0.12118613429E+04  0.30435707155E+04  0.27919016433E+04 0.  0.
        5    1    3    3  502    0 -0.12827848555E+04 -0.44365960357E+03 -0.96133348255E+03  0.16632964210E+04  0.46999998093E+01 0. -1.
       -5    1    3    3    0  502  0.12827848555E+04  0.44365960357E+03 -0.25052786030E+03  0.13802742945E+04  0.46999998093E+01 0.  1.
</event>
<event>
 5   0  0.1220265E-06  0.2797632E+04  0.7818609E-02  0.8304004E-01
       -1   -1    0    0    0  501  0.00000000000E+00  0.00000000000E+00  0.12429693517E+04  0.12429693517E+04  0.50400001928E-02 0. -1.
        1   -1    0    0  501    0  0.00000000000E+00  0.00000000000E+00 -0.15742031511E+04  0.15742031511E+04  0.50400001928E-02 0.  1.
    10030    2    1    2    0    0  0.00000000000E+00  0.00000000000E+00 -0.33123379946E+03  0.28171725028E+04  0.27976320488E+04 0.  0.
        4    1    3    3  502    0 -0.41139855532E+03 -0.11190375415E+04 -0.90229403900E+03  0.14952023062E+04  0.12699999809E+01 0.  1.
       -4    1    3    3    0  502  0.41139855532E+03  0.11190375415E+04  0.57106023954E+03  0.13219701966E+04  0.12699999809E+01 0. -1.
</event>
<event>
 5   0  0.3212679E-06  0.2790846E+04  0.7818609E-02  0.8306116E-01
       -2   -1    0    0    0  501  0.00000000000E+00  0.00000000000E+00  0.16972615683E+04  0.16972615683E+04  0.25500000920E-02 0.  1.
        2   -1    0    0  501    0  0.00000000000E+00  0.00000000000E+00 -0.11472629664E+04  0.11472629664E+04  0.25500000920E-02 0. -1.
    10030    2    1    2    0    0  0.00000000000E+00  0.00000000000E+00  0.54999860187E+03  0.28445245347E+04  0.27908459948E+04 0.  0.
        4    1    3    3  502    0  0.28864588940E+03  0.24431093997E+03 -0.10940405326E+04  0.11575537071E+04  0.12699999809E+01 0. -1.
       -4    1    3    3    0  502 -0.28864588940E+03 -0.24431093997E+03  0.16440391345E+04  0.16869708277E+04  0.12699999809E+01 0.  1.
</event>
<event>
 5   0  0.3167616E-06  0.2798064E+04  0.7818609E-02  0.8303870E-01
       -2   -1    0    0    0  501  0.00000000000E+00  0.00000000000E+00  0.11666661381E+04  0.11666661381E+04  0.25500000920E-02 0.  1.
        2   -1    0    0  501    0  0.00000000000E+00  0.00000000000E+00 -0.16776781645E+04  0.16776781645E+04  0.25500000920E-02 0. -1.
    10030    2    1    2    0    0  0.00000000000E+00  0.00000000000E+00 -0.51101202641E+03  0.28443443025E+04  0.27980638342E+04 0.  0.
        3    1    3    3  502    0  0.45964828119E+03 -0.12548188466E+04  0.16539982678E+03  0.13465526329E+04  0.10100000352E+00 0. -1.
       -3    1    3    3    0  502 -0.45964828119E+03  0.12548188466E+04 -0.67641185319E+03  0.14977916696E+04  0.10100000352E+00 0.  1.
</event>
<event>
 5   0  0.1243055E-06  0.2802794E+04  0.7818609E-02  0.8302401E-01
        1   -1    0    0  501    0  0.00000000000E+00  0.00000000000E+00  0.16218283214E+04  0.16218283214E+04  0.50400001928E-02 0. -1.
       -1   -1    0    0    0  501  0.00000000000E+00  0.00000000000E+00 -0.12109255696E+04  0.12109255696E+04  0.50400001928E-02 0.  1.
    10030    2    1    2    0    0  0.00000000000E+00  0.00000000000E+00  0.41090275179E+03  0.28327538910E+04  0.28027938804E+04 0.  0.
        5    1    3    3  502    0 -0.11283424376E+04 -0.11562246535E+03 -0.62636871881E+03  0.12957179758E+04  0.46999998093E+01 0.  1.
       -5    1    3    3    0  502  0.11283424376E+04  0.11562246535E+03  0.10372714706E+04  0.15370359152E+04  0.46999998093E+01 0. -1.
</event>
<event>
 5   0  0.3345919E-06  0.2787394E+04  0.7818609E-02  0.8307193E-01
       -2   -1    0    0    0  501  0.00000000000E+00  0.00000000000E+00  0.10613063351E+04  0.10613063351E+04  0.25500000920E-02 0.  1.
        2   -1    0    0  501    0  0.00000000000E+00  0.00000000000E+00 -0.18301896415E+04  0.18301896415E+04  0.25500000920E-02 0. -1.
    10030    2    1    2    0    0  0.00000000000E+00  0.00000000000E+00 -0.76888330642E+03  0.28914959766E+04  0.27873943826E+04 0.  0.
        2    1    3    3  502    0 -0.59420361315E+03 -0.79671582247E+03 -0.13979452470E+04  0.17152506958E+04  0.25500000920E-02 0. -1.
       -2    1    3    3    0  502  0.59420361315E+03  0.79671582247E+03  0.62906194060E+03  0.11762452809E+04  0.25500000920E-02 0.  1.
</event>
<event>
 5   0  0.1065675E-06  0.2787141E+04  0.7818609E-02  0.8307272E-01
       -3   -1    0    0    0  501  0.00000000000E+00  0.00000000000E+00  0.18325667520E+04  0.18325667548E+04  0.10100000352E+00 0. -1.
        3   -1    0    0  501    0  0.00000000000E+00  0.00000000000E+00 -0.10597366944E+04  0.10597366992E+04  0.10100000352E+00 0.  1.
    10030    2    1    2    0    0  0.00000000000E+00  0.00000000000E+00  0.77283005757E+03  0.28923034540E+04  0.27871406445E+04 0.  0.
        3    1    3    3  502    0  0.30159235056E+03  0.34113527543E+03  0.17531932138E+04  0.18113579649E+04  0.10100000352E+00 0. -1.
       -3    1    3    3    0  502 -0.30159235056E+03 -0.34113527543E+03 -0.98036315621E+03  0.10809454891E+04  0.10100000352E+00 0.  1.
</event>
<event>
 5   0  0.3345919E-06  0.2800437E+04  0.7818609E-02  0.8303133E-01
       -2   -1    0    0    0  501  0.00000000000E+00  0.00000000000E+00  0.82245672612E+03  0.82245672613E+03  0.25500000920E-02 0. -1.
        2   -1    0    0  501    0  0.00000000000E+00  0.00000000000E+00 -0.23838488601E+04  0.23838488601E+04  0.25500000920E-02 0.  1.
    10030    2    1    2    0    0  0.00000000000E+00  0.00000000000E+00 -0.15613921340E+04  0.32063055862E+04  0.28004374866E+04 0.  0.
        2    1    3    3  502    0 -0.11984782169E+04  0.14834692765E+03  0.30715993051E+02  0.12080150329E+04  0.25500000920E-02 0. -1.
       -2    1    3    3    0  502  0.11984782169E+04 -0.14834692765E+03 -0.15921081270E+04  0.19982905533E+04  0.25500000920E-02 0.  1.
</event>
<event>
 5   0  0.1263513E-06  0.2706464E+04  0.7818609E-02  0.8332911E-01
        1   -1    0    0  501    0  0.00000000000E+00  0.00000000000E+00  0.12946764667E+04  0.12946764667E+04  0.50400001928E-02 0. -1.
       -1   -1    0    0    0  501  0.00000000000E+00  0.00000000000E+00 -0.14144355363E+04  0.14144355363E+04  0.50400001928E-02 0.  1.
    10030    2    1    2    0    0  0.00000000000E+00  0.00000000000E+00 -0.11975906955E+03  0.27091120030E+04  0.27064636724E+04 0.  0.
        3    1    3    3  502    0  0.24751754042E+03 -0.12478847235E+04  0.40182572909E+03  0.13341458476E+04  0.10100000352E+00 0. -1.
       -3    1    3    3    0  502 -0.24751754042E+03  0.12478847235E+04 -0.52158479865E+03  0.13749661554E+04  0.10100000352E+00 0.  1.
</event>
<event>
 5   0  0.3167616E-06  0.2793694E+04  0.7818609E-02  0.8305229E-01
       -2   -1    0    0    0  501  0.00000000000E+00  0.00000000000E+00  0.13560503596E+04  0.13560503596E+04  0.25500000920E-02 0.  1.
        2   -1    0    0  501    0  0.00000000000E+00  0.00000000000E+00 -0.14388705728E+04  0.14388705728E+04  0.25500000920E-02 0. -1.
    10030    2    1    2    0    0  0.00000000000E+00  0.00000000000E+00 -0.82820213130E+02  0.27949209324E+04  0.27936935821E+04 0.  0.
        3    1    3    3  502    0  0.10034134796E+04  0.97176414521E+03 -0.37311652388E+02  0.13973390192E+04  0.10100000352E+00 0. -1.
       -3    1    3    3    0  502 -0.10034134796E+04 -0.97176414521E+03 -0.45508560741E+02  0.13975819132E+04  0.10100000352E+00 0.  1.
</event>
<event>
 5   0  0.1220265E-06  0.2802346E+04  0.7818609E-02  0.8302540E-01
       -1   -1    0    0    0  501  0.00000000000E+00  0.00000000000E+00  0.11914565553E+04  0.11914565553E+04  0.50400001928E-02 0.  1.
        1   -1    0    0  501    0  0.00000000000E+00  0.00000000000E+00 -0.16478034383E+04  0.16478034383E+04  0.50400001928E-02 0. -1.
    10030    2    1    2    0    0  0.00000000000E+00  0.00000000000E+00 -0.45634688296E+03  0.28392599936E+04  0.28023463086E+04 0.  0.
        4    1    3    3  502    0  0.14307868585E+03 -0.39449792147E+03 -0.15826392647E+04  0.16373297699E+04  0.12699999809E+01 0. -1.
       -4    1    3    3    0  502 -0.14307868585E+03  0.39449792147E+03  0.11262923818E+04  0.12019302236E+04  0.12699999809E+01 0.  1.
</event>
<event>
 5   0  0.1235252E-06  0.2804818E+04  0.7818609E-02  0.8301774E-01
        1   -1    0    0  501    0  0.00000000000E+00  0.00000000000E+00  0.17180502009E+04  0.17180502009E+04  0.50400001928E-02 0. -1.
       -1   -1    0    0    0  501  0.00000000000E+00  0.00000000000E+00 -0.11447577615E+04  0.11447577615E+04  0.50400001928E-02 0.  1.
    10030    2    1    2    0    0  0.00000000000E+00  0.00000000000E+00  0.57329243938E+03  0.28628079624E+04  0.28048182131E+04 0.  0.
        1    1    3    3  502    0  0.50853228019E+03 -0.49525614401E+03  0.15211431214E+04  0.16786185166E+04  0.50400001928E-02 0. -1.
       -1    1    3    3    0  502 -0.50853228019E+03  0.49525614401E+03 -0.94785068207E+03  0.11841894459E+04  0.50400001928E-02 0.  1.
</event>
<event>
 5   0  0.3345919E-06  0.2791202E+04  0.7818609E-02  0.8306005E-01
       -2   -1    0    0    0  501  0.00000000000E+00  0.00000000000E+00  0.16392840576E+04  0.16392840576E+04  0.25500000920E-02 0.  1.
        2   -1    0    0  501    0  0.00000000000E+00  0.00000000000E+00 -0.11881420868E+04  0.11881420868E+04  0.25500000920E-02 0. -1.
    10030    2    1    2    0    0  0.00000000000E+00  0.00000000000E+00  0.45114197079E+03  0.28274261445E+04  0.27912021648E+04 0.  0.
        2    1    3    3  502    0  0.11117824356E+04  0.84354949144E+03  0.23382861470E+03  0.14150306533E+04  0.25500000920E-02 0. -1.
       -2    1    3    3    0  502 -0.11117824356E+04 -0.84354949144E+03  0.21731335609E+03  0.14123954912E+04  0.25500000920E-02 0.  1.
</event>
<event>
 5   0  0.1243055E-06  0.2754949E+04  0.7818609E-02  0.8317393E-01
       -1   -1    0    0    0  501  0.00000000000E+00  0.00000000000E+00  0.73720377963E+03  0.73720377965E+03  0.50400001928E-02 0. -1.
        1   -1    0    0  501    0  0.00000000000E+00  0.00000000000E+00 -0.25738280549E+04  0.25738280549E+04  0.50400001928E-02 0.  1.
    10030    2    1    2    0    0  0.00000000000E+00  0.00000000000E+00 -0.18366242753E+04  0.33110318346E+04  0.27549488345E+04 0.  0.
        5    1    3    3  502    0  0.84839806128E+03  0.89234426100E+03 -0.16605022848E+04  0.20672076524E+04  0.46999998093E+01 0.  1.
       -5    1    3    3    0  502 -0.84839806128E+03 -0.89234426100E+03 -0.17612199050E+03  0.12438241821E+04  0.46999998093E+01 0. -1.
</event>
<event>
 5   0  0.3212679E-06  0.2803447E+04  0.7818609E-02  0.8302199E-01
       -2   -1    0    0    0  501  0.00000000000E+00  0.00000000000E+00  0.13621612496E+04  0.13621612496E+04  0.25500000920E-02 0.  1.
        2   -1    0    0  501    0  0.00000000000E+00  0.00000000000E+00 -0.14424349944E+04  0.14424349944E+04  0.25500000920E-02 0. -1.
    10030    2    1    2    0    0  0.00000000000E+00  0.00000000000E+00 -0.80273744740E+02  0.28045962440E+04  0.28034472026E+04 0.  0.
        4    1    3    3  502    0 -0.87955041705E+03  0.10911052062E+04 -0.13518931684E+02  0.14015362577E+04  0.12699999809E+01 0.  1.
       -4    1    3    3    0  502  0.87955041705E+03 -0.10911052062E+04 -0.66754813056E+02  0.14030599863E+04  0.12699999809E+01 0. -1.
</event>
<event>
 5   0  0.3167616E-06  0.2803201E+04  0.7818609E-02  0.8302275E-01
        2   -1    0    0  501    0  0.00000000000E+00  0.00000000000E+00  0.14432789215E+04  0.14432789215E+04  0.25500000920E-02 0.  1.
       -2   -1    0    0    0  501  0.00000000000E+00  0.00000000000E+00 -0.13611252343E+04  0.13611252343E+04  0.25500000920E-02 0. -1.
    10030    2    1    2    0    0  0.00000000000E+00  0.00000000000E+00  0.82153687158E+02  0.28044041558E+04  0.28032005709E+04 0.  0.
        3    1    3    3  502    0 -0.23452658282E+03 -0.11985228741E+03 -0.13361463730E+04  0.13618569782E+04  0.10100000352E+00 0. -1.
       -3    1    3    3    0  502  0.23452658282E+03  0.11985228741E+03  0.14183000601E+04  0.14425471776E+04  0.10100000352E+00 0.  1.
</event>
<event>
 5   0  0.3226364E-06  0.2796368E+04  0.7818609E-02  0.8304397E-01
        2   -1    0    0  501    0  0.00000000000E+00  0.00000000000E+00  0.18714786938E+04  0.18714786938E+04  0.25500000920E-02 0. -1.
       -2   -1    0    0    0  501  0.00000000000E+00  0.00000000000E+00 -0.10445851916E+04  0.10445851916E+04  0.25500000920E-02 0.  1.
    10030    2    1    2    0    0  0.00000000000E+00  0.00000000000E+00  0.82689350215E+03  0.29160638854E+04  0.27963683091E+04 0.  0.
        5    1    3    3  502    0 -0.40947795933E+03 -0.93623986342E+03  0.14085896697E+04  0.17402195920E+04  0.46999998093E+01 0. -1.
       -5    1    3    3    0  502  0.40947795933E+03  0.93623986342E+03 -0.58169616752E+03  0.11758442934E+04  0.46999998093E+01 0.  1.
</event>
<event>
 5   0  0.1220265E-06  0.2781980E+04  0.7818609E-02  0.8308885E-01
        1   -1    0    0  501    0  0.00000000000E+00  0.00000000000E+00  0.24150396746E+04  0.24150396746E+04  0.50400001928E-02 0. -1.
       -1   -1    0    0    0  501  0.00000000000E+00  0.00000000000E+00 -0.80116854139E+03  0.80116854141E+03  0.50400001928E-02 0.  1.
    10030    2    1    2    0    0  0.00000000000E+00  0.00000000000E+00  0.16138711332E+04  0.32162082160E+04  0.27819804554E+04 0.  0.
        4    1    3    3  502    0 -0.62166603439E+03 -0.44019984949E+03  0.21524762763E+04  0.22832871695E+04  0.12699999809E+01 0. -1.
       -4    1    3    3    0  502  0.62166603439E+03  0.44019984949E+03 -0.53860514309E+03  0.93292104643E+03  0.12699999809E+01 0.  1.
</event>
<event>
 5   0  0.1263513E-06  0.2791006E+04  0.7818609E-02  0.8306066E-01
       -1   -1    0    0    0  501  0.00000000000E+00  0.00000000000E+00  0.15544036921E+04  0.15544036921E+04  0.50400001928E-02 0. -1.
        1   -1    0    0  501    0  0.00000000000E+00  0.00000000000E+00 -0.12528458893E+04  0.12528458893E+04  0.50400001928E-02 0.  1.
    10030    2    1    2    0    0  0.00000000000E+00  0.00000000000E+00  0.30155780277E+03  0.28072495814E+04  0.27910057513E+04 0.  0.
        3    1    3    3  502    0 -0.62667552228E+03 -0.84724488903E+03 -0.76935799905E+03  0.13047826843E+04  0.10100000352E+00 0.  1.
       -3    1    3    3    0  502  0.62667552228E+03  0.84724488903E+03  0.10709158018E+04  0.15024668971E+04  0.10100000352E+00 0. -1.
</event>
<event>
 5   0  0.1243055E-06  0.2775530E+04  0.7818609E-02  0.8310906E-01
       -1   -1    0    0    0  501  0.00000000000E+00  0.00000000000E+00  0.17729701308E+04  0.17729701308E+04  0.50400001928E-02 0.  1.
        1   -1    0    0  501    0  0.00000000000E+00  0.00000000000E+00 -0.10862515404E+04  0.10862515404E+04  0.50400001928E-02 0. -1.
    10030    2    1    2    0    0  0.00000000000E+00  0.00000000000E+00  0.68671859040E+03  0.28592216712E+04  0.27755298851E+04 0.  0.
        5    1    3    3  502    0  0.70671860846E+03  0.92285174062E+03 -0.43763217359E+03  0.12420348369E+04  0.46999998093E+01 0. -1.
       -5    1    3    3    0  502 -0.70671860846E+03 -0.92285174062E+03  0.11243507640E+04  0.16171868343E+04  0.46999998093E+01 0.  1.
</event>
<event>
 5   0  0.3212679E-06  0.2813238E+04  0.7818609E-02  0.8299170E-01
        2   -1    0    0  501    0  0.00000000000E+00  0.00000000000E+00  0.14638890834E+04  0.14638890834E+04  0.25500000920E-02 0.  1.
       -2   -1    0    0    0  501  0.00000000000E+00  0.00000000000E+00 -0.13515896397E+04  0.13515896397E+04  0.25500000920E-02 0. -1.
    10030    2    1    2    0    0  0.00000000000E+00  0.00000000000E+00  0.11229944365E+03  0.28154787231E+04  0.28132382187E+04 0.  0.
        4    1    3    3  502    0 -0.60695966630E+02 -0.64736194303E+03 -0.11921664856E+04  0.13579484630E+04  0.12699999809E+01 0. -1.
       -4    1    3    3    0  502  0.60695966630E+02  0.64736194303E+03  0.13044659293E+04  0.14575302601E+04  0.12699999809E+01 0.  1.
</event>
<event>
 5   0  0.3162695E-06  0.2795964E+04  0.7818609E-02  0.8304523E-01
       -2   -1    0    0    0  501  0.00000000000E+00  0.00000000000E+00  0.96082363744E+03  0.96082363745E+03  0.25500000920E-02 0. -1.
        2   -1    0    0  501    0  0.00000000000E+00  0.00000000000E+00 -0.20340393598E+04  0.20340393598E+04  0.25500000920E-02 0.  1.
    10030    2    1    2    0    0  0.00000000000E+00  0.00000000000E+00 -0.10732157224E+04  0.29948629973E+04  0.27959635880E+04 0.  0.
        1    1    3    3  502    0 -0.28058109264E+03  0.16486737854E+03 -0.19929011350E+04  0.20192973868E+04  0.50400001928E-02 0.  1.
       -1    1    3    3    0  502  0.28058109264E+03 -0.16486737854E+03  0.91968541269E+03  0.97556561050E+03  0.50400001928E-02 0. -1.
</event>
<event>
 5   0  0.3226364E-06  0.2774791E+04  0.7818609E-02  0.8311138E-01
        2   -1    0    0  501    0  0.00000000000E+00  0.00000000000E+00  0.26267619367E+04  0.26267619367E+04  0.25500000920E-02 0.  1.
       -2   -1    0    0    0  501  0.00000000000E+00  0.00000000000E+00 -0.73279065542E+03  0.73279065543E+03  0.25500000920E-02 0. -1.
    10030    2    1    2    0    0  0.00000000000E+00  0.00000000000E+00  0.18939712812E+04  0.33595525921E+04  0.27747912363E+04 0.  0.
        5    1    3    3  502    0 -0.88443420605E+03 -0.58412643524E+03 -0.13689233824E+03  0.10687325014E+04  0.46999998093E+01 0. -1.
       -5    1    3    3    0  502  0.88443420605E+03  0.58412643524E+03  0.20308636195E+04  0.22908200907E+04  0.46999998093E+01 0.  1.
</event>
<event>
 5   0  0.3212679E-06  0.2806557E+04  0.7818609E-02  0.8301236E-01
        2   -1    0    0  501    0  0.00000000000E+00  0.00000000000E+00  0.19604370886E+04  0.19604370886E+04  0.25500000920E-02 0.  1.
       -2   -1    0    0    0  501  0.00000000000E+00  0.00000000000E+00 -0.10044648493E+04  0.10044648493E+04  0.25500000920E-02 0. -1.
    10030    2    1    2    0    0  0.00000000000E+00  0.00000000000E+00  0.95597223928E+03  0.29649019380E+04  0.28065567123E+04 0.  0.
        4    1    3    3  502    0 -0.12339139034E+04  0.62789644941E+03  0.23618121651E+03  0.14044859032E+04  0.12699999809E+01 0. -1.
       -4    1    3    3    0  502  0.12339139034E+04 -0.62789644941E+03  0.71979102277E+03  0.15604160348E+04  0.12699999809E+01 0.  1.
</event>
<event>
 5   0  0.3345919E-06  0.2798505E+04  0.7818609E-02  0.8303733E-01
        2   -1    0    0  501    0  0.00000000000E+00  0.00000000000E+00  0.24376792879E+04  0.24376792879E+04  0.25500000920E-02 0. -1.
       -2   -1    0    0    0  501  0.00000000000E+00  0.00000000000E+00 -0.80318481255E+03  0.80318481256E+03  0.25500000920E-02 0.  1.
    10030    2    1    2    0    0  0.00000000000E+00  0.00000000000E+00  0.16344944754E+04  0.32408641005E+04  0.27985045878E+04 0.  0.
        2    1    3    3  502    0  0.11125817802E+04 -0.36634854968E+02 -0.16453839343E+03  0.11252791712E+04  0.25500000920E-02 0.  1.
       -2    1    3    3    0  502 -0.11125817802E+04  0.36634854968E+02  0.17990328688E+04  0.21155849293E+04  0.25500000920E-02 0. -1.
</event>
<event>
 5   0  0.3226364E-06  0.2767337E+04  0.7818609E-02  0.8313481E-01
       -2   -1    0    0    0  501  0.00000000000E+00  0.00000000000E+00  0.16398261380E+04  0.16398261380E+04  0.25500000920E-02 0.  1.
        2   -1    0    0  501    0  0.00000000000E+00  0.00000000000E+00 -0.11675248923E+04  0.11675248923E+04  0.25500000920E-02 0. -1.
    10030    2    1    2    0    0  0.00000000000E+00  0.00000000000E+00  0.47230124566E+03  0.28073510303E+04  0.27673365065E+04 0.  0.
        5    1    3    3  502    0 -0.41157268675E+03 -0.77465586654E+03  0.13216849255E+04  0.15863029094E+04  0.46999998093E+01 0.  1.
       -5    1    3    3    0  502  0.41157268675E+03  0.77465586654E+03 -0.84938367980E+03  0.12210481209E+04  0.46999998093E+01 0. -1.
</event>
<event>
 5   0  0.3226364E-06  0.2799999E+04  0.7818609E-02  0.8303269E-01
       -2   -1    0    0    0  501  0.00000000000E+00  0.00000000000E+00  0.75337500947E+03  0.75337500948E+03  0.25500000920E-02 0.  1.
        2   -1    0    0  501    0  0.00000000000E+00  0.00000000000E+00 -0.26016240949E+04  0.26016240949E+04  0.25500000920E-02 0. -1.
    10030    2    1    2    0    0  0.00000000000E+00  0.00000000000E+00 -0.18482490854E+04  0.33549991044E+04  0.27999989837E+04 0.  0.
        5    1    3    3  502    0 -0.78832585590E+03 -0.92402765316E+03 -0.17583190750E+04  0.21370523668E+04  0.46999998093E+01 0. -1.
       -5    1    3    3    0  502  0.78832585590E+03  0.92402765316E+03 -0.89930010446E+02  0.12179467376E+04  0.46999998093E+01 0.  1.
</event>
<event>
 5   0  0.1246044E-06  0.2809305E+04  0.7818609E-02  0.8300385E-01
        1   -1    0    0  501    0  0.00000000000E+00  0.00000000000E+00  0.19880773783E+04  0.19880773783E+04  0.50400001928E-02 0.  1.
       -1   -1    0    0    0  501  0.00000000000E+00  0.00000000000E+00 -0.99244070587E+03  0.99244070588E+03  0.50400001928E-02 0. -1.
    10030    2    1    2    0    0  0.00000000000E+00  0.00000000000E+00  0.99563667244E+03  0.29805180842E+04  0.28093051929E+04 0.  0.
        2    1    3    3  502    0 -0.99240279330E+03 -0.96535464200E+03  0.24613494525E+03  0.14061846608E+04  0.25500000920E-02 0. -1.
       -2    1    3    3    0  502  0.99240279330E+03  0.96535464200E+03  0.74950172719E+03  0.15743334234E+04  0.25500000920E-02 0.  1.
</event>
<event>
 5   0  0.1246044E-06  0.2788968E+04  0.7818609E-02  0.8306701E-01
        1   -1    0    0  501    0  0.00000000000E+00  0.00000000000E+00  0.16175593498E+04  0.16175593499E+04  0.50400001928E-02 0. -1.
       -1   -1    0    0    0  501  0.00000000000E+00  0.00000000000E+00 -0.12021729094E+04  0.12021729094E+04  0.50400001928E-02 0.  1.
    10030    2    1    2    0    0  0.00000000000E+00  0.00000000000E+00  0.41538644043E+03  0.28197322593E+04  0.27889682894E+04 0.  0.
        2    1    3    3  502    0 -0.96289903070E+03 -0.10064211560E+04  0.27572546207E+03  0.14198882410E+04  0.25500000920E-02 0.  1.
       -2    1    3    3    0  502  0.96289903070E+03  0.10064211560E+04  0.13966097836E+03  0.13998440183E+04  0.25500000920E-02 0. -1.
</event>
<event>
 5   0  0.1246044E-06  0.2835119E+04  0.7818609E-02  0.8292448E-01
       -1   -1    0    0    0  501  0.00000000000E+00  0.00000000000E+00  0.81412052610E+03  0.81412052612E+03  0.50400001928E-02 0. -1.
        1   -1    0    0  501    0  0.00000000000E+00  0.00000000000E+00 -0.24682766411E+04  0.24682766411E+04  0.50400001928E-02 0.  1.
    10030    2    1    2    0    0  0.00000000000E+00  0.00000000000E+00 -0.16541561150E+04  0.32823971672E+04  0.28351188177E+04 0.  0.
        2    1    3    3  502    0  0.94304908865E+03 -0.61327451833E+03 -0.18257304495E+04  0.21444670416E+04  0.25500000920E-02 0.  1.
       -2    1    3    3    0  502 -0.94304908865E+03  0.61327451833E+03  0.17157433451E+03  0.11379301256E+04  0.25500000920E-02 0. -1.
</event>
<event>
 5   0  0.1243055E-06  0.2730248E+04  0.7818609E-02  0.8325257E-01
        1   -1    0    0  501    0  0.00000000000E+00  0.00000000000E+00  0.19762178101E+04  0.19762178101E+04  0.50400001928E-02 0.  1.
       -1   -1    0    0    0  501  0.00000000000E+00  0.00000000000E+00 -0.94299466637E+03  0.94299466638E+03  0.50400001928E-02 0. -1.
    10030    2    1    2    0    0  0.00000000000E+00  0.00000000000E+00  0.10332231438E+04  0.29192124765E+04  0.27302475013E+04 0.  0.
        5    1    3    3  502    0  0.51615440015E+03 -0.57512263112E+03 -0.68660047173E+03  0.10337425711E+04  0.46999998093E+01 0. -1.
       -5    1    3    3    0  502 -0.51615440015E+03  0.57512263112E+03  0.17198236155E+04  0.18854699054E+04  0.46999998093E+01 0.  1.
</event>
<event>
 5   0  0.3167616E-06  0.2795379E+04  0.7818609E-02  0.8304705E-01
       -2   -1    0    0    0  501  0.00000000000E+00  0.00000000000E+00  0.12156013238E+04  0.12156013238E+04  0.25500000920E-02 0.  1.
        2   -1    0    0  501    0  0.00000000000E+00  0.00000000000E+00 -0.16070527004E+04  0.16070527004E+04  0.25500000920E-02 0. -1.
    10030    2    1    2    0    0  0.00000000000E+00  0.00000000000E+00 -0.39145137656E+03  0.28226540243E+04  0.27953786077E+04 0.  0.
        3    1    3    3  502    0 -0.76454423859E+03 -0.10047060200E+04 -0.80122092414E+03  0.14952983177E+04  0.10100000352E+00 0. -1.
       -3    1    3    3    0  502  0.76454423859E+03  0.10047060200E+04  0.40976954759E+03  0.13273557066E+04  0.10100000352E+00 0.  1.
</event>
<event>
 5   0  0.1263513E-06  0.2777698E+04  0.7818609E-02  0.8310226E-01
        1   -1    0    0  501    0  0.00000000000E+00  0.00000000000E+00  0.14604132789E+04  0.14604132789E+04  0.50400001928E-02 0. -1.
       -1   -1    0    0    0  501  0.00000000000E+00  0.00000000000E+00 -0.13207913027E+04  0.13207913027E+04  0.50400001928E-02 0.  1.
    10030    2    1    2    0    0  0.00000000000E+00  0.00000000000E+00  0.13962197617E+03  0.27812045816E+04  0.27776977209E+04 0.  0.
        3    1    3    3  502    0 -0.59433384466E+03 -0.77841884926E+03  0.10558042211E+04  0.14401011031E+04  0.10100000352E+00 0. -1.
       -3    1    3    3    0  502  0.59433384466E+03  0.77841884926E+03 -0.91618224492E+03  0.13411034784E+04  0.10100000352E+00 0.  1.
</event>
<event>
 5   0  0.1246044E-06  0.2792974E+04  0.7818609E-02  0.8305453E-01
        1   -1    0    0  501    0  0.00000000000E+00  0.00000000000E+00  0.18347480714E+04  0.18347480714E+04  0.50400001928E-02 0.  1.
       -1   -1    0    0    0  501  0.00000000000E+00  0.00000000000E+00 -0.10629124123E+04  0.10629124123E+04  0.50400001928E-02 0. -1.
    10030    2    1    2    0    0  0.00000000000E+00  0.00000000000E+00  0.77183565913E+03  0.28976604838E+04  0.27929743992E+04 0.  0.
        2    1    3    3  502    0  0.76821487497E+03 -0.88076621047E+03  0.11789458974E+04  0.16600652520E+04  0.25500000920E-02 0.  1.
       -2    1    3    3    0  502 -0.76821487497E+03  0.88076621047E+03 -0.40711023831E+03  0.12375952318E+04  0.25500000920E-02 0. -1.
</event>
<event>
 5   0  0.1243055E-06  0.2791507E+04  0.7818609E-02  0.8305910E-01
        1   -1    0    0  501    0  0.00000000000E+00  0.00000000000E+00  0.22766760384E+04  0.22766760384E+04  0.50400001928E-02 0.  1.
       -1   -1    0    0    0  501  0.00000000000E+00  0.00000000000E+00 -0.85568933219E+03  0.85568933221E+03  0.50400001928E-02 0. -1.
    10030    2    1    2    0    0  0.00000000000E+00  0.00000000000E+00  0.14209867062E+04  0.31323653706E+04  0.27915066892E+04 0.  0.
        5    1    3    3  502    0 -0.10443531752E+04 -0.37370216245E+03 -0.24017480607E+03  0.11349153661E+04  0.46999998093E+01 0.  1.
       -5    1    3    3    0  502  0.10443531752E+04  0.37370216245E+03  0.16611615123E+04  0.19974500045E+04  0.46999998093E+01 0. -1.
</event>
<event>
 5   0  0.3345919E-06  0.2774809E+04  0.7818609E-02  0.8311132E-01
       -2   -1    0    0    0  501  0.00000000000E+00  0.00000000000E+00  0.13294333731E+04  0.13294333731E+04  0.25500000920E-02 0.  1.
        2   -1    0    0  501    0  0.00000000000E+00  0.00000000000E+00 -0.14479033351E+04  0.14479033351E+04  0.25500000920E-02 0. -1.
    10030    2    1    2    0    0  0.00000000000E+00  0.00000000000E+00 -0.11846996208E+03  0.27773367082E+04  0.27748088328E+04 0.  0.
        2    1    3    3  502    0 -0.10160949788E+04 -0.84831821611E+03  0.35683376055E+03  0.13709205427E+04  0.25500000920E-02 0.  1.
       -2    1    3    3    0  502  0.10160949788E+04  0.84831821611E+03 -0.47530372263E+03  0.14064161655E+04  0.25500000920E-02 0. -1.
</event>
<event>
 5   0  0.3212679E-06  0.2788173E+04  0.7818609E-02  0.8306950E-01
       -2   -1    0    0    0  501  0.00000000000E+00  0.00000000000E+00  0.12064797512E+04  0.12064797512E+04  0.25500000920E-02 0. -1.
        2   -1    0    0  501    0  0.00000000000E+00  0.00000000000E+00 -0.16108660939E+04  0.16108660939E+04  0.25500000920E-02 0.  1.
    10030    2    1    2    0    0  0.00000000000E+00  0.00000000000E+00 -0.40438634269E+03  0.28173458451E+04  0.27881731110E+04 0.  0.
        4    1    3    3  502    0 -0.83577263729E+03  0.10350762986E+04 -0.62317790729E+03  0.14690987585E+04  0.12699999809E+01 0.  1.
       -4    1    3    3    0  502  0.83577263729E+03 -0.10350762986E+04  0.21879156461E+03  0.13482470867E+04  0.12699999809E+01 0. -1.
</event>
<event>
 5   0  0.1263513E-06  0.2793527E+04  0.7818609E-02  0.8305281E-01
       -1   -1    0    0    0  501  0.00000000000E+00  0.00000000000E+00  0.12783665448E+04  0.12783665448E+04  0.50400001928E-02 0.  1.
        1   -1    0    0  501    0  0.00000000000E+00  0.00000000000E+00 -0.15261260746E+04  0.15261260746E+04  0.50400001928E-02 0. -1.
    10030    2    1    2    0    0  0.00000000000E+00  0.00000000000E+00 -0.24775952982E+03  0.28044926194E+04  0.27935271733E+04 0.  0.
        3    1    3    3  502    0  0.10169111214E+04 -0.21120088354E+03 -0.10614806804E+04  0.14850775357E+04  0.10100000352E+00 0. -1.
       -3    1    3    3    0  502 -0.10169111214E+04  0.21120088354E+03  0.81372115060E+03  0.13194150837E+04  0.10100000352E+00 0.  1.
</event>
<event>
 5   0  0.3345919E-06  0.2797816E+04  0.7818609E-02  0.8303947E-01
       -2   -1    0    0    0  501  0.00000000000E+00  0.00000000000E+00  0.12094870273E+04  0.12094870273E+04  0.25500000920E-02 0.  1.
        2   -1    0    0  501    0  0.00000000000E+00  0.00000000000E+00 -0.16179944105E+04  0.16179944105E+04  0.25500000920E-02 0. -1.
    10030    2    1    2    0    0  0.00000000000E+00  0.00000000000E+00 -0.40850738321E+03  0.28274814378E+04  0.27978157551E+04 0.  0.
        2    1    3    3  502    0 -0.73829740281E+03  0.84726314744E+03 -0.10461567001E+04  0.15353767411E+04  0.25500000920E-02 0. -1.
       -2    1    3    3    0  502  0.73829740281E+03 -0.84726314744E+03  0.63764931687E+03  0.12921046967E+04  0.25500000920E-02 0.  1.
</event>
<event>
 5   0  0.1243055E-06  0.2792945E+04  0.7818609E-02  0.8305462E-01
       -1   -1    0    0    0  501  0.00000000000E+00  0.00000000000E+00  0.13869720651E+04  0.13869720651E+04  0.50400001928E-02 0. -1.
        1   -1    0    0  501    0  0.00000000000E+00  0.00000000000E+00 -0.14060375625E+04  0.14060375625E+04  0.50400001928E-02 0.  1.
    10030    2    1    2    0    0  0.00000000000E+00  0.00000000000E+00 -0.19065497472E+02  0.27930096276E+04  0.27929445549E+04 0.  0.
        5    1    3    3  502    0 -0.10756508892E+04  0.86898083231E+03  0.18530559009E+03  0.13951748184E+04  0.46999998093E+01 0.  1.
       -5    1    3    3    0  502  0.10756508892E+04 -0.86898083231E+03 -0.20437108757E+03  0.13978348092E+04  0.46999998093E+01 0. -1.
</event>
<event>
 5   0  0.1220265E-06  0.2611764E+04  0.7818609E-02  0.8364216E-01
        1   -1    0    0  501    0  0.00000000000E+00  0.00000000000E+00  0.11208509356E+04  0.11208509356E+04  0.50400001928E-02 0.  1.
       -1   -1    0    0    0  501  0.00000000000E+00  0.00000000000E+00 -0.15214580681E+04  0.15214580681E+04  0.50400001928E-02 0. -1.
    10030    2    1    2    0    0  0.00000000000E+00  0.00000000000E+00 -0.40060713251E+03  0.26423090036E+04  0.26117639243E+04 0.  0.
        4    1    3    3  502    0 -0.53705639226E+03 -0.19444064801E+03 -0.13883841228E+04  0.15012823916E+04  0.12699999809E+01 0. -1.
       -4    1    3    3    0  502  0.53705639226E+03  0.19444064801E+03  0.98777699025E+03  0.11410266121E+04  0.12699999809E+01 0.  1.
</event>
<event>
 5   0  0.1246044E-06  0.2802107E+04  0.7818609E-02  0.8302615E-01
        1   -1    0    0  501    0  0.00000000000E+00  0.00000000000E+00  0.15102478757E+04  0.15102478757E+04  0.50400001928E-02 0.  1.
       -1   -1    0    0    0  501  0.00000000000E+00  0.00000000000E+00 -0.12997540856E+04  0.12997540856E+04  0.50400001928E-02 0. -1.
    10030    2    1    2    0    0  0.00000000000E+00  0.00000000000E+00  0.21049379007E+03  0.28100019614E+04  0.28021069550E+04 0.  0.
        2    1    3    3  502    0 -0.57136938061E+03 -0.12523977439E+04  0.36672619244E+03  0.14245880732E+04  0.25500000920E-02 0.  1.
       -2    1    3    3    0  502  0.57136938061E+03  0.12523977439E+04 -0.15623240237E+03  0.13854138882E+04  0.25500000920E-02 0. -1.
</event>
<event>
 5   0  0.1243055E-06  0.2854854E+04  0.7818609E-02  0.8286438E-01
        1   -1    0    0  501    0  0.00000000000E+00  0.00000000000E+00  0.14848001854E+04  0.14848001854E+04  0.50400001928E-02 0.  1.
       -1   -1    0    0    0  501  0.00000000000E+00  0.00000000000E+00 -0.13722708202E+04  0.13722708202E+04  0.50400001928E-02 0. -1.
    10030    2    1    2    0    0  0.00000000000E+00  0.00000000000E+00  0.11252936527E+03  0.28570710056E+04  0.28548540896E+04 0.  0.
        5    1    3    3  502    0  0.46944914076E+03 -0.14731045204E+03 -0.12847172606E+04  0.13757192282E+04  0.46999998093E+01 0. -1.
       -5    1    3    3    0  502 -0.46944914076E+03  0.14731045204E+03  0.13972466259E+04  0.14813517774E+04  0.46999998093E+01 0.  1.
</event>
<event>
 5   0  0.1235252E-06  0.2831237E+04  0.7818609E-02  0.8293635E-01
        1   -1    0    0  501    0  0.00000000000E+00  0.00000000000E+00  0.13272901978E+04  0.13272901978E+04  0.50400001928E-02 0.  1.
       -1   -1    0    0    0  501  0.00000000000E+00  0.00000000000E+00 -0.15098253444E+04  0.15098253444E+04  0.50400001928E-02 0. -1.
    10030    2    1    2    0    0  0.00000000000E+00  0.00000000000E+00 -0.18253514654E+03  0.28371155422E+04  0.28312374538E+04 0.  0.
        1    1    3    3  502    0  0.96355217764E+03  0.84106676546E+03 -0.69928117354E+03  0.14576763230E+04  0.50400001928E-02 0. -1.
       -1    1    3    3    0  502 -0.96355217764E+03 -0.84106676546E+03  0.51674602699E+03  0.13794392192E+04  0.50400001928E-02 0.  1.
</event>
<event>
 5   0  0.3167616E-06  0.2800812E+04  0.7818609E-02  0.8303016E-01
        2   -1    0    0  501    0  0.00000000000E+00  0.00000000000E+00  0.15413824334E+04  0.15413824334E+04  0.25500000920E-02 0. -1.
       -2   -1    0    0    0  501  0.00000000000E+00  0.00000000000E+00 -0.12723231274E+04  0.12723231274E+04  0.25500000920E-02 0.  1.
    10030    2    1    2    0    0  0.00000000000E+00  0.00000000000E+00  0.26905930605E+03  0.28137055608E+04  0.28008116810E+04 0.  0.
        3    1    3    3  502    0 -0.57386257665E+02 -0.34761814995E+03 -0.12270714759E+04  0.12766502958E+04  0.10100000352E+00 0.  1.
       -3    1    3    3    0  502  0.57386257665E+02  0.34761814995E+03  0.14961307819E+04  0.15370552649E+04  0.10100000352E+00 0. -1.
</event>
<event>
 5   0  0.3167616E-06  0.2778286E+04  0.7818609E-02  0.8310042E-01
       -2   -1    0    0    0  501  0.00000000000E+00  0.00000000000E+00  0.11198877813E+04  0.11198877813E+04  0.25500000920E-02 0. -1.
        2   -1    0    0  501    0  0.00000000000E+00  0.00000000000E+00 -0.17231353449E+04  0.17231353449E+04  0.25500000920E-02 0.  1.
    10030    2    1    2    0    0  0.00000000000E+00  0.00000000000E+00 -0.60324756361E+03  0.28430231263E+04  0.27782859596E+04 0.  0.
        3    1    3    3  502    0 -0.60722693808E+03 -0.63404427290E+03  0.80002130703E+03  0.11877587281E+04  0.10100000352E+00 0. -1.
       -3    1    3    3    0  502  0.60722693808E+03  0.63404427290E+03 -0.14032688706E+04  0.16552643982E+04  0.10100000352E+00 0.  1.
</event>
<event>
 5   0  0.1243055E-06  0.2793818E+04  0.7818609E-02  0.8305190E-01
        1   -1    0    0  501    0  0.00000000000E+00  0.00000000000E+00  0.24077739571E+04  0.24077739571E+04  0.50400001928E-02 0.  1.
       -1   -1    0    0    0  501  0.00000000000E+00  0.00000000000E+00 -0.81043949624E+03  0.81043949626E+03  0.50400001928E-02 0. -1.
    10030    2    1    2    0    0  0.00000000000E+00  0.00000000000E+00  0.15973344608E+04  0.32182134533E+04  0.27938182567E+04 0.  0.
        5    1    3    3  502    0  0.12747128621E+04 -0.48866957147E+03  0.45765236554E+03  0.14398467310E+04  0.46999998093E+01 0. -1.
       -5    1    3    3    0  502 -0.12747128621E+04  0.48866957147E+03  0.11396820953E+04  0.17783667224E+04  0.46999998093E+01 0.  1.
</event>
<event>
 5   0  0.1263513E-06  0.2802845E+04  0.7818609E-02  0.8302386E-01
       -1   -1    0    0    0  501  0.00000000000E+00  0.00000000000E+00  0.10642131511E+04  0.10642131511E+04  0.50400001928E-02 0.  1.
        1   -1    0    0  501    0  0.00000000000E+00  0.00000000000E+00 -0.18454804317E+04  0.18454804318E+04  0.50400001928E-02 0. -1.
    10030    2    1    2    0    0  0.00000000000E+00  0.00000000000E+00 -0.78126728063E+03  0.29096935829E+04  0.28028446590E+04 0.  0.
        3    1    3    3  502    0 -0.52098982034E+03  0.11987304181E+04  0.13420795956E+03  0.13139241967E+04  0.10100000352E+00 0.  1.
       -3    1    3    3    0  502  0.52098982034E+03 -0.11987304181E+04 -0.91547524018E+03  0.15957693861E+04  0.10100000352E+00 0. -1.
</event>
<event>
 5   0  0.1263513E-06  0.2800907E+04  0.7818609E-02  0.8302987E-01
       -1   -1    0    0    0  501  0.00000000000E+00  0.00000000000E+00  0.91860501878E+03  0.91860501879E+03  0.50400001928E-02 0. -1.
        1   -1    0    0  501    0  0.00000000000E+00  0.00000000000E+00 -0.21350519474E+04  0.21350519474E+04  0.50400001928E-02 0.  1.
    10030    2    1    2    0    0  0.00000000000E+00  0.00000000000E+00 -0.12164469286E+04  0.30536569662E+04  0.28009065920E+04 0.  0.
        3    1    3    3  502    0 -0.52825912896E+03  0.11776967293E+04 -0.12006176514E+04  0.17628131066E+04  0.10100000352E+00 0.  1.
       -3    1    3    3    0  502  0.52825912896E+03 -0.11776967293E+04 -0.15829277167E+02  0.12908438596E+04  0.10100000352E+00 0. -1.
</event>
<event>
 5   0  0.3345919E-06  0.2794584E+04  0.7818609E-02  0.8304952E-01
        2   -1    0    0  501    0  0.00000000000E+00  0.00000000000E+00  0.10287478165E+04  0.10287478165E+04  0.25500000920E-02 0. -1.
       -2   -1    0    0    0  501  0.00000000000E+00  0.00000000000E+00 -0.18978650297E+04  0.18978650297E+04  0.25500000920E-02 0.  1.
    10030    2    1    2    0    0  0.00000000000E+00  0.00000000000E+00 -0.86911721328E+03  0.29266128462E+04  0.27945836937E+04 0.  0.
        2    1    3    3  502    0 -0.69560381242E+03 -0.90483170694E+03 -0.12787699463E+04  0.17140121521E+04  0.25500000920E-02 0.  1.
       -2    1    3    3    0  502  0.69560381242E+03  0.90483170694E+03  0.40965273307E+03  0.12126006941E+04  0.25500000920E-02 0. -1.
</event>
<event>
 5   0  0.3345919E-06  0.2798365E+04  0.7818609E-02  0.8303776E-01
        2   -1    0    0  501    0  0.00000000000E+00  0.00000000000E+00  0.21769422424E+04  0.21769422424E+04  0.25500000920E-02 0.  1.
       -2   -1    0    0    0  501  0.00000000000E+00  0.00000000000E+00 -0.89929421606E+03  0.89929421606E+03  0.25500000920E-02 0. -1.
    10030    2    1    2    0    0  0.00000000000E+00  0.00000000000E+00  0.12776480263E+04  0.30762364585E+04  0.27983649278E+04 0.  0.
        2    1    3    3  502    0  0.11654401836E+04  0.41077744983E+03 -0.82639233980E+02  0.12384741329E+04  0.25500000920E-02 0. -1.
       -2    1    3    3    0  502 -0.11654401836E+04 -0.41077744983E+03  0.13602872603E+04  0.18377623256E+04  0.25500000920E-02 0.  1.
</event>
<event>
 5   0  0.1220265E-06  0.2758162E+04  0.7818609E-02  0.8316376E-01
       -1   -1    0    0    0  501  0.00000000000E+00  0.00000000000E+00  0.12263794838E+04  0.12263794838E+04  0.50400001928E-02 0. -1.
        1   -1    0    0  501    0  0.00000000000E+00  0.00000000000E+00 -0.15507960705E+04  0.15507960705E+04  0.50400001928E-02 0.  1.
    10030    2    1    2    0    0  0.00000000000E+00  0.00000000000E+00 -0.32441658670E+03  0.27771755544E+04  0.27581620580E+04 0.  0.
        4    1    3    3  502    0 -0.11546053361E+03  0.84824548879E+03  0.92645332958E+03  0.12614154466E+04  0.12699999809E+01 0. -1.
       -4    1    3    3    0  502  0.11546053361E+03 -0.84824548879E+03 -0.12508699163E+04  0.15157601078E+04  0.12699999809E+01 0.  1.
</event>
<event>
 5   0  0.3162695E-06  0.2810000E+04  0.7818609E-02  0.8300171E-01
       -2   -1    0    0    0  501  0.00000000000E+00  0.00000000000E+00  0.14485985506E+04  0.14485985506E+04  0.25500000920E-02 0.  1.
        2   -1    0    0  501    0  0.00000000000E+00  0.00000000000E+00 -0.13627131833E+04  0.13627131833E+04  0.25500000920E-02 0. -1.
    10030    2    1    2    0    0  0.00000000000E+00  0.00000000000E+00  0.85885367295E+02  0.28113117339E+04  0.28099995318E+04 0.  0.
        1    1    3    3  502    0 -0.68631481014E+03  0.10659522121E+04  0.64881792204E+03  0.14241653110E+04  0.50400001928E-02 0.  1.
       -1    1    3    3    0  502  0.68631481014E+03 -0.10659522121E+04 -0.56293255474E+03  0.13871464228E+04  0.50400001928E-02 0. -1.
</event>
<event>
 5   0  0.3226364E-06  0.2629255E+04  0.7818609E-02  0.8358331E-01
       -2   -1    0    0    0  501  0.00000000000E+00  0.00000000000E+00  0.94349444873E+03  0.94349444874E+03  0.25500000920E-02 0.  1.
        2   -1    0    0  501    0  0.00000000000E+00  0.00000000000E+00 -0.18317488145E+04  0.18317488145E+04  0.25500000920E-02 0. -1.
    10030    2    1    2    0    0  0.00000000000E+00  0.00000000000E+00 -0.88825436580E+03  0.27752432633E+04  0.26292545240E+04 0.  0.
        5    1    3    3  502    0 -0.45555562234E+03 -0.68282683744E+03 -0.15280022500E+04  0.17345305938E+04  0.46999998093E+01 0. -1.
       -5    1    3    3    0  502  0.45555562234E+03  0.68282683744E+03  0.63974788420E+03  0.10407126694E+04  0.46999998093E+01 0.  1.
</event>
<event>
 5   0  0.3226364E-06  0.2791270E+04  0.7818609E-02  0.8305984E-01
       -2   -1    0    0    0  501  0.00000000000E+00  0.00000000000E+00  0.20694481454E+04  0.20694481454E+04  0.25500000920E-02 0. -1.
        2   -1    0    0  501    0  0.00000000000E+00  0.00000000000E+00 -0.94121544590E+03  0.94121544590E+03  0.25500000920E-02 0.  1.
    10030    2    1    2    0    0  0.00000000000E+00  0.00000000000E+00  0.11282326995E+04  0.30106635913E+04  0.27912696459E+04 0.  0.
        5    1    3    3  502    0  0.37379861337E+03 -0.12048712419E+04  0.12079731490E+04  0.17466142481E+04  0.46999998093E+01 0. -1.
       -5    1    3    3    0  502 -0.37379861337E+03  0.12048712419E+04 -0.79740449451E+02  0.12640493433E+04  0.46999998093E+01 0.  1.
</event>
<event>
 5   0  0.3345919E-06  0.2666719E+04  0.7818609E-02  0.8345885E-01
        2   -1    0    0  501    0  0.00000000000E+00  0.00000000000E+00  0.79859604240E+03  0.79859604241E+03  0.25500000920E-02 0.  1.
       -2   -1    0    0    0  501  0.00000000000E+00  0.00000000000E+00 -0.22262165923E+04  0.22262165923E+04  0.25500000920E-02 0. -1.
    10030    2    1    2    0    0  0.00000000000E+00  0.00000000000E+00 -0.14276205499E+04  0.30248126347E+04  0.26667191529E+04 0.  0.
        2    1    3    3  502    0  0.90214777329E+02 -0.85442407828E+03  0.44275101226E+03  0.96654418961E+03  0.25500000920E-02 0.  1.
       -2    1    3    3    0  502 -0.90214777329E+02  0.85442407828E+03 -0.18703715621E+04  0.20582684451E+04  0.25500000920E-02 0. -1.
</event>
<event>
 5   0  0.1065675E-06  0.2801357E+04  0.7818609E-02  0.8302847E-01
       -3   -1    0    0    0  501  0.00000000000E+00  0.00000000000E+00  0.12058566004E+04  0.12058566047E+04  0.10100000352E+00 0.  1.
        3   -1    0    0  501    0  0.00000000000E+00  0.00000000000E+00 -0.16269761669E+04  0.16269761700E+04  0.10100000352E+00 0. -1.
    10030    2    1    2    0    0  0.00000000000E+00  0.00000000000E+00 -0.42111956647E+03  0.28328327747E+04  0.28013567856E+04 0.  0.
        4    1    3    3  502    0  0.45170099961E+03 -0.11768213661E+04  0.40700330176E+03  0.13246114983E+04  0.12699999809E+01 0.  1.
       -4    1    3    3    0  502 -0.45170099961E+03  0.11768213661E+04 -0.82812286823E+03  0.15082212764E+04  0.12699999809E+01 0. -1.
</event>
<event>
 5   0  0.3167616E-06  0.2776064E+04  0.7818609E-02  0.8310738E-01
        2   -1    0    0  501    0  0.00000000000E+00  0.00000000000E+00  0.64319940810E+03  0.64319940810E+03  0.25500000920E-02 0. -1.
       -2   -1    0    0    0  501  0.00000000000E+00  0.00000000000E+00 -0.29953906088E+04  0.29953906088E+04  0.25500000920E-02 0.  1.
    10030    2    1    2    0    0  0.00000000000E+00  0.00000000000E+00 -0.23521912007E+04  0.36385900169E+04  0.27760644565E+04 0.  0.
        3    1    3    3  502    0  0.12392941781E+04  0.62480339778E+03 -0.11497472314E+04  0.18022619266E+04  0.10100000352E+00 0. -1.
       -3    1    3    3    0  502 -0.12392941781E+04 -0.62480339778E+03 -0.12024439693E+04  0.18363280903E+04  0.10100000352E+00 0.  1.
</event>
<event>
 5   0  0.1263513E-06  0.2813123E+04  0.7818609E-02  0.8299206E-01
        1   -1    0    0  501    0  0.00000000000E+00  0.00000000000E+00  0.13590020216E+04  0.13590020216E+04  0.50400001928E-02 0.  1.
       -1   -1    0    0    0  501  0.00000000000E+00  0.00000000000E+00 -0.14557856678E+04  0.14557856678E+04  0.50400001928E-02 0. -1.
    10030    2    1    2    0    0  0.00000000000E+00  0.00000000000E+00 -0.96783646182E+02  0.28147876894E+04  0.28131232931E+04 0.  0.
        3    1    3    3  502    0  0.74964570500E+03 -0.48317209977E+03 -0.11366895546E+04  0.14448138686E+04  0.10100000352E+00 0. -1.
       -3    1    3    3    0  502 -0.74964570500E+03  0.48317209977E+03  0.10399059085E+04  0.13699738208E+04  0.10100000352E+00 0.  1.
</event>
<event>
 5   0  0.3212679E-06  0.2834841E+04  0.7818609E-02  0.8292533E-01
        2   -1    0    0  501    0  0.00000000000E+00  0.00000000000E+00  0.17756431739E+04  0.17756431739E+04  0.25500000920E-02 0.  1.
       -2   -1    0    0    0  501  0.00000000000E+00  0.00000000000E+00 -0.11314661908E+04  0.11314661908E+04  0.25500000920E-02 0. -1.
    10030    2    1    2    0    0  0.00000000000E+00  0.00000000000E+00  0.64417698310E+03  0.29071093647E+04  0.28348405374E+04 0.  0.
        4    1    3    3  502    0 -0.81081754772E+02  0.90263404836E+02 -0.11261302809E+04  0.11326485578E+04  0.12699999809E+01 0. -1.
       -4    1    3    3    0  502  0.81081754772E+02 -0.90263404836E+02  0.17703072640E+04  0.17744608068E+04  0.12699999809E+01 0.  1.
</event>
<event>
 5   0  0.1246044E-06  0.2804450E+04  0.7818609E-02  0.8301888E-01
       -1   -1    0    0    0  501  0.00000000000E+00  0.00000000000E+00  0.12186123282E+04  0.12186123282E+04  0.50400001928E-02 0. -1.
        1   -1    0    0  501    0  0.00000000000E+00  0.00000000000E+00 -0.16135034919E+04  0.16135034920E+04  0.50400001928E-02 0.  1.
    10030    2    1    2    0    0  0.00000000000E+00  0.00000000000E+00 -0.39489116375E+03  0.28321158202E+04  0.28044502113E+04 0.  0.
        2    1    3    3  502    0 -0.25753114293E+03  0.40778561765E+03 -0.15271059121E+04  0.16014567951E+04  0.25500000920E-02 0.  1.
       -2    1    3    3    0  502  0.25753114293E+03 -0.40778561765E+03  0.11322147484E+04  0.12306590251E+04  0.25500000920E-02 0. -1.
</event>
<event>
 5   0  0.1235252E-06  0.2793335E+04  0.7818609E-02  0.8305341E-01
        1   -1    0    0  501    0  0.00000000000E+00  0.00000000000E+00  0.86051359678E+03  0.86051359680E+03  0.50400001928E-02 0. -1.
       -1   -1    0    0    0  501  0.00000000000E+00  0.00000000000E+00 -0.22668791488E+04  0.22668791488E+04  0.50400001928E-02 0.  1.
    10030    2    1    2    0    0  0.00000000000E+00  0.00000000000E+00 -0.14063655520E+04  0.31273927456E+04  0.27933351606E+04 0.  0.
        1    1    3    3  502    0  0.12788061272E+03 -0.11268534509E+04  0.20949206171E+03  0.11532732004E+04  0.50400001928E-02 0. -1.
       -1    1    3    3    0  502 -0.12788061272E+03  0.11268534509E+04 -0.16158576137E+04  0.19741195452E+04  0.50400001928E-02 0.  1.
</event>
<event>
 5   0  0.3226364E-06  0.2815469E+04  0.7818609E-02  0.8298482E-01
       -2   -1    0    0    0  501  0.00000000000E+00  0.00000000000E+00  0.98744876339E+03  0.98744876339E+03  0.25500000920E-02 0.  1.
        2   -1    0    0  501    0  0.00000000000E+00  0.00000000000E+00 -0.20069061565E+04  0.20069061565E+04  0.25500000920E-02 0. -1.
    10030    2    1    2    0    0  0.00000000000E+00  0.00000000000E+00 -0.10194573931E+04  0.29943549199E+04  0.28154694120E+04 0.  0.
        5    1    3    3  502    0  0.12628609718E+03  0.74941621996E+03 -0.17699734387E+04  0.19262400974E+04  0.46999998093E+01 0. -1.
       -5    1    3    3    0  502 -0.12628609718E+03 -0.74941621996E+03  0.75051604567E+03  0.10681148224E+04  0.46999998093E+01 0.  1.
</event>
<event>
 5   0  0.1243055E-06  0.2802374E+04  0.7818609E-02  0.8302532E-01
        1   -1    0    0  501    0  0.00000000000E+00  0.00000000000E+00  0.14236069227E+04  0.14236069227E+04  0.50400001928E-02 0.  1.
       -1   -1    0    0    0  501  0.00000000000E+00  0.00000000000E+00 -0.13791205819E+04  0.13791205819E+04  0.50400001928E-02 0. -1.
    10030    2    1    2    0    0  0.00000000000E+00  0.00000000000E+00  0.44486340757E+02  0.28027275046E+04  0.28023744273E+04 0.  0.
        5    1    3    3  502    0  0.30686849236E+03 -0.12930213076E+04 -0.42191991515E+03  0.13943137661E+04  0.46999998093E+01 0.  1.
       -5    1    3    3    0  502 -0.30686849236E+03  0.12930213076E+04  0.46640625591E+03  0.14084137386E+04  0.46999998093E+01 0. -1.
</event>
<event>
 5   0  0.3167616E-06  0.2799362E+04  0.7818609E-02  0.8303467E-01
        2   -1    0    0  501    0  0.00000000000E+00  0.00000000000E+00  0.11466540224E+04  0.11466540225E+04  0.25500000920E-02 0.  1.
       -2   -1    0    0    0  501  0.00000000000E+00  0.00000000000E+00 -0.17085419122E+04  0.17085419122E+04  0.25500000920E-02 0. -1.
    10030    2    1    2    0    0  0.00000000000E+00  0.00000000000E+00 -0.56188788976E+03  0.28551959347E+04  0.27993616816E+04 0.  0.
        3    1    3    3  502    0  0.97892460139E+03  0.98826666145E+03 -0.12246768426E+03  0.13964106535E+04  0.10100000352E+00 0.  1.
       -3    1    3    3    0  502 -0.97892460139E+03 -0.98826666145E+03 -0.43942020549E+03  0.14587852812E+04  0.10100000352E+00 0. -1.
</event>
<event>
 5   0  0.3162695E-06  0.2797545E+04  0.7818609E-02  0.8304031E-01
       -2   -1    0    0    0  501  0.00000000000E+00  0.00000000000E+00  0.15946219069E+04  0.15946219069E+04  0.25500000920E-02 0.  1.
        2   -1    0    0  501    0  0.00000000000E+00  0.00000000000E+00 -0.12269773905E+04  0.12269773905E+04  0.25500000920E-02 0. -1.
    10030    2    1    2    0    0  0.00000000000E+00  0.00000000000E+00  0.36764451641E+03  0.28215992974E+04  0.27975453713E+04 0.  0.
        1    1    3    3  502    0  0.13739319408E+04 -0.25726737885E+03  0.23612898341E+03  0.14176150320E+04  0.50400001928E-02 0.  1.
       -1    1    3    3    0  502 -0.13739319408E+04  0.25726737885E+03  0.13151553300E+03  0.14039842654E+04  0.50400001928E-02 0. -1.
</event>
<event>
 5   0  0.1246044E-06  0.2756432E+04  0.7818609E-02  0.8316924E-01
       -1   -1    0    0    0  501  0.00000000000E+00  0.00000000000E+00  0.15497696315E+04  0.15497696315E+04  0.50400001928E-02 0. -1.
        1   -1    0    0  501    0  0.00000000000E+00  0.00000000000E+00 -0.12256523530E+04  0.12256523530E+04  0.50400001928E-02 0.  1.
    10030    2    1    2    0    0  0.00000000000E+00  0.00000000000E+00  0.32411727853E+03  0.27754219845E+04  0.27564316029E+04 0.  0.
        2    1    3    3  502    0 -0.10203076446E+04 -0.57718621440E+03 -0.56771550414E+03  0.13024870477E+04  0.25500000920E-02 0. -1.
       -2    1    3    3    0  502  0.10203076446E+04  0.57718621440E+03  0.89183278266E+03  0.14729349368E+04  0.25500000920E-02 0.  1.
</event>
<event>
 5   0  0.1246044E-06  0.2789473E+04  0.7818609E-02  0.8306544E-01
        1   -1    0    0  501    0  0.00000000000E+00  0.00000000000E+00  0.12029336715E+04  0.12029336715E+04  0.50400001928E-02 0. -1.
       -1   -1    0    0    0  501  0.00000000000E+00  0.00000000000E+00 -0.16171214046E+04  0.16171214046E+04  0.50400001928E-02 0.  1.
    10030    2    1    2    0    0  0.00000000000E+00  0.00000000000E+00 -0.41418773314E+03  0.28200550761E+04  0.27894729169E+04 0.  0.
        2    1    3    3  502    0 -0.46014922173E+03  0.12752683404E+04 -0.53816415445E+03  0.14586525643E+04  0.25500000920E-02 0.  1.
       -2    1    3    3    0  502  0.46014922173E+03 -0.12752683404E+04  0.12397642131E+03  0.13614025118E+04  0.25500000920E-02 0. -1.
</event>
<event>
 5   0  0.3167616E-06  0.2799402E+04  0.7818609E-02  0.8303454E-01
       -2   -1    0    0    0  501  0.00000000000E+00  0.00000000000E+00  0.11609448123E+04  0.11609448123E+04  0.25500000920E-02 0.  1.
        2   -1    0    0  501    0  0.00000000000E+00  0.00000000000E+00 -0.16875591061E+04  0.16875591061E+04  0.25500000920E-02 0. -1.
    10030    2    1    2    0    0  0.00000000000E+00  0.00000000000E+00 -0.52661429380E+03  0.28485039185E+04  0.27994020717E+04 0.  0.
        3    1    3    3  502    0 -0.47372705423E+03  0.56648179160E+03 -0.14732149952E+04  0.16479324545E+04  0.10100000352E+00 0. -1.
       -3    1    3    3    0  502  0.47372705423E+03 -0.56648179160E+03  0.94660070141E+03  0.12005714640E+04  0.10100000352E+00 0.  1.
</event>
<event>
 5   0  0.3226364E-06  0.2795962E+04  0.7818609E-02  0.8304523E-01
        2   -1    0    0  501    0  0.00000000000E+00  0.00000000000E+00  0.19334811461E+04  0.19334811461E+04  0.25500000920E-02 0.  1.
       -2   -1    0    0    0  501  0.00000000000E+00  0.00000000000E+00 -0.10107936433E+04  0.10107936434E+04  0.25500000920E-02 0. -1.
    10030    2    1    2    0    0  0.00000000000E+00  0.00000000000E+00  0.92268750277E+03  0.29442747895E+04  0.27959616965E+04 0.  0.
        5    1    3    3  502    0 -0.10056652261E+03 -0.13565137036E+04  0.80107996306E+03  0.15786051599E+04  0.46999998093E+01 0.  1.
       -5    1    3    3    0  502  0.10056652261E+03  0.13565137036E+04  0.12160753971E+03  0.13656696296E+04  0.46999998093E+01 0. -1.
</event>
<event>
 5   0  0.1220265E-06  0.2760952E+04  0.7818609E-02  0.8315495E-01
       -1   -1    0    0    0  501  0.00000000000E+00  0.00000000000E+00  0.98675861969E+03  0.98675861971E+03  0.50400001928E-02 0.  1.
        1   -1    0    0  501    0  0.00000000000E+00  0.00000000000E+00 -0.19312873603E+04  0.19312873603E+04  0.50400001928E-02 0. -1.
    10030    2    1    2    0    0  0.00000000000E+00  0.00000000000E+00 -0.94452874063E+03  0.29180459800E+04  0.27609523356E+04 0.  0.
        4    1    3    3  502    0  0.69706627089E+03  0.76021005299E+03 -0.14420180711E+04  0.17729180581E+04  0.12699999809E+01 0.  1.
       -4    1    3    3    0  502 -0.69706627089E+03 -0.76021005299E+03  0.49748933045E+03  0.11451279219E+04  0.12699999809E+01 0. -1.
</event>
<event>
 5   0  0.1220265E-06  0.2793433E+04  0.7818609E-02  0.8305310E-01
       -1   -1    0    0    0  501  0.00000000000E+00  0.00000000000E+00  0.10962254632E+04  0.10962254633E+04  0.50400001928E-02 0.  1.
        1   -1    0    0  501    0  0.00000000000E+00  0.00000000000E+00 -0.17795764422E+04  0.17795764423E+04  0.50400001928E-02 0. -1.
    10030    2    1    2    0    0  0.00000000000E+00  0.00000000000E+00 -0.68335097901E+03  0.28758019055E+04  0.27934330204E+04 0.  0.
        4    1    3    3  502    0 -0.44408069796E+03 -0.13052666999E+04 -0.11173654198E+03  0.13832626258E+04  0.12699999809E+01 0.  1.
       -4    1    3    3    0  502  0.44408069796E+03  0.13052666999E+04 -0.57161443703E+03  0.14925392798E+04  0.12699999809E+01 0. -1.
</event>
<event>
 5   0  0.1235252E-06  0.2797575E+04  0.7818609E-02  0.8304022E-01
       -1   -1    0    0    0  501  0.00000000000E+00  0.00000000000E+00  0.14251730371E+04  0.14251730371E+04  0.50400001928E-02 0. -1.
        1   -1    0    0  501    0  0.00000000000E+00  0.00000000000E+00 -0.13728905529E+04  0.13728905529E+04  0.50400001928E-02 0.  1.
    10030    2    1    2    0    0  0.00000000000E+00  0.00000000000E+00  0.52282484216E+02  0.27980635901E+04  0.27975750921E+04 0.  0.
        1    1    3    3  502    0 -0.64838065342E+03 -0.15367405899E+03  0.12562313605E+04  0.14220163217E+04  0.50400001928E-02 0. -1.
       -1    1    3    3    0  502  0.64838065342E+03  0.15367405899E+03 -0.12039488763E+04  0.13760472684E+04  0.50400001928E-02 0.  1.
</event>
<event>
 5   0  0.1235252E-06  0.2796546E+04  0.7818609E-02  0.8304342E-01
       -1   -1    0    0    0  501  0.00000000000E+00  0.00000000000E+00  0.97083096906E+03  0.97083096908E+03  0.50400001928E-02 0. -1.
        1   -1    0    0  501    0  0.00000000000E+00  0.00000000000E+00 -0.20139107771E+04  0.20139107771E+04  0.50400001928E-02 0.  1.
    10030    2    1    2    0    0  0.00000000000E+00  0.00000000000E+00 -0.10430798080E+04  0.29847417461E+04  0.27965456916E+04 0.  0.
        1    1    3    3  502    0  0.13627478528E+04 -0.46576623220E+02 -0.19099531585E+03  0.13768552222E+04  0.50400001928E-02 0. -1.
       -1    1    3    3    0  502 -0.13627478528E+04  0.46576623220E+02 -0.85208449215E+03  0.16078865240E+04  0.50400001928E-02 0.  1.
</event>
<event>
 5   0  0.1246044E-06  0.2802293E+04  0.7818609E-02  0.8302557E-01
        1   -1    0    0  501    0  0.00000000000E+00  0.00000000000E+00  0.15321127013E+04  0.15321127013E+04  0.50400001928E-02 0. -1.
       -1   -1    0    0    0  501  0.00000000000E+00  0.00000000000E+00 -0.12813750808E+04  0.12813750808E+04  0.50400001928E-02 0.  1.
    10030    2    1    2    0    0  0.00000000000E+00  0.00000000000E+00  0.25073762050E+03  0.28134877821E+04  0.28022926588E+04 0.  0.
        2    1    3    3  502    0 -0.10114961743E+04 -0.94604488869E+03  0.33855076690E+03  0.14257426359E+04  0.25500000920E-02 0. -1.
       -2    1    3    3    0  502  0.10114961743E+04  0.94604488869E+03 -0.87813146391E+02  0.13877451462E+04  0.25500000920E-02 0.  1.
</event>
<event>
 5   0  0.1243055E-06  0.2819934E+04  0.7818609E-02  0.8297106E-01
        1   -1    0    0  501    0  0.00000000000E+00  0.00000000000E+00  0.10634072151E+04  0.10634072151E+04  0.50400001928E-02 0. -1.
       -1   -1    0    0    0  501  0.00000000000E+00  0.00000000000E+00 -0.18694697032E+04  0.18694697032E+04  0.50400001928E-02 0.  1.
    10030    2    1    2    0    0  0.00000000000E+00  0.00000000000E+00 -0.80606248805E+03  0.29328769183E+04  0.28199344467E+04 0.  0.
        5    1    3    3  502    0  0.11527769684E+04 -0.48069345087E+03 -0.10834701910E+04  0.16534481176E+04  0.46999998093E+01 0.  1.
       -5    1    3    3    0  502 -0.11527769684E+04  0.48069345087E+03  0.27740770298E+03  0.12794288008E+04  0.46999998093E+01 0. -1.
</event>
<event>
 5   0  0.1246044E-06  0.2790393E+04  0.7818609E-02  0.8306257E-01
       -1   -1    0    0    0  501  0.00000000000E+00  0.00000000000E+00  0.11852182950E+04  0.11852182950E+04  0.50400001928E-02 0.  1.
        1   -1    0    0  501    0  0.00000000000E+00  0.00000000000E+00 -0.16423754943E+04  0.16423754943E+04  0.50400001928E-02 0. -1.
    10030    2    1    2    0    0  0.00000000000E+00  0.00000000000E+00 -0.45715719937E+03  0.28275937893E+04  0.27903931502E+04 0.  0.
        2    1    3    3  502    0 -0.10519389450E+04 -0.30100574740E+03 -0.11057946651E+04  0.15556226552E+04  0.25500000920E-02 0. -1.
       -2    1    3    3    0  502  0.10519389450E+04  0.30100574740E+03  0.64863746576E+03  0.12719711341E+04  0.25500000920E-02 0.  1.
</event>
<event>
 5   0  0.3162695E-06  0.2810896E+04  0.7818609E-02  0.8299893E-01
       -2   -1    0    0    0  501  0.00000000000E+00  0.00000000000E+00  0.12355575489E+04  0.12355575489E+04  0.25500000920E-02 0.  1.
        2   -1    0    0  501    0  0.00000000000E+00  0.00000000000E+00 -0.15986989929E+04  0.15986989929E+04  0.25500000920E-02 0. -1.
    10030    2    1    2    0    0  0.00000000000E+00  0.00000000000E+00 -0.36314144404E+03  0.28342565418E+04  0.28108963759E+04 0.  0.
        1    1    3    3  502    0 -0.29065275106E+03  0.13747263934E+04 -0.15077296991E+03  0.14131822836E+04  0.50400001928E-02 0. -1.
       -1    1    3    3    0  502  0.29065275106E+03 -0.13747263934E+04 -0.21236847413E+03  0.14210742581E+04  0.50400001928E-02 0.  1.
</event>
<event>
 5   0  0.3162695E-06  0.2812147E+04  0.7818609E-02  0.8299507E-01
       -2   -1    0    0    0  501  0.00000000000E+00  0.00000000000E+00  0.15965860720E+04  0.15965860720E+04  0.25500000920E-02 0. -1.
        2   -1    0    0  501    0  0.00000000000E+00  0.00000000000E+00 -0.12382941330E+04  0.12382941330E+04  0.25500000920E-02 0.  1.
    10030    2    1    2    0    0  0.00000000000E+00  0.00000000000E+00  0.35829193906E+03  0.28348802050E+04  0.28121473402E+04 0.  0.
        1    1    3    3  502    0 -0.13410044754E+03 -0.10426846580E+04  0.11204333646E+04  0.15364065708E+04  0.50400001928E-02 0. -1.
       -1    1    3    3    0  502  0.13410044754E+03  0.10426846580E+04 -0.76214142558E+03  0.12984736342E+04  0.50400001928E-02 0.  1.
</event>
<event>
 5   0  0.3345919E-06  0.2790309E+04  0.7818609E-02  0.8306283E-01
        2   -1    0    0  501    0  0.00000000000E+00  0.00000000000E+00  0.10926190993E+04  0.10926190993E+04  0.25500000920E-02 0. -1.
       -2   -1    0    0    0  501  0.00000000000E+00  0.00000000000E+00 -0.17814588040E+04  0.17814588040E+04  0.25500000920E-02 0.  1.
    10030    2    1    2    0    0  0.00000000000E+00  0.00000000000E+00 -0.68883970469E+03  0.28740779033E+04  0.27903088817E+04 0.  0.
        2    1    3    3  502    0 -0.74873368229E+03  0.98260134306E+03  0.32338711697E+03  0.12769834587E+04  0.25500000920E-02 0. -1.
       -2    1    3    3    0  502  0.74873368229E+03 -0.98260134306E+03 -0.10122268217E+04  0.15970944446E+04  0.25500000920E-02 0.  1.
</event>
<event>
 5   0  0.1220265E-06  0.2798795E+04  0.7818609E-02  0.8303642E-01
       -1   -1    0    0    0  501  0.00000000000E+00  0.00000000000E+00  0.13599183021E+04  0.13599183021E+04  0.50400001928E-02 0. -1.
        1   -1    0    0  501    0  0.00000000000E+00  0.00000000000E+00 -0.14400230207E+04  0.14400230207E+04  0.50400001928E-02 0.  1.
    10030    2    1    2    0    0  0.00000000000E+00  0.00000000000E+00 -0.80104718563E+02  0.27999413228E+04  0.27987952131E+04 0.  0.
        4    1    3    3  502    0 -0.11583280289E+04 -0.71576595269E+03  0.28298438697E+03  0.13907287650E+04  0.12699999809E+01 0. -1.
       -4    1    3    3    0  502  0.11583280289E+04  0.71576595269E+03 -0.36308910554E+03  0.14092125578E+04  0.12699999809E+01 0.  1.
</event>
<event>
 5   0  0.1220265E-06  0.2797001E+04  0.7818609E-02  0.8304200E-01
       -1   -1    0    0    0  501  0.00000000000E+00  0.00000000000E+00  0.11758417726E+04  0.11758417726E+04  0.50400001928E-02 0.  1.
        1   -1    0    0  501    0  0.00000000000E+00  0.00000000000E+00 -0.16633215592E+04  0.16633215593E+04  0.50400001928E-02 0. -1.
    10030    2    1    2    0    0  0.00000000000E+00  0.00000000000E+00 -0.48747978663E+03  0.28391633319E+04  0.27970005153E+04 0.  0.
        4    1    3    3  502    0 -0.41354363012E+03  0.11858967675E+04 -0.86818129362E+03  0.15267972520E+04  0.12699999809E+01 0. -1.
       -4    1    3    3    0  502  0.41354363012E+03 -0.11858967675E+04  0.38070150699E+03  0.13123660799E+04  0.12699999809E+01 0.  1.
</event>
<event>
 5   0  0.1235252E-06  0.2798390E+04  0.7818609E-02  0.8303768E-01
        1   -1    0    0  501    0  0.00000000000E+00  0.00000000000E+00  0.71937215591E+03  0.71937215592E+03  0.50400001928E-02 0. -1.
       -1   -1    0    0    0  501  0.00000000000E+00  0.00000000000E+00 -0.27214655584E+04  0.27214655584E+04  0.50400001928E-02 0.  1.
    10030    2    1    2    0    0  0.00000000000E+00  0.00000000000E+00 -0.20020934025E+04  0.34408377144E+04  0.27983899271E+04 0.  0.
        1    1    3    3  502    0  0.56378552224E+03  0.10591334566E+04 -0.11598243397E+03  0.12054334154E+04  0.50400001928E-02 0.  1.
       -1    1    3    3    0  502 -0.56378552224E+03 -0.10591334566E+04 -0.18861109685E+04  0.22354042989E+04  0.50400001928E-02 0. -1.
</event>
<event>
 5   0  0.1246044E-06  0.2775363E+04  0.7818609E-02  0.8310958E-01
        1   -1    0    0  501    0  0.00000000000E+00  0.00000000000E+00  0.18194037271E+04  0.18194037271E+04  0.50400001928E-02 0.  1.
       -1   -1    0    0    0  501  0.00000000000E+00  0.00000000000E+00 -0.10584017621E+04  0.10584017621E+04  0.50400001928E-02 0. -1.
    10030    2    1    2    0    0  0.00000000000E+00  0.00000000000E+00  0.76100196492E+03  0.28778054892E+04  0.27753631191E+04 0.  0.
        2    1    3    3  502    0 -0.19257303073E+03 -0.39614779989E+03 -0.98399028919E+03  0.10780790049E+04  0.25500000920E-02 0. -1.
       -2    1    3    3    0  502  0.19257303073E+03  0.39614779989E+03  0.17449922541E+04  0.17997264843E+04  0.25500000920E-02 0.  1.
</event>
<event>
 5   0  0.1246044E-06  0.2824424E+04  0.7818609E-02  0.8295726E-01
        1   -1    0    0  501    0  0.00000000000E+00  0.00000000000E+00  0.20162850737E+04  0.20162850737E+04  0.50400001928E-02 0. -1.
       -1   -1    0    0    0  501  0.00000000000E+00  0.00000000000E+00 -0.98911729998E+03  0.98911729999E+03  0.50400001928E-02 0.  1.
    10030    2    1    2    0    0  0.00000000000E+00  0.00000000000E+00  0.10271677737E+04  0.30054023737E+04  0.28244237983E+04 0.  0.
        2    1    3    3  502    0  0.11203675143E+04  0.25548484692E+03  0.13870645100E+04  0.18012339740E+04  0.25500000920E-02 0. -1.
       -2    1    3    3    0  502 -0.11203675143E+04 -0.25548484692E+03 -0.35989673623E+03  0.12041683997E+04  0.25500000920E-02 0.  1.
</event>
<event>
 5   0  0.3167616E-06  0.2779135E+04  0.7818609E-02  0.8309776E-01
       -2   -1    0    0    0  501  0.00000000000E+00  0.00000000000E+00  0.81491657438E+03  0.81491657438E+03  0.25500000920E-02 0.  1.
        2   -1    0    0  501    0  0.00000000000E+00  0.00000000000E+00 -0.23694423676E+04  0.23694423676E+04  0.25500000920E-02 0. -1.
    10030    2    1    2    0    0  0.00000000000E+00  0.00000000000E+00 -0.15545257932E+04  0.31843589419E+04  0.27791350146E+04 0.  0.
        3    1    3    3  502    0  0.96121267458E+03  0.69410521547E+03  0.53101914049E+02  0.11868157732E+04  0.10100000352E+00 0.  1.
       -3    1    3    3    0  502 -0.96121267458E+03 -0.69410521547E+03 -0.16076277072E+04  0.19975431688E+04  0.10100000352E+00 0. -1.
</event>
<event>
 5   0  0.3162695E-06  0.2803207E+04  0.7818609E-02  0.8302274E-01
        2   -1    0    0  501    0  0.00000000000E+00  0.00000000000E+00  0.14250259755E+04  0.14250259755E+04  0.25500000920E-02 0. -1.
       -2   -1    0    0    0  501  0.00000000000E+00  0.00000000000E+00 -0.13785655865E+04  0.13785655865E+04  0.25500000920E-02 0.  1.
    10030    2    1    2    0    0  0.00000000000E+00  0.00000000000E+00  0.46460389048E+02  0.28035915620E+04  0.28032065708E+04 0.  0.
        1    1    3    3  502    0  0.36740733924E+03 -0.24899351468E+03 -0.13064281739E+04  0.13797610289E+04  0.50400001928E-02 0.  1.
       -1    1    3    3    0  502 -0.36740733924E+03  0.24899351468E+03  0.13528885629E+04  0.14238305331E+04  0.50400001928E-02 0. -1.
</event>
<event>
 5   0  0.3167616E-06  0.2639338E+04  0.7818609E-02  0.8354960E-01
        2   -1    0    0  501    0  0.00000000000E+00  0.00000000000E+00  0.58522098389E+03  0.58522098389E+03  0.25500000920E-02 0. -1.
       -2   -1    0    0    0  501  0.00000000000E+00  0.00000000000E+00 -0.29758437783E+04  0.29758437783E+04  0.25500000920E-02 0.  1.
    10030    2    1    2    0    0  0.00000000000E+00  0.00000000000E+00 -0.23906227944E+04  0.35610647622E+04  0.26393379654E+04 0.  0.
        3    1    3    3  502    0  0.90462043724E+03  0.91100469521E+03 -0.16073416784E+04  0.20571375674E+04  0.10100000352E+00 0.  1.
       -3    1    3    3    0  502 -0.90462043724E+03 -0.91100469521E+03 -0.78328111604E+03  0.15039271947E+04  0.10100000352E+00 0. -1.
</event>
<event>
 5   0  0.1235252E-06  0.2805007E+04  0.7818609E-02  0.8301716E-01
        1   -1    0    0  501    0  0.00000000000E+00  0.00000000000E+00  0.21277639434E+04  0.21277639434E+04  0.50400001928E-02 0.  1.
       -1   -1    0    0    0  501  0.00000000000E+00  0.00000000000E+00 -0.92445191990E+03  0.92445191992E+03  0.50400001928E-02 0. -1.
    10030    2    1    2    0    0  0.00000000000E+00  0.00000000000E+00  0.12033120235E+04  0.30522158633E+04  0.28050065687E+04 0.  0.
        1    1    3    3  502    0 -0.13497098921E+04 -0.10344960234E+03  0.10008636201E+04  0.16834923817E+04  0.50400001928E-02 0. -1.
       -1    1    3    3    0  502  0.13497098921E+04  0.10344960234E+03  0.20244840342E+03  0.13687234817E+04  0.50400001928E-02 0.  1.
</event>
<event>
 5   0  0.3345919E-06  0.2815255E+04  0.7818609E-02  0.8298548E-01
        2   -1    0    0  501    0  0.00000000000E+00  0.00000000000E+00  0.89784206332E+03  0.89784206332E+03  0.25500000920E-02 0. -1.
       -2   -1    0    0    0  501  0.00000000000E+00  0.00000000000E+00 -0.22068633550E+04  0.22068633550E+04  0.25500000920E-02 0.  1.
    10030    2    1    2    0    0  0.00000000000E+00  0.00000000000E+00 -0.13090212916E+04  0.31047054183E+04  0.28152546940E+04 0.  0.
        2    1    3    3  502    0  0.68856688887E+03 -0.82900341987E+03  0.34415753135E+03  0.11312892809E+04  0.25500000920E-02 0. -1.
       -2    1    3    3    0  502 -0.68856688887E+03  0.82900341987E+03 -0.16531788230E+04  0.19734161374E+04  0.25500000920E-02 0.  1.
</event>
<event>
 5   0  0.3345919E-06  0.2794646E+04  0.7818609E-02  0.8304932E-01
        2   -1    0    0  501    0  0.00000000000E+00  0.00000000000E+00  0.15931686860E+04  0.15931686860E+04  0.25500000920E-02 0. -1.
       -2   -1    0    0    0  501  0.00000000000E+00  0.00000000000E+00 -0.12255526148E+04  0.12255526148E+04  0.25500000920E-02 0.  1.
    10030    2    1    2    0    0  0.00000000000E+00  0.00000000000E+00  0.36761607119E+03  0.28187213007E+04  0.27946463453E+04 0.  0.
        2    1    3    3  502    0  0.30260383461E+03  0.29482931061E+03 -0.11595889533E+04  0.12341555590E+04  0.25500000920E-02 0.  1.
       -2    1    3    3    0  502 -0.30260383461E+03 -0.29482931061E+03  0.15272050245E+04  0.15845657418E+04  0.25500000920E-02 0. -1.
</event>
<event>
 5   0  0.1235252E-06  0.2771822E+04  0.7818609E-02  0.8312070E-01
       -1   -1    0    0    0  501  0.00000000000E+00  0.00000000000E+00  0.10733728230E+04  0.10733728230E+04  0.50400001928E-02 0. -1.
        1   -1    0    0  501    0  0.00000000000E+00  0.00000000000E+00 -0.17894519381E+04  0.17894519381E+04  0.50400001928E-02 0.  1.
    10030    2    1    2    0    0  0.00000000000E+00  0.00000000000E+00 -0.71607911507E+03  0.28628247611E+04  0.27718218402E+04 0.  0.
        1    1    3    3  502    0  0.13184829021E+03 -0.10097588118E+04 -0.13289847560E+04  0.16742751600E+04  0.50400001928E-02 0.  1.
       -1    1    3    3    0  502 -0.13184829021E+03  0.10097588118E+04  0.61290564092E+03  0.11885496011E+04  0.50400001928E-02 0. -1.
</event>
<event>
 5   0  0.1220265E-06  0.2809643E+04  0.7818609E-02  0.8300281E-01
       -1   -1    0    0    0  501  0.00000000000E+00  0.00000000000E+00  0.10525008270E+04  0.10525008270E+04  0.50400001928E-02 0. -1.
        1   -1    0    0  501    0  0.00000000000E+00  0.00000000000E+00 -0.18750799384E+04  0.18750799384E+04  0.50400001928E-02 0.  1.
    10030    2    1    2    0    0  0.00000000000E+00  0.00000000000E+00 -0.82257911139E+03  0.29275807654E+04  0.28096428142E+04 0.  0.
        4    1    3    3  502    0  0.27368962238E+01  0.62135539022E+03  0.90153072843E+03  0.10949197590E+04  0.12699999809E+01 0. -1.
       -4    1    3    3    0  502 -0.27368962238E+01 -0.62135539022E+03 -0.17241098398E+04  0.18326610064E+04  0.12699999809E+01 0.  1.
</event>
<event>
 5   0  0.1243055E-06  0.2800774E+04  0.7818609E-02  0.8303028E-01
        1   -1    0    0  501    0  0.00000000000E+00  0.00000000000E+00  0.27546300072E+04  0.27546300072E+04  0.50400001928E-02 0.  1.
       -1   -1    0    0    0  501  0.00000000000E+00  0.00000000000E+00 -0.71192281930E+03  0.71192281932E+03  0.50400001928E-02 0. -1.
    10030    2    1    2    0    0  0.00000000000E+00  0.00000000000E+00  0.20427071879E+04  0.34665528265E+04  0.28007741507E+04 0.  0.
        5    1    3    3  502    0 -0.12891134467E+04 -0.45138701546E+03  0.14038410731E+04  0.19586616769E+04  0.46999998093E+01 0.  1.
       -5    1    3    3    0  502  0.12891134467E+04  0.45138701546E+03  0.63886611479E+03  0.15078911495E+04  0.46999998093E+01 0. -1.
</event>
<event>
 5   0  0.3212679E-06  0.2786222E+04  0.7818609E-02  0.8307559E-01
       -2   -1    0    0    0  501  0.00000000000E+00  0.00000000000E+00  0.95580869270E+03  0.95580869270E+03  0.25500000920E-02 0. -1.
        2   -1    0    0  501    0  0.00000000000E+00  0.00000000000E+00 -0.20304880575E+04  0.20304880575E+04  0.25500000920E-02 0.  1.
    10030    2    1    2    0    0  0.00000000000E+00  0.00000000000E+00 -0.10746793648E+04  0.29862967502E+04  0.27862219120E+04 0.  0.
        4    1    3    3  502    0 -0.79053101844E+02 -0.89486781428E+03  0.60388174710E+03  0.10824567314E+04  0.12699999809E+01 0. -1.
       -4    1    3    3    0  502  0.79053101844E+02  0.89486781428E+03 -0.16785611119E+04  0.19038400188E+04  0.12699999809E+01 0.  1.
</event>
<event>
 5   0  0.1243055E-06  0.2788595E+04  0.7818609E-02  0.8306818E-01
       -1   -1    0    0    0  501  0.00000000000E+00  0.00000000000E+00  0.10941487559E+04  0.10941487559E+04  0.50400001928E-02 0. -1.
        1   -1    0    0  501    0  0.00000000000E+00  0.00000000000E+00 -0.17767834286E+04  0.17767834286E+04  0.50400001928E-02 0.  1.
    10030    2    1    2    0    0  0.00000000000E+00  0.00000000000E+00 -0.68263467267E+03  0.28709321845E+04  0.27885948991E+04 0.  0.
        5    1    3    3  502    0 -0.76030368466E+02 -0.10135977095E+04  0.64126431477E+03  0.12018331602E+04  0.46999998093E+01 0. -1.
       -5    1    3    3    0  502  0.76030368466E+02  0.10135977095E+04 -0.13238989874E+04  0.16690990242E+04  0.46999998093E+01 0.  1.
</event>
<event>
 5   0  0.3167616E-06  0.2809120E+04  0.7818609E-02  0.8300443E-01
       -2   -1    0    0    0  501  0.00000000000E+00  0.00000000000E+00  0.13095380820E+04  0.13095380820E+04  0.25500000920E-02 0. -1.
        2   -1    0    0  501    0  0.00000000000E+00  0.00000000000E+00 -0.15064765830E+04  0.15064765830E+04  0.25500000920E-02 0.  1.
    10030    2    1    2    0    0  0.00000000000E+00  0.00000000000E+00 -0.19693850105E+03  0.28160146650E+04  0.28091197589E+04 0.  0.
        3    1    3    3  502    0 -0.12640066339E+04  0.14663951584E+01  0.51546641258E+03  0.13650716295E+04  0.10100000352E+00 0. -1.
       -3    1    3    3    0  502  0.12640066339E+04 -0.14663951584E+01 -0.71240491363E+03  0.14509430355E+04  0.10100000352E+00 0.  1.
</event>
<event>
 5   0  0.1243055E-06  0.2796910E+04  0.7818609E-02  0.8304228E-01
       -1   -1    0    0    0  501  0.00000000000E+00  0.00000000000E+00  0.11591189048E+04  0.11591189048E+04  0.50400001928E-02 0. -1.
        1   -1    0    0  501    0  0.00000000000E+00  0.00000000000E+00 -0.16872089688E+04  0.16872089688E+04  0.50400001928E-02 0.  1.
    10030    2    1    2    0    0  0.00000000000E+00  0.00000000000E+00 -0.52809006399E+03  0.28463278737E+04  0.27969095889E+04 0.  0.
        5    1    3    3  502    0 -0.12600777211E+04 -0.59021162643E+03 -0.12190581148E+03  0.13967923052E+04  0.46999998093E+01 0. -1.
       -5    1    3    3    0  502  0.12600777211E+04  0.59021162643E+03 -0.40618425251E+03  0.14495355684E+04  0.46999998093E+01 0.  1.
</event>
<event>
 5   0  0.1263513E-06  0.2809711E+04  0.7818609E-02  0.8300260E-01
       -1   -1    0    0    0  501  0.00000000000E+00  0.00000000000E+00  0.12507399037E+04  0.12507399037E+04  0.50400001928E-02 0.  1.
        1   -1    0    0  501    0  0.00000000000E+00  0.00000000000E+00 -0.15779607358E+04  0.15779607359E+04  0.50400001928E-02 0. -1.
    10030    2    1    2    0    0  0.00000000000E+00  0.00000000000E+00 -0.32722083213E+03  0.28287006396E+04  0.28097106320E+04 0.  0.
        3    1    3    3  502    0 -0.12674133019E+04 -0.58250512568E+03 -0.33198234235E+03  0.14338273903E+04  0.10100000352E+00 0. -1.
       -3    1    3    3    0  502  0.12674133019E+04  0.58250512568E+03  0.47615102207E+01  0.13948732493E+04  0.10100000352E+00 0.  1.
</event>
<event>
 5   0  0.1263513E-06  0.2808728E+04  0.7818609E-02  0.8300564E-01
       -1   -1    0    0    0  501  0.00000000000E+00  0.00000000000E+00  0.12563267566E+04  0.12563267567E+04  0.50400001928E-02 0. -1.
        1   -1    0    0  501    0  0.00000000000E+00  0.00000000000E+00 -0.15698445123E+04  0.15698445123E+04  0.50400001928E-02 0.  1.
    10030    2    1    2    0    0  0.00000000000E+00  0.00000000000E+00 -0.31351775569E+03  0.28261712690E+04  0.28087275871E+04 0.  0.
        3    1    3    3  502    0  0.84542391243E+03  0.57422741927E+03  0.81242555455E+03  0.13055703783E+04  0.10100000352E+00 0. -1.
       -3    1    3    3    0  502 -0.84542391243E+03 -0.57422741927E+03 -0.11259433102E+04  0.15206008907E+04  0.10100000352E+00 0.  1.
</event>
<event>
 5   0  0.1065675E-06  0.2852691E+04  0.7818609E-02  0.8287094E-01
        3   -1    0    0  501    0  0.00000000000E+00  0.00000000000E+00  0.19688222707E+04  0.19688222733E+04  0.10100000352E+00 0.  1.
       -3   -1    0    0    0  501  0.00000000000E+00  0.00000000000E+00 -0.10333394961E+04  0.10333395010E+04  0.10100000352E+00 0. -1.
    10030    2    1    2    0    0  0.00000000000E+00  0.00000000000E+00  0.93548277460E+03  0.30021617743E+04  0.28526912377E+04 0.  0.
        2    1    3    3  502    0  0.81822904189E+03 -0.41118673167E+03  0.16186071576E+04  0.18596941748E+04  0.25500000920E-02 0.  1.
       -2    1    3    3    0  502 -0.81822904189E+03  0.41118673167E+03 -0.68312438299E+03  0.11424675995E+04  0.25500000920E-02 0. -1.
</event>
<event>
 5   0  0.3212679E-06  0.2787815E+04  0.7818609E-02  0.8307061E-01
       -2   -1    0    0    0  501  0.00000000000E+00  0.00000000000E+00  0.99640231859E+03  0.99640231859E+03  0.25500000920E-02 0.  1.
        2   -1    0    0  501    0  0.00000000000E+00  0.00000000000E+00 -0.19499942377E+04  0.19499942377E+04  0.25500000920E-02 0. -1.
    10030    2    1    2    0    0  0.00000000000E+00  0.00000000000E+00 -0.95359191916E+03  0.29463965563E+04  0.27878154743E+04 0.  0.
        4    1    3    3  502    0  0.77326522503E+03 -0.11380510577E+04 -0.24075844624E+03  0.13968054841E+04  0.12699999809E+01 0. -1.
       -4    1    3    3    0  502 -0.77326522503E+03  0.11380510577E+04 -0.71283347292E+03  0.15495910722E+04  0.12699999809E+01 0.  1.
</event>
<event>
 5   0  0.3167616E-06  0.2801665E+04  0.7818609E-02  0.8302752E-01
       -2   -1    0    0    0  501  0.00000000000E+00  0.00000000000E+00  0.87922676445E+03  0.87922676445E+03  0.25500000920E-02 0.  1.
        2   -1    0    0  501    0  0.00000000000E+00  0.00000000000E+00 -0.22318838123E+04  0.22318838123E+04  0.25500000920E-02 0. -1.
    10030    2    1    2    0    0  0.00000000000E+00  0.00000000000E+00 -0.13526570478E+04  0.31111105767E+04  0.28016652069E+04 0.  0.
        3    1    3    3  502    0  0.45733008049E+03 -0.27761475556E+03 -0.21139701097E+04  0.21806169746E+04  0.10100000352E+00 0. -1.
       -3    1    3    3    0  502 -0.45733008049E+03  0.27761475556E+03  0.76131306193E+03  0.93049360207E+03  0.10100000352E+00 0.  1.
</event>
<event>
 5   0  0.3345919E-06  0.2797627E+04  0.7818609E-02  0.8304005E-01
       -2   -1    0    0    0  501  0.00000000000E+00  0.00000000000E+00  0.12698295597E+04  0.12698295597E+04  0.25500000920E-02 0. -1.
        2   -1    0    0  501    0  0.00000000000E+00  0.00000000000E+00 -0.15408991449E+04  0.15408991449E+04  0.25500000920E-02 0.  1.
    10030    2    1    2    0    0  0.00000000000E+00  0.00000000000E+00 -0.27106958512E+03  0.28107287046E+04  0.27976270536E+04 0.  0.
        2    1    3    3  502    0 -0.84928237114E+03 -0.85378303189E+03  0.57945328538E+03  0.13364101621E+04  0.25500000920E-02 0. -1.
       -2    1    3    3    0  502  0.84928237114E+03  0.85378303189E+03 -0.85052287050E+03  0.14743185425E+04  0.25500000920E-02 0.  1.
</event>
<event>
 5   0  0.3162695E-06  0.2820166E+04  0.7818609E-02  0.8297035E-01
        2   -1    0    0  501    0  0.00000000000E+00  0.00000000000E+00  0.95251962363E+03  0.95251962364E+03  0.25500000920E-02 0.  1.
       -2   -1    0    0    0  501  0.00000000000E+00  0.00000000000E+00 -0.20874470537E+04  0.20874470537E+04  0.25500000920E-02 0. -1.
    10030    2    1    2    0    0  0.00000000000E+00  0.00000000000E+00 -0.11349274301E+04  0.30399666773E+04  0.28201661525E+04 0.  0.
        1    1    3    3  502    0  0.15871231424E+02  0.64083009243E+03 -0.19213047878E+04  0.20254202505E+04  0.50400001928E-02 0. -1.
       -1    1    3    3    0  502 -0.15871231424E+02 -0.64083009243E+03  0.78637735777E+03  0.10145464268E+04  0.50400001928E-02 0.  1.
</event>
<event>
 5   0  0.3226364E-06  0.2808757E+04  0.7818609E-02  0.8300555E-01
        2   -1    0    0  501    0  0.00000000000E+00  0.00000000000E+00  0.23669076980E+04  0.23669076980E+04  0.25500000920E-02 0.  1.
       -2   -1    0    0    0  501  0.00000000000E+00  0.00000000000E+00 -0.83327251949E+03  0.83327251949E+03  0.25500000920E-02 0. -1.
    10030    2    1    2    0    0  0.00000000000E+00  0.00000000000E+00  0.15336351785E+04  0.32001802175E+04  0.28087571208E+04 0.  0.
        5    1    3    3  502    0  0.66103647932E+03  0.19336790292E+03 -0.62762673378E+03  0.93182497274E+03  0.46999998093E+01 0. -1.
       -5    1    3    3    0  502 -0.66103647932E+03 -0.19336790292E+03  0.21612619123E+04  0.22683552448E+04  0.46999998093E+01 0.  1.
</event>
<event>
 5   0  0.3167616E-06  0.2778213E+04  0.7818609E-02  0.8310064E-01
        2   -1    0    0  501    0  0.00000000000E+00  0.00000000000E+00  0.18106807962E+04  0.18106807962E+04  0.25500000920E-02 0.  1.
       -2   -1    0    0    0  501  0.00000000000E+00  0.00000000000E+00 -0.10656859199E+04  0.10656859199E+04  0.25500000920E-02 0. -1.
    10030    2    1    2    0    0  0.00000000000E+00  0.00000000000E+00  0.74499487634E+03  0.28763667161E+04  0.27782131164E+04 0.  0.
        3    1    3    3  502    0 -0.89946184426E+03  0.12213140774E+03  0.14611550882E+04  0.17201517061E+04  0.10100000352E+00 0.  1.
       -3    1    3    3    0  502  0.89946184426E+03 -0.12213140774E+03 -0.71616021189E+03  0.11562150100E+04  0.10100000352E+00 0. -1.
</event>
<event>
 5   0  0.1263513E-06  0.2793637E+04  0.7818609E-02  0.8305246E-01
        1   -1    0    0  501    0  0.00000000000E+00  0.00000000000E+00  0.28394122045E+04  0.28394122045E+04  0.50400001928E-02 0.  1.
       -1   -1    0    0    0  501  0.00000000000E+00  0.00000000000E+00 -0.68715009115E+03  0.68715009116E+03  0.50400001928E-02 0. -1.
    10030    2    1    2    0    0  0.00000000000E+00  0.00000000000E+00  0.21522621133E+04  0.35265622956E+04  0.27936373101E+04 0.  0.
        3    1    3    3  502    0  0.92292815208E+03 -0.19568669581E+03  0.23764258586E+04  0.25568514873E+04  0.10100000352E+00 0.  1.
       -3    1    3    3    0  502 -0.92292815208E+03  0.19568669581E+03 -0.22416374526E+03  0.96971080829E+03  0.10100000352E+00 0. -1.
</event>
<event>
 5   0  0.1263513E-06  0.2797917E+04  0.7818609E-02  0.8303915E-01
        1   -1    0    0  501    0  0.00000000000E+00  0.00000000000E+00  0.20793862896E+04  0.20793862896E+04  0.50400001928E-02 0. -1.
       -1   -1    0    0    0  501  0.00000000000E+00  0.00000000000E+00 -0.94118417516E+03  0.94118417518E+03  0.50400001928E-02 0.  1.
    10030    2    1    2    0    0  0.00000000000E+00  0.00000000000E+00  0.11382021144E+04  0.30205704648E+04  0.27979174183E+04 0.  0.
        3    1    3    3  502    0 -0.41170823284E+03 -0.13161413793E+04  0.82309727649E+03  0.16059953101E+04  0.10100000352E+00 0.  1.
       -3    1    3    3    0  502  0.41170823284E+03  0.13161413793E+04  0.31510483794E+03  0.14145751547E+04  0.10100000352E+00 0. -1.
</event>
<event>
 5   0  0.1243055E-06  0.2798353E+04  0.7818609E-02  0.8303780E-01
        1   -1    0    0  501    0  0.00000000000E+00  0.00000000000E+00  0.18019170276E+04  0.18019170276E+04  0.50400001928E-02 0.  1.
       -1   -1    0    0    0  501  0.00000000000E+00  0.00000000000E+00 -0.10864515079E+04  0.10864515079E+04  0.50400001928E-02 0. -1.
    10030    2    1    2    0    0  0.00000000000E+00  0.00000000000E+00  0.71546551969E+03  0.28883685355E+04  0.27983534242E+04 0.  0.
        5    1    3    3  502    0 -0.22197145880E+02  0.12932825264E+04  0.90837336477E+03  0.15805811166E+04  0.46999998093E+01 0.  1.
       -5    1    3    3    0  502  0.22197145880E+02 -0.12932825264E+04 -0.19290784508E+03  0.13077874189E+04  0.46999998093E+01 0. -1.
</event>
<event>
 5   0  0.1263513E-06  0.2817434E+04  0.7818609E-02  0.8297876E-01
        1   -1    0    0  501    0  0.00000000000E+00  0.00000000000E+00  0.12699451355E+04  0.12699451355E+04  0.50400001928E-02 0.  1.
       -1   -1    0    0    0  501  0.00000000000E+00  0.00000000000E+00 -0.15626527879E+04  0.15626527879E+04  0.50400001928E-02 0. -1.
    10030    2    1    2    0    0  0.00000000000E+00  0.00000000000E+00 -0.29270765240E+03  0.28325979234E+04  0.28174338015E+04 0.  0.
        3    1    3    3  502    0 -0.55364027906E+03  0.72631759639E+02  0.11539324818E+04  0.12819333500E+04  0.10100000352E+00 0.  1.
       -3    1    3    3    0  502  0.55364027906E+03 -0.72631759639E+02 -0.14466401342E+04  0.15506645734E+04  0.10100000352E+00 0. -1.
</event>
<event>
 5   0  0.3345919E-06  0.2839916E+04  0.7818609E-02  0.8290982E-01
       -2   -1    0    0    0  501  0.00000000000E+00  0.00000000000E+00  0.16015638149E+04  0.16015638149E+04  0.25500000920E-02 0. -1.
        2   -1    0    0  501    0  0.00000000000E+00  0.00000000000E+00 -0.12589448553E+04  0.12589448553E+04  0.25500000920E-02 0.  1.
    10030    2    1    2    0    0  0.00000000000E+00  0.00000000000E+00  0.34261895959E+03  0.28605086703E+04  0.28399158616E+04 0.  0.
        2    1    3    3  502    0 -0.67276526413E+03 -0.17488097770E+02 -0.10881016126E+04  0.12794076963E+04  0.25500000920E-02 0.  1.
       -2    1    3    3    0  502  0.67276526413E+03  0.17488097770E+02  0.14307205722E+04  0.15811009739E+04  0.25500000920E-02 0. -1.
</event>
<event>
 5   0  0.3167616E-06  0.2771647E+04  0.7818609E-02  0.8312125E-01
       -2   -1    0    0    0  501  0.00000000000E+00  0.00000000000E+00  0.90677874482E+03  0.90677874482E+03  0.25500000920E-02 0.  1.
        2   -1    0    0  501    0  0.00000000000E+00  0.00000000000E+00 -0.21179449019E+04  0.21179449019E+04  0.25500000920E-02 0. -1.
    10030    2    1    2    0    0  0.00000000000E+00  0.00000000000E+00 -0.12111661571E+04  0.30247236467E+04  0.27716474666E+04 0.  0.
        3    1    3    3  502    0 -0.11535043774E+04 -0.14244327677E+02 -0.14436430873E+04  0.18479395616E+04  0.10100000352E+00 0. -1.
       -3    1    3    3    0  502  0.11535043774E+04  0.14244327677E+02  0.23247693029E+03  0.11767840851E+04  0.10100000352E+00 0.  1.
</event>
<event>
 5   0  0.1263513E-06  0.2818162E+04  0.7818609E-02  0.8297652E-01
       -1   -1    0    0    0  501  0.00000000000E+00  0.00000000000E+00  0.13827828133E+04  0.13827828133E+04  0.50400001928E-02 0. -1.
        1   -1    0    0  501    0  0.00000000000E+00  0.00000000000E+00 -0.14358793657E+04  0.14358793657E+04  0.50400001928E-02 0.  1.
    10030    2    1    2    0    0  0.00000000000E+00  0.00000000000E+00 -0.53096552390E+02  0.28186621790E+04  0.28181620315E+04 0.  0.
        3    1    3    3  502    0  0.58178224497E+03  0.31387593143E+03  0.12180682542E+04  0.13858856240E+04  0.10100000352E+00 0. -1.
       -3    1    3    3    0  502 -0.58178224497E+03 -0.31387593143E+03 -0.12711648066E+04  0.14327765550E+04  0.10100000352E+00 0.  1.
</event>
<event>
 5   0  0.1246044E-06  0.2801009E+04  0.7818609E-02  0.8302955E-01
        1   -1    0    0  501    0  0.00000000000E+00  0.00000000000E+00  0.11520937500E+04  0.11520937500E+04  0.50400001928E-02 0.  1.
       -1   -1    0    0    0  501  0.00000000000E+00  0.00000000000E+00 -0.17024762441E+04  0.17024762441E+04  0.50400001928E-02 0. -1.
    10030    2    1    2    0    0  0.00000000000E+00  0.00000000000E+00 -0.55038249415E+03  0.28545699941E+04  0.28010085614E+04 0.  0.
        2    1    3    3  502    0 -0.37556963344E+03  0.11806624363E+04  0.39028532566E+03  0.12989761251E+04  0.25500000920E-02 0. -1.
       -2    1    3    3    0  502  0.37556963344E+03 -0.11806624363E+04 -0.94066781981E+03  0.15555938690E+04  0.25500000920E-02 0.  1.
</event>
<event>
 5   0  0.3345919E-06  0.2787347E+04  0.7818609E-02  0.8307207E-01
       -2   -1    0    0    0  501  0.00000000000E+00  0.00000000000E+00  0.70406891438E+03  0.70406891439E+03  0.25500000920E-02 0. -1.
        2   -1    0    0  501    0  0.00000000000E+00  0.00000000000E+00 -0.27587158797E+04  0.27587158797E+04  0.25500000920E-02 0.  1.
    10030    2    1    2    0    0  0.00000000000E+00  0.00000000000E+00 -0.20546469653E+04  0.34627847941E+04  0.27873471937E+04 0.  0.
        2    1    3    3  502    0 -0.72113810479E+03  0.96810289417E+03 -0.18925570905E+04  0.22447796597E+04  0.25500000920E-02 0.  1.
       -2    1    3    3    0  502  0.72113810479E+03 -0.96810289417E+03 -0.16208987485E+03  0.12180051344E+04  0.25500000920E-02 0. -1.
</event>
<event>
 5   0  0.1220265E-06  0.2731747E+04  0.7818609E-02  0.8324777E-01
       -1   -1    0    0    0  501  0.00000000000E+00  0.00000000000E+00  0.95639004165E+03  0.95639004167E+03  0.50400001928E-02 0.  1.
        1   -1    0    0  501    0  0.00000000000E+00  0.00000000000E+00 -0.19506797735E+04  0.19506797735E+04  0.50400001928E-02 0. -1.
    10030    2    1    2    0    0  0.00000000000E+00  0.00000000000E+00 -0.99428973184E+03  0.29070698152E+04  0.27317472137E+04 0.  0.
        4    1    3    3  502    0  0.41202085253E+02  0.82249926586E+03 -0.16567620796E+04  0.18501526573E+04  0.12699999809E+01 0. -1.
       -4    1    3    3    0  502 -0.41202085253E+02 -0.82249926586E+03  0.66247234772E+03  0.10569171579E+04  0.12699999809E+01 0.  1.
</event>
<event>
 5   0  0.3162695E-06  0.2845307E+04  0.7818609E-02  0.8289339E-01
       -2   -1    0    0    0  501  0.00000000000E+00  0.00000000000E+00  0.84017100205E+03  0.84017100205E+03  0.25500000920E-02 0.  1.
        2   -1    0    0  501    0  0.00000000000E+00  0.00000000000E+00 -0.24089653702E+04  0.24089653702E+04  0.25500000920E-02 0. -1.
    10030    2    1    2    0    0  0.00000000000E+00  0.00000000000E+00 -0.15687943681E+04  0.32491363722E+04  0.28453069071E+04 0.  0.
        1    1    3    3  502    0  0.11203409980E+04 -0.41918498581E+03 -0.16638026891E+04  0.20491752957E+04  0.50400001928E-02 0. -1.
       -1    1    3    3    0  502 -0.11203409980E+04  0.41918498581E+03  0.95008320950E+02  0.11999610766E+04  0.50400001928E-02 0.  1.
</event>
<event>
 5   0  0.1220265E-06  0.2810870E+04  0.7818609E-02  0.8299902E-01
        1   -1    0    0  501    0  0.00000000000E+00  0.00000000000E+00  0.13591820711E+04  0.13591820711E+04  0.50400001928E-02 0.  1.
       -1   -1    0    0    0  501  0.00000000000E+00  0.00000000000E+00 -0.14532618680E+04  0.14532618680E+04  0.50400001928E-02 0. -1.
    10030    2    1    2    0    0  0.00000000000E+00  0.00000000000E+00 -0.94079796871E+02  0.28124439391E+04  0.28108699547E+04 0.  0.
        4    1    3    3  502    0 -0.80624905048E+03 -0.25166748264E+02 -0.11985861669E+04  0.14447426446E+04  0.12699999809E+01 0. -1.
       -4    1    3    3    0  502  0.80624905048E+03  0.25166748264E+02  0.11045063701E+04  0.13677012945E+04  0.12699999809E+01 0.  1.
</event>
<event>
 5   0  0.1263513E-06  0.2798108E+04  0.7818609E-02  0.8303856E-01
        1   -1    0    0  501    0  0.00000000000E+00  0.00000000000E+00  0.14233677466E+04  0.14233677466E+04  0.50400001928E-02 0.  1.
       -1   -1    0    0    0  501  0.00000000000E+00  0.00000000000E+00 -0.13751560127E+04  0.13751560127E+04  0.50400001928E-02 0. -1.
    10030    2    1    2    0    0  0.00000000000E+00  0.00000000000E+00  0.48211733879E+02  0.27985237593E+04  0.27981084432E+04 0.  0.
        3    1    3    3  502    0 -0.10018323350E+04 -0.97170371774E+03 -0.73256218977E+02  0.13975845686E+04  0.10100000352E+00 0.  1.
       -3    1    3    3    0  502  0.10018323350E+04  0.97170371774E+03  0.12146795286E+03  0.14009391908E+04  0.10100000352E+00 0. -1.
</event>
<event>
 5   0  0.1246044E-06  0.2841665E+04  0.7818609E-02  0.8290449E-01
       -1   -1    0    0    0  501  0.00000000000E+00  0.00000000000E+00  0.14143539214E+04  0.14143539214E+04  0.50400001928E-02 0. -1.
        1   -1    0    0  501    0  0.00000000000E+00  0.00000000000E+00 -0.14273408367E+04  0.14273408367E+04  0.50400001928E-02 0.  1.
    10030    2    1    2    0    0  0.00000000000E+00  0.00000000000E+00 -0.12986915325E+02  0.28416947582E+04  0.28416650821E+04 0.  0.
        2    1    3    3  502    0  0.12768464210E+04  0.22814351523E+03  0.57349437761E+03  0.14181967591E+04  0.25500000920E-02 0. -1.
       -2    1    3    3    0  502 -0.12768464210E+04 -0.22814351523E+03 -0.58648129294E+03  0.14234979991E+04  0.25500000920E-02 0.  1.
</event>
<event>
 5   0  0.3162695E-06  0.2806747E+04  0.7818609E-02  0.8301177E-01
       -2   -1    0    0    0  501  0.00000000000E+00  0.00000000000E+00  0.13128148395E+04  0.13128148395E+04  0.25500000920E-02 0.  1.
        2   -1    0    0  501    0  0.00000000000E+00  0.00000000000E+00 -0.15001790532E+04  0.15001790532E+04  0.25500000920E-02 0. -1.
    10030    2    1    2    0    0  0.00000000000E+00  0.00000000000E+00 -0.18736421361E+03  0.28129938927E+04  0.28067471015E+04 0.  0.
        1    1    3    3  502    0 -0.82754771398E+02  0.13949077529E+04 -0.22374509284E+03  0.14151600114E+04  0.50400001928E-02 0.  1.
       -1    1    3    3    0  502  0.82754771398E+02 -0.13949077529E+04  0.36380879232E+02  0.13978338813E+04  0.50400001928E-02 0. -1.
</event>
<event>
 5   0  0.3226364E-06  0.2804782E+04  0.7818609E-02  0.8301785E-01
        2   -1    0    0  501    0  0.00000000000E+00  0.00000000000E+00  0.19791600340E+04  0.19791600340E+04  0.25500000920E-02 0.  1.
       -2   -1    0    0    0  501  0.00000000000E+00  0.00000000000E+00 -0.99370475219E+03  0.99370475219E+03  0.25500000920E-02 0. -1.
    10030    2    1    2    0    0  0.00000000000E+00  0.00000000000E+00  0.98545528180E+03  0.29728647862E+04  0.28047821528E+04 0.  0.
        5    1    3    3  502    0 -0.90675753003E+03  0.44727563938E+03  0.15227750464E+04  0.18278759935E+04  0.46999998093E+01 0.  1.
       -5    1    3    3    0  502  0.90675753003E+03 -0.44727563938E+03 -0.53731976460E+03  0.11449887926E+04  0.46999998093E+01 0. -1.
</event>
<event>
 5   0  0.1243055E-06  0.2788523E+04  0.7818609E-02  0.8306840E-01
        1   -1    0    0  501    0  0.00000000000E+00  0.00000000000E+00  0.16767644912E+04  0.16767644912E+04  0.50400001928E-02 0. -1.
       -1   -1    0    0    0  501  0.00000000000E+00  0.00000000000E+00 -0.11593547557E+04  0.11593547557E+04  0.50400001928E-02 0.  1.
    10030    2    1    2    0    0  0.00000000000E+00  0.00000000000E+00  0.51740973555E+03  0.28361192469E+04  0.27885228255E+04 0.  0.
        5    1    3    3  502    0 -0.94794729407E+03  0.51098128342E+03 -0.64198215781E+03  0.12537420489E+04  0.46999998093E+01 0.  1.
       -5    1    3    3    0  502  0.94794729407E+03 -0.51098128342E+03  0.11593918934E+04  0.15823771980E+04  0.46999998093E+01 0. -1.
</event>
<event>
 5   0  0.3212679E-06  0.2767167E+04  0.7818609E-02  0.8313535E-01
       -2   -1    0    0    0  501  0.00000000000E+00  0.00000000000E+00  0.10318908542E+04  0.10318908542E+04  0.25500000920E-02 0. -1.
        2   -1    0    0  501    0  0.00000000000E+00  0.00000000000E+00 -0.18551418624E+04  0.18551418624E+04  0.25500000920E-02 0.  1.
    10030    2    1    2    0    0  0.00000000000E+00  0.00000000000E+00 -0.82325100829E+03  0.28870327166E+04  0.27671674478E+04 0.  0.
        4    1    3    3  502    0  0.61294701284E+03 -0.85740791673E+03  0.52355549533E+03  0.11768450815E+04  0.12699999809E+01 0. -1.
       -4    1    3    3    0  502 -0.61294701284E+03  0.85740791673E+03 -0.13468065036E+04  0.17101876351E+04  0.12699999809E+01 0.  1.
</event>
<event>
 5   0  0.1235252E-06  0.2780286E+04  0.7818609E-02  0.8309415E-01
       -1   -1    0    0    0  501  0.00000000000E+00  0.00000000000E+00  0.91299797462E+03  0.91299797464E+03  0.50400001928E-02 0.  1.
        1   -1    0    0  501    0  0.00000000000E+00  0.00000000000E+00 -0.21166497720E+04  0.21166497720E+04  0.50400001928E-02 0. -1.
    10030    2    1    2    0    0  0.00000000000E+00  0.00000000000E+00 -0.12036517974E+04  0.30296477467E+04  0.27802855644E+04 0.  0.
        1    1    3    3  502    0 -0.98574006879E+03  0.10372161053E+03  0.46030287454E+03  0.10928496658E+04  0.50400001928E-02 0.  1.
       -1    1    3    3    0  502  0.98574006879E+03 -0.10372161053E+03 -0.16639546719E+04  0.19367980808E+04  0.50400001928E-02 0. -1.
</event>
<event>
 5   0  0.1243055E-06  0.2803358E+04  0.7818609E-02  0.8302227E-01
        1   -1    0    0  501    0  0.00000000000E+00  0.00000000000E+00  0.12662874178E+04  0.12662874178E+04  0.50400001928E-02 0. -1.
       -1   -1    0    0    0  501  0.00000000000E+00  0.00000000000E+00 -0.15515468115E+04  0.15515468115E+04  0.50400001928E-02 0.  1.
    10030    2    1    2    0    0  0.00000000000E+00  0.00000000000E+00 -0.28525939369E+03  0.28178342293E+04  0.28033581330E+04 0.  0.
        5    1    3    3  502    0 -0.13676042102E+04 -0.29989375871E+03 -0.20933936416E+03  0.14156703718E+04  0.46999998093E+01 0. -1.
       -5    1    3    3    0  502  0.13676042102E+04  0.29989375871E+03 -0.75920029529E+02  0.14021638575E+04  0.46999998093E+01 0.  1.
</event>
<event>
 5   0  0.1246044E-06  0.2802856E+04  0.7818609E-02  0.8302382E-01
        1   -1    0    0  501    0  0.00000000000E+00  0.00000000000E+00  0.21191651146E+04  0.21191651146E+04  0.50400001928E-02 0. -1.
       -1   -1    0    0    0  501  0.00000000000E+00  0.00000000000E+00 -0.92677999692E+03  0.92677999694E+03  0.50400001928E-02 0.  1.
    10030    2    1    2    0    0  0.00000000000E+00  0.00000000000E+00  0.11923851177E+04  0.30459451115E+04  0.28028555713E+04 0.  0.
        2    1    3    3  502    0  0.16592703964E+03 -0.58861204797E+03 -0.77412256209E+03  0.98654025089E+03  0.25500000920E-02 0.  1.
       -2    1    3    3    0  502 -0.16592703964E+03  0.58861204797E+03  0.19665076798E+04  0.20594048606E+04  0.25500000920E-02 0. -1.
</event>
<event>
 5   0  0.1246044E-06  0.2820511E+04  0.7818609E-02  0.8296929E-01
        1   -1    0    0  501    0  0.00000000000E+00  0.00000000000E+00  0.31017463018E+04  0.31017463018E+04  0.50400001928E-02 0.  1.
       -1   -1    0    0    0  501  0.00000000000E+00  0.00000000000E+00 -0.64119395809E+03  0.64119395811E+03  0.50400001928E-02 0. -1.
    10030    2    1    2    0    0  0.00000000000E+00  0.00000000000E+00  0.24605523437E+04  0.37429402599E+04  0.28205112929E+04 0.  0.
        2    1    3    3  502    0 -0.17174291206E+03 -0.13913109831E+04  0.14340501596E+04  0.20054280690E+04  0.25500000920E-02 0.  1.
       -2    1    3    3    0  502  0.17174291206E+03  0.13913109831E+04  0.10265021841E+04  0.17375121909E+04  0.25500000920E-02 0. -1.
</event>
<event>
 5   0  0.1065675E-06  0.2807260E+04  0.7818609E-02  0.8301018E-01
       -3   -1    0    0    0  501  0.00000000000E+00  0.00000000000E+00  0.19929434322E+04  0.19929434347E+04  0.10100000352E+00 0. -1.
        3   -1    0    0  501    0  0.00000000000E+00  0.00000000000E+00 -0.98857677295E+03  0.98857677811E+03  0.10100000352E+00 0.  1.
    10030    2    1    2    0    0  0.00000000000E+00  0.00000000000E+00  0.10043666592E+04  0.29815202128E+04  0.28072603002E+04 0.  0.
        4    1    3    3  502    0 -0.68512847176E+03  0.77559287212E+02 -0.79631303454E+03  0.10533434994E+04  0.12699999809E+01 0.  1.
       -4    1    3    3    0  502  0.68512847176E+03 -0.77559287212E+02  0.18006796937E+04  0.19281767134E+04  0.12699999809E+01 0. -1.
</event>
<event>
 5   0  0.1065675E-06  0.2800085E+04  0.7818609E-02  0.8303242E-01
       -3   -1    0    0    0  501  0.00000000000E+00  0.00000000000E+00  0.20181406995E+04  0.20181407021E+04  0.10100000352E+00 0.  1.
        3   -1    0    0  501    0  0.00000000000E+00  0.00000000000E+00 -0.97124966308E+03  0.97124966834E+03  0.10100000352E+00 0. -1.
    10030    2    1    2    0    0  0.00000000000E+00  0.00000000000E+00  0.10468910364E+04  0.29893903704E+04  0.28000846317E+04 0.  0.
        2    1    3    3  502    0  0.69878021056E+03 -0.81829788553E+02  0.18157038611E+04  0.19472468791E+04  0.25500000920E-02 0.  1.
       -2    1    3    3    0  502 -0.69878021056E+03  0.81829788553E+02 -0.76881282468E+03  0.10421434913E+04  0.25500000920E-02 0. -1.
</event>
<event>
 5   0  0.1246044E-06  0.2797048E+04  0.7818609E-02  0.8304185E-01
        1   -1    0    0  501    0  0.00000000000E+00  0.00000000000E+00  0.14137847462E+04  0.14137847462E+04  0.50400001928E-02 0.  1.
       -1   -1    0    0    0  501  0.00000000000E+00  0.00000000000E+00 -0.13834280617E+04  0.13834280617E+04  0.50400001928E-02 0. -1.
    10030    2    1    2    0    0  0.00000000000E+00  0.00000000000E+00  0.30356684537E+02  0.27972128079E+04  0.27970480805E+04 0.  0.
        2    1    3    3  502    0  0.10231507648E+04 -0.64557988729E+03 -0.68647441801E+03  0.13909917343E+04  0.25500000920E-02 0. -1.
       -2    1    3    3    0  502 -0.10231507648E+04  0.64557988729E+03  0.71683110255E+03  0.14062210736E+04  0.25500000920E-02 0.  1.
</event>
<event>
 5   0  0.1246044E-06  0.2828732E+04  0.7818609E-02  0.8294403E-01
       -1   -1    0    0    0  501  0.00000000000E+00  0.00000000000E+00  0.14000462090E+04  0.14000462090E+04  0.50400001928E-02 0.  1.
        1   -1    0    0  501    0  0.00000000000E+00  0.00000000000E+00 -0.14288320750E+04  0.14288320750E+04  0.50400001928E-02 0. -1.
    10030    2    1    2    0    0  0.00000000000E+00  0.00000000000E+00 -0.28785865947E+02  0.28288782840E+04  0.28287318218E+04 0.  0.
        2    1    3    3  502    0  0.12709280299E+04  0.21376540205E+03  0.56828397620E+03  0.14085099864E+04  0.25500000920E-02 0.  1.
       -2    1    3    3    0  502 -0.12709280299E+04 -0.21376540205E+03 -0.59706984214E+03  0.14203682976E+04  0.25500000920E-02 0. -1.
</event>
<event>
 5   0  0.1246044E-06  0.2802607E+04  0.7818609E-02  0.8302460E-01
       -1   -1    0    0    0  501  0.00000000000E+00  0.00000000000E+00  0.81997777991E+03  0.81997777993E+03  0.50400001928E-02 0. -1.
        1   -1    0    0  501    0  0.00000000000E+00  0.00000000000E+00 -0.23947614383E+04  0.23947614383E+04  0.50400001928E-02 0.  1.
    10030    2    1    2    0    0  0.00000000000E+00  0.00000000000E+00 -0.15747836584E+04  0.32147392182E+04  0.28026067634E+04 0.  0.
        2    1    3    3  502    0 -0.56341105319E+02  0.11700765132E+04  0.94719571957E+02  0.11752553612E+04  0.25500000920E-02 0. -1.
       -2    1    3    3    0  502  0.56341105319E+02 -0.11700765132E+04 -0.16695032303E+04  0.20394838570E+04  0.25500000920E-02 0.  1.
</event>
<event>
 5   0  0.3162695E-06  0.2806826E+04  0.7818609E-02  0.8301152E-01
        2   -1    0    0  501    0  0.00000000000E+00  0.00000000000E+00  0.15527965252E+04  0.15527965252E+04  0.25500000920E-02 0. -1.
       -2   -1    0    0    0  501  0.00000000000E+00  0.00000000000E+00 -0.12684003139E+04  0.12684003139E+04  0.25500000920E-02 0.  1.
    10030    2    1    2    0    0  0.00000000000E+00  0.00000000000E+00  0.28439621130E+03  0.28211968391E+04  0.28068256804E+04 0.  0.
        1    1    3    3  502    0 -0.18482990207E+03 -0.13124166358E+04 -0.32164937951E+03  0.13638393755E+04  0.50400001928E-02 0.  1.
       -1    1    3    3    0  502  0.18482990207E+03  0.13124166358E+04  0.60604559081E+03  0.14573574636E+04  0.50400001928E-02 0. -1.
</event>
<event>
 5   0  0.1243055E-06  0.2800298E+04  0.7818609E-02  0.8303176E-01
       -1   -1    0    0    0  501  0.00000000000E+00  0.00000000000E+00  0.12794095530E+04  0.12794095530E+04  0.50400001928E-02 0. -1.
        1   -1    0    0  501    0  0.00000000000E+00  0.00000000000E+00 -0.15322829219E+04  0.15322829219E+04  0.50400001928E-02 0.  1.
    10030    2    1    2    0    0  0.00000000000E+00  0.00000000000E+00 -0.25287336894E+03  0.28116924749E+04  0.28002981328E+04 0.  0.
        5    1    3    3  502    0 -0.11073356238E+04  0.71260818687E+03 -0.60418015856E+03  0.14488127435E+04  0.46999998093E+01 0.  1.
       -5    1    3    3    0  502  0.11073356238E+04 -0.71260818687E+03  0.35130678963E+03  0.13628797314E+04  0.46999998093E+01 0. -1.
</event>
<event>
 5   0  0.1246044E-06  0.2785144E+04  0.7818609E-02  0.8307895E-01
       -1   -1    0    0    0  501  0.00000000000E+00  0.00000000000E+00  0.20950911606E+04  0.20950911606E+04  0.50400001928E-02 0.  1.
        1   -1    0    0  501    0  0.00000000000E+00  0.00000000000E+00 -0.92561926824E+03  0.92561926825E+03  0.50400001928E-02 0. -1.
    10030    2    1    2    0    0  0.00000000000E+00  0.00000000000E+00  0.11694718923E+04  0.30207104288E+04  0.27851439797E+04 0.  0.
        2    1    3    3  502    0 -0.27061050169E+03  0.11465254584E+04 -0.22071036109E+03  0.11985256500E+04  0.25500000920E-02 0. -1.
       -2    1    3    3    0  502  0.27061050169E+03 -0.11465254584E+04  0.13901822534E+04  0.18221847788E+04  0.25500000920E-02 0.  1.
</event>
<event>
 5   0  0.1235252E-06  0.2797336E+04  0.7818609E-02  0.8304096E-01
       -1   -1    0    0    0  501  0.00000000000E+00  0.00000000000E+00  0.10068206639E+04  0.10068206639E+04  0.50400001928E-02 0. -1.
        1   -1    0    0  501    0  0.00000000000E+00  0.00000000000E+00 -0.19430196342E+04  0.19430196342E+04  0.50400001928E-02 0.  1.
    10030    2    1    2    0    0  0.00000000000E+00  0.00000000000E+00 -0.93619897029E+03  0.29498402981E+04  0.27973361029E+04 0.  0.
        1    1    3    3  502    0  0.59110623577E+02 -0.54361000847E+03  0.88943233456E+03  0.10440765225E+04  0.50400001928E-02 0. -1.
       -1    1    3    3    0  502 -0.59110623577E+02  0.54361000847E+03 -0.18256313048E+04  0.19057637756E+04  0.50400001928E-02 0.  1.
</event>
<event>
 5   0  0.3226364E-06  0.2809063E+04  0.7818609E-02  0.8300460E-01
       -2   -1    0    0    0  501  0.00000000000E+00  0.00000000000E+00  0.31429634652E+04  0.31429634652E+04  0.25500000920E-02 0. -1.
        2   -1    0    0  501    0  0.00000000000E+00  0.00000000000E+00 -0.62765899372E+03  0.62765899373E+03  0.25500000920E-02 0.  1.
    10030    2    1    2    0    0  0.00000000000E+00  0.00000000000E+00  0.25153044715E+04  0.37706224590E+04  0.28090633926E+04 0.  0.
        5    1    3    3  502    0  0.97861913382E+03 -0.25725412639E+03 -0.49847523076E+02  0.10131051082E+04  0.46999998093E+01 0.  1.
       -5    1    3    3    0  502 -0.97861913382E+03  0.25725412639E+03  0.25651519946E+04  0.27575173508E+04  0.46999998093E+01 0. -1.
</event>
<event>
 5   0  0.3226364E-06  0.2763059E+04  0.7818609E-02  0.8314830E-01
       -2   -1    0    0    0  501  0.00000000000E+00  0.00000000000E+00  0.12974008417E+04  0.12974008417E+04  0.25500000920E-02 0. -1.
        2   -1    0    0  501    0  0.00000000000E+00  0.00000000000E+00 -0.14711130544E+04  0.14711130544E+04  0.25500000920E-02 0.  1.
    10030    2    1    2    0    0  0.00000000000E+00  0.00000000000E+00 -0.17371221273E+03  0.27685138961E+04  0.27630586783E+04 0.  0.
        5    1    3    3  502    0 -0.26188115765E+03 -0.12459628379E+02 -0.14459500875E+04  0.14695341876E+04  0.46999998093E+01 0.  1.
       -5    1    3    3    0  502  0.26188115765E+03  0.12459628379E+02  0.12722378748E+04  0.12989797085E+04  0.46999998093E+01 0. -1.
</event>
<event>
 5   0  0.3212679E-06  0.2797801E+04  0.7818609E-02  0.8303951E-01
        2   -1    0    0  501    0  0.00000000000E+00  0.00000000000E+00  0.19755122420E+04  0.19755122420E+04  0.25500000920E-02 0.  1.
       -2   -1    0    0    0  501  0.00000000000E+00  0.00000000000E+00 -0.99059000435E+03  0.99059000435E+03  0.25500000920E-02 0. -1.
    10030    2    1    2    0    0  0.00000000000E+00  0.00000000000E+00  0.98492223765E+03  0.29661022464E+04  0.27978010511E+04 0.  0.
        4    1    3    3  502    0  0.68056847749E+03  0.53037017919E+03  0.16598138909E+04  0.18706816257E+04  0.12699999809E+01 0.  1.
       -4    1    3    3    0  502 -0.68056847749E+03 -0.53037017919E+03 -0.67489165326E+03  0.10954206206E+04  0.12699999809E+01 0. -1.
</event>
<event>
 5   0  0.1243055E-06  0.2786941E+04  0.7818609E-02  0.8307334E-01
       -1   -1    0    0    0  501  0.00000000000E+00  0.00000000000E+00  0.73715707208E+03  0.73715707209E+03  0.50400001928E-02 0. -1.
        1   -1    0    0  501    0  0.00000000000E+00  0.00000000000E+00 -0.26341191598E+04  0.26341191598E+04  0.50400001928E-02 0.  1.
    10030    2    1    2    0    0  0.00000000000E+00  0.00000000000E+00 -0.18969620877E+04  0.33712762319E+04  0.27869406649E+04 0.  0.
        5    1    3    3  502    0  0.52448504370E+03  0.11322960355E+03  0.60717044196E+03  0.81029842637E+03  0.46999998093E+01 0. -1.
       -5    1    3    3    0  502 -0.52448504370E+03 -0.11322960355E+03 -0.25041325297E+04  0.25609778055E+04  0.46999998093E+01 0.  1.
</event>
<event>
 5   0  0.3345919E-06  0.2720423E+04  0.7818609E-02  0.8328409E-01
        2   -1    0    0  501    0  0.00000000000E+00  0.00000000000E+00  0.25284597078E+04  0.25284597078E+04  0.25500000920E-02 0. -1.
       -2   -1    0    0    0  501  0.00000000000E+00  0.00000000000E+00 -0.73174023785E+03  0.73174023786E+03  0.25500000920E-02 0.  1.
    10030    2    1    2    0    0  0.00000000000E+00  0.00000000000E+00  0.17967194699E+04  0.32601999456E+04  0.27204232817E+04 0.  0.
        2    1    3    3  502    0 -0.19705806313E+03  0.92648049545E+03  0.20682607731E+04  0.22748407888E+04  0.25500000920E-02 0.  1.
       -2    1    3    3    0  502  0.19705806313E+03 -0.92648049545E+03 -0.27154130317E+03  0.98535915687E+03  0.25500000920E-02 0. -1.
</event>
<event>
 5   0  0.1246044E-06  0.2809963E+04  0.7818609E-02  0.8300182E-01
        1   -1    0    0  501    0  0.00000000000E+00  0.00000000000E+00  0.10149751354E+04  0.10149751354E+04  0.50400001928E-02 0. -1.
       -1   -1    0    0    0  501  0.00000000000E+00  0.00000000000E+00 -0.19448490806E+04  0.19448490807E+04  0.50400001928E-02 0.  1.
    10030    2    1    2    0    0  0.00000000000E+00  0.00000000000E+00 -0.92987394529E+03  0.29598242160E+04  0.28099633157E+04 0.  0.
        2    1    3    3  502    0  0.15228193738E+03 -0.60648955915E+03 -0.17901919007E+04  0.18962611675E+04  0.25500000920E-02 0.  1.
       -2    1    3    3    0  502 -0.15228193738E+03  0.60648955915E+03  0.86031795543E+03  0.10635630486E+04  0.25500000920E-02 0. -1.
</event>
<event>
 5   0  0.3345919E-06  0.2806905E+04  0.7818609E-02  0.8301128E-01
        2   -1    0    0  501    0  0.00000000000E+00  0.00000000000E+00  0.24604436792E+04  0.24604436792E+04  0.25500000920E-02 0. -1.
       -2   -1    0    0    0  501  0.00000000000E+00  0.00000000000E+00 -0.80053817327E+03  0.80053817328E+03  0.25500000920E-02 0.  1.
    10030    2    1    2    0    0  0.00000000000E+00  0.00000000000E+00  0.16599055059E+04  0.32609818525E+04  0.28069051202E+04 0.  0.
        2    1    3    3  502    0  0.92535482024E+03 -0.41706652742E+03  0.19560040914E+04  0.22036737593E+04  0.25500000920E-02 0. -1.
       -2    1    3    3    0  502 -0.92535482024E+03  0.41706652742E+03 -0.29609858550E+03  0.10573080932E+04  0.25500000920E-02 0.  1.
</event>
<event>
 5   0  0.1243055E-06  0.2796677E+04  0.7818609E-02  0.8304301E-01
       -1   -1    0    0    0  501  0.00000000000E+00  0.00000000000E+00  0.14418340615E+04  0.14418340615E+04  0.50400001928E-02 0. -1.
        1   -1    0    0  501    0  0.00000000000E+00  0.00000000000E+00 -0.13561553918E+04  0.13561553919E+04  0.50400001928E-02 0.  1.
    10030    2    1    2    0    0  0.00000000000E+00  0.00000000000E+00  0.85678669676E+02  0.27979894534E+04  0.27966773405E+04 0.  0.
        5    1    3    3  502    0 -0.75111529413E+03 -0.28137099166E+03  0.11887959220E+04  0.14340856509E+04  0.46999998093E+01 0. -1.
       -5    1    3    3    0  502  0.75111529413E+03  0.28137099166E+03 -0.11031172523E+04  0.13639038025E+04  0.46999998093E+01 0.  1.
</event>
<event>
 5   0  0.3212679E-06  0.2799577E+04  0.7818609E-02  0.8303400E-01
       -2   -1    0    0    0  501  0.00000000000E+00  0.00000000000E+00  0.10996379764E+04  0.10996379764E+04  0.25500000920E-02 0. -1.
        2   -1    0    0  501    0  0.00000000000E+00  0.00000000000E+00 -0.17818666136E+04  0.17818666136E+04  0.25500000920E-02 0.  1.
    10030    2    1    2    0    0  0.00000000000E+00  0.00000000000E+00 -0.68222863716E+03  0.28815045900E+04  0.27995772518E+04 0.  0.
        4    1    3    3  502    0 -0.86620614170E+03  0.99580211891E+03 -0.82109988602E+03  0.15543942793E+04  0.12699999809E+01 0.  1.
       -4    1    3    3    0  502  0.86620614170E+03 -0.99580211891E+03  0.13887124885E+03  0.13271103106E+04  0.12699999809E+01 0. -1.
</event>
<event>
 5   0  0.1235252E-06  0.2800103E+04  0.7818609E-02  0.8303237E-01
        1   -1    0    0  501    0  0.00000000000E+00  0.00000000000E+00  0.17694618487E+04  0.17694618487E+04  0.50400001928E-02 0. -1.
       -1   -1    0    0    0  501  0.00000000000E+00  0.00000000000E+00 -0.11077626005E+04  0.11077626005E+04  0.50400001928E-02 0.  1.
    10030    2    1    2    0    0  0.00000000000E+00  0.00000000000E+00  0.66169924815E+03  0.28772244492E+04  0.28001026117E+04 0.  0.
        1    1    3    3  502    0  0.95173976583E+03 -0.18356359681E+03 -0.70724269538E+03  0.11998734959E+04  0.50400001928E-02 0.  1.
       -1    1    3    3    0  502 -0.95173976583E+03  0.18356359681E+03  0.13689419435E+04  0.16773509534E+04  0.50400001928E-02 0. -1.
</event>
<event>
 5   0  0.1243055E-06  0.2810143E+04  0.7818609E-02  0.8300126E-01
       -1   -1    0    0    0  501  0.00000000000E+00  0.00000000000E+00  0.82140300758E+03  0.82140300760E+03  0.50400001928E-02 0. -1.
        1   -1    0    0  501    0  0.00000000000E+00  0.00000000000E+00 -0.24034808352E+04  0.24034808352E+04  0.50400001928E-02 0.  1.
    10030    2    1    2    0    0  0.00000000000E+00  0.00000000000E+00 -0.15820778276E+04  0.32248838428E+04  0.28101433321E+04 0.  0.
        5    1    3    3  502    0 -0.28680287247E+03  0.32880621061E+03 -0.23237592900E+04  0.23643706858E+04  0.46999998093E+01 0.  1.
       -5    1    3    3    0  502  0.28680287247E+03 -0.32880621061E+03  0.74168146239E+03  0.86051315704E+03  0.46999998093E+01 0. -1.
</event>
<event>
 5   0  0.1235252E-06  0.2800163E+04  0.7818609E-02  0.8303218E-01
        1   -1    0    0  501    0  0.00000000000E+00  0.00000000000E+00  0.78177997515E+03  0.78177997517E+03  0.50400001928E-02 0.  1.
       -1   -1    0    0    0  501  0.00000000000E+00  0.00000000000E+00 -0.25073903504E+04  0.25073903504E+04  0.50400001928E-02 0. -1.
    10030    2    1    2    0    0  0.00000000000E+00  0.00000000000E+00 -0.17256103752E+04  0.32891703255E+04  0.28001625423E+04 0.  0.
        1    1    3    3  502    0  0.30125526480E+03 -0.44103361291E+03  0.65741195249E+03  0.84702766046E+03  0.50400001928E-02 0.  1.
       -1    1    3    3    0  502 -0.30125526480E+03  0.44103361291E+03 -0.23830223277E+04  0.24421426651E+04  0.50400001928E-02 0. -1.
</event>
<event>
 5   0  0.3345919E-06  0.2802150E+04  0.7818609E-02  0.8302601E-01
       -2   -1    0    0    0  501  0.00000000000E+00  0.00000000000E+00  0.33078940261E+04  0.33078940261E+04  0.25500000920E-02 0. -1.
        2   -1    0    0  501    0  0.00000000000E+00  0.00000000000E+00 -0.59343249200E+03  0.59343249200E+03  0.25500000920E-02 0.  1.
    10030    2    1    2    0    0  0.00000000000E+00  0.00000000000E+00  0.27144615341E+04  0.39013265181E+04  0.28021504565E+04 0.  0.
        2    1    3    3  502    0  0.46469796976E+03 -0.49750665115E+03 -0.34768139630E+03  0.76442097327E+03  0.25500000920E-02 0.  1.
       -2    1    3    3    0  502 -0.46469796976E+03  0.49750665115E+03  0.30621429304E+04  0.31369055449E+04  0.25500000920E-02 0. -1.
</event>
<event>
 5   0  0.3167616E-06  0.2810577E+04  0.7818609E-02  0.8299992E-01
       -2   -1    0    0    0  501  0.00000000000E+00  0.00000000000E+00  0.16065774685E+04  0.16065774685E+04  0.25500000920E-02 0. -1.
        2   -1    0    0  501    0  0.00000000000E+00  0.00000000000E+00 -0.12292191686E+04  0.12292191686E+04  0.25500000920E-02 0.  1.
    10030    2    1    2    0    0  0.00000000000E+00  0.00000000000E+00  0.37735829985E+03  0.28357966371E+04  0.28105770369E+04 0.  0.
        3    1    3    3  502    0  0.10433858509E+04 -0.17101156235E+03  0.11226944527E+04  0.15421873533E+04  0.10100000352E+00 0. -1.
       -3    1    3    3    0  502 -0.10433858509E+04  0.17101156235E+03 -0.74533615286E+03  0.12936092838E+04  0.10100000352E+00 0.  1.
</event>
<event>
 5   0  0.1243055E-06  0.2815344E+04  0.7818609E-02  0.8298520E-01
        1   -1    0    0  501    0  0.00000000000E+00  0.00000000000E+00  0.20192781490E+04  0.20192781490E+04  0.50400001928E-02 0.  1.
       -1   -1    0    0    0  501  0.00000000000E+00  0.00000000000E+00 -0.98131160079E+03  0.98131160080E+03  0.50400001928E-02 0. -1.
    10030    2    1    2    0    0  0.00000000000E+00  0.00000000000E+00  0.10379665483E+04  0.30005897498E+04  0.28153444357E+04 0.  0.
        5    1    3    3  502    0 -0.77524025190E+03  0.41097445244E+03 -0.65418032183E+03  0.10944731300E+04  0.46999998093E+01 0. -1.
       -5    1    3    3    0  502  0.77524025190E+03 -0.41097445244E+03  0.16921468701E+04  0.19061166199E+04  0.46999998093E+01 0.  1.
</event>
<event>
 5   0  0.3226364E-06  0.2794247E+04  0.7818609E-02  0.8305057E-01
       -2   -1    0    0    0  501  0.00000000000E+00  0.00000000000E+00  0.98744192996E+03  0.98744192996E+03  0.25500000920E-02 0.  1.
        2   -1    0    0  501    0  0.00000000000E+00  0.00000000000E+00 -0.19767780575E+04  0.19767780575E+04  0.25500000920E-02 0. -1.
    10030    2    1    2    0    0  0.00000000000E+00  0.00000000000E+00 -0.98933612758E+03  0.29642199875E+04  0.27942466178E+04 0.  0.
        5    1    3    3  502    0 -0.89389681098E+03  0.10583728004E+04 -0.30275766420E+03  0.14180581041E+04  0.46999998093E+01 0.  1.
       -5    1    3    3    0  502  0.89389681098E+03 -0.10583728004E+04 -0.68657846339E+03  0.15461618834E+04  0.46999998093E+01 0. -1.
</event>
<event>
 5   0  0.3226364E-06  0.2804563E+04  0.7818609E-02  0.8301853E-01
       -2   -1    0    0    0  501  0.00000000000E+00  0.00000000000E+00  0.12633169550E+04  0.12633169550E+04  0.25500000920E-02 0. -1.
        2   -1    0    0  501    0  0.00000000000E+00  0.00000000000E+00 -0.15565326614E+04  0.15565326614E+04  0.25500000920E-02 0.  1.
    10030    2    1    2    0    0  0.00000000000E+00  0.00000000000E+00 -0.29321570633E+03  0.28198496164E+04  0.28045634970E+04 0.  0.
        5    1    3    3  502    0 -0.10222412140E+03  0.23393205494E+02  0.12593610001E+04  0.12637283061E+04  0.46999998093E+01 0. -1.
       -5    1    3    3    0  502  0.10222412140E+03 -0.23393205494E+02 -0.15525767064E+04  0.15561213103E+04  0.46999998093E+01 0.  1.
</event>
<event>
 5   0  0.3226364E-06  0.2801009E+04  0.7818609E-02  0.8302955E-01
        2   -1    0    0  501    0  0.00000000000E+00  0.00000000000E+00  0.23341676595E+04  0.23341676595E+04  0.25500000920E-02 0.  1.
       -2   -1    0    0    0  501  0.00000000000E+00  0.00000000000E+00 -0.84030533645E+03  0.84030533646E+03  0.25500000920E-02 0. -1.
    10030    2    1    2    0    0  0.00000000000E+00  0.00000000000E+00  0.14938623230E+04  0.31744729959E+04  0.28010094898E+04 0.  0.
        5    1    3    3  502    0  0.72297225215E+03  0.74804946014E+03 -0.31569931608E+03  0.10871775478E+04  0.46999998093E+01 0. -1.
       -5    1    3    3    0  502 -0.72297225215E+03 -0.74804946014E+03  0.18095616391E+04  0.20872954481E+04  0.46999998093E+01 0.  1.
</event>
<event>
 5   0  0.1235252E-06  0.2772989E+04  0.7818609E-02  0.8311704E-01
        1   -1    0    0  501    0  0.00000000000E+00  0.00000000000E+00  0.18014570562E+04  0.18014570562E+04  0.50400001928E-02 0.  1.
       -1   -1    0    0    0  501  0.00000000000E+00  0.00000000000E+00 -0.10671174960E+04  0.10671174960E+04  0.50400001928E-02 0. -1.
    10030    2    1    2    0    0  0.00000000000E+00  0.00000000000E+00  0.73433956023E+03  0.28685745522E+04  0.27729885272E+04 0.  0.
        1    1    3    3  502    0 -0.60006769644E+03  0.12266719586E+03  0.16539269912E+04  0.17636901580E+04  0.50400001928E-02 0.  1.
       -1    1    3    3    0  502  0.60006769644E+03 -0.12266719586E+03 -0.91958743100E+03  0.11048843942E+04  0.50400001928E-02 0. -1.
</event>
<event>
 5   0  0.3212679E-06  0.2765192E+04  0.7818609E-02  0.8314157E-01
        2   -1    0    0  501    0  0.00000000000E+00  0.00000000000E+00  0.11928187636E+04  0.11928187636E+04  0.25500000920E-02 0.  1.
       -2   -1    0    0    0  501  0.00000000000E+00  0.00000000000E+00 -0.16025662970E+04  0.16025662970E+04  0.25500000920E-02 0. -1.
    10030    2    1    2    0    0  0.00000000000E+00  0.00000000000E+00 -0.40974753349E+03  0.27953850606E+04  0.27651916020E+04 0.  0.
        4    1    3    3  502    0  0.11070044750E+04 -0.18225968623E+03 -0.10217139533E+04  0.15174249623E+04  0.12699999809E+01 0.  1.
       -4    1    3    3    0  502 -0.11070044750E+04  0.18225968623E+03  0.61196641983E+03  0.12779600983E+04  0.12699999809E+01 0. -1.
</event>
<event>
 5   0  0.1235252E-06  0.2805402E+04  0.7818609E-02  0.8301593E-01
       -1   -1    0    0    0  501  0.00000000000E+00  0.00000000000E+00  0.12827544319E+04  0.12827544319E+04  0.50400001928E-02 0. -1.
        1   -1    0    0  501    0  0.00000000000E+00  0.00000000000E+00 -0.15338632346E+04  0.15338632346E+04  0.50400001928E-02 0.  1.
    10030    2    1    2    0    0  0.00000000000E+00  0.00000000000E+00 -0.25110880270E+03  0.28166176666E+04  0.28054018338E+04 0.  0.
        1    1    3    3  502    0  0.10022990438E+04  0.82529746876E+03  0.40746410335E+03  0.13607888450E+04  0.50400001928E-02 0. -1.
       -1    1    3    3    0  502 -0.10022990438E+04 -0.82529746876E+03 -0.65857290605E+03  0.14558288216E+04  0.50400001928E-02 0.  1.
</event>
<event>
 5   0  0.1263513E-06  0.2856975E+04  0.7818609E-02  0.8285795E-01
        1   -1    0    0  501    0  0.00000000000E+00  0.00000000000E+00  0.18264082837E+04  0.18264082838E+04  0.50400001928E-02 0. -1.
       -1   -1    0    0    0  501  0.00000000000E+00  0.00000000000E+00 -0.11172619543E+04  0.11172619543E+04  0.50400001928E-02 0.  1.
    10030    2    1    2    0    0  0.00000000000E+00  0.00000000000E+00  0.70914632941E+03  0.29436702381E+04  0.28569749656E+04 0.  0.
        3    1    3    3  502    0 -0.52876873651E+03 -0.37121317214E+03 -0.95812894007E+03  0.11555979716E+04  0.10100000352E+00 0.  1.
       -3    1    3    3    0  502  0.52876873651E+03  0.37121317214E+03  0.16672752695E+04  0.17880722665E+04  0.10100000352E+00 0. -1.
</event>
<event>
 5   0  0.1220265E-06  0.2803586E+04  0.7818609E-02  0.8302156E-01
       -1   -1    0    0    0  501  0.00000000000E+00  0.00000000000E+00  0.11732220216E+04  0.11732220216E+04  0.50400001928E-02 0. -1.
        1   -1    0    0  501    0  0.00000000000E+00  0.00000000000E+00 -0.16748945761E+04  0.16748945761E+04  0.50400001928E-02 0.  1.
    10030    2    1    2    0    0  0.00000000000E+00  0.00000000000E+00 -0.50167255449E+03  0.28481165977E+04  0.28035857045E+04 0.  0.
        4    1    3    3  502    0  0.10955016710E+04  0.48666909881E+03 -0.98904947791E+03  0.15540885450E+04  0.12699999809E+01 0.  1.
       -4    1    3    3    0  502 -0.10955016710E+04 -0.48666909881E+03  0.48737692342E+03  0.12940280528E+04  0.12699999809E+01 0. -1.
</event>
<event>
 5   0  0.3212679E-06  0.2855418E+04  0.7818609E-02  0.8286267E-01
       -2   -1    0    0    0  501  0.00000000000E+00  0.00000000000E+00  0.73738106205E+03  0.73738106206E+03  0.25500000920E-02 0. -1.
        2   -1    0    0  501    0  0.00000000000E+00  0.00000000000E+00 -0.27643149708E+04  0.27643149708E+04  0.25500000920E-02 0.  1.
    10030    2    1    2    0    0  0.00000000000E+00  0.00000000000E+00 -0.20269339088E+04  0.35016960329E+04  0.28554183645E+04 0.  0.
        4    1    3    3  502    0 -0.12153635049E+04 -0.67801873737E+03 -0.14042309368E+04  0.19770391989E+04  0.12699999809E+01 0.  1.
       -4    1    3    3    0  502  0.12153635049E+04  0.67801873737E+03 -0.62270297197E+03  0.15246568340E+04  0.12699999809E+01 0. -1.
</event>
<event>
 5   0  0.1220265E-06  0.2789119E+04  0.7818609E-02  0.8306654E-01
        1   -1    0    0  501    0  0.00000000000E+00  0.00000000000E+00  0.12239524960E+04  0.12239524960E+04  0.50400001928E-02 0. -1.
       -1   -1    0    0    0  501  0.00000000000E+00  0.00000000000E+00 -0.15889477023E+04  0.15889477024E+04  0.50400001928E-02 0.  1.
    10030    2    1    2    0    0  0.00000000000E+00  0.00000000000E+00 -0.36499520636E+03  0.28129001984E+04  0.27891192203E+04 0.  0.
        4    1    3    3  502    0  0.78041470364E+03  0.88571920104E+03  0.56629451278E+03  0.13092886240E+04  0.12699999809E+01 0. -1.
       -4    1    3    3    0  502 -0.78041470364E+03 -0.88571920104E+03 -0.93128971914E+03  0.15036115744E+04  0.12699999809E+01 0.  1.
</event>
<event>
 5   0  0.1263513E-06  0.2798268E+04  0.7818609E-02  0.8303806E-01
        1   -1    0    0  501    0  0.00000000000E+00  0.00000000000E+00  0.18167450718E+04  0.18167450718E+04  0.50400001928E-02 0. -1.
       -1   -1    0    0    0  501  0.00000000000E+00  0.00000000000E+00 -0.10775178759E+04  0.10775178760E+04  0.50400001928E-02 0.  1.
    10030    2    1    2    0    0  0.00000000000E+00  0.00000000000E+00  0.73922719587E+03  0.28942629478E+04  0.27982675290E+04 0.  0.
        3    1    3    3  502    0  0.13109477215E+04  0.18866543800E+03  0.83608036492E+03  0.15662723144E+04  0.10100000352E+00 0. -1.
       -3    1    3    3    0  502 -0.13109477215E+04 -0.18866543800E+03 -0.96853169049E+02  0.13279906334E+04  0.10100000352E+00 0.  1.
</event>
<event>
 5   0  0.3162695E-06  0.2745470E+04  0.7818609E-02  0.8320400E-01
        2   -1    0    0  501    0  0.00000000000E+00  0.00000000000E+00  0.20352110660E+04  0.20352110660E+04  0.25500000920E-02 0. -1.
       -2   -1    0    0    0  501  0.00000000000E+00  0.00000000000E+00 -0.92589999497E+03  0.92589999498E+03  0.25500000920E-02 0.  1.
    10030    2    1    2    0    0  0.00000000000E+00  0.00000000000E+00  0.11093110710E+04  0.29611110610E+04  0.27454703901E+04 0.  0.
        1    1    3    3  502    0  0.50984089354E+03  0.36572761326E+03  0.18714989901E+04  0.19738801620E+04  0.50400001928E-02 0. -1.
       -1    1    3    3    0  502 -0.50984089354E+03 -0.36572761326E+03 -0.76218791912E+03  0.98723089898E+03  0.50400001928E-02 0.  1.
</event>
<event>
 5   0  0.3226364E-06  0.2790557E+04  0.7818609E-02  0.8306206E-01
        2   -1    0    0  501    0  0.00000000000E+00  0.00000000000E+00  0.18797933159E+04  0.18797933159E+04  0.25500000920E-02 0.  1.
       -2   -1    0    0    0  501  0.00000000000E+00  0.00000000000E+00 -0.10356469283E+04  0.10356469283E+04  0.25500000920E-02 0. -1.
    10030    2    1    2    0    0  0.00000000000E+00  0.00000000000E+00  0.84414638761E+03  0.29154402442E+04  0.27905570580E+04 0.  0.
        5    1    3    3  502    0  0.42229373948E+03  0.59825303347E+03  0.16628856784E+04  0.18169891480E+04  0.46999998093E+01 0.  1.
       -5    1    3    3    0  502 -0.42229373948E+03 -0.59825303347E+03 -0.81873929080E+03  0.10984510962E+04  0.46999998093E+01 0. -1.
</event>
<event>
 5   0  0.1220265E-06  0.2803412E+04  0.7818609E-02  0.8302210E-01
       -1   -1    0    0    0  501  0.00000000000E+00  0.00000000000E+00  0.18383560259E+04  0.18383560259E+04  0.50400001928E-02 0. -1.
        1   -1    0    0  501    0  0.00000000000E+00  0.00000000000E+00 -0.10687699260E+04  0.10687699260E+04  0.50400001928E-02 0.  1.
    10030    2    1    2    0    0  0.00000000000E+00  0.00000000000E+00  0.76958609990E+03  0.29071259518E+04  0.28034119452E+04 0.  0.
        4    1    3    3  502    0 -0.99656335225E+03 -0.93292079433E+03  0.71484173067E+03  0.15409347930E+04  0.12699999809E+01 0. -1.
       -4    1    3    3    0  502  0.99656335225E+03  0.93292079433E+03  0.54744369229E+02  0.13661911588E+04  0.12699999809E+01 0.  1.
</event>
<event>
 5   0  0.3212679E-06  0.2842539E+04  0.7818609E-02  0.8290182E-01
        2   -1    0    0  501    0  0.00000000000E+00  0.00000000000E+00  0.13329629322E+04  0.13329629322E+04  0.25500000920E-02 0.  1.
       -2   -1    0    0    0  501  0.00000000000E+00  0.00000000000E+00 -0.15154260970E+04  0.15154260970E+04  0.25500000920E-02 0. -1.
    10030    2    1    2    0    0  0.00000000000E+00  0.00000000000E+00 -0.18246316472E+03  0.28483890292E+04  0.28425388749E+04 0.  0.
        4    1    3    3  502    0 -0.69104238986E+03  0.12385802861E+04  0.52373580084E+00  0.14183168183E+04  0.12699999809E+01 0. -1.
       -4    1    3    3    0  502  0.69104238986E+03 -0.12385802861E+04 -0.18298690052E+03  0.14300722109E+04  0.12699999809E+01 0.  1.
</event>
<event>
 5   0  0.3345919E-06  0.2798557E+04  0.7818609E-02  0.8303717E-01
        2   -1    0    0  501    0  0.00000000000E+00  0.00000000000E+00  0.11727070328E+04  0.11727070328E+04  0.25500000920E-02 0.  1.
       -2   -1    0    0    0  501  0.00000000000E+00  0.00000000000E+00 -0.16696240566E+04  0.16696240566E+04  0.25500000920E-02 0. -1.
    10030    2    1    2    0    0  0.00000000000E+00  0.00000000000E+00 -0.49691702376E+03  0.28423310893E+04  0.27985566803E+04 0.  0.
        2    1    3    3  502    0 -0.29204240946E+03 -0.93718278888E+03  0.76432505187E+03  0.12441033452E+04  0.25500000920E-02 0.  1.
       -2    1    3    3    0  502  0.29204240946E+03  0.93718278888E+03 -0.12612420756E+04  0.15982277441E+04  0.25500000920E-02 0. -1.
</event>
<event>
 5   0  0.1235252E-06  0.2802723E+04  0.7818609E-02  0.8302424E-01
       -1   -1    0    0    0  501  0.00000000000E+00  0.00000000000E+00  0.21843392806E+04  0.21843392806E+04  0.50400001928E-02 0. -1.
        1   -1    0    0  501    0  0.00000000000E+00  0.00000000000E+00 -0.89904241820E+03  0.89904241822E+03  0.50400001928E-02 0.  1.
    10030    2    1    2    0    0  0.00000000000E+00  0.00000000000E+00  0.12852968624E+04  0.30833816988E+04  0.28027227255E+04 0.  0.
        1    1    3    3  502    0 -0.67513759618E+03  0.82979529776E+03  0.16385271224E+04  0.19568193941E+04  0.50400001928E-02 0. -1.
       -1    1    3    3    0  502  0.67513759618E+03 -0.82979529776E+03 -0.35323026002E+03  0.11265623048E+04  0.50400001928E-02 0.  1.
</event>
<event>
 5   0  0.3345919E-06  0.2805618E+04  0.7818609E-02  0.8301526E-01
        2   -1    0    0  501    0  0.00000000000E+00  0.00000000000E+00  0.12238267462E+04  0.12238267462E+04  0.25500000920E-02 0. -1.
       -2   -1    0    0    0  501  0.00000000000E+00  0.00000000000E+00 -0.16079665730E+04  0.16079665730E+04  0.25500000920E-02 0.  1.
    10030    2    1    2    0    0  0.00000000000E+00  0.00000000000E+00 -0.38413982680E+03  0.28317933193E+04  0.28056175784E+04 0.  0.
        2    1    3    3  502    0 -0.13469575894E+03 -0.84742088000E+03 -0.13122019651E+04  0.15678453663E+04  0.25500000920E-02 0.  1.
       -2    1    3    3    0  502  0.13469575894E+03  0.84742088000E+03  0.92806213828E+03  0.12639479530E+04  0.25500000920E-02 0. -1.
</event>
<event>
 5   0  0.1246044E-06  0.2809867E+04  0.7818609E-02  0.8300212E-01
        1   -1    0    0  501    0  0.00000000000E+00  0.00000000000E+00  0.81812228264E+03  0.81812228266E+03  0.50400001928E-02 0. -1.
       -1   -1    0    0    0  501  0.00000000000E+00  0.00000000000E+00 -0.24126438788E+04  0.24126438788E+04  0.50400001928E-02 0.  1.
    10030    2    1    2    0    0  0.00000000000E+00  0.00000000000E+00 -0.15945215962E+04  0.32307661615E+04  0.28098666996E+04 0.  0.
        2    1    3    3  502    0 -0.63979258030E+02  0.33865290358E+03  0.76876395615E+03  0.84248273266E+03  0.25500000920E-02 0. -1.
       -2    1    3    3    0  502  0.63979258030E+02 -0.33865290358E+03 -0.23632855523E+04  0.23882834288E+04  0.25500000920E-02 0.  1.
</event>
<event>
 5   0  0.1235252E-06  0.2798294E+04  0.7818609E-02  0.8303798E-01
        1   -1    0    0  501    0  0.00000000000E+00  0.00000000000E+00  0.13002871342E+04  0.13002871343E+04  0.50400001928E-02 0.  1.
       -1   -1    0    0    0  501  0.00000000000E+00  0.00000000000E+00 -0.15055235784E+04  0.15055235784E+04  0.50400001928E-02 0. -1.
    10030    2    1    2    0    0  0.00000000000E+00  0.00000000000E+00 -0.20523644415E+03  0.28058107127E+04  0.27982944372E+04 0.  0.
        1    1    3    3  502    0  0.67366489332E+03 -0.12192053882E+04  0.29366539144E+02  0.13932510760E+04  0.50400001928E-02 0.  1.
       -1    1    3    3    0  502 -0.67366489332E+03  0.12192053882E+04 -0.23460298329E+03  0.14125596366E+04  0.50400001928E-02 0. -1.
</event>
<event>
 5   0  0.3162695E-06  0.2756495E+04  0.7818609E-02  0.8316904E-01
       -2   -1    0    0    0  501  0.00000000000E+00  0.00000000000E+00  0.14933045068E+04  0.14933045068E+04  0.25500000920E-02 0.  1.
        2   -1    0    0  501    0  0.00000000000E+00  0.00000000000E+00 -0.12720551943E+04  0.12720551944E+04  0.25500000920E-02 0. -1.
    10030    2    1    2    0    0  0.00000000000E+00  0.00000000000E+00  0.22124931247E+03  0.27653597012E+04  0.27564946977E+04 0.  0.
        1    1    3    3  502    0  0.81452840578E+02 -0.87633094454E+03 -0.95343494574E+03  0.12975471804E+04  0.50400001928E-02 0. -1.
       -1    1    3    3    0  502 -0.81452840578E+02  0.87633094454E+03  0.11746842582E+04  0.14678125208E+04  0.50400001928E-02 0.  1.
</event>
<event>
 5   0  0.3345919E-06  0.2800255E+04  0.7818609E-02  0.8303189E-01
       -2   -1    0    0    0  501  0.00000000000E+00  0.00000000000E+00  0.10766707238E+04  0.10766707238E+04  0.25500000920E-02 0. -1.
        2   -1    0    0  501    0  0.00000000000E+00  0.00000000000E+00 -0.18207580939E+04  0.18207580939E+04  0.25500000920E-02 0.  1.
    10030    2    1    2    0    0  0.00000000000E+00  0.00000000000E+00 -0.74408737011E+03  0.28974288177E+04  0.28002549419E+04 0.  0.
        2    1    3    3  502    0 -0.11834393597E+04  0.26869986929E+03  0.35049280736E+03  0.12631601426E+04  0.25500000920E-02 0. -1.
       -2    1    3    3    0  502  0.11834393597E+04 -0.26869986929E+03 -0.10945801775E+04  0.16342686752E+04  0.25500000920E-02 0.  1.
</event>
<event>
 5   0  0.1235252E-06  0.2853803E+04  0.7818609E-02  0.8286757E-01
       -1   -1    0    0    0  501  0.00000000000E+00  0.00000000000E+00  0.16626368635E+04  0.16626368635E+04  0.50400001928E-02 0.  1.
        1   -1    0    0  501    0  0.00000000000E+00  0.00000000000E+00 -0.12245898550E+04  0.12245898551E+04  0.50400001928E-02 0. -1.
    10030    2    1    2    0    0  0.00000000000E+00  0.00000000000E+00  0.43804700843E+03  0.28872267185E+04  0.28538032417E+04 0.  0.
        1    1    3    3  502    0 -0.52987968845E+03  0.74556684791E+02  0.15572843546E+04  0.16466528914E+04  0.50400001928E-02 0.  1.
       -1    1    3    3    0  502  0.52987968845E+03 -0.74556684791E+02 -0.11192373462E+04  0.12405738272E+04  0.50400001928E-02 0. -1.
</event>
<event>
 5   0  0.1246044E-06  0.2798625E+04  0.7818609E-02  0.8303695E-01
        1   -1    0    0  501    0  0.00000000000E+00  0.00000000000E+00  0.15731146403E+04  0.15731146403E+04  0.50400001928E-02 0.  1.
       -1   -1    0    0    0  501  0.00000000000E+00  0.00000000000E+00 -0.12447124197E+04  0.12447124197E+04  0.50400001928E-02 0. -1.
    10030    2    1    2    0    0  0.00000000000E+00  0.00000000000E+00  0.32840222062E+03  0.28178270600E+04  0.27986248983E+04 0.  0.
        2    1    3    3  502    0  0.92158423295E+03 -0.89652666551E+03  0.72025639658E+03  0.14737187103E+04  0.25500000920E-02 0. -1.
       -2    1    3    3    0  502 -0.92158423295E+03  0.89652666551E+03 -0.39185417596E+03  0.13441083497E+04  0.25500000920E-02 0.  1.
</event>
<event>
 5   0  0.3162695E-06  0.2803805E+04  0.7818609E-02  0.8302088E-01
       -2   -1    0    0    0  501  0.00000000000E+00  0.00000000000E+00  0.84980377600E+03  0.84980377600E+03  0.25500000920E-02 0. -1.
        2   -1    0    0  501    0  0.00000000000E+00  0.00000000000E+00 -0.23126867900E+04  0.23126867900E+04  0.25500000920E-02 0.  1.
    10030    2    1    2    0    0  0.00000000000E+00  0.00000000000E+00 -0.14628830140E+04  0.31624905660E+04  0.28038045345E+04 0.  0.
        1    1    3    3  502    0  0.10407565689E+04  0.93908922958E+03 -0.74987718760E+03  0.15897731326E+04  0.50400001928E-02 0. -1.
       -1    1    3    3    0  502 -0.10407565689E+04 -0.93908922958E+03 -0.71300582643E+03  0.15727174334E+04  0.50400001928E-02 0.  1.
</event>
<event>
 5   0  0.1246044E-06  0.2774034E+04  0.7818609E-02  0.8311375E-01
        1   -1    0    0  501    0  0.00000000000E+00  0.00000000000E+00  0.11864846406E+04  0.11864846406E+04  0.50400001928E-02 0.  1.
       -1   -1    0    0    0  501  0.00000000000E+00  0.00000000000E+00 -0.16214420441E+04  0.16214420441E+04  0.50400001928E-02 0. -1.
    10030    2    1    2    0    0  0.00000000000E+00  0.00000000000E+00 -0.43495740348E+03  0.28079266846E+04  0.27740339442E+04 0.  0.
        2    1    3    3  502    0 -0.99136591323E+02  0.99835185062E+03  0.75197111752E+03  0.12537922647E+04  0.25500000920E-02 0.  1.
       -2    1    3    3    0  502  0.99136591323E+02 -0.99835185062E+03 -0.11869285210E+04  0.15541344200E+04  0.25500000920E-02 0. -1.
</event>
<event>
 5   0  0.1263513E-06  0.2792769E+04  0.7818609E-02  0.8305517E-01
       -1   -1    0    0    0  501  0.00000000000E+00  0.00000000000E+00  0.14055250594E+04  0.14055250594E+04  0.50400001928E-02 0.  1.
        1   -1    0    0  501    0  0.00000000000E+00  0.00000000000E+00 -0.13873037992E+04  0.13873037992E+04  0.50400001928E-02 0. -1.
    10030    2    1    2    0    0  0.00000000000E+00  0.00000000000E+00  0.18221260235E+02  0.27928288586E+04  0.27927694175E+04 0.  0.
        3    1    3    3  502    0 -0.10430213112E+03  0.27004196750E+03 -0.13569669966E+04  0.13875017257E+04  0.10100000352E+00 0. -1.
       -3    1    3    3    0  502  0.10430213112E+03 -0.27004196750E+03  0.13751882568E+04  0.14053271330E+04  0.10100000352E+00 0.  1.
</event>
<event>
 5   0  0.3162695E-06  0.2797212E+04  0.7818609E-02  0.8304135E-01
       -2   -1    0    0    0  501  0.00000000000E+00  0.00000000000E+00  0.13277344099E+04  0.13277344099E+04  0.25500000920E-02 0.  1.
        2   -1    0    0  501    0  0.00000000000E+00  0.00000000000E+00 -0.14732600880E+04  0.14732600880E+04  0.25500000920E-02 0. -1.
    10030    2    1    2    0    0  0.00000000000E+00  0.00000000000E+00 -0.14552567810E+03  0.28009944979E+04  0.27972115498E+04 0.  0.
        1    1    3    3  502    0 -0.17414094470E+03  0.12180840348E+04  0.59300046638E+03  0.13659075143E+04  0.50400001928E-02 0.  1.
       -1    1    3    3    0  502  0.17414094470E+03 -0.12180840348E+04 -0.73852614448E+03  0.14350869836E+04  0.50400001928E-02 0. -1.
</event>
<event>
 5   0  0.3212679E-06  0.2799580E+04  0.7818609E-02  0.8303399E-01
        2   -1    0    0  501    0  0.00000000000E+00  0.00000000000E+00  0.21814836483E+04  0.21814836483E+04  0.25500000920E-02 0. -1.
       -2   -1    0    0    0  501  0.00000000000E+00  0.00000000000E+00 -0.89820137866E+03  0.89820137866E+03  0.25500000920E-02 0.  1.
    10030    2    1    2    0    0  0.00000000000E+00  0.00000000000E+00  0.12832822697E+04  0.30796850270E+04  0.27995796973E+04 0.  0.
        4    1    3    3  502    0  0.95244636131E+03  0.83194382098E+03  0.13017876760E+04  0.18149207583E+04  0.12699999809E+01 0. -1.
       -4    1    3    3    0  502 -0.95244636131E+03 -0.83194382098E+03 -0.18505406368E+02  0.12647642687E+04  0.12699999809E+01 0.  1.
</event>
<event>
 5   0  0.3212679E-06  0.2823112E+04  0.7818609E-02  0.8296129E-01
        2   -1    0    0  501    0  0.00000000000E+00  0.00000000000E+00  0.13879190103E+04  0.13879190103E+04  0.25500000920E-02 0. -1.
       -2   -1    0    0    0  501  0.00000000000E+00  0.00000000000E+00 -0.14355951490E+04  0.14355951490E+04  0.25500000920E-02 0.  1.
    10030    2    1    2    0    0  0.00000000000E+00  0.00000000000E+00 -0.47676138715E+02  0.28235141593E+04  0.28231116155E+04 0.  0.
        4    1    3    3  502    0  0.74530772600E+03 -0.78350488430E+03 -0.93122962134E+03  0.14270787402E+04  0.12699999809E+01 0.  1.
       -4    1    3    3    0  502 -0.74530772600E+03  0.78350488430E+03  0.88355348263E+03  0.13964354191E+04  0.12699999809E+01 0. -1.
</event>
<event>
 5   0  0.3167616E-06  0.2791121E+04  0.7818609E-02  0.8306030E-01
        2   -1    0    0  501    0  0.00000000000E+00  0.00000000000E+00  0.23610942389E+04  0.23610942389E+04  0.25500000920E-02 0. -1.
       -2   -1    0    0    0  501  0.00000000000E+00  0.00000000000E+00 -0.82486721030E+03  0.82486721031E+03  0.25500000920E-02 0.  1.
    10030    2    1    2    0    0  0.00000000000E+00  0.00000000000E+00  0.15362270286E+04  0.31859614492E+04  0.27911210781E+04 0.  0.
        3    1    3    3  502    0  0.53003909166E+03  0.12800133712E+04  0.57638327219E+03  0.15005310246E+04  0.10100000352E+00 0.  1.
       -3    1    3    3    0  502 -0.53003909166E+03 -0.12800133712E+04  0.95984375640E+03  0.16854304246E+04  0.10100000352E+00 0. -1.
</event>
<event>
 5   0  0.1235252E-06  0.2796795E+04  0.7818609E-02  0.8304264E-01
       -1   -1    0    0    0  501  0.00000000000E+00  0.00000000000E+00  0.11133378693E+04  0.11133378694E+04  0.50400001928E-02 0.  1.
        1   -1    0    0  501    0  0.00000000000E+00  0.00000000000E+00 -0.17564434025E+04  0.17564434025E+04  0.50400001928E-02 0. -1.
    10030    2    1    2    0    0  0.00000000000E+00  0.00000000000E+00 -0.64310553313E+03  0.28697812718E+04  0.27967945619E+04 0.  0.
        1    1    3    3  502    0  0.92056002884E+03 -0.13823836427E+03 -0.13923248856E+04  0.16748460225E+04  0.50400001928E-02 0. -1.
       -1    1    3    3    0  502 -0.92056002884E+03  0.13823836427E+03  0.74921935243E+03  0.11949352493E+04  0.50400001928E-02 0.  1.
</event>
<event>
 5   0  0.3345919E-06  0.2791134E+04  0.7818609E-02  0.8306026E-01
        2   -1    0    0  501    0  0.00000000000E+00  0.00000000000E+00  0.13396683642E+04  0.13396683642E+04  0.25500000920E-02 0.  1.
       -2   -1    0    0    0  501  0.00000000000E+00  0.00000000000E+00 -0.14537984927E+04  0.14537984927E+04  0.25500000920E-02 0. -1.
    10030    2    1    2    0    0  0.00000000000E+00  0.00000000000E+00 -0.11413012856E+03  0.27934668569E+04  0.27911344279E+04 0.  0.
        2    1    3    3  502    0 -0.86112845183E+03 -0.90741204873E+03  0.56205434154E+03  0.13714386314E+04  0.25500000920E-02 0.  1.
       -2    1    3    3    0  502  0.86112845183E+03  0.90741204873E+03 -0.67618447011E+03  0.14220282256E+04  0.25500000920E-02 0. -1.
</event>
<event>
 5   0  0.3162695E-06  0.2799900E+04  0.7818609E-02  0.8303299E-01
        2   -1    0    0  501    0  0.00000000000E+00  0.00000000000E+00  0.19439339042E+04  0.19439339042E+04  0.25500000920E-02 0.  1.
       -2   -1    0    0    0  501  0.00000000000E+00  0.00000000000E+00 -0.10081929635E+04  0.10081929635E+04  0.25500000920E-02 0. -1.
    10030    2    1    2    0    0  0.00000000000E+00  0.00000000000E+00  0.93574094069E+03  0.29521268677E+04  0.27999003438E+04 0.  0.
        1    1    3    3  502    0 -0.16972072059E+02  0.35827777587E+03  0.18946650672E+04  0.19283170727E+04  0.50400001928E-02 0.  1.
       -1    1    3    3    0  502  0.16972072059E+02 -0.35827777587E+03 -0.95892412652E+03  0.10238097950E+04  0.50400001928E-02 0. -1.
</event>
<event>
 5   0  0.1246044E-06  0.2799941E+04  0.7818609E-02  0.8303287E-01
        1   -1    0    0  501    0  0.00000000000E+00  0.00000000000E+00  0.12165792641E+04  0.12165792641E+04  0.50400001928E-02 0.  1.
       -1   -1    0    0    0  501  0.00000000000E+00  0.00000000000E+00 -0.16110065277E+04  0.16110065277E+04  0.50400001928E-02 0. -1.
    10030    2    1    2    0    0  0.00000000000E+00  0.00000000000E+00 -0.39442726361E+03  0.28275857918E+04  0.27999408107E+04 0.  0.
        2    1    3    3  502    0 -0.46277758542E+03  0.72205795811E+03 -0.13146586900E+04  0.15696682005E+04  0.25500000920E-02 0. -1.
       -2    1    3    3    0  502  0.46277758542E+03 -0.72205795811E+03  0.92023142636E+03  0.12579175913E+04  0.25500000920E-02 0.  1.
</event>
<event>
 5   0  0.1246044E-06  0.2811684E+04  0.7818609E-02  0.8299650E-01
        1   -1    0    0  501    0  0.00000000000E+00  0.00000000000E+00  0.18131655079E+04  0.18131655080E+04  0.50400001928E-02 0. -1.
       -1   -1    0    0    0  501  0.00000000000E+00  0.00000000000E+00 -0.10900224409E+04  0.10900224409E+04  0.50400001928E-02 0.  1.
    10030    2    1    2    0    0  0.00000000000E+00  0.00000000000E+00  0.72314306707E+03  0.29031879488E+04  0.28116835474E+04 0.  0.
        2    1    3    3  502    0  0.78601943635E+03 -0.88213403603E+03  0.11482077576E+04  0.16475339348E+04  0.25500000920E-02 0. -1.
       -2    1    3    3    0  502 -0.78601943635E+03  0.88213403603E+03 -0.42506469049E+03  0.12556540140E+04  0.25500000920E-02 0.  1.
</event>
<event>
 5   0  0.3162695E-06  0.2752576E+04  0.7818609E-02  0.8318145E-01
       -2   -1    0    0    0  501  0.00000000000E+00  0.00000000000E+00  0.11584839506E+04  0.11584839506E+04  0.25500000920E-02 0. -1.
        2   -1    0    0  501    0  0.00000000000E+00  0.00000000000E+00 -0.16350409748E+04  0.16350409748E+04  0.25500000920E-02 0.  1.
    10030    2    1    2    0    0  0.00000000000E+00  0.00000000000E+00 -0.47655702426E+03  0.27935249254E+04  0.27525760501E+04 0.  0.
        1    1    3    3  502    0  0.79228956994E+03  0.87004169171E+03 -0.96267108597E+03  0.15203390831E+04  0.50400001928E-02 0.  1.
       -1    1    3    3    0  502 -0.79228956994E+03 -0.87004169171E+03  0.48611406171E+03  0.12731858423E+04  0.50400001928E-02 0. -1.
</event>
<event>
 5   0  0.3212679E-06  0.2799447E+04  0.7818609E-02  0.8303440E-01
       -2   -1    0    0    0  501  0.00000000000E+00  0.00000000000E+00  0.73733535005E+03  0.73733535005E+03  0.25500000920E-02 0.  1.
        2   -1    0    0  501    0  0.00000000000E+00  0.00000000000E+00 -0.26571708490E+04  0.26571708490E+04  0.25500000920E-02 0. -1.
    10030    2    1    2    0    0  0.00000000000E+00  0.00000000000E+00 -0.19198354989E+04  0.33945061990E+04  0.27994470869E+04 0.  0.
        4    1    3    3  502    0  0.12700207653E+04  0.20846104521E+03 -0.16271752884E+04  0.20746348556E+04  0.12699999809E+01 0. -1.
       -4    1    3    3    0  502 -0.12700207653E+04 -0.20846104521E+03 -0.29266021049E+03  0.13198713435E+04  0.12699999809E+01 0.  1.
</event>
<event>
 5   0  0.3212679E-06  0.2792654E+04  0.7818609E-02  0.8305553E-01
        2   -1    0    0  501    0  0.00000000000E+00  0.00000000000E+00  0.22119755318E+04  0.22119755318E+04  0.25500000920E-02 0.  1.
       -2   -1    0    0    0  501  0.00000000000E+00  0.00000000000E+00 -0.88144244679E+03  0.88144244679E+03  0.25500000920E-02 0. -1.
    10030    2    1    2    0    0  0.00000000000E+00  0.00000000000E+00  0.13305330850E+04  0.30934179786E+04  0.27926540244E+04 0.  0.
        4    1    3    3  502    0 -0.12168229054E+04 -0.45820684865E+03  0.12291230491E+04  0.17892335180E+04  0.12699999809E+01 0.  1.
       -4    1    3    3    0  502  0.12168229054E+04  0.45820684865E+03  0.10141003598E+03  0.13041844607E+04  0.12699999809E+01 0. -1.
</event>
<event>
 5   0  0.1263513E-06  0.2811853E+04  0.7818609E-02  0.8299598E-01
       -1   -1    0    0    0  501  0.00000000000E+00  0.00000000000E+00  0.12138989922E+04  0.12138989922E+04  0.50400001928E-02 0. -1.
        1   -1    0    0  501    0  0.00000000000E+00  0.00000000000E+00 -0.16283304409E+04  0.16283304409E+04  0.50400001928E-02 0.  1.
    10030    2    1    2    0    0  0.00000000000E+00  0.00000000000E+00 -0.41443144874E+03  0.28422294332E+04  0.28118525433E+04 0.  0.
        3    1    3    3  502    0  0.33622525099E+03 -0.13432709330E+04  0.38732546934E+02  0.13852524821E+04  0.10100000352E+00 0.  1.
       -3    1    3    3    0  502 -0.33622525099E+03  0.13432709330E+04 -0.45316399567E+03  0.14569769511E+04  0.10100000352E+00 0. -1.
</event>
<event>
 5   0  0.1243055E-06  0.2827301E+04  0.7818609E-02  0.8294842E-01
        1   -1    0    0  501    0  0.00000000000E+00  0.00000000000E+00  0.13116206102E+04  0.13116206102E+04  0.50400001928E-02 0. -1.
       -1   -1    0    0    0  501  0.00000000000E+00  0.00000000000E+00 -0.15236176736E+04  0.15236176736E+04  0.50400001928E-02 0.  1.
    10030    2    1    2    0    0  0.00000000000E+00  0.00000000000E+00 -0.21199706346E+03  0.28352382838E+04  0.28273014291E+04 0.  0.
        5    1    3    3  502    0  0.19088352924E+03  0.89629028715E+03 -0.11854092721E+04  0.14983290803E+04  0.46999998093E+01 0.  1.
       -5    1    3    3    0  502 -0.19088352924E+03 -0.89629028715E+03  0.97341220859E+03  0.13369092035E+04  0.46999998093E+01 0. -1.
</event>
<event>
 5   0  0.3345919E-06  0.2791514E+04  0.7818609E-02  0.8305908E-01
       -2   -1    0    0    0  501  0.00000000000E+00  0.00000000000E+00  0.93571040146E+03  0.93571040147E+03  0.25500000920E-02 0.  1.
        2   -1    0    0  501    0  0.00000000000E+00  0.00000000000E+00 -0.20819882655E+04  0.20819882655E+04  0.25500000920E-02 0. -1.
    10030    2    1    2    0    0  0.00000000000E+00  0.00000000000E+00 -0.11462778640E+04  0.30176986669E+04  0.27915143387E+04 0.  0.
        2    1    3    3  502    0  0.61198212355E+03 -0.31972852406E+03 -0.18844322649E+04  0.20069462897E+04  0.25500000920E-02 0. -1.
       -2    1    3    3    0  502 -0.61198212355E+03  0.31972852406E+03  0.73815440088E+03  0.10107523773E+04  0.25500000920E-02 0.  1.
</event>
<event>
 5   0  0.1246044E-06  0.2763473E+04  0.7818609E-02  0.8314699E-01
       -1   -1    0    0    0  501  0.00000000000E+00  0.00000000000E+00  0.15988332302E+04  0.15988332302E+04  0.50400001928E-02 0. -1.
        1   -1    0    0  501    0  0.00000000000E+00  0.00000000000E+00 -0.11941180071E+04  0.11941180071E+04  0.50400001928E-02 0.  1.
    10030    2    1    2    0    0  0.00000000000E+00  0.00000000000E+00  0.40471522314E+03  0.27929512373E+04  0.27634728517E+04 0.  0.
        2    1    3    3  502    0  0.47121529894E+03  0.12973835689E+04  0.13885772477E+03  0.13872741079E+04  0.25500000920E-02 0.  1.
       -2    1    3    3    0  502 -0.47121529894E+03 -0.12973835689E+04  0.26585749837E+03  0.14056771294E+04  0.25500000920E-02 0. -1.
</event>
<event>
 5   0  0.1246044E-06  0.2799939E+04  0.7818609E-02  0.8303287E-01
       -1   -1    0    0    0  501  0.00000000000E+00  0.00000000000E+00  0.10263918727E+04  0.10263918728E+04  0.50400001928E-02 0.  1.
        1   -1    0    0  501    0  0.00000000000E+00  0.00000000000E+00 -0.19095188088E+04  0.19095188088E+04  0.50400001928E-02 0. -1.
    10030    2    1    2    0    0  0.00000000000E+00  0.00000000000E+00 -0.88312693604E+03  0.29359106815E+04  0.27999389895E+04 0.  0.
        2    1    3    3  502    0 -0.10113629037E+04 -0.85009447734E+03  0.43954930353E+02  0.13219105792E+04  0.25500000920E-02 0.  1.
       -2    1    3    3    0  502  0.10113629037E+04  0.85009447734E+03 -0.92708186639E+03  0.16140001024E+04  0.25500000920E-02 0. -1.
</event>
<event>
 5   0  0.1235252E-06  0.2798967E+04  0.7818609E-02  0.8303589E-01
       -1   -1    0    0    0  501  0.00000000000E+00  0.00000000000E+00  0.14256430815E+04  0.14256430815E+04  0.50400001928E-02 0. -1.
        1   -1    0    0  501    0  0.00000000000E+00  0.00000000000E+00 -0.13738037556E+04  0.13738037556E+04  0.50400001928E-02 0.  1.
    10030    2    1    2    0    0  0.00000000000E+00  0.00000000000E+00  0.51839325880E+02  0.27994468371E+04  0.27989668233E+04 0.  0.
        1    1    3    3  502    0 -0.13060017297E+04 -0.48138460114E+03  0.17148557028E+03  0.14024189648E+04  0.50400001928E-02 0.  1.
       -1    1    3    3    0  502  0.13060017297E+04  0.48138460114E+03 -0.11964624440E+03  0.13970278723E+04  0.50400001928E-02 0. -1.
</event>
<event>
 5   0  0.3345919E-06  0.2794649E+04  0.7818609E-02  0.8304932E-01
       -2   -1    0    0    0  501  0.00000000000E+00  0.00000000000E+00  0.18324246481E+04  0.18324246481E+04  0.25500000920E-02 0.  1.
        2   -1    0    0  501    0  0.00000000000E+00  0.00000000000E+00 -0.10655365921E+04  0.10655365922E+04  0.25500000920E-02 0. -1.
    10030    2    1    2    0    0  0.00000000000E+00  0.00000000000E+00  0.76688805599E+03  0.28979612403E+04  0.27946488258E+04 0.  0.
        2    1    3    3  502    0 -0.19356547616E+03 -0.84950679310E+03 -0.74936270883E+03  0.11492057494E+04  0.25500000920E-02 0. -1.
       -2    1    3    3    0  502  0.19356547616E+03  0.84950679310E+03  0.15162507648E+04  0.17487554909E+04  0.25500000920E-02 0.  1.
</event>
<event>
 5   0  0.3212679E-06  0.2802349E+04  0.7818609E-02  0.8302539E-01
        2   -1    0    0  501    0  0.00000000000E+00  0.00000000000E+00  0.16138500492E+04  0.16138500492E+04  0.25500000920E-02 0. -1.
       -2   -1    0    0    0  501  0.00000000000E+00  0.00000000000E+00 -0.12165256630E+04  0.12165256630E+04  0.25500000920E-02 0.  1.
    10030    2    1    2    0    0  0.00000000000E+00  0.00000000000E+00  0.39732438628E+03  0.28303757122E+04  0.28023490154E+04 0.  0.
        4    1    3    3  502    0 -0.42730427622E+02 -0.13981971196E+04  0.28013688615E+03  0.14266251654E+04  0.12699999809E+01 0.  1.
       -4    1    3    3    0  502  0.42730427622E+02  0.13981971196E+04  0.11718750014E+03  0.14037505468E+04  0.12699999809E+01 0. -1.
</event>
<event>
 5   0  0.1263513E-06  0.2793346E+04  0.7818609E-02  0.8305337E-01
        1   -1    0    0  501    0  0.00000000000E+00  0.00000000000E+00  0.13667979835E+04  0.13667979835E+04  0.50400001928E-02 0. -1.
       -1   -1    0    0    0  501  0.00000000000E+00  0.00000000000E+00 -0.14272011483E+04  0.14272011483E+04  0.50400001928E-02 0.  1.
    10030    2    1    2    0    0  0.00000000000E+00  0.00000000000E+00 -0.60403164796E+02  0.27939991318E+04  0.27933461308E+04 0.  0.
        3    1    3    3  502    0  0.10189983452E+04 -0.39683355665E+03 -0.89923214083E+03  0.14157870435E+04  0.10100000352E+00 0.  1.
       -3    1    3    3    0  502 -0.10189983452E+04  0.39683355665E+03  0.83882897603E+03  0.13782120883E+04  0.10100000352E+00 0. -1.
</event>
<event>
 5   0  0.3162695E-06  0.2803650E+04  0.7818609E-02  0.8302136E-01
        2   -1    0    0  501    0  0.00000000000E+00  0.00000000000E+00  0.16169874277E+04  0.16169874277E+04  0.25500000920E-02 0. -1.
       -2   -1    0    0    0  501  0.00000000000E+00  0.00000000000E+00 -0.12152925891E+04  0.12152925891E+04  0.25500000920E-02 0.  1.
    10030    2    1    2    0    0  0.00000000000E+00  0.00000000000E+00  0.40169483866E+03  0.28322800168E+04  0.28036496483E+04 0.  0.
        1    1    3    3  502    0 -0.37032882632E+03  0.11674386585E+04 -0.48806695720E+03  0.13184330911E+04  0.50400001928E-02 0.  1.
       -1    1    3    3    0  502  0.37032882632E+03 -0.11674386585E+04  0.88976179586E+03  0.15138469257E+04  0.50400001928E-02 0. -1.
</event>
<event>
 5   0  0.1246044E-06  0.2802699E+04  0.7818609E-02  0.8302431E-01
       -1   -1    0    0    0  501  0.00000000000E+00  0.00000000000E+00  0.86455710633E+03  0.86455710634E+03  0.50400001928E-02 0.  1.
        1   -1    0    0  501    0  0.00000000000E+00  0.00000000000E+00 -0.22714292707E+04  0.22714292708E+04  0.50400001928E-02 0. -1.
    10030    2    1    2    0    0  0.00000000000E+00  0.00000000000E+00 -0.14068721644E+04  0.31359863771E+04  0.28026989261E+04 0.  0.
        2    1    3    3  502    0 -0.68266848777E+03  0.10286226978E+04 -0.14453709456E+04  0.19008414161E+04  0.25500000920E-02 0. -1.
       -2    1    3    3    0  502  0.68266848777E+03 -0.10286226978E+04  0.38498781211E+02  0.12351449610E+04  0.25500000920E-02 0.  1.
</event>
<event>
 5   0  0.1235252E-06  0.2813383E+04  0.7818609E-02  0.8299126E-01
        1   -1    0    0  501    0  0.00000000000E+00  0.00000000000E+00  0.12161050425E+04  0.12161050426E+04  0.50400001928E-02 0. -1.
       -1   -1    0    0    0  501  0.00000000000E+00  0.00000000000E+00 -0.16271463663E+04  0.16271463663E+04  0.50400001928E-02 0.  1.
    10030    2    1    2    0    0  0.00000000000E+00  0.00000000000E+00 -0.41104132379E+03  0.28432514089E+04  0.28133829466E+04 0.  0.
        1    1    3    3  502    0 -0.66077516050E+03  0.64379506722E+03 -0.12787197974E+04  0.15767752603E+04  0.50400001928E-02 0.  1.
       -1    1    3    3    0  502  0.66077516050E+03 -0.64379506722E+03  0.86767847361E+03  0.12664761486E+04  0.50400001928E-02 0. -1.
</event>
<event>
 5   0  0.1263513E-06  0.2798922E+04  0.7818609E-02  0.8303603E-01
        1   -1    0    0  501    0  0.00000000000E+00  0.00000000000E+00  0.10413428073E+04  0.10413428074E+04  0.50400001928E-02 0.  1.
       -1   -1    0    0    0  501  0.00000000000E+00  0.00000000000E+00 -0.18807367315E+04  0.18807367315E+04  0.50400001928E-02 0. -1.
    10030    2    1    2    0    0  0.00000000000E+00  0.00000000000E+00 -0.83939392413E+03  0.29220795388E+04  0.27989224125E+04 0.  0.
        3    1    3    3  502    0 -0.12956597470E+04 -0.42712032571E+03 -0.74539485771E+03  0.15545994522E+04  0.10100000352E+00 0. -1.
       -3    1    3    3    0  502  0.12956597470E+04  0.42712032571E+03 -0.93999066418E+02  0.13674800866E+04  0.10100000352E+00 0.  1.
</event>
<event>
 5   0  0.1235252E-06  0.2780457E+04  0.7818609E-02  0.8309362E-01
       -1   -1    0    0    0  501  0.00000000000E+00  0.00000000000E+00  0.11469302902E+04  0.11469302902E+04  0.50400001928E-02 0.  1.
        1   -1    0    0  501    0  0.00000000000E+00  0.00000000000E+00 -0.16851373862E+04  0.16851373862E+04  0.50400001928E-02 0. -1.
    10030    2    1    2    0    0  0.00000000000E+00  0.00000000000E+00 -0.53820709599E+03  0.28320676764E+04  0.27804568772E+04 0.  0.
        1    1    3    3  502    0 -0.47554399149E+03 -0.75995617087E+03  0.81319208305E+03  0.12103540116E+04  0.50400001928E-02 0.  1.
       -1    1    3    3    0  502  0.47554399149E+03  0.75995617087E+03 -0.13513991790E+04  0.16217136648E+04  0.50400001928E-02 0. -1.
</event>
<event>
 5   0  0.1235252E-06  0.2802645E+04  0.7818609E-02  0.8302448E-01
        1   -1    0    0  501    0  0.00000000000E+00  0.00000000000E+00  0.11335299605E+04  0.11335299605E+04  0.50400001928E-02 0. -1.
       -1   -1    0    0    0  501  0.00000000000E+00  0.00000000000E+00 -0.17323804606E+04  0.17323804606E+04  0.50400001928E-02 0.  1.
    10030    2    1    2    0    0  0.00000000000E+00  0.00000000000E+00 -0.59885050012E+03  0.28659104211E+04  0.28026452898E+04 0.  0.
        1    1    3    3  502    0  0.59315582238E+03 -0.10016860393E+04 -0.10970956637E+04  0.15996335975E+04  0.50400001928E-02 0.  1.
       -1    1    3    3    0  502 -0.59315582238E+03  0.10016860393E+04  0.49824516358E+03  0.12662768236E+04  0.50400001928E-02 0. -1.
</event>
<event>
 5   0  0.1246044E-06  0.2808788E+04  0.7818609E-02  0.8300545E-01
        1   -1    0    0  501    0  0.00000000000E+00  0.00000000000E+00  0.17277889258E+04  0.17277889258E+04  0.50400001928E-02 0.  1.
       -1   -1    0    0    0  501  0.00000000000E+00  0.00000000000E+00 -0.11415301653E+04  0.11415301653E+04  0.50400001928E-02 0. -1.
    10030    2    1    2    0    0  0.00000000000E+00  0.00000000000E+00  0.58625876056E+03  0.28693190911E+04  0.28087884777E+04 0.  0.
        2    1    3    3  502    0  0.12273845070E+04  0.13766021675E+03 -0.38978309469E+03  0.12951269915E+04  0.25500000920E-02 0. -1.
       -2    1    3    3    0  502 -0.12273845070E+04 -0.13766021675E+03  0.97604185526E+03  0.15741920996E+04  0.25500000920E-02 0.  1.
</event>
<event>
 5   0  0.1235252E-06  0.2811065E+04  0.7818609E-02  0.8299841E-01
        1   -1    0    0  501    0  0.00000000000E+00  0.00000000000E+00  0.13772596628E+04  0.13772596628E+04  0.50400001928E-02 0. -1.
       -1   -1    0    0    0  501  0.00000000000E+00  0.00000000000E+00 -0.14343858476E+04  0.14343858476E+04  0.50400001928E-02 0.  1.
    10030    2    1    2    0    0  0.00000000000E+00  0.00000000000E+00 -0.57126184839E+02  0.28116455104E+04  0.28110651140E+04 0.  0.
        1    1    3    3  502    0  0.56141537409E+03  0.99756552844E+03 -0.84432793353E+03  0.14223972248E+04  0.50400001928E-02 0.  1.
       -1    1    3    3    0  502 -0.56141537409E+03 -0.99756552844E+03  0.78720174869E+03  0.13892482856E+04  0.50400001928E-02 0. -1.
</event>
<event>
 5   0  0.3345919E-06  0.2805459E+04  0.7818609E-02  0.8301575E-01
       -2   -1    0    0    0  501  0.00000000000E+00  0.00000000000E+00  0.15337767352E+04  0.15337767352E+04  0.25500000920E-02 0.  1.
        2   -1    0    0  501    0  0.00000000000E+00  0.00000000000E+00 -0.12828794242E+04  0.12828794242E+04  0.25500000920E-02 0. -1.
    10030    2    1    2    0    0  0.00000000000E+00  0.00000000000E+00  0.25089731097E+03  0.28166561594E+04  0.28054594026E+04 0.  0.
        2    1    3    3  502    0 -0.37202629042E+03  0.47800993058E+03  0.13957070800E+04  0.15214780011E+04  0.25500000920E-02 0.  1.
       -2    1    3    3    0  502  0.37202629042E+03 -0.47800993058E+03 -0.11448097690E+04  0.12951781583E+04  0.25500000920E-02 0. -1.
</event>
<event>
 5   0  0.1246044E-06  0.2807843E+04  0.7818609E-02  0.8300838E-01
        1   -1    0    0  501    0  0.00000000000E+00  0.00000000000E+00  0.12223020877E+04  0.12223020878E+04  0.50400001928E-02 0. -1.
       -1   -1    0    0    0  501  0.00000000000E+00  0.00000000000E+00 -0.16125271206E+04  0.16125271206E+04  0.50400001928E-02 0.  1.
    10030    2    1    2    0    0  0.00000000000E+00  0.00000000000E+00 -0.39022503287E+03  0.28348292084E+04  0.28078427777E+04 0.  0.
        2    1    3    3  502    0 -0.13505571097E+02 -0.59625899382E+03  0.10880424416E+04  0.12407834392E+04  0.25500000920E-02 0. -1.
       -2    1    3    3    0  502  0.13505571097E+02  0.59625899382E+03 -0.14782674745E+04  0.15940457692E+04  0.25500000920E-02 0.  1.
</event>
<event>
 5   0  0.1243055E-06  0.2798759E+04  0.7818609E-02  0.8303654E-01
       -1   -1    0    0    0  501  0.00000000000E+00  0.00000000000E+00  0.19644311630E+04  0.19644311630E+04  0.50400001928E-02 0.  1.
        1   -1    0    0  501    0  0.00000000000E+00  0.00000000000E+00 -0.99686024137E+03  0.99686024138E+03  0.50400001928E-02 0. -1.
    10030    2    1    2    0    0  0.00000000000E+00  0.00000000000E+00  0.96757092163E+03  0.29612914044E+04  0.27987592418E+04 0.  0.
        5    1    3    3  502    0 -0.26375678047E+03  0.12682731120E+04  0.10438218833E+04  0.16636317321E+04  0.46999998093E+01 0.  1.
       -5    1    3    3    0  502  0.26375678047E+03 -0.12682731120E+04 -0.76250961712E+02  0.12976596723E+04  0.46999998093E+01 0. -1.
</event>
<event>
 5   0  0.3162695E-06  0.2802642E+04  0.7818609E-02  0.8302449E-01
       -2   -1    0    0    0  501  0.00000000000E+00  0.00000000000E+00  0.11872793897E+04  0.11872793897E+04  0.25500000920E-02 0. -1.
        2   -1    0    0  501    0  0.00000000000E+00  0.00000000000E+00 -0.16539498138E+04  0.16539498138E+04  0.25500000920E-02 0.  1.
    10030    2    1    2    0    0  0.00000000000E+00  0.00000000000E+00 -0.46667042413E+03  0.28412292035E+04  0.28026419861E+04 0.  0.
        1    1    3    3  502    0  0.33011127419E+02 -0.31384192304E+03 -0.16174588470E+04  0.16479561914E+04  0.50400001928E-02 0.  1.
       -1    1    3    3    0  502 -0.33011127419E+02  0.31384192304E+03  0.11507884229E+04  0.11932730121E+04  0.50400001928E-02 0. -1.
</event>
<event>
 5   0  0.3162695E-06  0.2804898E+04  0.7818609E-02  0.8301749E-01
       -2   -1    0    0    0  501  0.00000000000E+00  0.00000000000E+00  0.11014247154E+04  0.11014247154E+04  0.25500000920E-02 0.  1.
        2   -1    0    0  501    0  0.00000000000E+00  0.00000000000E+00 -0.17857443030E+04  0.17857443030E+04  0.25500000920E-02 0. -1.
    10030    2    1    2    0    0  0.00000000000E+00  0.00000000000E+00 -0.68431958755E+03  0.28871690184E+04  0.28048977954E+04 0.  0.
        1    1    3    3  502    0 -0.12480425219E+04  0.43056256362E+03 -0.82918541707E+03  0.15590197925E+04  0.50400001928E-02 0. -1.
       -1    1    3    3    0  502  0.12480425219E+04 -0.43056256362E+03  0.14486582952E+03  0.13281492259E+04  0.50400001928E-02 0.  1.
</event>
<event>
 5   0  0.3345919E-06  0.2790672E+04  0.7818609E-02  0.8306170E-01
       -2   -1    0    0    0  501  0.00000000000E+00  0.00000000000E+00  0.11010996472E+04  0.11010996472E+04  0.25500000920E-02 0. -1.
        2   -1    0    0  501    0  0.00000000000E+00  0.00000000000E+00 -0.17681989054E+04  0.17681989054E+04  0.25500000920E-02 0.  1.
    10030    2    1    2    0    0  0.00000000000E+00  0.00000000000E+00 -0.66709925815E+03  0.28692985526E+04  0.27906724573E+04 0.  0.
        2    1    3    3  502    0 -0.13072741116E+04  0.48464008171E+03 -0.39099486993E+03  0.14480050415E+04  0.25500000920E-02 0.  1.
       -2    1    3    3    0  502  0.13072741116E+04 -0.48464008171E+03 -0.27610438821E+03  0.14212935112E+04  0.25500000920E-02 0. -1.
</event>
<event>
 5   0  0.3226364E-06  0.2798375E+04  0.7818609E-02  0.8303773E-01
       -2   -1    0    0    0  501  0.00000000000E+00  0.00000000000E+00  0.89082378550E+03  0.89082378550E+03  0.25500000920E-02 0.  1.
        2   -1    0    0  501    0  0.00000000000E+00  0.00000000000E+00 -0.21976575091E+04  0.21976575091E+04  0.25500000920E-02 0. -1.
    10030    2    1    2    0    0  0.00000000000E+00  0.00000000000E+00 -0.13068337236E+04  0.30884812946E+04  0.27983749438E+04 0.  0.
        5    1    3    3  502    0  0.49469955627E+03  0.11323111085E+04 -0.13778541682E+04  0.18507728916E+04  0.46999998093E+01 0. -1.
       -5    1    3    3    0  502 -0.49469955627E+03 -0.11323111085E+04  0.71020444636E+02  0.12377084030E+04  0.46999998093E+01 0.  1.
</event>
<event>
 5   0  0.1220265E-06  0.2803532E+04  0.7818609E-02  0.8302173E-01
        1   -1    0    0  501    0  0.00000000000E+00  0.00000000000E+00  0.12288632322E+04  0.12288632323E+04  0.50400001928E-02 0.  1.
       -1   -1    0    0    0  501  0.00000000000E+00  0.00000000000E+00 -0.15989963650E+04  0.15989963650E+04  0.50400001928E-02 0. -1.
    10030    2    1    2    0    0  0.00000000000E+00  0.00000000000E+00 -0.37013313271E+03  0.28278595972E+04  0.28035319448E+04 0.  0.
        4    1    3    3  502    0  0.32553138790E+03 -0.10662718425E+04 -0.10421694046E+04  0.15261143494E+04  0.12699999809E+01 0. -1.
       -4    1    3    3    0  502 -0.32553138790E+03  0.10662718425E+04  0.67203627186E+03  0.13017452478E+04  0.12699999809E+01 0.  1.
</event>
<event>
 5   0  0.3162695E-06  0.2771347E+04  0.7818609E-02  0.8312219E-01
       -2   -1    0    0    0  501  0.00000000000E+00  0.00000000000E+00  0.14179286747E+04  0.14179286747E+04  0.25500000920E-02 0.  1.
        2   -1    0    0  501    0  0.00000000000E+00  0.00000000000E+00 -0.13541525208E+04  0.13541525208E+04  0.25500000920E-02 0. -1.
    10030    2    1    2    0    0  0.00000000000E+00  0.00000000000E+00  0.63776153899E+02  0.27720811954E+04  0.27713474622E+04 0.  0.
        1    1    3    3  502    0 -0.88757799237E+02  0.13601584153E+04  0.28131894608E+03  0.13917791531E+04  0.50400001928E-02 0.  1.
       -1    1    3    3    0  502  0.88757799237E+02 -0.13601584153E+04 -0.21754279218E+03  0.13803020423E+04  0.50400001928E-02 0. -1.
</event>
<event>
 5   0  0.1235252E-06  0.2787706E+04  0.7818609E-02  0.8307095E-01
       -1   -1    0    0    0  501  0.00000000000E+00  0.00000000000E+00  0.11051542313E+04  0.11051542313E+04  0.50400001928E-02 0.  1.
        1   -1    0    0  501    0  0.00000000000E+00  0.00000000000E+00 -0.17579683774E+04  0.17579683774E+04  0.50400001928E-02 0. -1.
    10030    2    1    2    0    0  0.00000000000E+00  0.00000000000E+00 -0.65281414609E+03  0.28631226087E+04  0.27877060037E+04 0.  0.
        1    1    3    3  502    0  0.66476052389E+03  0.11528525967E+04 -0.75217055627E+03  0.15286386785E+04  0.50400001928E-02 0. -1.
       -1    1    3    3    0  502 -0.66476052389E+03 -0.11528525967E+04  0.99356410177E+02  0.13344839302E+04  0.50400001928E-02 0.  1.
</event>
<event>
 5   0  0.1246044E-06  0.2790061E+04  0.7818609E-02  0.8306361E-01
       -1   -1    0    0    0  501  0.00000000000E+00  0.00000000000E+00  0.13053053342E+04  0.13053053342E+04  0.50400001928E-02 0. -1.
        1   -1    0    0  501    0  0.00000000000E+00  0.00000000000E+00 -0.14909229716E+04  0.14909229716E+04  0.50400001928E-02 0.  1.
    10030    2    1    2    0    0  0.00000000000E+00  0.00000000000E+00 -0.18561763737E+03  0.27962283058E+04  0.27900607217E+04 0.  0.
        2    1    3    3  502    0 -0.12613007531E+04 -0.47458754896E+03 -0.45415649286E+03  0.14221009287E+04  0.25500000920E-02 0.  1.
       -2    1    3    3    0  502  0.12613007531E+04  0.47458754896E+03  0.26853885549E+03  0.13741273771E+04  0.25500000920E-02 0. -1.
</event>
<event>
 5   0  0.1263513E-06  0.2912539E+04  0.7818609E-02  0.8269157E-01
       -1   -1    0    0    0  501  0.00000000000E+00  0.00000000000E+00  0.12646970454E+04  0.12646970454E+04  0.50400001928E-02 0.  1.
        1   -1    0    0  501    0  0.00000000000E+00  0.00000000000E+00 -0.16768602571E+04  0.16768602571E+04  0.50400001928E-02 0. -1.
    10030    2    1    2    0    0  0.00000000000E+00  0.00000000000E+00 -0.41216321174E+03  0.29415573025E+04  0.29125385578E+04 0.  0.
        3    1    3    3  502    0  0.84898872808E+03 -0.60223109156E+03 -0.12346865767E+04  0.16149040531E+04  0.10100000352E+00 0. -1.
       -3    1    3    3    0  502 -0.84898872808E+03  0.60223109156E+03  0.82252336492E+03  0.13266532494E+04  0.10100000352E+00 0.  1.
</event>
<event>
 5   0  0.1243055E-06  0.2794661E+04  0.7818609E-02  0.8304928E-01
       -1   -1    0    0    0  501  0.00000000000E+00  0.00000000000E+00  0.71763379522E+03  0.71763379524E+03  0.50400001928E-02 0.  1.
        1   -1    0    0  501    0  0.00000000000E+00  0.00000000000E+00 -0.27207928974E+04  0.27207928974E+04  0.50400001928E-02 0. -1.
    10030    2    1    2    0    0  0.00000000000E+00  0.00000000000E+00 -0.20031591022E+04  0.34384266927E+04  0.27946612911E+04 0.  0.
        5    1    3    3  502    0  0.26191311505E+03 -0.10722539510E+04  0.52644686794E+02  0.11050432428E+04  0.46999998093E+01 0.  1.
       -5    1    3    3    0  502 -0.26191311505E+03  0.10722539510E+04 -0.20558037890E+04  0.23333834499E+04  0.46999998093E+01 0. -1.
</event>
<event>
 5   0  0.1246044E-06  0.2798461E+04  0.7818609E-02  0.8303746E-01
        1   -1    0    0  501    0  0.00000000000E+00  0.00000000000E+00  0.11859043870E+04  0.11859043870E+04  0.50400001928E-02 0. -1.
       -1   -1    0    0    0  501  0.00000000000E+00  0.00000000000E+00 -0.16509306772E+04  0.16509306772E+04  0.50400001928E-02 0.  1.
    10030    2    1    2    0    0  0.00000000000E+00  0.00000000000E+00 -0.46502629022E+03  0.28368350641E+04  0.27984609575E+04 0.  0.
        2    1    3    3  502    0  0.11146431558E+04  0.64865225533E+03 -0.78278899326E+03  0.15086211324E+04  0.25500000920E-02 0.  1.
       -2    1    3    3    0  502 -0.11146431558E+04 -0.64865225533E+03  0.31776270305E+03  0.13282139318E+04  0.25500000920E-02 0. -1.
</event>
<event>
 5   0  0.3162695E-06  0.2795740E+04  0.7818609E-02  0.8304592E-01
        2   -1    0    0  501    0  0.00000000000E+00  0.00000000000E+00  0.19036281450E+04  0.19036281450E+04  0.25500000920E-02 0. -1.
       -2   -1    0    0    0  501  0.00000000000E+00  0.00000000000E+00 -0.10264819035E+04  0.10264819035E+04  0.25500000920E-02 0.  1.
    10030    2    1    2    0    0  0.00000000000E+00  0.00000000000E+00  0.87714624149E+03  0.29301100484E+04  0.27957395027E+04 0.  0.
        1    1    3    3  502    0 -0.65349546613E+03  0.82758772846E+03 -0.52318184823E+03  0.11771478322E+04  0.50400001928E-02 0.  1.
       -1    1    3    3    0  502  0.65349546613E+03 -0.82758772846E+03  0.14003280897E+04  0.17529622162E+04  0.50400001928E-02 0. -1.
</event>
<event>
 5   0  0.3167616E-06  0.2793855E+04  0.7818609E-02  0.8305179E-01
        2   -1    0    0  501    0  0.00000000000E+00  0.00000000000E+00  0.13803251895E+04  0.13803251895E+04  0.25500000920E-02 0.  1.
       -2   -1    0    0    0  501  0.00000000000E+00  0.00000000000E+00 -0.14137293891E+04  0.14137293891E+04  0.25500000920E-02 0. -1.
    10030    2    1    2    0    0  0.00000000000E+00  0.00000000000E+00 -0.33404199606E+02  0.27940545786E+04  0.27938548902E+04 0.  0.
        3    1    3    3  502    0  0.10815754399E+04 -0.58379935618E+02  0.86551322138E+03  0.13864800019E+04  0.10100000352E+00 0.  1.
       -3    1    3    3    0  502 -0.10815754399E+04  0.58379935618E+02 -0.89891742098E+03  0.14075745767E+04  0.10100000352E+00 0. -1.
</event>
<event>
 5   0  0.1235252E-06  0.2797051E+04  0.7818609E-02  0.8304184E-01
       -1   -1    0    0    0  501  0.00000000000E+00  0.00000000000E+00  0.17166032872E+04  0.17166032872E+04  0.50400001928E-02 0.  1.
        1   -1    0    0  501    0  0.00000000000E+00  0.00000000000E+00 -0.11393860719E+04  0.11393860719E+04  0.50400001928E-02 0. -1.
    10030    2    1    2    0    0  0.00000000000E+00  0.00000000000E+00  0.57721721527E+03  0.28559893591E+04  0.27970512162E+04 0.  0.
        1    1    3    3  502    0  0.13606262034E+04 -0.26132481503E+03  0.48309406118E+03  0.14673016719E+04  0.50400001928E-02 0.  1.
       -1    1    3    3    0  502 -0.13606262034E+04  0.26132481503E+03  0.94123154091E+02  0.13886876872E+04  0.50400001928E-02 0. -1.
</event>
<event>
 5   0  0.1246044E-06  0.2804947E+04  0.7818609E-02  0.8301734E-01
       -1   -1    0    0    0  501  0.00000000000E+00  0.00000000000E+00  0.15636769609E+04  0.15636769609E+04  0.50400001928E-02 0. -1.
        1   -1    0    0  501    0  0.00000000000E+00  0.00000000000E+00 -0.12578893191E+04  0.12578893191E+04  0.50400001928E-02 0.  1.
    10030    2    1    2    0    0  0.00000000000E+00  0.00000000000E+00  0.30578764180E+03  0.28215662800E+04  0.28049474488E+04 0.  0.
        2    1    3    3  502    0 -0.56872859681E+02  0.72978164769E+03  0.13562745798E+04  0.15411996987E+04  0.25500000920E-02 0. -1.
       -2    1    3    3    0  502  0.56872859681E+02 -0.72978164769E+03 -0.10504869380E+04  0.12803665813E+04  0.25500000920E-02 0.  1.
</event>
<event>
 5   0  0.1235252E-06  0.2816523E+04  0.7818609E-02  0.8298157E-01
        1   -1    0    0  501    0  0.00000000000E+00  0.00000000000E+00  0.21602137079E+04  0.21602137080E+04  0.50400001928E-02 0.  1.
       -1   -1    0    0    0  501  0.00000000000E+00  0.00000000000E+00 -0.91805774878E+03  0.91805774880E+03  0.50400001928E-02 0. -1.
    10030    2    1    2    0    0  0.00000000000E+00  0.00000000000E+00  0.12421559592E+04  0.30782714568E+04  0.28165233417E+04 0.  0.
        1    1    3    3  502    0 -0.81807463099E+03  0.63567935171E+03 -0.42143727987E+03  0.11184559540E+04  0.50400001928E-02 0. -1.
       -1    1    3    3    0  502  0.81807463099E+03 -0.63567935171E+03  0.16635932390E+04  0.19598155028E+04  0.50400001928E-02 0.  1.
</event>
<event>
 5   0  0.1220265E-06  0.2860973E+04  0.7818609E-02  0.8284585E-01
       -1   -1    0    0    0  501  0.00000000000E+00  0.00000000000E+00  0.15157089605E+04  0.15157089605E+04  0.50400001928E-02 0.  1.
        1   -1    0    0  501    0  0.00000000000E+00  0.00000000000E+00 -0.13500554865E+04  0.13500554865E+04  0.50400001928E-02 0. -1.
    10030    2    1    2    0    0  0.00000000000E+00  0.00000000000E+00  0.16565347399E+03  0.28657644470E+04  0.28609727004E+04 0.  0.
        4    1    3    3  502    0 -0.74066708305E+02 -0.13533013890E+04  0.54117268676E+03  0.14593765849E+04  0.12699999809E+01 0.  1.
       -4    1    3    3    0  502  0.74066708305E+02  0.13533013890E+04 -0.37551921277E+03  0.14063878622E+04  0.12699999809E+01 0. -1.
</event>
<event>
 5   0  0.1263513E-06  0.2797243E+04  0.7818609E-02  0.8304125E-01
       -1   -1    0    0    0  501  0.00000000000E+00  0.00000000000E+00  0.96074917227E+03  0.96074917228E+03  0.50400001928E-02 0.  1.
        1   -1    0    0  501    0  0.00000000000E+00  0.00000000000E+00 -0.20360594305E+04  0.20360594305E+04  0.50400001928E-02 0. -1.
    10030    2    1    2    0    0  0.00000000000E+00  0.00000000000E+00 -0.10753102582E+04  0.29968086028E+04  0.27972432233E+04 0.  0.
        3    1    3    3  502    0  0.91435719676E+03 -0.69319594697E+03 -0.13944438381E+04  0.18058359095E+04  0.10100000352E+00 0. -1.
       -3    1    3    3    0  502 -0.91435719676E+03  0.69319594697E+03  0.31913357987E+03  0.11909726933E+04  0.10100000352E+00 0.  1.
</event>
<event>
 5   0  0.3162695E-06  0.2801584E+04  0.7818609E-02  0.8302777E-01
        2   -1    0    0  501    0  0.00000000000E+00  0.00000000000E+00  0.14097194409E+04  0.14097194409E+04  0.25500000920E-02 0. -1.
       -2   -1    0    0    0  501  0.00000000000E+00  0.00000000000E+00 -0.13919209512E+04  0.13919209512E+04  0.25500000920E-02 0.  1.
    10030    2    1    2    0    0  0.00000000000E+00  0.00000000000E+00  0.17798489763E+02  0.28016403921E+04  0.28015838557E+04 0.  0.
        1    1    3    3  502    0  0.55832179656E+03 -0.99119819588E+03 -0.80844272447E+03  0.13956277193E+04  0.50400001928E-02 0.  1.
       -1    1    3    3    0  502 -0.55832179656E+03  0.99119819588E+03  0.82624121424E+03  0.14060126728E+04  0.50400001928E-02 0. -1.
</event>
<event>
 5   0  0.1243055E-06  0.2818019E+04  0.7818609E-02  0.8297696E-01
        1   -1    0    0  501    0  0.00000000000E+00  0.00000000000E+00  0.12704256142E+04  0.12704256142E+04  0.50400001928E-02 0. -1.
       -1   -1    0    0    0  501  0.00000000000E+00  0.00000000000E+00 -0.15627102921E+04  0.15627102921E+04  0.50400001928E-02 0.  1.
    10030    2    1    2    0    0  0.00000000000E+00  0.00000000000E+00 -0.29228467793E+03  0.28331359063E+04  0.28180185824E+04 0.  0.
        5    1    3    3  502    0  0.75941739717E+03 -0.40812114969E+02  0.10463508108E+04  0.12935426244E+04  0.46999998093E+01 0. -1.
       -5    1    3    3    0  502 -0.75941739717E+03  0.40812114969E+02 -0.13386354888E+04  0.15395932819E+04  0.46999998093E+01 0.  1.
</event>
<event>
 5   0  0.3345919E-06  0.2835481E+04  0.7818609E-02  0.8292337E-01
        2   -1    0    0  501    0  0.00000000000E+00  0.00000000000E+00  0.19184080602E+04  0.19184080602E+04  0.25500000920E-02 0.  1.
       -2   -1    0    0    0  501  0.00000000000E+00  0.00000000000E+00 -0.10477376309E+04  0.10477376309E+04  0.25500000920E-02 0. -1.
    10030    2    1    2    0    0  0.00000000000E+00  0.00000000000E+00  0.87067042921E+03  0.29661456911E+04  0.28354811346E+04 0.  0.
        2    1    3    3  502    0  0.91317658660E+03 -0.78076992874E+03  0.12226779363E+04  0.17141862489E+04  0.25500000920E-02 0.  1.
       -2    1    3    3    0  502 -0.91317658660E+03  0.78076992874E+03 -0.35200750708E+03  0.12519594422E+04  0.25500000920E-02 0. -1.
</event>
<event>
 5   0  0.1220265E-06  0.2794429E+04  0.7818609E-02  0.8305000E-01
       -1   -1    0    0    0  501  0.00000000000E+00  0.00000000000E+00  0.92645629405E+03  0.92645629406E+03  0.50400001928E-02 0.  1.
        1   -1    0    0  501    0  0.00000000000E+00  0.00000000000E+00 -0.21071778755E+04  0.21071778756E+04  0.50400001928E-02 0. -1.
    10030    2    1    2    0    0  0.00000000000E+00  0.00000000000E+00 -0.11807215815E+04  0.30336341696E+04  0.27944288901E+04 0.  0.
        4    1    3    3  502    0  0.89512523002E+03  0.93264895921E+02 -0.17506131315E+04  0.19683992144E+04  0.12699999809E+01 0. -1.
       -4    1    3    3    0  502 -0.89512523002E+03 -0.93264895921E+02  0.56989154997E+03  0.10652349552E+04  0.12699999809E+01 0.  1.
</event>
<event>
 5   0  0.3167616E-06  0.2796375E+04  0.7818609E-02  0.8304395E-01
       -2   -1    0    0    0  501  0.00000000000E+00  0.00000000000E+00  0.95715987549E+03  0.95715987549E+03  0.25500000920E-02 0. -1.
        2   -1    0    0  501    0  0.00000000000E+00  0.00000000000E+00 -0.20424260902E+04  0.20424260902E+04  0.25500000920E-02 0.  1.
    10030    2    1    2    0    0  0.00000000000E+00  0.00000000000E+00 -0.10852662147E+04  0.29995859657E+04  0.27963750122E+04 0.  0.
        3    1    3    3  502    0 -0.44250902550E+03 -0.73635250643E+03 -0.17259285030E+04  0.19279155737E+04  0.10100000352E+00 0.  1.
       -3    1    3    3    0  502  0.44250902550E+03  0.73635250643E+03  0.64066228830E+03  0.10716703921E+04  0.10100000352E+00 0. -1.
</event>
<event>
 5   0  0.1235252E-06  0.2801617E+04  0.7818609E-02  0.8302767E-01
        1   -1    0    0  501    0  0.00000000000E+00  0.00000000000E+00  0.12247281116E+04  0.12247281116E+04  0.50400001928E-02 0. -1.
       -1   -1    0    0    0  501  0.00000000000E+00  0.00000000000E+00 -0.16022041079E+04  0.16022041079E+04  0.50400001928E-02 0.  1.
    10030    2    1    2    0    0  0.00000000000E+00  0.00000000000E+00 -0.37747599633E+03  0.28269322195E+04  0.28016169699E+04 0.  0.
        1    1    3    3  502    0 -0.34451550938E+03  0.50310630256E+03  0.10837909590E+04  0.12435472371E+04  0.50400001928E-02 0. -1.
       -1    1    3    3    0  502  0.34451550938E+03 -0.50310630256E+03 -0.14612669554E+04  0.15833849825E+04  0.50400001928E-02 0.  1.
</event>
<event>
 5   0  0.3167616E-06  0.2801452E+04  0.7818609E-02  0.8302818E-01
       -2   -1    0    0    0  501  0.00000000000E+00  0.00000000000E+00  0.15199460902E+04  0.15199460902E+04  0.25500000920E-02 0.  1.
        2   -1    0    0  501    0  0.00000000000E+00  0.00000000000E+00 -0.12908575007E+04  0.12908575007E+04  0.25500000920E-02 0. -1.
    10030    2    1    2    0    0  0.00000000000E+00  0.00000000000E+00  0.22908858954E+03  0.28108035910E+04  0.28014523457E+04 0.  0.
        3    1    3    3  502    0  0.65642026187E+03 -0.31202622914E+03 -0.10868606330E+04  0.13074838331E+04  0.10100000352E+00 0. -1.
       -3    1    3    3    0  502 -0.65642026187E+03  0.31202622914E+03  0.13159492226E+04  0.15033197579E+04  0.10100000352E+00 0.  1.
</event>
<event>
 5   0  0.1243055E-06  0.2810370E+04  0.7818609E-02  0.8300056E-01
        1   -1    0    0  501    0  0.00000000000E+00  0.00000000000E+00  0.12268318401E+04  0.12268318401E+04  0.50400001928E-02 0.  1.
       -1   -1    0    0    0  501  0.00000000000E+00  0.00000000000E+00 -0.16094666128E+04  0.16094666128E+04  0.50400001928E-02 0. -1.
    10030    2    1    2    0    0  0.00000000000E+00  0.00000000000E+00 -0.38263477273E+03  0.28362984529E+04  0.28103700013E+04 0.  0.
        5    1    3    3  502    0  0.84057483095E+03  0.45177765863E+03  0.84963144168E+03  0.12777185825E+04  0.46999998093E+01 0.  1.
       -5    1    3    3    0  502 -0.84057483095E+03 -0.45177765863E+03 -0.12322662144E+04  0.15585798704E+04  0.46999998093E+01 0. -1.
</event>
<event>
 5   0  0.1243055E-06  0.2791624E+04  0.7818609E-02  0.8305874E-01
        1   -1    0    0  501    0  0.00000000000E+00  0.00000000000E+00  0.14181077929E+04  0.14181077929E+04  0.50400001928E-02 0.  1.
       -1   -1    0    0    0  501  0.00000000000E+00  0.00000000000E+00 -0.13738664866E+04  0.13738664866E+04  0.50400001928E-02 0. -1.
    10030    2    1    2    0    0  0.00000000000E+00  0.00000000000E+00  0.44241306312E+02  0.27919742795E+04  0.27916237361E+04 0.  0.
        5    1    3    3  502    0 -0.89303776989E+02 -0.66792110159E+03 -0.12003973174E+04  0.13766152593E+04  0.46999998093E+01 0. -1.
       -5    1    3    3    0  502  0.89303776989E+02  0.66792110159E+03  0.12446386237E+04  0.14153590202E+04  0.46999998093E+01 0.  1.
</event>
<event>
 5   0  0.1263513E-06  0.2794021E+04  0.7818609E-02  0.8305127E-01
        1   -1    0    0  501    0  0.00000000000E+00  0.00000000000E+00  0.12893599803E+04  0.12893599803E+04  0.50400001928E-02 0.  1.
       -1   -1    0    0    0  501  0.00000000000E+00  0.00000000000E+00 -0.15136484057E+04  0.15136484057E+04  0.50400001928E-02 0. -1.
    10030    2    1    2    0    0  0.00000000000E+00  0.00000000000E+00 -0.22428842539E+03  0.28030083860E+04  0.27940205286E+04 0.  0.
        3    1    3    3  502    0 -0.35279705087E+03  0.66238290320E+03 -0.12942473224E+04  0.14960925811E+04  0.10100000352E+00 0. -1.
       -3    1    3    3    0  502  0.35279705087E+03 -0.66238290320E+03  0.10699588970E+04  0.13069158049E+04  0.10100000352E+00 0.  1.
</event>
<event>
 5   0  0.3226364E-06  0.2808233E+04  0.7818609E-02  0.8300717E-01
       -2   -1    0    0    0  501  0.00000000000E+00  0.00000000000E+00  0.62902633597E+03  0.62902633597E+03  0.25500000920E-02 0.  1.
        2   -1    0    0  501    0  0.00000000000E+00  0.00000000000E+00 -0.31342773882E+04  0.31342773882E+04  0.25500000920E-02 0. -1.
    10030    2    1    2    0    0  0.00000000000E+00  0.00000000000E+00 -0.25052510523E+04  0.37633037242E+04  0.28082329116E+04 0.  0.
        5    1    3    3  502    0 -0.10554135036E+04 -0.26429420247E+03 -0.24420486356E+04  0.26734570724E+04  0.46999998093E+01 0. -1.
       -5    1    3    3    0  502  0.10554135036E+04  0.26429420247E+03 -0.63202416644E+02  0.10898466518E+04  0.46999998093E+01 0.  1.
</event>
<event>
 5   0  0.3162695E-06  0.2793763E+04  0.7818609E-02  0.8305207E-01
        2   -1    0    0  501    0  0.00000000000E+00  0.00000000000E+00  0.14894307856E+04  0.14894307856E+04  0.25500000920E-02 0. -1.
       -2   -1    0    0    0  501  0.00000000000E+00  0.00000000000E+00 -0.13100827310E+04  0.13100827311E+04  0.25500000920E-02 0.  1.
    10030    2    1    2    0    0  0.00000000000E+00  0.00000000000E+00  0.17934805454E+03  0.27995135166E+04  0.27937627324E+04 0.  0.
        1    1    3    3  502    0 -0.90625748508E+03  0.22479604650E+03 -0.95142642814E+03  0.13330596911E+04  0.50400001928E-02 0.  1.
       -1    1    3    3    0  502  0.90625748508E+03 -0.22479604650E+03  0.11307744827E+04  0.14664538256E+04  0.50400001928E-02 0. -1.
</event>
<event>
 5   0  0.3162695E-06  0.2807452E+04  0.7818609E-02  0.8300958E-01
        2   -1    0    0  501    0  0.00000000000E+00  0.00000000000E+00  0.11630853443E+04  0.11630853443E+04  0.25500000920E-02 0.  1.
       -2   -1    0    0    0  501  0.00000000000E+00  0.00000000000E+00 -0.16941553716E+04  0.16941553716E+04  0.25500000920E-02 0. -1.
    10030    2    1    2    0    0  0.00000000000E+00  0.00000000000E+00 -0.53107002723E+03  0.28572407159E+04  0.28074524279E+04 0.  0.
        1    1    3    3  502    0  0.12199171022E+04 -0.68410423174E+03 -0.14404060438E+03  0.14060384177E+04  0.50400001928E-02 0.  1.
       -1    1    3    3    0  502 -0.12199171022E+04  0.68410423174E+03 -0.38702942285E+03  0.14512022982E+04  0.50400001928E-02 0. -1.
</event>
<event>
 5   0  0.1246044E-06  0.2815209E+04  0.7818609E-02  0.8298562E-01
       -1   -1    0    0    0  501  0.00000000000E+00  0.00000000000E+00  0.12247158722E+04  0.12247158722E+04  0.50400001928E-02 0. -1.
        1   -1    0    0  501    0  0.00000000000E+00  0.00000000000E+00 -0.16178043470E+04  0.16178043470E+04  0.50400001928E-02 0.  1.
    10030    2    1    2    0    0  0.00000000000E+00  0.00000000000E+00 -0.39308847473E+03  0.28425202192E+04  0.28152091659E+04 0.  0.
        2    1    3    3  502    0  0.13696963216E+04  0.18458687284E+03 -0.46598568851E+03  0.14585208222E+04  0.25500000920E-02 0.  1.
       -2    1    3    3    0  502 -0.13696963216E+04 -0.18458687284E+03  0.72897213775E+02  0.13839993970E+04  0.25500000920E-02 0. -1.
</event>
<event>
 5   0  0.1246044E-06  0.2826536E+04  0.7818609E-02  0.8295077E-01
        1   -1    0    0  501    0  0.00000000000E+00  0.00000000000E+00  0.12651777429E+04  0.12651777429E+04  0.50400001928E-02 0.  1.
       -1   -1    0    0    0  501  0.00000000000E+00  0.00000000000E+00 -0.15786922100E+04  0.15786922100E+04  0.50400001928E-02 0. -1.
    10030    2    1    2    0    0  0.00000000000E+00  0.00000000000E+00 -0.31351446708E+03  0.28438699529E+04  0.28265358635E+04 0.  0.
        2    1    3    3  502    0  0.93986315791E+03  0.73301915094E+03 -0.92079981309E+03  0.15061647078E+04  0.25500000920E-02 0. -1.
       -2    1    3    3    0  502 -0.93986315791E+03 -0.73301915094E+03  0.60728534601E+03  0.13377052451E+04  0.25500000920E-02 0.  1.
</event>
<event>
 5   0  0.3345919E-06  0.2825167E+04  0.7818609E-02  0.8295497E-01
       -2   -1    0    0    0  501  0.00000000000E+00  0.00000000000E+00  0.13825656472E+04  0.13825656472E+04  0.25500000920E-02 0. -1.
        2   -1    0    0  501    0  0.00000000000E+00  0.00000000000E+00 -0.14432527322E+04  0.14432527322E+04  0.25500000920E-02 0.  1.
    10030    2    1    2    0    0  0.00000000000E+00  0.00000000000E+00 -0.60687084983E+02  0.28258183794E+04  0.28251666484E+04 0.  0.
        2    1    3    3  502    0 -0.12743077490E+04  0.57085219814E+03 -0.24407291557E+03  0.14174992273E+04  0.25500000920E-02 0.  1.
       -2    1    3    3    0  502  0.12743077490E+04 -0.57085219814E+03  0.18338583059E+03  0.14083191521E+04  0.25500000920E-02 0. -1.
</event>
<event>
 5   0  0.1243055E-06  0.2815142E+04  0.7818609E-02  0.8298583E-01
       -1   -1    0    0    0  501  0.00000000000E+00  0.00000000000E+00  0.29306193873E+04  0.29306193873E+04  0.50400001928E-02 0. -1.
        1   -1    0    0  501    0  0.00000000000E+00  0.00000000000E+00 -0.67605378765E+03  0.67605378767E+03  0.50400001928E-02 0.  1.
    10030    2    1    2    0    0  0.00000000000E+00  0.00000000000E+00  0.22545655997E+04  0.36066731750E+04  0.28151421541E+04 0.  0.
        5    1    3    3  502    0 -0.89891388984E+03 -0.90679597119E+03  0.18862164252E+04  0.22777531928E+04  0.46999998093E+01 0. -1.
       -5    1    3    3    0  502  0.89891388984E+03  0.90679597119E+03  0.36834917450E+03  0.13289199822E+04  0.46999998093E+01 0.  1.
</event>
<event>
 5   0  0.1220265E-06  0.2778766E+04  0.7818609E-02  0.8309891E-01
        1   -1    0    0  501    0  0.00000000000E+00  0.00000000000E+00  0.12191546509E+04  0.12191546510E+04  0.50400001928E-02 0. -1.
       -1   -1    0    0    0  501  0.00000000000E+00  0.00000000000E+00 -0.15833798873E+04  0.15833798873E+04  0.50400001928E-02 0.  1.
    10030    2    1    2    0    0  0.00000000000E+00  0.00000000000E+00 -0.36422523638E+03  0.28025345383E+04  0.27787658799E+04 0.  0.
        4    1    3    3  502    0  0.39667517928E+03 -0.10266821723E+04 -0.10372780358E+04  0.15124069615E+04  0.12699999809E+01 0.  1.
       -4    1    3    3    0  502 -0.39667517928E+03  0.10266821723E+04  0.67305279942E+03  0.12901275768E+04  0.12699999809E+01 0. -1.
</event>
<event>
 5   0  0.1263513E-06  0.2804704E+04  0.7818609E-02  0.8301809E-01
        1   -1    0    0  501    0  0.00000000000E+00  0.00000000000E+00  0.13736628869E+04  0.13736628869E+04  0.50400001928E-02 0.  1.
       -1   -1    0    0    0  501  0.00000000000E+00  0.00000000000E+00 -0.14316405530E+04  0.14316405530E+04  0.50400001928E-02 0. -1.
    10030    2    1    2    0    0  0.00000000000E+00  0.00000000000E+00 -0.57977666051E+02  0.28053034399E+04  0.28047042589E+04 0.  0.
        3    1    3    3  502    0  0.13103585031E+04 -0.45629851602E+03  0.17438621248E+03  0.13984485345E+04  0.10100000352E+00 0.  1.
       -3    1    3    3    0  502 -0.13103585031E+04  0.45629851602E+03 -0.23236387854E+03  0.14068549053E+04  0.10100000352E+00 0. -1.
</event>
<event>
 5   0  0.1243055E-06  0.2790922E+04  0.7818609E-02  0.8306092E-01
       -1   -1    0    0    0  501  0.00000000000E+00  0.00000000000E+00  0.10807126969E+04  0.10807126969E+04  0.50400001928E-02 0.  1.
        1   -1    0    0  501    0  0.00000000000E+00  0.00000000000E+00 -0.18018764278E+04  0.18018764278E+04  0.50400001928E-02 0. -1.
    10030    2    1    2    0    0  0.00000000000E+00  0.00000000000E+00 -0.72116373086E+03  0.28825891247E+04  0.27909215208E+04 0.  0.
        5    1    3    3  502    0 -0.76402265314E+03  0.11591991523E+04 -0.21519136082E+03  0.14049208878E+04  0.46999998093E+01 0.  1.
       -5    1    3    3    0  502  0.76402265314E+03 -0.11591991523E+04 -0.50597237004E+03  0.14776682369E+04  0.46999998093E+01 0. -1.
</event>
<event>
 5   0  0.3345919E-06  0.2796474E+04  0.7818609E-02  0.8304364E-01
        2   -1    0    0  501    0  0.00000000000E+00  0.00000000000E+00  0.14174863119E+04  0.14174863119E+04  0.25500000920E-02 0. -1.
       -2   -1    0    0    0  501  0.00000000000E+00  0.00000000000E+00 -0.13792486999E+04  0.13792486999E+04  0.25500000920E-02 0.  1.
    10030    2    1    2    0    0  0.00000000000E+00  0.00000000000E+00  0.38237612023E+02  0.27967350118E+04  0.27964736028E+04 0.  0.
        2    1    3    3  502    0 -0.66728941725E+03  0.11862712086E+04  0.33938553780E+03  0.14027462672E+04  0.25500000920E-02 0. -1.
       -2    1    3    3    0  502  0.66728941725E+03 -0.11862712086E+04 -0.30114792577E+03  0.13939887446E+04  0.25500000920E-02 0.  1.
</event>
<event>
 5   0  0.3345919E-06  0.2799969E+04  0.7818609E-02  0.8303278E-01
       -2   -1    0    0    0  501  0.00000000000E+00  0.00000000000E+00  0.16445974594E+04  0.16445974594E+04  0.25500000920E-02 0.  1.
        2   -1    0    0  501    0  0.00000000000E+00  0.00000000000E+00 -0.11917545880E+04  0.11917545880E+04  0.25500000920E-02 0. -1.
    10030    2    1    2    0    0  0.00000000000E+00  0.00000000000E+00  0.45284287140E+03  0.28363520474E+04  0.27999689767E+04 0.  0.
        2    1    3    3  502    0 -0.13016543466E+04 -0.45377376002E+03  0.47401904409E+03  0.14577066638E+04  0.25500000920E-02 0. -1.
       -2    1    3    3    0  502  0.13016543466E+04  0.45377376002E+03 -0.21176172693E+02  0.13786453836E+04  0.25500000920E-02 0.  1.
</event>
<event>
 5   0  0.1220265E-06  0.2803564E+04  0.7818609E-02  0.8302163E-01
       -1   -1    0    0    0  501  0.00000000000E+00  0.00000000000E+00  0.91508526053E+03  0.91508526054E+03  0.50400001928E-02 0. -1.
        1   -1    0    0  501    0  0.00000000000E+00  0.00000000000E+00 -0.21473325847E+04  0.21473325847E+04  0.50400001928E-02 0.  1.
    10030    2    1    2    0    0  0.00000000000E+00  0.00000000000E+00 -0.12322473241E+04  0.30624178452E+04  0.28035637305E+04 0.  0.
        4    1    3    3  502    0 -0.25572894378E+03  0.26049812184E+03 -0.20945008189E+04  0.21260742831E+04  0.12699999809E+01 0.  1.
       -4    1    3    3    0  502  0.25572894378E+03 -0.26049812184E+03  0.86225349474E+03  0.93634356209E+03  0.12699999809E+01 0. -1.
</event>
<event>
 5   0  0.1235252E-06  0.2790132E+04  0.7818609E-02  0.8306339E-01
       -1   -1    0    0    0  501  0.00000000000E+00  0.00000000000E+00  0.90113285561E+03  0.90113285562E+03  0.50400001928E-02 0. -1.
        1   -1    0    0  501    0  0.00000000000E+00  0.00000000000E+00 -0.21597360705E+04  0.21597360705E+04  0.50400001928E-02 0.  1.
    10030    2    1    2    0    0  0.00000000000E+00  0.00000000000E+00 -0.12586032149E+04  0.30608689261E+04  0.27901319916E+04 0.  0.
        1    1    3    3  502    0 -0.14287359092E+03 -0.60055767090E+03 -0.20017459499E+04  0.20947718795E+04  0.50400001928E-02 0.  1.
       -1    1    3    3    0  502  0.14287359092E+03  0.60055767090E+03  0.74314273497E+03  0.96609704669E+03  0.50400001928E-02 0. -1.
</event>
<event>
 5   0  0.1235252E-06  0.2799044E+04  0.7818609E-02  0.8303565E-01
       -1   -1    0    0    0  501  0.00000000000E+00  0.00000000000E+00  0.15329682390E+04  0.15329682390E+04  0.50400001928E-02 0.  1.
        1   -1    0    0  501    0  0.00000000000E+00  0.00000000000E+00 -0.12776920397E+04  0.12776920397E+04  0.50400001928E-02 0. -1.
    10030    2    1    2    0    0  0.00000000000E+00  0.00000000000E+00  0.25527619924E+03  0.28106602787E+04  0.27990436339E+04 0.  0.
        1    1    3    3  502    0 -0.43568451573E+03 -0.34178182149E+03  0.14182838669E+04  0.15225521133E+04  0.50400001928E-02 0.  1.
       -1    1    3    3    0  502  0.43568451573E+03  0.34178182149E+03 -0.11630076676E+04  0.12881081654E+04  0.50400001928E-02 0. -1.
</event>
<event>
 5   0  0.1243055E-06  0.2794634E+04  0.7818609E-02  0.8304936E-01
        1   -1    0    0  501    0  0.00000000000E+00  0.00000000000E+00  0.15290958968E+04  0.15290958968E+04  0.50400001928E-02 0. -1.
       -1   -1    0    0    0  501  0.00000000000E+00  0.00000000000E+00 -0.12768946357E+04  0.12768946357E+04  0.50400001928E-02 0.  1.
    10030    2    1    2    0    0  0.00000000000E+00  0.00000000000E+00  0.25220126112E+03  0.28059905326E+04  0.27946336777E+04 0.  0.
        5    1    3    3  502    0 -0.67461119920E+02 -0.10329882795E+04 -0.81625295491E+03  0.13182969183E+04  0.46999998093E+01 0.  1.
       -5    1    3    3    0  502  0.67461119920E+02  0.10329882795E+04  0.10684542160E+04  0.14876936143E+04  0.46999998093E+01 0. -1.
</event>
<event>
 5   0  0.3162695E-06  0.2792608E+04  0.7818609E-02  0.8305567E-01
       -2   -1    0    0    0  501  0.00000000000E+00  0.00000000000E+00  0.11761970379E+04  0.11761970379E+04  0.25500000920E-02 0.  1.
        2   -1    0    0  501    0  0.00000000000E+00  0.00000000000E+00 -0.16576006624E+04  0.16576006624E+04  0.25500000920E-02 0. -1.
    10030    2    1    2    0    0  0.00000000000E+00  0.00000000000E+00 -0.48140362454E+03  0.28337977003E+04  0.27926080921E+04 0.  0.
        1    1    3    3  502    0  0.10829414698E+02  0.12489750064E+04  0.39269142649E+03  0.13092984378E+04  0.50400001928E-02 0.  1.
       -1    1    3    3    0  502 -0.10829414698E+02 -0.12489750064E+04 -0.87409505103E+03  0.15244992624E+04  0.50400001928E-02 0. -1.
</event>
<event>
 5   0  0.3167616E-06  0.2794018E+04  0.7818609E-02  0.8305128E-01
       -2   -1    0    0    0  501  0.00000000000E+00  0.00000000000E+00  0.14742704174E+04  0.14742704174E+04  0.25500000920E-02 0.  1.
        2   -1    0    0  501    0  0.00000000000E+00  0.00000000000E+00 -0.13237970514E+04  0.13237970514E+04  0.25500000920E-02 0. -1.
    10030    2    1    2    0    0  0.00000000000E+00  0.00000000000E+00  0.15047336597E+03  0.27980674688E+04  0.27940184906E+04 0.  0.
        3    1    3    3  502    0  0.98805539280E+03  0.76767452968E+03 -0.54699872751E+03  0.13655714045E+04  0.10100000352E+00 0. -1.
       -3    1    3    3    0  502 -0.98805539280E+03 -0.76767452968E+03  0.69747209348E+03  0.14324960643E+04  0.10100000352E+00 0.  1.
</event>
<event>
 5   0  0.3162695E-06  0.2797443E+04  0.7818609E-02  0.8304062E-01
        2   -1    0    0  501    0  0.00000000000E+00  0.00000000000E+00  0.20615791559E+04  0.20615791559E+04  0.25500000920E-02 0. -1.
       -2   -1    0    0    0  501  0.00000000000E+00  0.00000000000E+00 -0.94899217351E+03  0.94899217351E+03  0.25500000920E-02 0.  1.
    10030    2    1    2    0    0  0.00000000000E+00  0.00000000000E+00  0.11125869824E+04  0.30105713294E+04  0.27974434643E+04 0.  0.
        1    1    3    3  502    0  0.74188079578E+03 -0.53299029363E+03  0.16962168532E+04  0.19265558340E+04  0.50400001928E-02 0. -1.
       -1    1    3    3    0  502 -0.74188079578E+03  0.53299029363E+03 -0.58362987081E+03  0.10840154955E+04  0.50400001928E-02 0.  1.
</event>
<event>
 5   0  0.3167616E-06  0.2783648E+04  0.7818609E-02  0.8308363E-01
       -2   -1    0    0    0  501  0.00000000000E+00  0.00000000000E+00  0.11140975753E+04  0.11140975753E+04  0.25500000920E-02 0. -1.
        2   -1    0    0  501    0  0.00000000000E+00  0.00000000000E+00 -0.17387825489E+04  0.17387825489E+04  0.25500000920E-02 0.  1.
    10030    2    1    2    0    0  0.00000000000E+00  0.00000000000E+00 -0.62468497356E+03  0.28528801242E+04  0.27836475508E+04 0.  0.
        3    1    3    3  502    0  0.36991046319E+03  0.25297026996E+03 -0.16628200558E+04  0.17221493130E+04  0.10100000352E+00 0.  1.
       -3    1    3    3    0  502 -0.36991046319E+03 -0.25297026996E+03  0.10381350822E+04  0.11307308112E+04  0.10100000352E+00 0. -1.
</event>
<event>
 5   0  0.3226364E-06  0.2815261E+04  0.7818609E-02  0.8298546E-01
       -2   -1    0    0    0  501  0.00000000000E+00  0.00000000000E+00  0.15817722488E+04  0.15817722488E+04  0.25500000920E-02 0. -1.
        2   -1    0    0  501    0  0.00000000000E+00  0.00000000000E+00 -0.12526605731E+04  0.12526605731E+04  0.25500000920E-02 0.  1.
    10030    2    1    2    0    0  0.00000000000E+00  0.00000000000E+00  0.32911167577E+03  0.28344328219E+04  0.28152610761E+04 0.  0.
        5    1    3    3  502    0  0.13202948225E+04  0.31580087979E+02  0.65493111173E+03  0.14741548668E+04  0.46999998093E+01 0. -1.
       -5    1    3    3    0  502 -0.13202948225E+04 -0.31580087979E+02 -0.32581943596E+03  0.13602779551E+04  0.46999998093E+01 0.  1.
</event>
<event>
 5   0  0.1246044E-06  0.2791520E+04  0.7818609E-02  0.8305906E-01
        1   -1    0    0  501    0  0.00000000000E+00  0.00000000000E+00  0.63675728183E+03  0.63675728185E+03  0.50400001928E-02 0. -1.
       -1   -1    0    0    0  501  0.00000000000E+00  0.00000000000E+00 -0.30594794123E+04  0.30594794123E+04  0.50400001928E-02 0.  1.
    10030    2    1    2    0    0  0.00000000000E+00  0.00000000000E+00 -0.24227221305E+04  0.36962366941E+04  0.27915198688E+04 0.  0.
        2    1    3    3  502    0 -0.64451637109E+03  0.96130571985E+03 -0.22443550242E+04  0.25252008859E+04  0.25500000920E-02 0.  1.
       -2    1    3    3    0  502  0.64451637109E+03 -0.96130571985E+03 -0.17836710630E+03  0.11710358083E+04  0.25500000920E-02 0. -1.
</event>
<event>
 5   0  0.1263513E-06  0.2815086E+04  0.7818609E-02  0.8298600E-01
       -1   -1    0    0    0  501  0.00000000000E+00  0.00000000000E+00  0.21407914966E+04  0.21407914966E+04  0.50400001928E-02 0.  1.
        1   -1    0    0  501    0  0.00000000000E+00  0.00000000000E+00 -0.92544123153E+03  0.92544123154E+03  0.50400001928E-02 0. -1.
    10030    2    1    2    0    0  0.00000000000E+00  0.00000000000E+00  0.12153502651E+04  0.30662327281E+04  0.28150855895E+04 0.  0.
        3    1    3    3  502    0 -0.38093007195E+03 -0.13520906178E+04  0.70460882246E+03  0.15715375787E+04  0.10100000352E+00 0.  1.
       -3    1    3    3    0  502  0.38093007195E+03  0.13520906178E+04  0.51074144261E+03  0.14946951494E+04  0.10100000352E+00 0. -1.
</event>
<event>
 5   0  0.3162695E-06  0.2792182E+04  0.7818609E-02  0.8305700E-01
        2   -1    0    0  501    0  0.00000000000E+00  0.00000000000E+00  0.29554237982E+04  0.29554237982E+04  0.25500000920E-02 0. -1.
       -2   -1    0    0    0  501  0.00000000000E+00  0.00000000000E+00 -0.65948938852E+03  0.65948938853E+03  0.25500000920E-02 0.  1.
    10030    2    1    2    0    0  0.00000000000E+00  0.00000000000E+00  0.22959344097E+04  0.36149131867E+04  0.27921823963E+04 0.  0.
        1    1    3    3  502    0  0.13331185944E+03 -0.89719157619E+03 -0.22604303827E+03  0.93478352116E+03  0.50400001928E-02 0.  1.
       -1    1    3    3    0  502 -0.13331185944E+03  0.89719157619E+03  0.25219774479E+04  0.26801296656E+04  0.50400001928E-02 0. -1.
</event>
<event>
 5   0  0.1263513E-06  0.2797906E+04  0.7818609E-02  0.8303919E-01
        1   -1    0    0  501    0  0.00000000000E+00  0.00000000000E+00  0.18733438393E+04  0.18733438393E+04  0.50400001928E-02 0. -1.
       -1   -1    0    0    0  501  0.00000000000E+00  0.00000000000E+00 -0.10446935036E+04  0.10446935036E+04  0.50400001928E-02 0.  1.
    10030    2    1    2    0    0  0.00000000000E+00  0.00000000000E+00  0.82865033575E+03  0.29180373429E+04  0.27979064594E+04 0.  0.
        3    1    3    3  502    0  0.10440916595E+04  0.17123899640E+03  0.13688366533E+04  0.17300762934E+04  0.10100000352E+00 0. -1.
       -3    1    3    3    0  502 -0.10440916595E+04 -0.17123899640E+03 -0.54018631756E+03  0.11879610495E+04  0.10100000352E+00 0.  1.
</event>
<event>
 5   0  0.1246044E-06  0.2789704E+04  0.7818609E-02  0.8306472E-01
       -1   -1    0    0    0  501  0.00000000000E+00  0.00000000000E+00  0.15450221034E+04  0.15450221034E+04  0.50400001928E-02 0.  1.
        1   -1    0    0  501    0  0.00000000000E+00  0.00000000000E+00 -0.12592775672E+04  0.12592775672E+04  0.50400001928E-02 0. -1.
    10030    2    1    2    0    0  0.00000000000E+00  0.00000000000E+00  0.28574453620E+03  0.28042996706E+04  0.27897036944E+04 0.  0.
        2    1    3    3  502    0 -0.41432944068E+03  0.89955088477E+03  0.11302287036E+04  0.15027566676E+04  0.25500000920E-02 0.  1.
       -2    1    3    3    0  502  0.41432944068E+03 -0.89955088477E+03 -0.84448416739E+03  0.13015430030E+04  0.25500000920E-02 0. -1.
</event>
<event>
 5   0  0.1220265E-06  0.2783549E+04  0.7818609E-02  0.8308394E-01
        1   -1    0    0  501    0  0.00000000000E+00  0.00000000000E+00  0.15634363831E+04  0.15634363831E+04  0.50400001928E-02 0.  1.
       -1   -1    0    0    0  501  0.00000000000E+00  0.00000000000E+00 -0.12389606049E+04  0.12389606050E+04  0.50400001928E-02 0. -1.
    10030    2    1    2    0    0  0.00000000000E+00  0.00000000000E+00  0.32447577811E+03  0.28023969880E+04  0.27835488765E+04 0.  0.
        4    1    3    3  502    0  0.76834924387E+03  0.79583792822E+03  0.10125370686E+04  0.14996504582E+04  0.12699999809E+01 0.  1.
       -4    1    3    3    0  502 -0.76834924387E+03 -0.79583792822E+03 -0.68806129052E+03  0.13027465298E+04  0.12699999809E+01 0. -1.
</event>
<event>
 5   0  0.3212679E-06  0.2807750E+04  0.7818609E-02  0.8300866E-01
       -2   -1    0    0    0  501  0.00000000000E+00  0.00000000000E+00  0.12610042779E+04  0.12610042779E+04  0.25500000920E-02 0.  1.
        2   -1    0    0  501    0  0.00000000000E+00  0.00000000000E+00 -0.15629324767E+04  0.15629324767E+04  0.25500000920E-02 0. -1.
    10030    2    1    2    0    0  0.00000000000E+00  0.00000000000E+00 -0.30192819877E+03  0.28239367546E+04  0.28077496606E+04 0.  0.
        4    1    3    3  502    0 -0.31197776970E+03  0.10140767910E+04 -0.10756015091E+04  0.15108282782E+04  0.12699999809E+01 0. -1.
       -4    1    3    3    0  502  0.31197776970E+03 -0.10140767910E+04  0.77367331030E+03  0.13131084764E+04  0.12699999809E+01 0.  1.
</event>
<event>
 5   0  0.1065675E-06  0.2775004E+04  0.7818609E-02  0.8311071E-01
        3   -1    0    0  501    0  0.00000000000E+00  0.00000000000E+00  0.88878233077E+03  0.88878233651E+03  0.10100000352E+00 0.  1.
       -3   -1    0    0    0  501  0.00000000000E+00  0.00000000000E+00 -0.21660669712E+04  0.21660669736E+04  0.10100000352E+00 0. -1.
    10030    2    1    2    0    0  0.00000000000E+00  0.00000000000E+00 -0.12772846404E+04  0.30548493101E+04  0.27750041900E+04 0.  0.
        4    1    3    3  502    0 -0.94517612896E+03 -0.36189248722E+02  0.47886054546E+03  0.10601776320E+04  0.12699999809E+01 0.  1.
       -4    1    3    3    0  502  0.94517612896E+03  0.36189248722E+02 -0.17561451859E+04  0.19946716781E+04  0.12699999809E+01 0. -1.
</event>
<event>
 5   0  0.1243055E-06  0.2808675E+04  0.7818609E-02  0.8300580E-01
       -1   -1    0    0    0  501  0.00000000000E+00  0.00000000000E+00  0.11575286434E+04  0.11575286434E+04  0.50400001928E-02 0. -1.
        1   -1    0    0  501    0  0.00000000000E+00  0.00000000000E+00 -0.17037707840E+04  0.17037707840E+04  0.50400001928E-02 0.  1.
    10030    2    1    2    0    0  0.00000000000E+00  0.00000000000E+00 -0.54624214057E+03  0.28612994274E+04  0.28086747653E+04 0.  0.
        5    1    3    3  502    0  0.11289848920E+03 -0.81644993825E+03 -0.14314404901E+04  0.16517810197E+04  0.46999998093E+01 0.  1.
       -5    1    3    3    0  502 -0.11289848920E+03  0.81644993825E+03  0.88519834952E+03  0.12095184077E+04  0.46999998093E+01 0. -1.
</event>
<event>
 5   0  0.1243055E-06  0.2793548E+04  0.7818609E-02  0.8305274E-01
       -1   -1    0    0    0  501  0.00000000000E+00  0.00000000000E+00  0.10068197745E+04  0.10068197745E+04  0.50400001928E-02 0. -1.
        1   -1    0    0  501    0  0.00000000000E+00  0.00000000000E+00 -0.19377618383E+04  0.19377618383E+04  0.50400001928E-02 0.  1.
    10030    2    1    2    0    0  0.00000000000E+00  0.00000000000E+00 -0.93094206381E+03  0.29445816128E+04  0.27935475203E+04 0.  0.
        5    1    3    3  502    0  0.11173166896E+04 -0.16799778150E+03 -0.13310473895E+04  0.17459464719E+04  0.46999998093E+01 0.  1.
       -5    1    3    3    0  502 -0.11173166896E+04  0.16799778150E+03  0.40010532570E+03  0.11986351409E+04  0.46999998093E+01 0. -1.
</event>
<event>
 5   0  0.3226364E-06  0.2827775E+04  0.7818609E-02  0.8294697E-01
       -2   -1    0    0    0  501  0.00000000000E+00  0.00000000000E+00  0.16023059984E+04  0.16023059984E+04  0.25500000920E-02 0.  1.
        2   -1    0    0  501    0  0.00000000000E+00  0.00000000000E+00 -0.12476254672E+04  0.12476254672E+04  0.25500000920E-02 0. -1.
    10030    2    1    2    0    0  0.00000000000E+00  0.00000000000E+00  0.35468053117E+03  0.28499314656E+04  0.28277749344E+04 0.  0.
        5    1    3    3  502    0 -0.69478703640E+03  0.72150010139E+03 -0.82835832743E+03  0.12998042279E+04  0.46999998093E+01 0. -1.
       -5    1    3    3    0  502  0.69478703640E+03 -0.72150010139E+03  0.11830388586E+04  0.15501272377E+04  0.46999998093E+01 0.  1.
</event>
<event>
 5   0  0.3162695E-06  0.2787319E+04  0.7818609E-02  0.8307216E-01
       -2   -1    0    0    0  501  0.00000000000E+00  0.00000000000E+00  0.62445733702E+03  0.62445733702E+03  0.25500000920E-02 0.  1.
        2   -1    0    0  501    0  0.00000000000E+00  0.00000000000E+00 -0.31103592009E+04  0.31103592009E+04  0.25500000920E-02 0. -1.
    10030    2    1    2    0    0  0.00000000000E+00  0.00000000000E+00 -0.24859018639E+04  0.37348165379E+04  0.27873188722E+04 0.  0.
        1    1    3    3  502    0 -0.11306910712E+04 -0.43154823061E+03 -0.21689497553E+04  0.24837550634E+04  0.50400001928E-02 0. -1.
       -1    1    3    3    0  502  0.11306910712E+04  0.43154823061E+03 -0.31695210856E+03  0.12510614745E+04  0.50400001928E-02 0.  1.
</event>
<event>
 5   0  0.1246044E-06  0.2780385E+04  0.7818609E-02  0.8309384E-01
       -1   -1    0    0    0  501  0.00000000000E+00  0.00000000000E+00  0.12554512700E+04  0.12554512700E+04  0.50400001928E-02 0. -1.
        1   -1    0    0  501    0  0.00000000000E+00  0.00000000000E+00 -0.15393949098E+04  0.15393949098E+04  0.50400001928E-02 0.  1.
    10030    2    1    2    0    0  0.00000000000E+00  0.00000000000E+00 -0.28394363973E+03  0.27948461798E+04  0.27803850773E+04 0.  0.
        2    1    3    3  502    0  0.18075076114E+02  0.97401610432E+03  0.85495318670E+03  0.12961400508E+04  0.25500000920E-02 0. -1.
       -2    1    3    3    0  502 -0.18075076114E+02 -0.97401610432E+03 -0.11388968264E+04  0.14987061290E+04  0.25500000920E-02 0.  1.
</event>
<event>
 5   0  0.1065675E-06  0.2797713E+04  0.7818609E-02  0.8303979E-01
        4   -1    0    0  501    0  0.00000000000E+00  0.00000000000E+00  0.12268712540E+04  0.12268719114E+04  0.12699999809E+01 0.  1.
       -4   -1    0    0    0  501  0.00000000000E+00  0.00000000000E+00 -0.15949493039E+04  0.15949498096E+04  0.12699999809E+01 0. -1.
    10030    2    1    2    0    0  0.00000000000E+00  0.00000000000E+00 -0.36807804990E+03  0.28218217209E+04  0.27977127039E+04 0.  0.
        5    1    3    3  502    0 -0.90573098746E+03  0.99029490427E+03 -0.58208446715E+03  0.14628318550E+04  0.46999998093E+01 0.  1.
       -5    1    3    3    0  502  0.90573098746E+03 -0.99029490427E+03  0.21400641725E+03  0.13589898659E+04  0.46999998093E+01 0. -1.
</event>
<event>
 5   0  0.3162695E-06  0.2790509E+04  0.7818609E-02  0.8306221E-01
        2   -1    0    0  501    0  0.00000000000E+00  0.00000000000E+00  0.13374105243E+04  0.13374105243E+04  0.25500000920E-02 0.  1.
       -2   -1    0    0    0  501  0.00000000000E+00  0.00000000000E+00 -0.14556001052E+04  0.14556001052E+04  0.25500000920E-02 0. -1.
    10030    2    1    2    0    0  0.00000000000E+00  0.00000000000E+00 -0.11818958089E+03  0.27930106296E+04  0.27905088425E+04 0.  0.
        1    1    3    3  502    0  0.10376312381E+04 -0.89339997072E+03 -0.32746351524E+03  0.14078616579E+04  0.50400001928E-02 0. -1.
       -1    1    3    3    0  502 -0.10376312381E+04  0.89339997072E+03  0.20927393435E+03  0.13851489716E+04  0.50400001928E-02 0.  1.
</event>
<event>
 5   0  0.3162695E-06  0.2795930E+04  0.7818609E-02  0.8304533E-01
        2   -1    0    0  501    0  0.00000000000E+00  0.00000000000E+00  0.13098951892E+04  0.13098951892E+04  0.25500000920E-02 0.  1.
       -2   -1    0    0    0  501  0.00000000000E+00  0.00000000000E+00 -0.14919557181E+04  0.14919557181E+04  0.25500000920E-02 0. -1.
    10030    2    1    2    0    0  0.00000000000E+00  0.00000000000E+00 -0.18206052898E+03  0.28018509073E+04  0.27959296255E+04 0.  0.
        1    1    3    3  502    0 -0.13615136630E+02 -0.76002455118E+03  0.10846905328E+04  0.13245286869E+04  0.50400001928E-02 0.  1.
       -1    1    3    3    0  502  0.13615136630E+02  0.76002455118E+03 -0.12667510618E+04  0.14773222204E+04  0.50400001928E-02 0. -1.
</event>
<event>
 5   0  0.3167616E-06  0.2797998E+04  0.7818609E-02  0.8303890E-01
       -2   -1    0    0    0  501  0.00000000000E+00  0.00000000000E+00  0.10807318954E+04  0.10807318954E+04  0.25500000920E-02 0. -1.
        2   -1    0    0  501    0  0.00000000000E+00  0.00000000000E+00 -0.18109929164E+04  0.18109929164E+04  0.25500000920E-02 0.  1.
    10030    2    1    2    0    0  0.00000000000E+00  0.00000000000E+00 -0.73026102094E+03  0.28917248118E+04  0.27979977178E+04 0.  0.
        3    1    3    3  502    0 -0.95001611102E+03 -0.44251388873E+03  0.59265425003E+03  0.12039884647E+04  0.10100000352E+00 0. -1.
       -3    1    3    3    0  502  0.95001611102E+03  0.44251388873E+03 -0.13229152710E+04  0.16877363471E+04  0.10100000352E+00 0.  1.
</event>
<event>
 5   0  0.1220265E-06  0.2800199E+04  0.7818609E-02  0.8303207E-01
        1   -1    0    0  501    0  0.00000000000E+00  0.00000000000E+00  0.11742426111E+04  0.11742426112E+04  0.50400001928E-02 0.  1.
       -1   -1    0    0    0  501  0.00000000000E+00  0.00000000000E+00 -0.16693984240E+04  0.16693984240E+04  0.50400001928E-02 0. -1.
    10030    2    1    2    0    0  0.00000000000E+00  0.00000000000E+00 -0.49515581284E+03  0.28436410351E+04  0.28001991104E+04 0.  0.
        4    1    3    3  502    0  0.11241088933E+04  0.52240661276E+02 -0.10935242817E+04  0.15691229583E+04  0.12699999809E+01 0. -1.
       -4    1    3    3    0  502 -0.11241088933E+04 -0.52240661276E+02  0.59836846889E+03  0.12745180768E+04  0.12699999809E+01 0.  1.
</event>
<event>
 5   0  0.1220265E-06  0.2750439E+04  0.7818609E-02  0.8318822E-01
       -1   -1    0    0    0  501  0.00000000000E+00  0.00000000000E+00  0.10499765839E+04  0.10499765839E+04  0.50400001928E-02 0.  1.
        1   -1    0    0  501    0  0.00000000000E+00  0.00000000000E+00 -0.18012105065E+04  0.18012105065E+04  0.50400001928E-02 0. -1.
    10030    2    1    2    0    0  0.00000000000E+00  0.00000000000E+00 -0.75123392256E+03  0.28511870905E+04  0.27504391319E+04 0.  0.
        4    1    3    3  502    0  0.10523595613E+04  0.75491337672E+03  0.10378635959E+03  0.12992798289E+04  0.12699999809E+01 0.  1.
       -4    1    3    3    0  502 -0.10523595613E+04 -0.75491337672E+03 -0.85502028215E+03  0.15519072615E+04  0.12699999809E+01 0. -1.
</event>
<event>
 5   0  0.1235252E-06  0.2790196E+04  0.7818609E-02  0.8306318E-01
        1   -1    0    0  501    0  0.00000000000E+00  0.00000000000E+00  0.30892121955E+04  0.30892121955E+04  0.50400001928E-02 0. -1.
       -1   -1    0    0    0  501  0.00000000000E+00  0.00000000000E+00 -0.63003083786E+03  0.63003083788E+03  0.50400001928E-02 0.  1.
    10030    2    1    2    0    0  0.00000000000E+00  0.00000000000E+00  0.24591813577E+04  0.37192430334E+04  0.27901963715E+04 0.  0.
        1    1    3    3  502    0  0.72436501401E+03 -0.11155507144E+04  0.66856959223E+03  0.14886716796E+04  0.50400001928E-02 0.  1.
       -1    1    3    3    0  502 -0.72436501401E+03  0.11155507144E+04  0.17906117654E+04  0.22305713538E+04  0.50400001928E-02 0. -1.
</event>
<event>
 5   0  0.3226364E-06  0.2790806E+04  0.7818609E-02  0.8306128E-01
        2   -1    0    0  501    0  0.00000000000E+00  0.00000000000E+00  0.20139095083E+04  0.20139095083E+04  0.25500000920E-02 0.  1.
       -2   -1    0    0    0  501  0.00000000000E+00  0.00000000000E+00 -0.96685060380E+03  0.96685060380E+03  0.25500000920E-02 0. -1.
    10030    2    1    2    0    0  0.00000000000E+00  0.00000000000E+00  0.10470589045E+04  0.29807601121E+04  0.27908060657E+04 0.  0.
        5    1    3    3  502    0  0.64265033555E+03 -0.12104821728E+02 -0.79931090622E+03  0.10257026837E+04  0.46999998093E+01 0. -1.
       -5    1    3    3    0  502 -0.64265033555E+03  0.12104821728E+02  0.18463698108E+04  0.19550574285E+04  0.46999998093E+01 0.  1.
</event>
<event>
 5   0  0.1263513E-06  0.2798509E+04  0.7818609E-02  0.8303731E-01
       -1   -1    0    0    0  501  0.00000000000E+00  0.00000000000E+00  0.12644567509E+04  0.12644567509E+04  0.50400001928E-02 0.  1.
        1   -1    0    0  501    0  0.00000000000E+00  0.00000000000E+00 -0.15484225501E+04  0.15484225501E+04  0.50400001928E-02 0. -1.
    10030    2    1    2    0    0  0.00000000000E+00  0.00000000000E+00 -0.28396579924E+03  0.28128793011E+04  0.27985091365E+04 0.  0.
        3    1    3    3  502    0  0.13138831433E+04 -0.46647609122E+03 -0.26101599556E+03  0.14184562800E+04  0.10100000352E+00 0.  1.
       -3    1    3    3    0  502 -0.13138831433E+04  0.46647609122E+03 -0.22949803679E+02  0.13944230211E+04  0.10100000352E+00 0. -1.
</event>
<event>
 5   0  0.3226364E-06  0.2962867E+04  0.7818609E-02  0.8254415E-01
       -2   -1    0    0    0  501  0.00000000000E+00  0.00000000000E+00  0.13027709048E+04  0.13027709048E+04  0.25500000920E-02 0. -1.
        2   -1    0    0  501    0  0.00000000000E+00  0.00000000000E+00 -0.16845978547E+04  0.16845978547E+04  0.25500000920E-02 0.  1.
    10030    2    1    2    0    0  0.00000000000E+00  0.00000000000E+00 -0.38182694990E+03  0.29873687595E+04  0.29628669031E+04 0.  0.
        5    1    3    3  502    0 -0.35143069254E+03 -0.14285925011E+04 -0.15570439185E+02  0.14712731203E+04  0.46999998093E+01 0.  1.
       -5    1    3    3    0  502  0.35143069254E+03  0.14285925011E+04 -0.36625651071E+03  0.15160956393E+04  0.46999998093E+01 0. -1.
</event>
<event>
 5   0  0.3162695E-06  0.2775403E+04  0.7818609E-02  0.8310946E-01
       -2   -1    0    0    0  501  0.00000000000E+00  0.00000000000E+00  0.11664223625E+04  0.11664223625E+04  0.25500000920E-02 0.  1.
        2   -1    0    0  501    0  0.00000000000E+00  0.00000000000E+00 -0.16509594414E+04  0.16509594415E+04  0.25500000920E-02 0. -1.
    10030    2    1    2    0    0  0.00000000000E+00  0.00000000000E+00 -0.48453707896E+03  0.28173818039E+04  0.27754034028E+04 0.  0.
        1    1    3    3  502    0 -0.87306464068E+03 -0.81845897517E+03  0.47092392708E+03  0.12860351107E+04  0.50400001928E-02 0.  1.
       -1    1    3    3    0  502  0.87306464068E+03  0.81845897517E+03 -0.95546100604E+03  0.15313466932E+04  0.50400001928E-02 0. -1.
</event>
<event>
 5   0  0.3212679E-06  0.2767861E+04  0.7818609E-02  0.8313316E-01
        2   -1    0    0  501    0  0.00000000000E+00  0.00000000000E+00  0.92637467919E+03  0.92637467920E+03  0.25500000920E-02 0.  1.
       -2   -1    0    0    0  501  0.00000000000E+00  0.00000000000E+00 -0.20674824991E+04  0.20674824991E+04  0.25500000920E-02 0. -1.
    10030    2    1    2    0    0  0.00000000000E+00  0.00000000000E+00 -0.11411078199E+04  0.29938571783E+04  0.27678608613E+04 0.  0.
        4    1    3    3  502    0 -0.90354781728E+02  0.35955322144E+03 -0.20127709896E+04  0.20466292227E+04  0.12699999809E+01 0. -1.
       -4    1    3    3    0  502  0.90354781728E+02 -0.35955322144E+03  0.87166316969E+03  0.94722795563E+03  0.12699999809E+01 0.  1.
</event>
<event>
 5   0  0.3226364E-06  0.2802157E+04  0.7818609E-02  0.8302599E-01
        2   -1    0    0  501    0  0.00000000000E+00  0.00000000000E+00  0.15313069235E+04  0.15313069235E+04  0.25500000920E-02 0.  1.
       -2   -1    0    0    0  501  0.00000000000E+00  0.00000000000E+00 -0.12819252011E+04  0.12819252011E+04  0.25500000920E-02 0. -1.
    10030    2    1    2    0    0  0.00000000000E+00  0.00000000000E+00  0.24938172238E+03  0.28132321246E+04  0.28021569805E+04 0.  0.
        5    1    3    3  502    0 -0.20172494645E+03  0.45395178694E+03 -0.11905379541E+04  0.12900263133E+04  0.46999998093E+01 0. -1.
       -5    1    3    3    0  502  0.20172494645E+03 -0.45395178694E+03  0.14399196765E+04  0.15232058113E+04  0.46999998093E+01 0.  1.
</event>
<event>
 5   0  0.1220265E-06  0.2795478E+04  0.7818609E-02  0.8304674E-01
        1   -1    0    0  501    0  0.00000000000E+00  0.00000000000E+00  0.23733679501E+04  0.23733679501E+04  0.50400001928E-02 0.  1.
       -1   -1    0    0    0  501  0.00000000000E+00  0.00000000000E+00 -0.82316539358E+03  0.82316539359E+03  0.50400001928E-02 0. -1.
    10030    2    1    2    0    0  0.00000000000E+00  0.00000000000E+00  0.15502025566E+04  0.31965333437E+04  0.27954780363E+04 0.  0.
        4    1    3    3  502    0 -0.61076626758E+02  0.35267093224E+03 -0.76987522002E+03  0.84900919199E+03  0.12699999809E+01 0. -1.
       -4    1    3    3    0  502  0.61076626758E+02 -0.35267093224E+03  0.23200777766E+04  0.23475241518E+04  0.12699999809E+01 0.  1.
</event>
<event>
 5   0  0.3162695E-06  0.2801092E+04  0.7818609E-02  0.8302929E-01
        2   -1    0    0  501    0  0.00000000000E+00  0.00000000000E+00  0.73671350767E+03  0.73671350768E+03  0.25500000920E-02 0. -1.
       -2   -1    0    0    0  501  0.00000000000E+00  0.00000000000E+00 -0.26625396844E+04  0.26625396845E+04  0.25500000920E-02 0.  1.
    10030    2    1    2    0    0  0.00000000000E+00  0.00000000000E+00 -0.19258261768E+04  0.33992531921E+04  0.28010918944E+04 0.  0.
        1    1    3    3  502    0  0.20191529774E+03  0.19187503205E+03 -0.26285872626E+04  0.26433041468E+04  0.50400001928E-02 0.  1.
       -1    1    3    3    0  502 -0.20191529774E+03 -0.19187503205E+03  0.70276108581E+03  0.75594904533E+03  0.50400001928E-02 0. -1.
</event>
<event>
 5   0  0.1235252E-06  0.2797414E+04  0.7818609E-02  0.8304072E-01
        1   -1    0    0  501    0  0.00000000000E+00  0.00000000000E+00  0.20535521280E+04  0.20535521280E+04  0.50400001928E-02 0. -1.
       -1   -1    0    0    0  501  0.00000000000E+00  0.00000000000E+00 -0.95268178902E+03  0.95268178904E+03  0.50400001928E-02 0.  1.
    10030    2    1    2    0    0  0.00000000000E+00  0.00000000000E+00  0.11008703390E+04  0.30062339171E+04  0.27974143170E+04 0.  0.
        1    1    3    3  502    0 -0.37031595918E+03 -0.11411848378E+04  0.13230946446E+04  0.17860616401E+04  0.50400001928E-02 0. -1.
       -1    1    3    3    0  502  0.37031595918E+03  0.11411848378E+04 -0.22222430554E+03  0.12201722770E+04  0.50400001928E-02 0.  1.
</event>
<event>
 5   0  0.1246044E-06  0.2796236E+04  0.7818609E-02  0.8304438E-01
       -1   -1    0    0    0  501  0.00000000000E+00  0.00000000000E+00  0.16224702259E+04  0.16224702259E+04  0.50400001928E-02 0.  1.
        1   -1    0    0  501    0  0.00000000000E+00  0.00000000000E+00 -0.12047889592E+04  0.12047889593E+04  0.50400001928E-02 0. -1.
    10030    2    1    2    0    0  0.00000000000E+00  0.00000000000E+00  0.41768126665E+03  0.28272591852E+04  0.27962361952E+04 0.  0.
        2    1    3    3  502    0  0.11263237713E+04 -0.37329483453E+03  0.95649015291E+03  0.15240825712E+04  0.25500000920E-02 0.  1.
       -2    1    3    3    0  502 -0.11263237713E+04  0.37329483453E+03 -0.53880888626E+03  0.13031766140E+04  0.25500000920E-02 0. -1.
</event>
<event>
 5   0  0.1246044E-06  0.2791178E+04  0.7818609E-02  0.8306012E-01
        1   -1    0    0  501    0  0.00000000000E+00  0.00000000000E+00  0.16958509236E+04  0.16958509236E+04  0.50400001928E-02 0.  1.
       -1   -1    0    0    0  501  0.00000000000E+00  0.00000000000E+00 -0.11484907849E+04  0.11484907849E+04  0.50400001928E-02 0. -1.
    10030    2    1    2    0    0  0.00000000000E+00  0.00000000000E+00  0.54736013867E+03  0.28443417085E+04  0.27911783593E+04 0.  0.
        2    1    3    3  502    0 -0.23334340892E+03  0.84267701840E+03 -0.83474858449E+03  0.12088667847E+04  0.25500000920E-02 0. -1.
       -2    1    3    3    0  502  0.23334340892E+03 -0.84267701840E+03  0.13821087232E+04  0.16354749238E+04  0.25500000920E-02 0.  1.
</event>
<event>
 5   0  0.1235252E-06  0.2796374E+04  0.7818609E-02  0.8304395E-01
       -1   -1    0    0    0  501  0.00000000000E+00  0.00000000000E+00  0.89933014037E+03  0.89933014038E+03  0.50400001928E-02 0.  1.
        1   -1    0    0  501    0  0.00000000000E+00  0.00000000000E+00 -0.21737583831E+04  0.21737583831E+04  0.50400001928E-02 0. -1.
    10030    2    1    2    0    0  0.00000000000E+00  0.00000000000E+00 -0.12744282427E+04  0.30730885235E+04  0.27963736745E+04 0.  0.
        1    1    3    3  502    0 -0.17006116390E+03 -0.84418197885E+02  0.88509792286E+03  0.90523232635E+03  0.50400001928E-02 0.  1.
       -1    1    3    3    0  502  0.17006116390E+03  0.84418197885E+02 -0.21595261656E+04  0.21678561971E+04  0.50400001928E-02 0. -1.
</event>
<event>
 5   0  0.1220265E-06  0.2796651E+04  0.7818609E-02  0.8304309E-01
       -1   -1    0    0    0  501  0.00000000000E+00  0.00000000000E+00  0.86717461234E+03  0.86717461235E+03  0.50400001928E-02 0. -1.
        1   -1    0    0  501    0  0.00000000000E+00  0.00000000000E+00 -0.22548104601E+04  0.22548104601E+04  0.50400001928E-02 0.  1.
    10030    2    1    2    0    0  0.00000000000E+00  0.00000000000E+00 -0.13876358478E+04  0.31219850725E+04  0.27966511307E+04 0.  0.
        4    1    3    3  502    0 -0.12107738879E+04 -0.47353374155E+03 -0.11903796027E+03  0.13055187708E+04  0.12699999809E+01 0. -1.
       -4    1    3    3    0  502  0.12107738879E+04  0.47353374155E+03 -0.12685978875E+04  0.18164663017E+04  0.12699999809E+01 0.  1.
</event>
<event>
 5   0  0.3212679E-06  0.2803089E+04  0.7818609E-02  0.8302310E-01
       -2   -1    0    0    0  501  0.00000000000E+00  0.00000000000E+00  0.19299821471E+04  0.19299821471E+04  0.25500000920E-02 0. -1.
        2   -1    0    0  501    0  0.00000000000E+00  0.00000000000E+00 -0.10177952151E+04  0.10177952151E+04  0.25500000920E-02 0.  1.
    10030    2    1    2    0    0  0.00000000000E+00  0.00000000000E+00  0.91218693198E+03  0.29477773623E+04  0.28030887211E+04 0.  0.
        4    1    3    3  502    0 -0.21388845985E+03  0.11700870662E+04 -0.32343324365E+03  0.12326648741E+04  0.12699999809E+01 0.  1.
       -4    1    3    3    0  502  0.21388845985E+03 -0.11700870662E+04  0.12356201756E+04  0.17151124882E+04  0.12699999809E+01 0. -1.
</event>
<event>
 5   0  0.3212679E-06  0.2797717E+04  0.7818609E-02  0.8303977E-01
       -2   -1    0    0    0  501  0.00000000000E+00  0.00000000000E+00  0.11767718120E+04  0.11767718120E+04  0.25500000920E-02 0. -1.
        2   -1    0    0  501    0  0.00000000000E+00  0.00000000000E+00 -0.16628590454E+04  0.16628590454E+04  0.25500000920E-02 0.  1.
    10030    2    1    2    0    0  0.00000000000E+00  0.00000000000E+00 -0.48608723343E+03  0.28396308574E+04  0.27977173925E+04 0.  0.
        4    1    3    3  502    0 -0.70791581412E+02  0.13870460591E+04 -0.41256622182E+03  0.14488342619E+04  0.12699999809E+01 0. -1.
       -4    1    3    3    0  502  0.70791581412E+02 -0.13870460591E+04 -0.73521011602E+02  0.13907965956E+04  0.12699999809E+01 0.  1.
</event>
<event>
 5   0  0.1243055E-06  0.2791830E+04  0.7818609E-02  0.8305809E-01
        1   -1    0    0  501    0  0.00000000000E+00  0.00000000000E+00  0.15205640247E+04  0.15205640247E+04  0.50400001928E-02 0.  1.
       -1   -1    0    0    0  501  0.00000000000E+00  0.00000000000E+00 -0.12814845817E+04  0.12814845817E+04  0.50400001928E-02 0. -1.
    10030    2    1    2    0    0  0.00000000000E+00  0.00000000000E+00  0.23907944300E+03  0.28020486064E+04  0.27918304771E+04 0.  0.
        5    1    3    3  502    0 -0.11587479207E+04  0.71294348456E+03 -0.19396888147E+03  0.13742747807E+04  0.46999998093E+01 0. -1.
       -5    1    3    3    0  502  0.11587479207E+04 -0.71294348456E+03  0.43304832448E+03  0.14277738257E+04  0.46999998093E+01 0.  1.
</event>
<event>
 5   0  0.3345919E-06  0.2795910E+04  0.7818609E-02  0.8304539E-01
       -2   -1    0    0    0  501  0.00000000000E+00  0.00000000000E+00  0.10285804023E+04  0.10285804023E+04  0.25500000920E-02 0. -1.
        2   -1    0    0  501    0  0.00000000000E+00  0.00000000000E+00 -0.18999763779E+04  0.18999763779E+04  0.25500000920E-02 0.  1.
    10030    2    1    2    0    0  0.00000000000E+00  0.00000000000E+00 -0.87139597554E+03  0.29285567802E+04  0.27959102040E+04 0.  0.
        2    1    3    3  502    0 -0.11686178897E+03  0.33707496237E+03  0.98009570040E+03  0.10430070901E+04  0.25500000920E-02 0. -1.
       -2    1    3    3    0  502  0.11686178897E+03 -0.33707496237E+03 -0.18514916759E+04  0.18855496902E+04  0.25500000920E-02 0.  1.
</event>
<event>
 5   0  0.1065675E-06  0.2831142E+04  0.7818609E-02  0.8293665E-01
        3   -1    0    0  501    0  0.00000000000E+00  0.00000000000E+00  0.23474660984E+04  0.23474661006E+04  0.10100000352E+00 0.  1.
       -3   -1    0    0    0  501  0.00000000000E+00  0.00000000000E+00 -0.85361871925E+03  0.85361872523E+03  0.10100000352E+00 0. -1.
    10030    2    1    2    0    0  0.00000000000E+00  0.00000000000E+00  0.14938473792E+04  0.32010848258E+04  0.28311418315E+04 0.  0.
        2    1    3    3  502    0 -0.41221825992E+03 -0.85731545189E+03  0.19322012024E+04  0.21536748047E+04  0.25500000920E-02 0.  1.
       -2    1    3    3    0  502  0.41221825992E+03  0.85731545189E+03 -0.43835382328E+03  0.10474100211E+04  0.25500000920E-02 0. -1.
</event>
<event>
 5   0  0.3162695E-06  0.2813729E+04  0.7818609E-02  0.8299019E-01
        2   -1    0    0  501    0  0.00000000000E+00  0.00000000000E+00  0.14708637917E+04  0.14708637917E+04  0.25500000920E-02 0. -1.
       -2   -1    0    0    0  501  0.00000000000E+00  0.00000000000E+00 -0.13456501387E+04  0.13456501387E+04  0.25500000920E-02 0.  1.
    10030    2    1    2    0    0  0.00000000000E+00  0.00000000000E+00  0.12521365297E+03  0.28165139304E+04  0.28137292445E+04 0.  0.
        1    1    3    3  502    0  0.20798729789E+03 -0.61139506715E+03 -0.11885123173E+04  0.13526360089E+04  0.50400001928E-02 0.  1.
       -1    1    3    3    0  502 -0.20798729789E+03  0.61139506715E+03  0.13137259702E+04  0.14638779215E+04  0.50400001928E-02 0. -1.
</event>
<event>
 5   0  0.3212679E-06  0.2790591E+04  0.7818609E-02  0.8306195E-01
       -2   -1    0    0    0  501  0.00000000000E+00  0.00000000000E+00  0.12379909945E+04  0.12379909945E+04  0.25500000920E-02 0. -1.
        2   -1    0    0  501    0  0.00000000000E+00  0.00000000000E+00 -0.15725879509E+04  0.15725879509E+04  0.25500000920E-02 0.  1.
    10030    2    1    2    0    0  0.00000000000E+00  0.00000000000E+00 -0.33459695643E+03  0.28105789454E+04  0.27905911355E+04 0.  0.
        4    1    3    3  502    0 -0.85956157171E+03  0.53376118870E+03 -0.11349616006E+04  0.15204889181E+04  0.12699999809E+01 0.  1.
       -4    1    3    3    0  502  0.85956157171E+03 -0.53376118870E+03  0.80036464422E+03  0.12900900274E+04  0.12699999809E+01 0. -1.
</event>
<event>
 5   0  0.1243055E-06  0.2796291E+04  0.7818609E-02  0.8304421E-01
       -1   -1    0    0    0  501  0.00000000000E+00  0.00000000000E+00  0.11475983041E+04  0.11475983041E+04  0.50400001928E-02 0.  1.
        1   -1    0    0  501    0  0.00000000000E+00  0.00000000000E+00 -0.17033927734E+04  0.17033927734E+04  0.50400001928E-02 0. -1.
    10030    2    1    2    0    0  0.00000000000E+00  0.00000000000E+00 -0.55579446932E+03  0.28509910775E+04  0.27962908704E+04 0.  0.
        5    1    3    3  502    0  0.70835851890E+03 -0.42319264493E+03  0.87286447565E+03  0.12011570625E+04  0.46999998093E+01 0.  1.
       -5    1    3    3    0  502 -0.70835851890E+03  0.42319264493E+03 -0.14286589450E+04  0.16498340150E+04  0.46999998093E+01 0. -1.
</event>
<event>
 5   0  0.3212679E-06  0.2793163E+04  0.7818609E-02  0.8305394E-01
        2   -1    0    0  501    0  0.00000000000E+00  0.00000000000E+00  0.18363543323E+04  0.18363543323E+04  0.25500000920E-02 0. -1.
       -2   -1    0    0    0  501  0.00000000000E+00  0.00000000000E+00 -0.10621263359E+04  0.10621263359E+04  0.25500000920E-02 0.  1.
    10030    2    1    2    0    0  0.00000000000E+00  0.00000000000E+00  0.77422799648E+03  0.28984806682E+04  0.27931632952E+04 0.  0.
        4    1    3    3  502    0 -0.11973220858E+04  0.67435297942E+03  0.64572252822E+03  0.15183185813E+04  0.12699999809E+01 0.  1.
       -4    1    3    3    0  502  0.11973220858E+04 -0.67435297942E+03  0.12850546826E+03  0.13801620869E+04  0.12699999809E+01 0. -1.
</event>
<event>
 5   0  0.3226364E-06  0.2799453E+04  0.7818609E-02  0.8303438E-01
        2   -1    0    0  501    0  0.00000000000E+00  0.00000000000E+00  0.13481851293E+04  0.13481851293E+04  0.25500000920E-02 0. -1.
       -2   -1    0    0    0  501  0.00000000000E+00  0.00000000000E+00 -0.14532381409E+04  0.14532381409E+04  0.25500000920E-02 0.  1.
    10030    2    1    2    0    0  0.00000000000E+00  0.00000000000E+00 -0.10505301153E+03  0.28014232702E+04  0.27994528401E+04 0.  0.
        5    1    3    3  502    0 -0.15416747339E+03  0.57371270450E+03  0.12157637236E+04  0.13531509150E+04  0.46999998093E+01 0. -1.
       -5    1    3    3    0  502  0.15416747339E+03 -0.57371270450E+03 -0.13208167351E+04  0.14482723552E+04  0.46999998093E+01 0.  1.
</event>
<event>
 5   0  0.3162695E-06  0.2804093E+04  0.7818609E-02  0.8301999E-01
        2   -1    0    0  501    0  0.00000000000E+00  0.00000000000E+00  0.21735305363E+04  0.21735305363E+04  0.25500000920E-02 0.  1.
       -2   -1    0    0    0  501  0.00000000000E+00  0.00000000000E+00 -0.90439725741E+03  0.90439725741E+03  0.25500000920E-02 0. -1.
    10030    2    1    2    0    0  0.00000000000E+00  0.00000000000E+00  0.12691332789E+04  0.30779277938E+04  0.28040934763E+04 0.  0.
        1    1    3    3  502    0 -0.54124544048E+03 -0.10725817412E+04  0.14278887932E+04  0.18660773361E+04  0.50400001928E-02 0.  1.
       -1    1    3    3    0  502  0.54124544048E+03  0.10725817412E+04 -0.15875551427E+03  0.12118504577E+04  0.50400001928E-02 0. -1.
</event>
<event>
 5   0  0.1220265E-06  0.2802037E+04  0.7818609E-02  0.8302636E-01
        1   -1    0    0  501    0  0.00000000000E+00  0.00000000000E+00  0.24289040332E+04  0.24289040332E+04  0.50400001928E-02 0.  1.
       -1   -1    0    0    0  501  0.00000000000E+00  0.00000000000E+00 -0.80812275809E+03  0.80812275811E+03  0.50400001928E-02 0. -1.
    10030    2    1    2    0    0  0.00000000000E+00  0.00000000000E+00  0.16207812751E+04  0.32370267913E+04  0.28020368495E+04 0.  0.
        4    1    3    3  502    0 -0.19832015512E+03  0.35179470032E+03  0.23602055085E+04  0.23945066403E+04  0.12699999809E+01 0.  1.
       -4    1    3    3    0  502  0.19832015512E+03 -0.35179470032E+03 -0.73942423338E+03  0.84252015104E+03  0.12699999809E+01 0. -1.
</event>
<event>
 5   0  0.3162695E-06  0.2797444E+04  0.7818609E-02  0.8304062E-01
       -2   -1    0    0    0  501  0.00000000000E+00  0.00000000000E+00  0.13875406908E+04  0.13875406909E+04  0.25500000920E-02 0. -1.
        2   -1    0    0  501    0  0.00000000000E+00  0.00000000000E+00 -0.14099937902E+04  0.14099937902E+04  0.25500000920E-02 0.  1.
    10030    2    1    2    0    0  0.00000000000E+00  0.00000000000E+00 -0.22453099395E+02  0.27975344811E+04  0.27974443750E+04 0.  0.
        1    1    3    3  502    0  0.13635948037E+04  0.40669537342E+02  0.29761823721E+03  0.13962884426E+04  0.50400001928E-02 0. -1.
       -1    1    3    3    0  502 -0.13635948037E+04 -0.40669537342E+02 -0.32007133660E+03  0.14012460385E+04  0.50400001928E-02 0.  1.
</event>
<event>
 5   0  0.1246044E-06  0.2716925E+04  0.7818609E-02  0.8329534E-01
        1   -1    0    0  501    0  0.00000000000E+00  0.00000000000E+00  0.13300344274E+04  0.13300344274E+04  0.50400001928E-02 0.  1.
       -1   -1    0    0    0  501  0.00000000000E+00  0.00000000000E+00 -0.13874978379E+04  0.13874978379E+04  0.50400001928E-02 0. -1.
    10030    2    1    2    0    0  0.00000000000E+00  0.00000000000E+00 -0.57463410496E+02  0.27175322652E+04  0.27169246528E+04 0.  0.
        2    1    3    3  502    0  0.38529702792E+03  0.76801729016E+03 -0.10811625961E+04  0.13810202450E+04  0.25500000920E-02 0. -1.
       -2    1    3    3    0  502 -0.38529702792E+03 -0.76801729016E+03  0.10236991856E+04  0.13365120203E+04  0.25500000920E-02 0.  1.
</event>
<event>
 5   0  0.3167616E-06  0.2824734E+04  0.7818609E-02  0.8295630E-01
       -2   -1    0    0    0  501  0.00000000000E+00  0.00000000000E+00  0.13925500527E+04  0.13925500527E+04  0.25500000920E-02 0. -1.
        2   -1    0    0  501    0  0.00000000000E+00  0.00000000000E+00 -0.14324659270E+04  0.14324659270E+04  0.25500000920E-02 0.  1.
    10030    2    1    2    0    0  0.00000000000E+00  0.00000000000E+00 -0.39915874238E+02  0.28250159797E+04  0.28247339713E+04 0.  0.
        3    1    3    3  502    0  0.22098766915E+03  0.82665610026E+03 -0.11437180306E+04  0.14283860829E+04  0.10100000352E+00 0.  1.
       -3    1    3    3    0  502 -0.22098766915E+03 -0.82665610026E+03  0.11038021564E+04  0.13966298968E+04  0.10100000352E+00 0. -1.
</event>
<event>
 5   0  0.1220265E-06  0.2792070E+04  0.7818609E-02  0.8305734E-01
        1   -1    0    0  501    0  0.00000000000E+00  0.00000000000E+00  0.19062661513E+04  0.19062661513E+04  0.50400001928E-02 0.  1.
       -1   -1    0    0    0  501  0.00000000000E+00  0.00000000000E+00 -0.10223724739E+04  0.10223724739E+04  0.50400001928E-02 0. -1.
    10030    2    1    2    0    0  0.00000000000E+00  0.00000000000E+00  0.88389367739E+03  0.29286386252E+04  0.27920702291E+04 0.  0.
        4    1    3    3  502    0 -0.12274548700E+04  0.66465251735E+03  0.46549491078E+03  0.14714263663E+04  0.12699999809E+01 0.  1.
       -4    1    3    3    0  502  0.12274548700E+04 -0.66465251735E+03  0.41839876661E+03  0.14572122589E+04  0.12699999809E+01 0. -1.
</event>
<event>
 5   0  0.1235252E-06  0.2807167E+04  0.7818609E-02  0.8301047E-01
       -1   -1    0    0    0  501  0.00000000000E+00  0.00000000000E+00  0.10967661299E+04  0.10967661299E+04  0.50400001928E-02 0.  1.
        1   -1    0    0  501    0  0.00000000000E+00  0.00000000000E+00 -0.17962322231E+04  0.17962322231E+04  0.50400001928E-02 0. -1.
    10030    2    1    2    0    0  0.00000000000E+00  0.00000000000E+00 -0.69946609315E+03  0.28929983530E+04  0.28071670159E+04 0.  0.
        1    1    3    3  502    0 -0.12086199215E+04  0.58721588428E+03 -0.76767194093E+03  0.15475480020E+04  0.50400001928E-02 0. -1.
       -1    1    3    3    0  502  0.12086199215E+04 -0.58721588428E+03  0.68205847771E+02  0.13454503511E+04  0.50400001928E-02 0.  1.
</event>
<event>
 5   0  0.3162695E-06  0.2802690E+04  0.7818609E-02  0.8302434E-01
        2   -1    0    0  501    0  0.00000000000E+00  0.00000000000E+00  0.22735319855E+04  0.22735319855E+04  0.25500000920E-02 0.  1.
       -2   -1    0    0    0  501  0.00000000000E+00  0.00000000000E+00 -0.86375208223E+03  0.86375208224E+03  0.25500000920E-02 0. -1.
    10030    2    1    2    0    0  0.00000000000E+00  0.00000000000E+00  0.14097799033E+04  0.31372840678E+04  0.28026901267E+04 0.  0.
        1    1    3    3  502    0 -0.77738521531E+03  0.78807306359E+03 -0.25698592834E+03  0.11364104426E+04  0.50400001928E-02 0. -1.
       -1    1    3    3    0  502  0.77738521531E+03 -0.78807306359E+03  0.16667658317E+04  0.20008736252E+04  0.50400001928E-02 0.  1.
</event>
<event>
 5   0  0.3212679E-06  0.2802324E+04  0.7818609E-02  0.8302547E-01
        2   -1    0    0  501    0  0.00000000000E+00  0.00000000000E+00  0.17033756919E+04  0.17033756919E+04  0.25500000920E-02 0.  1.
       -2   -1    0    0    0  501  0.00000000000E+00  0.00000000000E+00 -0.11525670143E+04  0.11525670143E+04  0.25500000920E-02 0. -1.
    10030    2    1    2    0    0  0.00000000000E+00  0.00000000000E+00  0.55080867759E+03  0.28559427063E+04  0.28023237754E+04 0.  0.
        4    1    3    3  502    0 -0.10888544024E+04 -0.32212599358E+03  0.11120156615E+04  0.15893236013E+04  0.12699999809E+01 0.  1.
       -4    1    3    3    0  502  0.10888544024E+04  0.32212599358E+03 -0.56120698394E+03  0.12666191049E+04  0.12699999809E+01 0. -1.
</event>
<event>
 5   0  0.1065675E-06  0.2795372E+04  0.7818609E-02  0.8304707E-01
       -3   -1    0    0    0  501  0.00000000000E+00  0.00000000000E+00  0.18545945724E+04  0.18545945751E+04  0.10100000352E+00 0. -1.
        3   -1    0    0  501    0  0.00000000000E+00  0.00000000000E+00 -0.10533437494E+04  0.10533437543E+04  0.10100000352E+00 0.  1.
    10030    2    1    2    0    0  0.00000000000E+00  0.00000000000E+00  0.80125082293E+03  0.29079383294E+04  0.27953716115E+04 0.  0.
        2    1    3    3  502    0  0.73866937050E+03  0.83853815751E+03 -0.47267213140E+03  0.12133415118E+04  0.25500000920E-02 0.  1.
       -2    1    3    3    0  502 -0.73866937050E+03 -0.83853815751E+03  0.12739229543E+04  0.16945968176E+04  0.25500000920E-02 0. -1.
</event>
<event>
 5   0  0.3162695E-06  0.2803371E+04  0.7818609E-02  0.8302223E-01
       -2   -1    0    0    0  501  0.00000000000E+00  0.00000000000E+00  0.17511611525E+04  0.17511611525E+04  0.25500000920E-02 0. -1.
        2   -1    0    0  501    0  0.00000000000E+00  0.00000000000E+00 -0.11219539508E+04  0.11219539508E+04  0.25500000920E-02 0.  1.
    10030    2    1    2    0    0  0.00000000000E+00  0.00000000000E+00  0.62920720176E+03  0.28731151033E+04  0.28033709519E+04 0.  0.
        1    1    3    3  502    0  0.72100644144E+03 -0.84977320578E+03 -0.55669842682E+03  0.12457439257E+04  0.50400001928E-02 0.  1.
       -1    1    3    3    0  502 -0.72100644144E+03  0.84977320578E+03  0.11859056286E+04  0.16273711776E+04  0.50400001928E-02 0. -1.
</event>
<event>
 5   0  0.3167616E-06  0.2802044E+04  0.7818609E-02  0.8302634E-01
       -2   -1    0    0    0  501  0.00000000000E+00  0.00000000000E+00  0.87429825997E+03  0.87429825998E+03  0.25500000920E-02 0.  1.
        2   -1    0    0  501    0  0.00000000000E+00  0.00000000000E+00 -0.22450727048E+04  0.22450727048E+04  0.25500000920E-02 0. -1.
    10030    2    1    2    0    0  0.00000000000E+00  0.00000000000E+00 -0.13707744448E+04  0.31193709648E+04  0.28020443675E+04 0.  0.
        3    1    3    3  502    0  0.26661587961E+02  0.51793546465E+03  0.76350233310E+03  0.92298635346E+03  0.10100000352E+00 0.  1.
       -3    1    3    3    0  502 -0.26661587961E+02 -0.51793546465E+03 -0.21342767779E+04  0.21963846113E+04  0.10100000352E+00 0. -1.
</event>
<event>
 5   0  0.1235252E-06  0.2797022E+04  0.7818609E-02  0.8304193E-01
        1   -1    0    0  501    0  0.00000000000E+00  0.00000000000E+00  0.11072327466E+04  0.11072327466E+04  0.50400001928E-02 0.  1.
       -1   -1    0    0    0  501  0.00000000000E+00  0.00000000000E+00 -0.17664157812E+04  0.17664157812E+04  0.50400001928E-02 0. -1.
    10030    2    1    2    0    0  0.00000000000E+00  0.00000000000E+00 -0.65918303465E+03  0.28736485278E+04  0.27970222717E+04 0.  0.
        1    1    3    3  502    0 -0.56116980476E+03 -0.12665750890E+04 -0.13274564379E+03  0.13916700083E+04  0.50400001928E-02 0.  1.
       -1    1    3    3    0  502  0.56116980476E+03  0.12665750890E+04 -0.52643739086E+03  0.14819785196E+04  0.50400001928E-02 0. -1.
</event>
<event>
 5   0  0.1235252E-06  0.2781556E+04  0.7818609E-02  0.8309017E-01
       -1   -1    0    0    0  501  0.00000000000E+00  0.00000000000E+00  0.11696412654E+04  0.11696412654E+04  0.50400001928E-02 0. -1.
        1   -1    0    0  501    0  0.00000000000E+00  0.00000000000E+00 -0.16537236976E+04  0.16537236976E+04  0.50400001928E-02 0.  1.
    10030    2    1    2    0    0  0.00000000000E+00  0.00000000000E+00 -0.48408243217E+03  0.28233649630E+04  0.27815560238E+04 0.  0.
        1    1    3    3  502    0  0.45011797193E+03  0.10673570072E+04  0.53920701476E+03  0.12777329041E+04  0.50400001928E-02 0. -1.
       -1    1    3    3    0  502 -0.45011797193E+03 -0.10673570072E+04 -0.10232894469E+04  0.15456320589E+04  0.50400001928E-02 0.  1.
</event>
<event>
 5   0  0.1263513E-06  0.2804695E+04  0.7818609E-02  0.8301812E-01
        1   -1    0    0  501    0  0.00000000000E+00  0.00000000000E+00  0.17687447771E+04  0.17687447771E+04  0.50400001928E-02 0.  1.
       -1   -1    0    0    0  501  0.00000000000E+00  0.00000000000E+00 -0.11118500065E+04  0.11118500065E+04  0.50400001928E-02 0. -1.
    10030    2    1    2    0    0  0.00000000000E+00  0.00000000000E+00  0.65689477061E+03  0.28805947837E+04  0.28046952719E+04 0.  0.
        3    1    3    3  502    0  0.10857500265E+04  0.52889688553E+03  0.10604720482E+04  0.16072292962E+04  0.10100000352E+00 0.  1.
       -3    1    3    3    0  502 -0.10857500265E+04 -0.52889688553E+03 -0.40357727758E+03  0.12733654875E+04  0.10100000352E+00 0. -1.
</event>
<event>
 5   0  0.1243055E-06  0.2800194E+04  0.7818609E-02  0.8303208E-01
       -1   -1    0    0    0  501  0.00000000000E+00  0.00000000000E+00  0.11188338227E+04  0.11188338228E+04  0.50400001928E-02 0.  1.
        1   -1    0    0  501    0  0.00000000000E+00  0.00000000000E+00 -0.17520673519E+04  0.17520673519E+04  0.50400001928E-02 0. -1.
    10030    2    1    2    0    0  0.00000000000E+00  0.00000000000E+00 -0.63323352917E+03  0.28709011747E+04  0.28001944312E+04 0.  0.
        5    1    3    3  502    0 -0.69113889452E+03 -0.61247006444E+03  0.76231406727E+03  0.11974712433E+04  0.46999998093E+01 0.  1.
       -5    1    3    3    0  502  0.69113889452E+03  0.61247006444E+03 -0.13955475964E+04  0.16734299314E+04  0.46999998093E+01 0. -1.
</event>
<event>
 5   0  0.1243055E-06  0.2805079E+04  0.7818609E-02  0.8301693E-01
        1   -1    0    0  501    0  0.00000000000E+00  0.00000000000E+00  0.99625078196E+03  0.99625078198E+03  0.50400001928E-02 0. -1.
       -1   -1    0    0    0  501  0.00000000000E+00  0.00000000000E+00 -0.19745198702E+04  0.19745198702E+04  0.50400001928E-02 0.  1.
    10030    2    1    2    0    0  0.00000000000E+00  0.00000000000E+00 -0.97826908824E+03  0.29707706522E+04  0.28050789399E+04 0.  0.
        5    1    3    3  502    0 -0.66665304995E+03 -0.10070933464E+04  0.26602774651E+03  0.12367118295E+04  0.46999998093E+01 0. -1.
       -5    1    3    3    0  502  0.66665304995E+03  0.10070933464E+04 -0.12442968348E+04  0.17340588226E+04  0.46999998093E+01 0.  1.
</event>
<event>
 5   0  0.3212679E-06  0.2795450E+04  0.7818609E-02  0.8304682E-01
        2   -1    0    0  501    0  0.00000000000E+00  0.00000000000E+00  0.15744235281E+04  0.15744235281E+04  0.25500000920E-02 0. -1.
       -2   -1    0    0    0  501  0.00000000000E+00  0.00000000000E+00 -0.12408577408E+04  0.12408577408E+04  0.25500000920E-02 0.  1.
    10030    2    1    2    0    0  0.00000000000E+00  0.00000000000E+00  0.33356578737E+03  0.28152812689E+04  0.27954503195E+04 0.  0.
        4    1    3    3  502    0  0.69725546953E+02  0.83410952014E+03  0.12941137185E+04  0.15412113005E+04  0.12699999809E+01 0. -1.
       -4    1    3    3    0  502 -0.69725546953E+02 -0.83410952014E+03 -0.96054793115E+03  0.12740699684E+04  0.12699999809E+01 0.  1.
</event>
<event>
 5   0  0.3162695E-06  0.2871545E+04  0.7818609E-02  0.8281394E-01
       -2   -1    0    0    0  501  0.00000000000E+00  0.00000000000E+00  0.10091483938E+04  0.10091483938E+04  0.25500000920E-02 0. -1.
        2   -1    0    0  501    0  0.00000000000E+00  0.00000000000E+00 -0.20427546575E+04  0.20427546575E+04  0.25500000920E-02 0.  1.
    10030    2    1    2    0    0  0.00000000000E+00  0.00000000000E+00 -0.10336062637E+04  0.30519030513E+04  0.28715449371E+04 0.  0.
        1    1    3    3  502    0  0.10952701465E+04  0.54568603970E+02 -0.15017511484E+04  0.18595297626E+04  0.50400001928E-02 0.  1.
       -1    1    3    3    0  502 -0.10952701465E+04 -0.54568603970E+02  0.46814488467E+03  0.11923732886E+04  0.50400001928E-02 0. -1.
</event>
<event>
 5   0  0.1246044E-06  0.2788453E+04  0.7818609E-02  0.8306862E-01
        1   -1    0    0  501    0  0.00000000000E+00  0.00000000000E+00  0.15399490518E+04  0.15399490518E+04  0.50400001928E-02 0.  1.
       -1   -1    0    0    0  501  0.00000000000E+00  0.00000000000E+00 -0.12622936827E+04  0.12622936827E+04  0.50400001928E-02 0. -1.
    10030    2    1    2    0    0  0.00000000000E+00  0.00000000000E+00  0.27765536908E+03  0.28022427345E+04  0.27884533059E+04 0.  0.
        2    1    3    3  502    0 -0.50062863236E+03 -0.42041016816E+03  0.13763776874E+04  0.15237418664E+04  0.25500000920E-02 0.  1.
       -2    1    3    3    0  502  0.50062863236E+03  0.42041016816E+03 -0.10987223183E+04  0.12785008681E+04  0.25500000920E-02 0. -1.
</event>
<event>
 5   0  0.3226364E-06  0.2785443E+04  0.7818609E-02  0.8307802E-01
       -2   -1    0    0    0  501  0.00000000000E+00  0.00000000000E+00  0.14771946793E+04  0.14771946793E+04  0.25500000920E-02 0.  1.
        2   -1    0    0  501    0  0.00000000000E+00  0.00000000000E+00 -0.13130790195E+04  0.13130790195E+04  0.25500000920E-02 0. -1.
    10030    2    1    2    0    0  0.00000000000E+00  0.00000000000E+00  0.16411565976E+03  0.27902736988E+04  0.27854431182E+04 0.  0.
        5    1    3    3  502    0  0.80883869419E+01  0.12109232193E+04  0.77118311204E+03  0.14356691636E+04  0.46999998093E+01 0.  1.
       -5    1    3    3    0  502 -0.80883869419E+01 -0.12109232193E+04 -0.60706745228E+03  0.13546045352E+04  0.46999998093E+01 0. -1.
</event>
<event>
 5   0  0.1246044E-06  0.2811389E+04  0.7818609E-02  0.8299741E-01
        1   -1    0    0  501    0  0.00000000000E+00  0.00000000000E+00  0.24644729795E+04  0.24644729795E+04  0.50400001928E-02 0.  1.
       -1   -1    0    0    0  501  0.00000000000E+00  0.00000000000E+00 -0.80178462812E+03  0.80178462814E+03  0.50400001928E-02 0. -1.
    10030    2    1    2    0    0  0.00000000000E+00  0.00000000000E+00  0.16626883514E+04  0.32662576076E+04  0.28113886614E+04 0.  0.
        2    1    3    3  502    0  0.16982031353E+03  0.83018719379E+03  0.21343826418E+04  0.22964405015E+04  0.25500000920E-02 0.  1.
       -2    1    3    3    0  502 -0.16982031353E+03 -0.83018719379E+03 -0.47169429042E+03  0.96981710608E+03  0.25500000920E-02 0. -1.
</event>
<event>
 5   0  0.3345919E-06  0.2800373E+04  0.7818609E-02  0.8303152E-01
       -2   -1    0    0    0  501  0.00000000000E+00  0.00000000000E+00  0.14009367688E+04  0.14009367688E+04  0.25500000920E-02 0.  1.
        2   -1    0    0  501    0  0.00000000000E+00  0.00000000000E+00 -0.13994370187E+04  0.13994370187E+04  0.25500000920E-02 0. -1.
    10030    2    1    2    0    0  0.00000000000E+00  0.00000000000E+00  0.14997500356E+01  0.28003737875E+04  0.28003733859E+04 0.  0.
        2    1    3    3  502    0  0.81661744645E+02  0.10645742538E+04 -0.90508456244E+03  0.13997017709E+04  0.25500000920E-02 0. -1.
       -2    1    3    3    0  502 -0.81661744645E+02 -0.10645742538E+04  0.90658431248E+03  0.14006720166E+04  0.25500000920E-02 0.  1.
</event>
<event>
 5   0  0.3167616E-06  0.2797971E+04  0.7818609E-02  0.8303899E-01
        2   -1    0    0  501    0  0.00000000000E+00  0.00000000000E+00  0.18511201538E+04  0.18511201538E+04  0.25500000920E-02 0. -1.
       -2   -1    0    0    0  501  0.00000000000E+00  0.00000000000E+00 -0.10572841770E+04  0.10572841770E+04  0.25500000920E-02 0.  1.
    10030    2    1    2    0    0  0.00000000000E+00  0.00000000000E+00  0.79383597685E+03  0.29084043308E+04  0.27979707277E+04 0.  0.
        3    1    3    3  502    0  0.61623244402E+03  0.78491626142E+03  0.14160877400E+04  0.17323799988E+04  0.10100000352E+00 0.  1.
       -3    1    3    3    0  502 -0.61623244402E+03 -0.78491626142E+03 -0.62225176318E+03  0.11760243320E+04  0.10100000352E+00 0. -1.
</event>
<event>
 5   0  0.3162695E-06  0.2795525E+04  0.7818609E-02  0.8304659E-01
        2   -1    0    0  501    0  0.00000000000E+00  0.00000000000E+00  0.31022534559E+04  0.31022534559E+04  0.25500000920E-02 0.  1.
       -2   -1    0    0    0  501  0.00000000000E+00  0.00000000000E+00 -0.62978073442E+03  0.62978073443E+03  0.25500000920E-02 0. -1.
    10030    2    1    2    0    0  0.00000000000E+00  0.00000000000E+00  0.24724727215E+04  0.37320341903E+04  0.27955246090E+04 0.  0.
        1    1    3    3  502    0  0.26458110812E+03 -0.84781489482E+03 -0.20466824268E+03  0.91141776823E+03  0.50400001928E-02 0. -1.
       -1    1    3    3    0  502 -0.26458110812E+03  0.84781489482E+03  0.26771409642E+04  0.28206164221E+04  0.50400001928E-02 0.  1.
</event>
<event>
 5   0  0.3212679E-06  0.2803377E+04  0.7818609E-02  0.8302221E-01
        2   -1    0    0  501    0  0.00000000000E+00  0.00000000000E+00  0.12687494810E+04  0.12687494810E+04  0.25500000920E-02 0. -1.
       -2   -1    0    0    0  501  0.00000000000E+00  0.00000000000E+00 -0.15485565777E+04  0.15485565777E+04  0.25500000920E-02 0.  1.
    10030    2    1    2    0    0  0.00000000000E+00  0.00000000000E+00 -0.27980709668E+03  0.28173060587E+04  0.28033767883E+04 0.  0.
        4    1    3    3  502    0  0.35262314754E+03  0.42462743421E+03 -0.14347453116E+04  0.15372531555E+04  0.12699999809E+01 0.  1.
       -4    1    3    3    0  502 -0.35262314754E+03 -0.42462743421E+03  0.11549382149E+04  0.12800529033E+04  0.12699999809E+01 0. -1.
</event>
<event>
 5   0  0.1243055E-06  0.2821295E+04  0.7818609E-02  0.8296687E-01
       -1   -1    0    0    0  501  0.00000000000E+00  0.00000000000E+00  0.14396231847E+04  0.14396231848E+04  0.50400001928E-02 0.  1.
        1   -1    0    0  501    0  0.00000000000E+00  0.00000000000E+00 -0.13822549349E+04  0.13822549349E+04  0.50400001928E-02 0. -1.
    10030    2    1    2    0    0  0.00000000000E+00  0.00000000000E+00  0.57368249847E+02  0.28218781197E+04  0.28212949165E+04 0.  0.
        5    1    3    3  502    0 -0.56546074570E+03 -0.10883990476E+04  0.72563934553E+03  0.14251080280E+04  0.46999998093E+01 0.  1.
       -5    1    3    3    0  502  0.56546074570E+03  0.10883990476E+04 -0.66827109568E+03  0.13967700917E+04  0.46999998093E+01 0. -1.
</event>
<event>
 5   0  0.1220265E-06  0.2778793E+04  0.7818609E-02  0.8309883E-01
        1   -1    0    0  501    0  0.00000000000E+00  0.00000000000E+00  0.27984056800E+04  0.27984056800E+04  0.50400001928E-02 0.  1.
       -1   -1    0    0    0  501  0.00000000000E+00  0.00000000000E+00 -0.68982961216E+03  0.68982961218E+03  0.50400001928E-02 0. -1.
    10030    2    1    2    0    0  0.00000000000E+00  0.00000000000E+00  0.21085760678E+04  0.34882352922E+04  0.27787933388E+04 0.  0.
        4    1    3    3  502    0  0.11435464292E+04 -0.41745824464E+03  0.18949227970E+04  0.22522663788E+04  0.12699999809E+01 0.  1.
       -4    1    3    3    0  502 -0.11435464292E+04  0.41745824464E+03  0.21365327078E+03  0.12359689133E+04  0.12699999809E+01 0. -1.
</event>
<event>
 5   0  0.1065675E-06  0.2792621E+04  0.7818609E-02  0.8305563E-01
       -3   -1    0    0    0  501  0.00000000000E+00  0.00000000000E+00  0.89396454052E+03  0.89396454623E+03  0.10100000352E+00 0. -1.
        3   -1    0    0  501    0  0.00000000000E+00  0.00000000000E+00 -0.21809406172E+04  0.21809406195E+04  0.10100000352E+00 0.  1.
    10030    2    1    2    0    0  0.00000000000E+00  0.00000000000E+00 -0.12869760766E+04  0.30749051657E+04  0.27926214130E+04 0.  0.
        1    1    3    3  502    0  0.70341541720E+03 -0.97167167593E+03  0.14341551995E+03  0.12081006193E+04  0.50400001928E-02 0. -1.
       -1    1    3    3    0  502 -0.70341541720E+03  0.97167167593E+03 -0.14303915966E+04  0.18668045464E+04  0.50400001928E-02 0.  1.
</event>
<event>
 5   0  0.3167616E-06  0.2801347E+04  0.7818609E-02  0.8302850E-01
       -2   -1    0    0    0  501  0.00000000000E+00  0.00000000000E+00  0.10025905332E+04  0.10025905332E+04  0.25500000920E-02 0.  1.
        2   -1    0    0  501    0  0.00000000000E+00  0.00000000000E+00 -0.19568170757E+04  0.19568170757E+04  0.25500000920E-02 0. -1.
    10030    2    1    2    0    0  0.00000000000E+00  0.00000000000E+00 -0.95422654246E+03  0.29594076089E+04  0.28013470155E+04 0.  0.
        3    1    3    3  502    0  0.11411820631E+04 -0.78806628123E+03 -0.26971694562E+03  0.14128312729E+04  0.10100000352E+00 0.  1.
       -3    1    3    3    0  502 -0.11411820631E+04  0.78806628123E+03 -0.68450959684E+03  0.15465763360E+04  0.10100000352E+00 0. -1.
</event>
<event>
 5   0  0.3345919E-06  0.2817453E+04  0.7818609E-02  0.8297870E-01
       -2   -1    0    0    0  501  0.00000000000E+00  0.00000000000E+00  0.13812102550E+04  0.13812102550E+04  0.25500000920E-02 0. -1.
        2   -1    0    0  501    0  0.00000000000E+00  0.00000000000E+00 -0.14367913609E+04  0.14367913610E+04  0.25500000920E-02 0.  1.
    10030    2    1    2    0    0  0.00000000000E+00  0.00000000000E+00 -0.55581105988E+02  0.28180016159E+04  0.28174534331E+04 0.  0.
        2    1    3    3  502    0 -0.59186358883E+03  0.48620143831E+02  0.12498946989E+04  0.13838002690E+04  0.25500000920E-02 0. -1.
       -2    1    3    3    0  502  0.59186358883E+03 -0.48620143831E+02 -0.13054758049E+04  0.14342013469E+04  0.25500000920E-02 0.  1.
</event>
<event>
 5   0  0.3226364E-06  0.2759191E+04  0.7818609E-02  0.8316051E-01
        2   -1    0    0  501    0  0.00000000000E+00  0.00000000000E+00  0.20586241485E+04  0.20586241485E+04  0.25500000920E-02 0.  1.
       -2   -1    0    0    0  501  0.00000000000E+00  0.00000000000E+00 -0.92454170566E+03  0.92454170567E+03  0.25500000920E-02 0. -1.
    10030    2    1    2    0    0  0.00000000000E+00  0.00000000000E+00  0.11340824428E+04  0.29831658541E+04  0.27591911000E+04 0.  0.
        5    1    3    3  502    0 -0.73157971197E+03  0.10830638414E+04  0.89576304650E+02  0.13100695263E+04  0.46999998093E+01 0. -1.
       -5    1    3    3    0  502  0.73157971197E+03 -0.10830638414E+04  0.10445061382E+04  0.16730963278E+04  0.46999998093E+01 0.  1.
</event>
<event>
 5   0  0.1220265E-06  0.2769092E+04  0.7818609E-02  0.8312929E-01
       -1   -1    0    0    0  501  0.00000000000E+00  0.00000000000E+00  0.11051978899E+04  0.11051978899E+04  0.50400001928E-02 0. -1.
        1   -1    0    0  501    0  0.00000000000E+00  0.00000000000E+00 -0.17345014054E+04  0.17345014054E+04  0.50400001928E-02 0.  1.
    10030    2    1    2    0    0  0.00000000000E+00  0.00000000000E+00 -0.62930351550E+03  0.28396992953E+04  0.27690917596E+04 0.  0.
        4    1    3    3  502    0 -0.13842863446E+04  0.48816335130E+01 -0.28765238115E+03  0.14138663372E+04  0.12699999809E+01 0.  1.
       -4    1    3    3    0  502  0.13842863446E+04 -0.48816335130E+01 -0.34165113435E+03  0.14258329582E+04  0.12699999809E+01 0. -1.
</event>
<event>
 5   0  0.1235252E-06  0.2826074E+04  0.7818609E-02  0.8295219E-01
        1   -1    0    0  501    0  0.00000000000E+00  0.00000000000E+00  0.16901919293E+04  0.16901919293E+04  0.50400001928E-02 0. -1.
       -1   -1    0    0    0  501  0.00000000000E+00  0.00000000000E+00 -0.11813293818E+04  0.11813293818E+04  0.50400001928E-02 0.  1.
    10030    2    1    2    0    0  0.00000000000E+00  0.00000000000E+00  0.50886254754E+03  0.28715213111E+04  0.28260738752E+04 0.  0.
        1    1    3    3  502    0 -0.74984215530E+03 -0.11511208770E+04  0.59040081532E+03  0.14952978480E+04  0.50400001928E-02 0. -1.
       -1    1    3    3    0  502  0.74984215530E+03  0.11511208770E+04 -0.81538267780E+02  0.13762234632E+04  0.50400001928E-02 0.  1.
</event>
<event>
 5   0  0.3345919E-06  0.2798351E+04  0.7818609E-02  0.8303781E-01
       -2   -1    0    0    0  501  0.00000000000E+00  0.00000000000E+00  0.12235456492E+04  0.12235456492E+04  0.25500000920E-02 0. -1.
        2   -1    0    0  501    0  0.00000000000E+00  0.00000000000E+00 -0.16000155135E+04  0.16000155135E+04  0.25500000920E-02 0.  1.
    10030    2    1    2    0    0  0.00000000000E+00  0.00000000000E+00 -0.37646986430E+03  0.28235611628E+04  0.27983509575E+04 0.  0.
        2    1    3    3  502    0 -0.12237513068E+04 -0.15387455891E+03 -0.85482826224E+03  0.15006585217E+04  0.25500000920E-02 0.  1.
       -2    1    3    3    0  502  0.12237513068E+04  0.15387455891E+03  0.47835839794E+03  0.13229026411E+04  0.25500000920E-02 0. -1.
</event>
<event>
 5   0  0.1220265E-06  0.2794398E+04  0.7818609E-02  0.8305010E-01
       -1   -1    0    0    0  501  0.00000000000E+00  0.00000000000E+00  0.19599246260E+04  0.19599246260E+04  0.50400001928E-02 0. -1.
        1   -1    0    0  501    0  0.00000000000E+00  0.00000000000E+00 -0.99604080232E+03  0.99604080234E+03  0.50400001928E-02 0.  1.
    10030    2    1    2    0    0  0.00000000000E+00  0.00000000000E+00  0.96388382368E+03  0.29559654283E+04  0.27943978936E+04 0.  0.
        4    1    3    3  502    0 -0.11572909346E+04  0.63951165297E+03  0.95956280572E+03  0.16337257581E+04  0.12699999809E+01 0. -1.
       -4    1    3    3    0  502  0.11572909346E+04 -0.63951165297E+03  0.43210179566E+01  0.13222396703E+04  0.12699999809E+01 0.  1.
</event>
<event>
 5   0  0.3212679E-06  0.2816019E+04  0.7818609E-02  0.8298312E-01
       -2   -1    0    0    0  501  0.00000000000E+00  0.00000000000E+00  0.22488487350E+04  0.22488487350E+04  0.25500000920E-02 0.  1.
        2   -1    0    0  501    0  0.00000000000E+00  0.00000000000E+00 -0.88155802744E+03  0.88155802745E+03  0.25500000920E-02 0. -1.
    10030    2    1    2    0    0  0.00000000000E+00  0.00000000000E+00  0.13672907075E+04  0.31304067624E+04  0.28160189309E+04 0.  0.
        4    1    3    3  502    0 -0.47467206910E+03  0.13118292921E+04  0.89538155318E+03  0.16576849531E+04  0.12699999809E+01 0.  1.
       -4    1    3    3    0  502  0.47467206910E+03 -0.13118292921E+04  0.47190915434E+03  0.14727218094E+04  0.12699999809E+01 0. -1.
</event>
<event>
 5   0  0.1243055E-06  0.2806548E+04  0.7818609E-02  0.8301238E-01
        1   -1    0    0  501    0  0.00000000000E+00  0.00000000000E+00  0.10980881305E+04  0.10980881305E+04  0.50400001928E-02 0. -1.
       -1   -1    0    0    0  501  0.00000000000E+00  0.00000000000E+00 -0.17932780532E+04  0.17932780532E+04  0.50400001928E-02 0.  1.
    10030    2    1    2    0    0  0.00000000000E+00  0.00000000000E+00 -0.69518992275E+03  0.28913661837E+04  0.28065475909E+04 0.  0.
        5    1    3    3  502    0 -0.25177350197E+03  0.58644448478E+03 -0.16351034485E+04  0.17552471072E+04  0.46999998093E+01 0.  1.
       -5    1    3    3    0  502  0.25177350197E+03 -0.58644448478E+03  0.93991352580E+03  0.11361190765E+04  0.46999998093E+01 0. -1.
</event>
<event>
 5   0  0.3226364E-06  0.2805944E+04  0.7818609E-02  0.8301425E-01
       -2   -1    0    0    0  501  0.00000000000E+00  0.00000000000E+00  0.10042973889E+04  0.10042973889E+04  0.25500000920E-02 0.  1.
        2   -1    0    0  501    0  0.00000000000E+00  0.00000000000E+00 -0.19599080018E+04  0.19599080018E+04  0.25500000920E-02 0. -1.
    10030    2    1    2    0    0  0.00000000000E+00  0.00000000000E+00 -0.95561061295E+03  0.29642053907E+04  0.28059440399E+04 0.  0.
        5    1    3    3  502    0 -0.73346268506E+03  0.11280341755E+04 -0.89755709335E+03  0.16174237037E+04  0.46999998093E+01 0.  1.
       -5    1    3    3    0  502  0.73346268506E+03 -0.11280341755E+04 -0.58053519594E+02  0.13467816870E+04  0.46999998093E+01 0. -1.
</event>
<event>
 5   0  0.3162695E-06  0.2771338E+04  0.7818609E-02  0.8312222E-01
        2   -1    0    0  501    0  0.00000000000E+00  0.00000000000E+00  0.10265196088E+04  0.10265196088E+04  0.25500000920E-02 0. -1.
       -2   -1    0    0    0  501  0.00000000000E+00  0.00000000000E+00 -0.18704742859E+04  0.18704742859E+04  0.25500000920E-02 0.  1.
    10030    2    1    2    0    0  0.00000000000E+00  0.00000000000E+00 -0.84395467702E+03  0.28969938947E+04  0.27713379673E+04 0.  0.
        1    1    3    3  502    0 -0.30200134754E+03 -0.13018487410E+04 -0.80472582718E+03  0.15599995562E+04  0.50400001928E-02 0.  1.
       -1    1    3    3    0  502  0.30200134754E+03  0.13018487410E+04 -0.39228849844E+02  0.13369943385E+04  0.50400001928E-02 0. -1.
</event>
<event>
 5   0  0.1263513E-06  0.2799506E+04  0.7818609E-02  0.8303422E-01
        1   -1    0    0  501    0  0.00000000000E+00  0.00000000000E+00  0.82532771563E+03  0.82532771565E+03  0.50400001928E-02 0.  1.
       -1   -1    0    0    0  501  0.00000000000E+00  0.00000000000E+00 -0.23739760228E+04  0.23739760228E+04  0.50400001928E-02 0. -1.
    10030    2    1    2    0    0  0.00000000000E+00  0.00000000000E+00 -0.15486483072E+04  0.31993037385E+04  0.27995058192E+04 0.  0.
        3    1    3    3  502    0 -0.53654170629E+03 -0.10199554121E+04 -0.16822090914E+04  0.20391207622E+04  0.10100000352E+00 0. -1.
       -3    1    3    3    0  502  0.53654170629E+03  0.10199554121E+04  0.13356078416E+03  0.11601829763E+04  0.10100000352E+00 0.  1.
</event>
<event>
 5   0  0.1220265E-06  0.2829301E+04  0.7818609E-02  0.8294229E-01
       -1   -1    0    0    0  501  0.00000000000E+00  0.00000000000E+00  0.11714952408E+04  0.11714952408E+04  0.50400001928E-02 0.  1.
        1   -1    0    0  501    0  0.00000000000E+00  0.00000000000E+00 -0.17082752645E+04  0.17082752645E+04  0.50400001928E-02 0. -1.
    10030    2    1    2    0    0  0.00000000000E+00  0.00000000000E+00 -0.53678002364E+03  0.28797705053E+04  0.28293012157E+04 0.  0.
        4    1    3    3  502    0  0.12790121184E+04  0.26325011738E+03 -0.82221188640E+03  0.15431158810E+04  0.12699999809E+01 0. -1.
       -4    1    3    3    0  502 -0.12790121184E+04 -0.26325011738E+03  0.28543186276E+03  0.13366546242E+04  0.12699999809E+01 0.  1.
</event>
<event>
 5   0  0.1220265E-06  0.2833326E+04  0.7818609E-02  0.8292996E-01
        1   -1    0    0  501    0  0.00000000000E+00  0.00000000000E+00  0.16256741393E+04  0.16256741394E+04  0.50400001928E-02 0. -1.
       -1   -1    0    0    0  501  0.00000000000E+00  0.00000000000E+00 -0.12345238431E+04  0.12345238431E+04  0.50400001928E-02 0.  1.
    10030    2    1    2    0    0  0.00000000000E+00  0.00000000000E+00  0.39115029625E+03  0.28601979825E+04  0.28333255981E+04 0.  0.
        4    1    3    3  502    0 -0.83958755500E+03  0.91972337386E+03  0.87735726878E+03  0.15233370398E+04  0.12699999809E+01 0.  1.
       -4    1    3    3    0  502  0.83958755500E+03 -0.91972337386E+03 -0.48620697253E+03  0.13368609426E+04  0.12699999809E+01 0. -1.
</event>
<event>
 5   0  0.1220265E-06  0.2793710E+04  0.7818609E-02  0.8305224E-01
       -1   -1    0    0    0  501  0.00000000000E+00  0.00000000000E+00  0.33129538915E+04  0.33129538915E+04  0.50400001928E-02 0.  1.
        1   -1    0    0  501    0  0.00000000000E+00  0.00000000000E+00 -0.58896217961E+03  0.58896217964E+03  0.50400001928E-02 0. -1.
    10030    2    1    2    0    0  0.00000000000E+00  0.00000000000E+00  0.27239917119E+04  0.39019160712E+04  0.27937104681E+04 0.  0.
        4    1    3    3  502    0 -0.11657790817E+04  0.76079308962E+03  0.12005846251E+04  0.18382742036E+04  0.12699999809E+01 0.  1.
       -4    1    3    3    0  502  0.11657790817E+04 -0.76079308962E+03  0.15234070868E+04  0.20636418676E+04  0.12699999809E+01 0. -1.
</event>
<event>
 5   0  0.1263513E-06  0.2800621E+04  0.7818609E-02  0.8303076E-01
       -1   -1    0    0    0  501  0.00000000000E+00  0.00000000000E+00  0.18362714332E+04  0.18362714332E+04  0.50400001928E-02 0. -1.
        1   -1    0    0  501    0  0.00000000000E+00  0.00000000000E+00 -0.10678539239E+04  0.10678539239E+04  0.50400001928E-02 0.  1.
    10030    2    1    2    0    0  0.00000000000E+00  0.00000000000E+00  0.76841750928E+03  0.29041253571E+04  0.28006211134E+04 0.  0.
        3    1    3    3  502    0 -0.58715701573E+03 -0.60391107251E+03 -0.77579771603E+03  0.11451305825E+04  0.10100000352E+00 0.  1.
       -3    1    3    3    0  502  0.58715701573E+03  0.60391107251E+03  0.15442152253E+04  0.17589947746E+04  0.10100000352E+00 0. -1.
</event>
<event>
 5   0  0.3226364E-06  0.2804695E+04  0.7818609E-02  0.8301812E-01
        2   -1    0    0  501    0  0.00000000000E+00  0.00000000000E+00  0.12454130321E+04  0.12454130321E+04  0.25500000920E-02 0.  1.
       -2   -1    0    0    0  501  0.00000000000E+00  0.00000000000E+00 -0.15790572689E+04  0.15790572689E+04  0.25500000920E-02 0. -1.
    10030    2    1    2    0    0  0.00000000000E+00  0.00000000000E+00 -0.33364423677E+03  0.28244703011E+04  0.28046949932E+04 0.  0.
        5    1    3    3  502    0 -0.16932582387E+03  0.10328762457E+04  0.77305997166E+03  0.13012103533E+04  0.46999998093E+01 0.  1.
       -5    1    3    3    0  502  0.16932582387E+03 -0.10328762457E+04 -0.11067042084E+04  0.15232599478E+04  0.46999998093E+01 0. -1.
</event>
<event>
 5   0  0.3345919E-06  0.2798263E+04  0.7818609E-02  0.8303808E-01
       -2   -1    0    0    0  501  0.00000000000E+00  0.00000000000E+00  0.99259465366E+03  0.99259465366E+03  0.25500000920E-02 0.  1.
        2   -1    0    0  501    0  0.00000000000E+00  0.00000000000E+00 -0.19721742059E+04  0.19721742059E+04  0.25500000920E-02 0. -1.
    10030    2    1    2    0    0  0.00000000000E+00  0.00000000000E+00 -0.97957955224E+03  0.29647688596E+04  0.27982634421E+04 0.  0.
        2    1    3    3  502    0 -0.68666382002E+03 -0.65286741718E+03 -0.15805257333E+04  0.18427709190E+04  0.25500000920E-02 0. -1.
       -2    1    3    3    0  502  0.68666382002E+03  0.65286741718E+03  0.60094618107E+03  0.11219979406E+04  0.25500000920E-02 0.  1.
</event>
<event>
 5   0  0.1246044E-06  0.2798305E+04  0.7818609E-02  0.8303795E-01
        1   -1    0    0  501    0  0.00000000000E+00  0.00000000000E+00  0.31713878649E+04  0.31713878649E+04  0.50400001928E-02 0.  1.
       -1   -1    0    0    0  501  0.00000000000E+00  0.00000000000E+00 -0.61727811641E+03  0.61727811643E+03  0.50400001928E-02 0. -1.
    10030    2    1    2    0    0  0.00000000000E+00  0.00000000000E+00  0.25541097485E+04  0.37886659814E+04  0.27983054356E+04 0.  0.
        2    1    3    3  502    0  0.46802385045E+03  0.31296332771E+02  0.30617598073E+04  0.30974826719E+04  0.25500000920E-02 0.  1.
       -2    1    3    3    0  502 -0.46802385045E+03 -0.31296332771E+02 -0.50765005881E+03  0.69118330944E+03  0.25500000920E-02 0. -1.
</event>
<event>
 5   0  0.1235252E-06  0.2804016E+04  0.7818609E-02  0.8302023E-01
        1   -1    0    0  501    0  0.00000000000E+00  0.00000000000E+00  0.12418195091E+04  0.12418195091E+04  0.50400001928E-02 0. -1.
       -1   -1    0    0    0  501  0.00000000000E+00  0.00000000000E+00 -0.15828604078E+04  0.15828604078E+04  0.50400001928E-02 0.  1.
    10030    2    1    2    0    0  0.00000000000E+00  0.00000000000E+00 -0.34104089872E+03  0.28246799169E+04  0.28040163585E+04 0.  0.
        1    1    3    3  502    0 -0.13589613857E+04  0.26781220475E+03 -0.38920894894E+03  0.14387435598E+04  0.50400001928E-02 0.  1.
       -1    1    3    3    0  502  0.13589613857E+04 -0.26781220475E+03  0.48168050218E+02  0.13859363571E+04  0.50400001928E-02 0. -1.
</event>
<event>
 5   0  0.1263513E-06  0.2831884E+04  0.7818609E-02  0.8293437E-01
       -1   -1    0    0    0  501  0.00000000000E+00  0.00000000000E+00  0.87007667461E+03  0.87007667462E+03  0.50400001928E-02 0. -1.
        1   -1    0    0  501    0  0.00000000000E+00  0.00000000000E+00 -0.23042705197E+04  0.23042705197E+04  0.50400001928E-02 0.  1.
    10030    2    1    2    0    0  0.00000000000E+00  0.00000000000E+00 -0.14341938451E+04  0.31743471944E+04  0.28318842005E+04 0.  0.
        3    1    3    3  502    0 -0.10340819587E+04  0.84240792219E+02 -0.17971942122E+04  0.20751696449E+04  0.10100000352E+00 0.  1.
       -3    1    3    3    0  502  0.10340819587E+04 -0.84240792219E+02  0.36300036711E+03  0.10991775494E+04  0.10100000352E+00 0. -1.
</event>
<event>
 5   0  0.1235252E-06  0.2798805E+04  0.7818609E-02  0.8303639E-01
        1   -1    0    0  501    0  0.00000000000E+00  0.00000000000E+00  0.14814970747E+04  0.14814970747E+04  0.50400001928E-02 0.  1.
       -1   -1    0    0    0  501  0.00000000000E+00  0.00000000000E+00 -0.13218570712E+04  0.13218570712E+04  0.50400001928E-02 0. -1.
    10030    2    1    2    0    0  0.00000000000E+00  0.00000000000E+00  0.15964000348E+03  0.28033541459E+04  0.27988050194E+04 0.  0.
        1    1    3    3  502    0  0.12551977067E+04  0.59009059015E+03 -0.10649092631E+03  0.13910673977E+04  0.50400001928E-02 0. -1.
       -1    1    3    3    0  502 -0.12551977067E+04 -0.59009059015E+03  0.26613092978E+03  0.14122867482E+04  0.50400001928E-02 0.  1.
</event>
<event>
 5   0  0.1220265E-06  0.2804886E+04  0.7818609E-02  0.8301753E-01
       -1   -1    0    0    0  501  0.00000000000E+00  0.00000000000E+00  0.85459279507E+03  0.85459279508E+03  0.50400001928E-02 0. -1.
        1   -1    0    0  501    0  0.00000000000E+00  0.00000000000E+00 -0.23015019995E+04  0.23015019995E+04  0.50400001928E-02 0.  1.
    10030    2    1    2    0    0  0.00000000000E+00  0.00000000000E+00 -0.14469092044E+04  0.31560947945E+04  0.28048864694E+04 0.  0.
        4    1    3    3  502    0 -0.84455606811E+03  0.76443928877E+03  0.19702401139E+03  0.11560546926E+04  0.12699999809E+01 0. -1.
       -4    1    3    3    0  502  0.84455606811E+03 -0.76443928877E+03 -0.16439332158E+04  0.20000401019E+04  0.12699999809E+01 0.  1.
</event>
<event>
 5   0  0.1220265E-06  0.2760269E+04  0.7818609E-02  0.8315711E-01
       -1   -1    0    0    0  501  0.00000000000E+00  0.00000000000E+00  0.15389139858E+04  0.15389139858E+04  0.50400001928E-02 0.  1.
        1   -1    0    0  501    0  0.00000000000E+00  0.00000000000E+00 -0.12377370633E+04  0.12377370633E+04  0.50400001928E-02 0. -1.
    10030    2    1    2    0    0  0.00000000000E+00  0.00000000000E+00  0.30117692258E+03  0.27766510491E+04  0.27602687387E+04 0.  0.
        4    1    3    3  502    0 -0.63565056402E+03  0.12244715258E+04  0.18805339690E+03  0.13923892595E+04  0.12699999809E+01 0.  1.
       -4    1    3    3    0  502  0.63565056402E+03 -0.12244715258E+04  0.11312352567E+03  0.13842617896E+04  0.12699999809E+01 0. -1.
</event>
<event>
 5   0  0.1263513E-06  0.2806256E+04  0.7818609E-02  0.8301329E-01
        1   -1    0    0  501    0  0.00000000000E+00  0.00000000000E+00  0.17098160397E+04  0.17098160397E+04  0.50400001928E-02 0. -1.
       -1   -1    0    0    0  501  0.00000000000E+00  0.00000000000E+00 -0.11514498860E+04  0.11514498860E+04  0.50400001928E-02 0.  1.
    10030    2    1    2    0    0  0.00000000000E+00  0.00000000000E+00  0.55836615371E+03  0.28612659257E+04  0.28062555008E+04 0.  0.
        3    1    3    3  502    0  0.20398456252E+02  0.16143650711E+03 -0.11417970663E+04  0.11533336004E+04  0.10100000352E+00 0.  1.
       -3    1    3    3    0  502 -0.20398456252E+02 -0.16143650711E+03  0.17001632200E+04  0.17079323253E+04  0.10100000352E+00 0. -1.
</event>
<event>
 5   0  0.3345919E-06  0.2807782E+04  0.7818609E-02  0.8300857E-01
       -2   -1    0    0    0  501  0.00000000000E+00  0.00000000000E+00  0.95829061645E+03  0.95829061646E+03  0.25500000920E-02 0. -1.
        2   -1    0    0  501    0  0.00000000000E+00  0.00000000000E+00 -0.20566928580E+04  0.20566928580E+04  0.25500000920E-02 0.  1.
    10030    2    1    2    0    0  0.00000000000E+00  0.00000000000E+00 -0.10984022415E+04  0.30149834744E+04  0.28077816630E+04 0.  0.
        2    1    3    3  502    0  0.76993262339E+03 -0.11711441803E+04 -0.46239930397E+03  0.14758685754E+04  0.25500000920E-02 0. -1.
       -2    1    3    3    0  502 -0.76993262339E+03  0.11711441803E+04 -0.63600293754E+03  0.15391148990E+04  0.25500000920E-02 0.  1.
</event>
<event>
 5   0  0.1065675E-06  0.2790485E+04  0.7818609E-02  0.8306228E-01
       -3   -1    0    0    0  501  0.00000000000E+00  0.00000000000E+00  0.11877632546E+04  0.11877632589E+04  0.10100000352E+00 0. -1.
        3   -1    0    0  501    0  0.00000000000E+00  0.00000000000E+00 -0.16389648381E+04  0.16389648412E+04  0.10100000352E+00 0.  1.
    10030    2    1    2    0    0  0.00000000000E+00  0.00000000000E+00 -0.45120158352E+03  0.28267281001E+04  0.27904854207E+04 0.  0.
        4    1    3    3  502    0 -0.60148286408E+03  0.50009063200E+03  0.94475251457E+03  0.12265525683E+04  0.12699999809E+01 0. -1.
       -4    1    3    3    0  502  0.60148286408E+03 -0.50009063200E+03 -0.13959540981E+04  0.16001755319E+04  0.12699999809E+01 0.  1.
</event>
<event>
 5   0  0.3162695E-06  0.2652668E+04  0.7818609E-02  0.8350528E-01
       -2   -1    0    0    0  501  0.00000000000E+00  0.00000000000E+00  0.70898238168E+03  0.70898238168E+03  0.25500000920E-02 0.  1.
        2   -1    0    0  501    0  0.00000000000E+00  0.00000000000E+00 -0.24812498055E+04  0.24812498055E+04  0.25500000920E-02 0. -1.
    10030    2    1    2    0    0  0.00000000000E+00  0.00000000000E+00 -0.17722674239E+04  0.31902321872E+04  0.26526683899E+04 0.  0.
        1    1    3    3  502    0  0.86284373000E+03  0.46171229573E+03 -0.19628145629E+04  0.21932438429E+04  0.50400001928E-02 0. -1.
       -1    1    3    3    0  502 -0.86284373000E+03 -0.46171229573E+03  0.19054713899E+03  0.99698834428E+03  0.50400001928E-02 0.  1.
</event>
<event>
 5   0  0.1263513E-06  0.2764046E+04  0.7818609E-02  0.8314518E-01
        1   -1    0    0  501    0  0.00000000000E+00  0.00000000000E+00  0.16694349633E+04  0.16694349633E+04  0.50400001928E-02 0.  1.
       -1   -1    0    0    0  501  0.00000000000E+00  0.00000000000E+00 -0.11440919559E+04  0.11440919559E+04  0.50400001928E-02 0. -1.
    10030    2    1    2    0    0  0.00000000000E+00  0.00000000000E+00  0.52534300738E+03  0.28135269192E+04  0.27640456671E+04 0.  0.
        3    1    3    3  502    0 -0.10805033198E+04 -0.85875395983E+03  0.19039822444E+03  0.13932685605E+04  0.10100000352E+00 0. -1.
       -3    1    3    3    0  502  0.10805033198E+04  0.85875395983E+03  0.33494478294E+03  0.14202583587E+04  0.10100000352E+00 0.  1.
</event>
<event>
 5   0  0.3162695E-06  0.2752476E+04  0.7818609E-02  0.8318176E-01
       -2   -1    0    0    0  501  0.00000000000E+00  0.00000000000E+00  0.75878071539E+03  0.75878071540E+03  0.25500000920E-02 0. -1.
        2   -1    0    0  501    0  0.00000000000E+00  0.00000000000E+00 -0.24961507648E+04  0.24961507648E+04  0.25500000920E-02 0.  1.
    10030    2    1    2    0    0  0.00000000000E+00  0.00000000000E+00 -0.17373700494E+04  0.32549314802E+04  0.27524760221E+04 0.  0.
        1    1    3    3  502    0 -0.18559539448E+03  0.71633738144E+03  0.50350040549E+03  0.89504053141E+03  0.50400001928E-02 0. -1.
       -1    1    3    3    0  502  0.18559539448E+03 -0.71633738144E+03 -0.22408704549E+04  0.23598909487E+04  0.50400001928E-02 0.  1.
</event>
<event>
 5   0  0.1235252E-06  0.2811631E+04  0.7818609E-02  0.8299666E-01
        1   -1    0    0  501    0  0.00000000000E+00  0.00000000000E+00  0.17541549901E+04  0.17541549901E+04  0.50400001928E-02 0. -1.
       -1   -1    0    0    0  501  0.00000000000E+00  0.00000000000E+00 -0.11266491531E+04  0.11266491531E+04  0.50400001928E-02 0.  1.
    10030    2    1    2    0    0  0.00000000000E+00  0.00000000000E+00  0.62750583695E+03  0.28808041432E+04  0.28116310100E+04 0.  0.
        1    1    3    3  502    0  0.11768098809E+04  0.66938249579E+03 -0.74195213351E+02  0.13558979870E+04  0.50400001928E-02 0.  1.
       -1    1    3    3    0  502 -0.11768098809E+04 -0.66938249579E+03  0.70170105031E+03  0.15249061563E+04  0.50400001928E-02 0. -1.
</event>
<event>
 5   0  0.3226364E-06  0.2803918E+04  0.7818609E-02  0.8302053E-01
        2   -1    0    0  501    0  0.00000000000E+00  0.00000000000E+00  0.11852143356E+04  0.11852143356E+04  0.25500000920E-02 0.  1.
       -2   -1    0    0    0  501  0.00000000000E+00  0.00000000000E+00 -0.16583408761E+04  0.16583408761E+04  0.25500000920E-02 0. -1.
    10030    2    1    2    0    0  0.00000000000E+00  0.00000000000E+00 -0.47312654052E+03  0.28435552117E+04  0.28039182439E+04 0.  0.
        5    1    3    3  502    0 -0.43748107100E+03  0.11709625920E+04  0.40717303115E+03  0.13146691776E+04  0.46999998093E+01 0. -1.
       -5    1    3    3    0  502  0.43748107100E+03 -0.11709625920E+04 -0.88029957166E+03  0.15288860341E+04  0.46999998093E+01 0.  1.
</event>
<event>
 5   0  0.1246044E-06  0.2810257E+04  0.7818609E-02  0.8300091E-01
        1   -1    0    0  501    0  0.00000000000E+00  0.00000000000E+00  0.10131117219E+04  0.10131117219E+04  0.50400001928E-02 0.  1.
       -1   -1    0    0    0  501  0.00000000000E+00  0.00000000000E+00 -0.19488329764E+04  0.19488329764E+04  0.50400001928E-02 0. -1.
    10030    2    1    2    0    0  0.00000000000E+00  0.00000000000E+00 -0.93572125444E+03  0.29619446983E+04  0.28102565950E+04 0.  0.
        2    1    3    3  502    0  0.14048304290E+04 -0.28924553680E+02 -0.46722085954E+03  0.14807702373E+04  0.25500000920E-02 0. -1.
       -2    1    3    3    0  502 -0.14048304290E+04  0.28924553680E+02 -0.46850039490E+03  0.14811744610E+04  0.25500000920E-02 0.  1.
</event>
<event>
 5   0  0.3167616E-06  0.2799967E+04  0.7818609E-02  0.8303279E-01
       -2   -1    0    0    0  501  0.00000000000E+00  0.00000000000E+00  0.10574502398E+04  0.10574502398E+04  0.25500000920E-02 0. -1.
        2   -1    0    0  501    0  0.00000000000E+00  0.00000000000E+00 -0.18534711012E+04  0.18534711012E+04  0.25500000920E-02 0.  1.
    10030    2    1    2    0    0  0.00000000000E+00  0.00000000000E+00 -0.79602086136E+03  0.29109213410E+04  0.27999667573E+04 0.  0.
        3    1    3    3  502    0  0.11691709311E+04 -0.69349879369E+03 -0.50003572202E+02  0.13602946778E+04  0.10100000352E+00 0. -1.
       -3    1    3    3    0  502 -0.11691709311E+04  0.69349879369E+03 -0.74601728915E+03  0.15506266633E+04  0.10100000352E+00 0.  1.
</event>
<event>
 5   0  0.3345919E-06  0.2770208E+04  0.7818609E-02  0.8312578E-01
        2   -1    0    0  501    0  0.00000000000E+00  0.00000000000E+00  0.21453264456E+04  0.21453264456E+04  0.25500000920E-02 0. -1.
       -2   -1    0    0    0  501  0.00000000000E+00  0.00000000000E+00 -0.89427548101E+03  0.89427548102E+03  0.25500000920E-02 0.  1.
    10030    2    1    2    0    0  0.00000000000E+00  0.00000000000E+00  0.12510509646E+04  0.30396019266E+04  0.27702078183E+04 0.  0.
        2    1    3    3  502    0 -0.66718265183E+02  0.12475341008E+04  0.12817857034E+04  0.17899070504E+04  0.25500000920E-02 0.  1.
       -2    1    3    3    0  502  0.66718265183E+02 -0.12475341008E+04 -0.30734738828E+02  0.12496948762E+04  0.25500000920E-02 0. -1.
</event>
<event>
 5   0  0.1246044E-06  0.2808652E+04  0.7818609E-02  0.8300587E-01
        1   -1    0    0  501    0  0.00000000000E+00  0.00000000000E+00  0.21243293247E+04  0.21243293247E+04  0.50400001928E-02 0. -1.
       -1   -1    0    0    0  501  0.00000000000E+00  0.00000000000E+00 -0.92835491972E+03  0.92835491973E+03  0.50400001928E-02 0.  1.
    10030    2    1    2    0    0  0.00000000000E+00  0.00000000000E+00  0.11959744049E+04  0.30526842444E+04  0.28086520466E+04 0.  0.
        2    1    3    3  502    0 -0.74678958644E+02  0.76867743336E+03  0.18727934364E+04  0.20257831076E+04  0.25500000920E-02 0. -1.
       -2    1    3    3    0  502  0.74678958644E+02 -0.76867743336E+03 -0.67681903148E+03  0.10269011368E+04  0.25500000920E-02 0.  1.
</event>
<event>
 5   0  0.3226364E-06  0.2796881E+04  0.7818609E-02  0.8304237E-01
       -2   -1    0    0    0  501  0.00000000000E+00  0.00000000000E+00  0.13359484989E+04  0.13359484989E+04  0.25500000920E-02 0.  1.
        2   -1    0    0  501    0  0.00000000000E+00  0.00000000000E+00 -0.14638558761E+04  0.14638558761E+04  0.25500000920E-02 0. -1.
    10030    2    1    2    0    0  0.00000000000E+00  0.00000000000E+00 -0.12790737719E+03  0.27998043750E+04  0.27968811633E+04 0.  0.
        5    1    3    3  502    0 -0.10710385853E+04 -0.64352755323E+03  0.56468562677E+03  0.13711831789E+04  0.46999998093E+01 0.  1.
       -5    1    3    3    0  502  0.10710385853E+04  0.64352755323E+03 -0.69259300396E+03  0.14286211962E+04  0.46999998093E+01 0. -1.
</event>
<event>
 5   0  0.3226364E-06  0.2798913E+04  0.7818609E-02  0.8303606E-01
        2   -1    0    0  501    0  0.00000000000E+00  0.00000000000E+00  0.19343638494E+04  0.19343638494E+04  0.25500000920E-02 0.  1.
       -2   -1    0    0    0  501  0.00000000000E+00  0.00000000000E+00 -0.10124663337E+04  0.10124663337E+04  0.25500000920E-02 0. -1.
    10030    2    1    2    0    0  0.00000000000E+00  0.00000000000E+00  0.92189751567E+03  0.29468301831E+04  0.27989128422E+04 0.  0.
        5    1    3    3  502    0 -0.51763605393E+03  0.59356138028E+03 -0.75698949772E+03  0.10923906747E+04  0.46999998093E+01 0. -1.
       -5    1    3    3    0  502  0.51763605393E+03 -0.59356138028E+03  0.16788870134E+04  0.18544395084E+04  0.46999998093E+01 0.  1.
</event>
<event>
 5   0  0.3167616E-06  0.2760795E+04  0.7818609E-02  0.8315544E-01
        2   -1    0    0  501    0  0.00000000000E+00  0.00000000000E+00  0.11471991469E+04  0.11471991469E+04  0.25500000920E-02 0. -1.
       -2   -1    0    0    0  501  0.00000000000E+00  0.00000000000E+00 -0.16609993490E+04  0.16609993490E+04  0.25500000920E-02 0.  1.
    10030    2    1    2    0    0  0.00000000000E+00  0.00000000000E+00 -0.51380020210E+03  0.28081984959E+04  0.27607948393E+04 0.  0.
        3    1    3    3  502    0 -0.55313162474E+03 -0.10154862104E+04 -0.10237211587E+04  0.15444001615E+04  0.10100000352E+00 0.  1.
       -3    1    3    3    0  502  0.55313162474E+03  0.10154862104E+04  0.50992095661E+03  0.12637983344E+04  0.10100000352E+00 0. -1.
</event>
<event>
 5   0  0.3162695E-06  0.2799070E+04  0.7818609E-02  0.8303557E-01
       -2   -1    0    0    0  501  0.00000000000E+00  0.00000000000E+00  0.78233470365E+03  0.78233470365E+03  0.25500000920E-02 0.  1.
        2   -1    0    0  501    0  0.00000000000E+00  0.00000000000E+00 -0.25036575724E+04  0.25036575724E+04  0.25500000920E-02 0. -1.
    10030    2    1    2    0    0  0.00000000000E+00  0.00000000000E+00 -0.17213228687E+04  0.32859922760E+04  0.27990699919E+04 0.  0.
        1    1    3    3  502    0 -0.64593599375E+03  0.12237201201E+04 -0.11068402002E+04  0.17719535743E+04  0.50400001928E-02 0.  1.
       -1    1    3    3    0  502  0.64593599375E+03 -0.12237201201E+04 -0.61448266846E+03  0.15140387017E+04  0.50400001928E-02 0. -1.
</event>
<event>
 5   0  0.1243055E-06  0.2784263E+04  0.7818609E-02  0.8308171E-01
       -1   -1    0    0    0  501  0.00000000000E+00  0.00000000000E+00  0.76627880978E+03  0.76627880980E+03  0.50400001928E-02 0. -1.
        1   -1    0    0  501    0  0.00000000000E+00  0.00000000000E+00 -0.25291444257E+04  0.25291444258E+04  0.50400001928E-02 0.  1.
    10030    2    1    2    0    0  0.00000000000E+00  0.00000000000E+00 -0.17628656160E+04  0.32954232355E+04  0.27842627608E+04 0.  0.
        5    1    3    3  502    0  0.58808047869E+03 -0.12580756506E+04 -0.76658989851E+03  0.15862771367E+04  0.46999998093E+01 0. -1.
       -5    1    3    3    0  502 -0.58808047869E+03  0.12580756506E+04 -0.99627571746E+03  0.17091460988E+04  0.46999998093E+01 0.  1.
</event>
<event>
 5   0  0.1235252E-06  0.2802928E+04  0.7818609E-02  0.8302360E-01
        1   -1    0    0  501    0  0.00000000000E+00  0.00000000000E+00  0.91994267229E+03  0.91994267230E+03  0.50400001928E-02 0. -1.
       -1   -1    0    0    0  501  0.00000000000E+00  0.00000000000E+00 -0.21350259093E+04  0.21350259093E+04  0.50400001928E-02 0.  1.
    10030    2    1    2    0    0  0.00000000000E+00  0.00000000000E+00 -0.12150832370E+04  0.30549685816E+04  0.28029280693E+04 0.  0.
        1    1    3    3  502    0  0.46892750041E+02  0.11384560491E+04  0.28180963752E+03  0.11737537125E+04  0.50400001928E-02 0. -1.
       -1    1    3    3    0  502 -0.46892750041E+02 -0.11384560491E+04 -0.14968928745E+04  0.18812148691E+04  0.50400001928E-02 0.  1.
</event>
<event>
 5   0  0.3345919E-06  0.2813608E+04  0.7818609E-02  0.8299056E-01
       -2   -1    0    0    0  501  0.00000000000E+00  0.00000000000E+00  0.67785781224E+03  0.67785781224E+03  0.25500000920E-02 0. -1.
        2   -1    0    0  501    0  0.00000000000E+00  0.00000000000E+00 -0.29196349565E+04  0.29196349565E+04  0.25500000920E-02 0.  1.
    10030    2    1    2    0    0  0.00000000000E+00  0.00000000000E+00 -0.22417771443E+04  0.35974927687E+04  0.28136079074E+04 0.  0.
        2    1    3    3  502    0  0.10454460848E+04 -0.72692881653E+03 -0.18856122393E+04  0.22752838367E+04  0.25500000920E-02 0.  1.
       -2    1    3    3    0  502 -0.10454460848E+04  0.72692881653E+03 -0.35616490493E+03  0.13222089320E+04  0.25500000920E-02 0. -1.
</event>
<event>
 5   0  0.1246044E-06  0.2820002E+04  0.7818609E-02  0.8297085E-01
        1   -1    0    0  501    0  0.00000000000E+00  0.00000000000E+00  0.10517835797E+04  0.10517835797E+04  0.50400001928E-02 0.  1.
       -1   -1    0    0    0  501  0.00000000000E+00  0.00000000000E+00 -0.18902199021E+04  0.18902199022E+04  0.50400001928E-02 0. -1.
    10030    2    1    2    0    0  0.00000000000E+00  0.00000000000E+00 -0.83843632248E+03  0.29420034818E+04  0.28200015993E+04 0.  0.
        2    1    3    3  502    0 -0.12095549147E+04  0.70255333429E+03 -0.60437303600E+03  0.15237686983E+04  0.25500000920E-02 0. -1.
       -2    1    3    3    0  502  0.12095549147E+04 -0.70255333429E+03 -0.23406328648E+03  0.14182347836E+04  0.25500000920E-02 0.  1.
</event>
<event>
 5   0  0.3167616E-06  0.2804761E+04  0.7818609E-02  0.8301792E-01
        2   -1    0    0  501    0  0.00000000000E+00  0.00000000000E+00  0.23612437891E+04  0.23612437891E+04  0.25500000920E-02 0.  1.
       -2   -1    0    0    0  501  0.00000000000E+00  0.00000000000E+00 -0.83289647037E+03  0.83289647038E+03  0.25500000920E-02 0. -1.
    10030    2    1    2    0    0  0.00000000000E+00  0.00000000000E+00  0.15283473188E+04  0.31941402595E+04  0.28047613928E+04 0.  0.
        3    1    3    3  502    0 -0.34204313622E+03  0.12111983913E+04  0.14686622939E+04  0.19341571793E+04  0.10100000352E+00 0.  1.
       -3    1    3    3    0  502  0.34204313622E+03 -0.12111983913E+04  0.59685024827E+02  0.12599830803E+04  0.10100000352E+00 0. -1.
</event>
<event>
 5   0  0.3226364E-06  0.2803184E+04  0.7818609E-02  0.8302280E-01
        2   -1    0    0  501    0  0.00000000000E+00  0.00000000000E+00  0.23595013275E+04  0.23595013275E+04  0.25500000920E-02 0. -1.
       -2   -1    0    0    0  501  0.00000000000E+00  0.00000000000E+00 -0.83257447470E+03  0.83257447470E+03  0.25500000920E-02 0.  1.
    10030    2    1    2    0    0  0.00000000000E+00  0.00000000000E+00  0.15269268528E+04  0.31920758022E+04  0.28031843167E+04 0.  0.
        5    1    3    3  502    0 -0.71003528640E+03 -0.90234285365E+03 -0.15182907014E+03  0.11582084830E+04  0.46999998093E+01 0.  1.
       -5    1    3    3    0  502  0.71003528640E+03  0.90234285365E+03  0.16787559230E+04  0.20338673193E+04  0.46999998093E+01 0. -1.
</event>
<event>
 5   0  0.1243055E-06  0.2791417E+04  0.7818609E-02  0.8305938E-01
       -1   -1    0    0    0  501  0.00000000000E+00  0.00000000000E+00  0.11156763248E+04  0.11156763249E+04  0.50400001928E-02 0.  1.
        1   -1    0    0  501    0  0.00000000000E+00  0.00000000000E+00 -0.17460285663E+04  0.17460285663E+04  0.50400001928E-02 0. -1.
    10030    2    1    2    0    0  0.00000000000E+00  0.00000000000E+00 -0.63035224149E+03  0.28617048912E+04  0.27914173704E+04 0.  0.
        5    1    3    3  502    0 -0.10778443858E+04 -0.53053450827E+03  0.41318171637E+03  0.12704159182E+04  0.46999998093E+01 0.  1.
       -5    1    3    3    0  502  0.10778443858E+04  0.53053450827E+03 -0.10435339579E+04  0.15912889730E+04  0.46999998093E+01 0. -1.
</event>
<event>
 5   0  0.1243055E-06  0.2796942E+04  0.7818609E-02  0.8304219E-01
       -1   -1    0    0    0  501  0.00000000000E+00  0.00000000000E+00  0.16182511272E+04  0.16182511272E+04  0.50400001928E-02 0. -1.
        1   -1    0    0  501    0  0.00000000000E+00  0.00000000000E+00 -0.12085395512E+04  0.12085395512E+04  0.50400001928E-02 0.  1.
    10030    2    1    2    0    0  0.00000000000E+00  0.00000000000E+00  0.40971157604E+03  0.28267906784E+04  0.27969415375E+04 0.  0.
        5    1    3    3  502    0  0.11418271130E+04 -0.79900573193E+03  0.32236824742E+03  0.14304274510E+04  0.46999998093E+01 0. -1.
       -5    1    3    3    0  502 -0.11418271130E+04  0.79900573193E+03  0.87343328623E+02  0.13963632274E+04  0.46999998093E+01 0.  1.
</event>
<event>
 5   0  0.3162695E-06  0.2805756E+04  0.7818609E-02  0.8301484E-01
        2   -1    0    0  501    0  0.00000000000E+00  0.00000000000E+00  0.29321765458E+04  0.29321765458E+04  0.25500000920E-02 0.  1.
       -2   -1    0    0    0  501  0.00000000000E+00  0.00000000000E+00 -0.67119656175E+03  0.67119656175E+03  0.25500000920E-02 0. -1.
    10030    2    1    2    0    0  0.00000000000E+00  0.00000000000E+00  0.22609799840E+04  0.36033731075E+04  0.28057560949E+04 0.  0.
        1    1    3    3  502    0  0.56442623957E+03 -0.70518449878E+03 -0.24806511494E+03  0.93669549936E+03  0.50400001928E-02 0. -1.
       -1    1    3    3    0  502 -0.56442623957E+03  0.70518449878E+03  0.25090450990E+04  0.26666776082E+04  0.50400001928E-02 0.  1.
</event>
<event>
 5   0  0.3212679E-06  0.2881381E+04  0.7818609E-02  0.8278439E-01
        2   -1    0    0  501    0  0.00000000000E+00  0.00000000000E+00  0.25081697253E+04  0.25081697253E+04  0.25500000920E-02 0.  1.
       -2   -1    0    0    0  501  0.00000000000E+00  0.00000000000E+00 -0.82753144249E+03  0.82753144249E+03  0.25500000920E-02 0. -1.
    10030    2    1    2    0    0  0.00000000000E+00  0.00000000000E+00  0.16806382828E+04  0.33357011678E+04  0.28813811347E+04 0.  0.
        4    1    3    3  502    0  0.85359924138E+03  0.16684322539E+03  0.21699420147E+04  0.23377592448E+04  0.12699999809E+01 0.  1.
       -4    1    3    3    0  502 -0.85359924138E+03 -0.16684322539E+03 -0.48930373186E+03  0.99794192298E+03  0.12699999809E+01 0. -1.
</event>
<event>
 5   0  0.1246044E-06  0.2696165E+04  0.7818609E-02  0.8336250E-01
       -1   -1    0    0    0  501  0.00000000000E+00  0.00000000000E+00  0.10655337041E+04  0.10655337041E+04  0.50400001928E-02 0. -1.
        1   -1    0    0  501    0  0.00000000000E+00  0.00000000000E+00 -0.17055548193E+04  0.17055548193E+04  0.50400001928E-02 0.  1.
    10030    2    1    2    0    0  0.00000000000E+00  0.00000000000E+00 -0.64002111520E+03  0.27710885233E+04  0.26961647903E+04 0.  0.
        2    1    3    3  502    0 -0.79345006465E+03  0.99911742356E+03  0.12743489488E+03  0.12822005629E+04  0.25500000920E-02 0. -1.
       -2    1    3    3    0  502  0.79345006465E+03 -0.99911742356E+03 -0.76745601009E+03  0.14888879604E+04  0.25500000920E-02 0.  1.
</event>
<event>
 5   0  0.1220265E-06  0.2804940E+04  0.7818609E-02  0.8301736E-01
        1   -1    0    0  501    0  0.00000000000E+00  0.00000000000E+00  0.13495543059E+04  0.13495543060E+04  0.50400001928E-02 0. -1.
       -1   -1    0    0    0  501  0.00000000000E+00  0.00000000000E+00 -0.14574608774E+04  0.14574608774E+04  0.50400001928E-02 0.  1.
    10030    2    1    2    0    0  0.00000000000E+00  0.00000000000E+00 -0.10790657146E+03  0.28070151834E+04  0.28049403579E+04 0.  0.
        4    1    3    3  502    0 -0.92898795374E+03  0.77022358085E+03 -0.76908527228E+03  0.14309985156E+04  0.12699999809E+01 0.  1.
       -4    1    3    3    0  502  0.92898795374E+03 -0.77022358085E+03  0.66117870082E+03  0.13760166678E+04  0.12699999809E+01 0. -1.
</event>
<event>
 5   0  0.3167616E-06  0.2803160E+04  0.7818609E-02  0.8302288E-01
        2   -1    0    0  501    0  0.00000000000E+00  0.00000000000E+00  0.13200046619E+04  0.13200046619E+04  0.25500000920E-02 0. -1.
       -2   -1    0    0    0  501  0.00000000000E+00  0.00000000000E+00 -0.14881963480E+04  0.14881963480E+04  0.25500000920E-02 0.  1.
    10030    2    1    2    0    0  0.00000000000E+00  0.00000000000E+00 -0.16819168615E+03  0.28082010099E+04  0.28031597294E+04 0.  0.
        3    1    3    3  502    0  0.10965468144E+04 -0.84843882794E+03 -0.28980081580E+03  0.14164208004E+04  0.10100000352E+00 0. -1.
       -3    1    3    3    0  502 -0.10965468144E+04  0.84843882794E+03  0.12160912966E+03  0.13917802095E+04  0.10100000352E+00 0.  1.
</event>
<event>
 5   0  0.1235252E-06  0.2835953E+04  0.7818609E-02  0.8292192E-01
        1   -1    0    0  501    0  0.00000000000E+00  0.00000000000E+00  0.24375555687E+04  0.24375555687E+04  0.50400001928E-02 0. -1.
       -1   -1    0    0    0  501  0.00000000000E+00  0.00000000000E+00 -0.82486649706E+03  0.82486649708E+03  0.50400001928E-02 0.  1.
    10030    2    1    2    0    0  0.00000000000E+00  0.00000000000E+00  0.16126890716E+04  0.32624220658E+04  0.28359534011E+04 0.  0.
        1    1    3    3  502    0  0.16948070231E+03 -0.90889535979E+03  0.20431191476E+04  0.22425767178E+04  0.50400001928E-02 0. -1.
       -1    1    3    3    0  502 -0.16948070231E+03  0.90889535979E+03 -0.43043007602E+03  0.10198453480E+04  0.50400001928E-02 0.  1.
</event>
<event>
 5   0  0.3226364E-06  0.2798291E+04  0.7818609E-02  0.8303799E-01
       -2   -1    0    0    0  501  0.00000000000E+00  0.00000000000E+00  0.16124834180E+04  0.16124834180E+04  0.25500000920E-02 0.  1.
        2   -1    0    0  501    0  0.00000000000E+00  0.00000000000E+00 -0.12140326562E+04  0.12140326562E+04  0.25500000920E-02 0. -1.
    10030    2    1    2    0    0  0.00000000000E+00  0.00000000000E+00  0.39845076183E+03  0.28265160742E+04  0.27982905689E+04 0.  0.
        5    1    3    3  502    0  0.87825362069E+03  0.69607077015E+03 -0.64692436924E+03  0.12939772675E+04  0.46999998093E+01 0. -1.
       -5    1    3    3    0  502 -0.87825362069E+03 -0.69607077015E+03  0.10453751311E+04  0.15325388067E+04  0.46999998093E+01 0.  1.
</event>
<event>
 5   0  0.1246044E-06  0.2766127E+04  0.7818609E-02  0.8313862E-01
       -1   -1    0    0    0  501  0.00000000000E+00  0.00000000000E+00  0.85298594703E+03  0.85298594705E+03  0.50400001928E-02 0.  1.
        1   -1    0    0  501    0  0.00000000000E+00  0.00000000000E+00 -0.22425510454E+04  0.22425510454E+04  0.50400001928E-02 0. -1.
    10030    2    1    2    0    0  0.00000000000E+00  0.00000000000E+00 -0.13895650984E+04  0.30955369925E+04  0.27661269149E+04 0.  0.
        2    1    3    3  502    0 -0.43714853665E+03  0.12403169955E+04 -0.11740072676E+04  0.17628891504E+04  0.25500000920E-02 0. -1.
       -2    1    3    3    0  502  0.43714853665E+03 -0.12403169955E+04 -0.21555783080E+03  0.13326478420E+04  0.25500000920E-02 0.  1.
</event>
<event>
 5   0  0.3162695E-06  0.2804581E+04  0.7818609E-02  0.8301848E-01
        2   -1    0    0  501    0  0.00000000000E+00  0.00000000000E+00  0.21634532798E+04  0.21634532798E+04  0.25500000920E-02 0. -1.
       -2   -1    0    0    0  501  0.00000000000E+00  0.00000000000E+00 -0.90892592559E+03  0.90892592559E+03  0.25500000920E-02 0.  1.
    10030    2    1    2    0    0  0.00000000000E+00  0.00000000000E+00  0.12545273543E+04  0.30723792054E+04  0.28045810916E+04 0.  0.
        1    1    3    3  502    0 -0.50905930181E+03  0.94841987098E+03  0.16118472768E+04  0.19382190970E+04  0.50400001928E-02 0. -1.
       -1    1    3    3    0  502  0.50905930181E+03 -0.94841987098E+03 -0.35731992253E+03  0.11341601084E+04  0.50400001928E-02 0.  1.
</event>
<event>
 5   0  0.3345919E-06  0.2803066E+04  0.7818609E-02  0.8302317E-01
        2   -1    0    0  501    0  0.00000000000E+00  0.00000000000E+00  0.14578850915E+04  0.14578850915E+04  0.25500000920E-02 0. -1.
       -2   -1    0    0    0  501  0.00000000000E+00  0.00000000000E+00 -0.13473587940E+04  0.13473587940E+04  0.25500000920E-02 0.  1.
    10030    2    1    2    0    0  0.00000000000E+00  0.00000000000E+00  0.11052629750E+03  0.28052438855E+04  0.28030656779E+04 0.  0.
        2    1    3    3  502    0  0.13171585059E+04  0.44867500560E+03  0.22295979115E+03  0.14092291718E+04  0.25500000920E-02 0. -1.
       -2    1    3    3    0  502 -0.13171585059E+04 -0.44867500560E+03 -0.11243349364E+03  0.13960147136E+04  0.25500000920E-02 0.  1.
</event>
<event>
 5   0  0.1220265E-06  0.2796234E+04  0.7818609E-02  0.8304438E-01
        1   -1    0    0  501    0  0.00000000000E+00  0.00000000000E+00  0.21204668016E+04  0.21204668016E+04  0.50400001928E-02 0. -1.
       -1   -1    0    0    0  501  0.00000000000E+00  0.00000000000E+00 -0.92184027876E+03  0.92184027877E+03  0.50400001928E-02 0.  1.
    10030    2    1    2    0    0  0.00000000000E+00  0.00000000000E+00  0.11986265229E+04  0.30423070804E+04  0.27962344019E+04 0.  0.
        4    1    3    3  502    0 -0.11040939968E+04 -0.59020426752E+03  0.12764711193E+04  0.17879442839E+04  0.12699999809E+01 0.  1.
       -4    1    3    3    0  502  0.11040939968E+04  0.59020426752E+03 -0.77844596459E+02  0.12543627965E+04  0.12699999809E+01 0. -1.
</event>
<event>
 5   0  0.3212679E-06  0.2807119E+04  0.7818609E-02  0.8301062E-01
       -2   -1    0    0    0  501  0.00000000000E+00  0.00000000000E+00  0.10229341115E+04  0.10229341115E+04  0.25500000920E-02 0.  1.
        2   -1    0    0  501    0  0.00000000000E+00  0.00000000000E+00 -0.19258123688E+04  0.19258123688E+04  0.25500000920E-02 0. -1.
    10030    2    1    2    0    0  0.00000000000E+00  0.00000000000E+00 -0.90287825734E+03  0.29487464803E+04  0.28071189247E+04 0.  0.
        4    1    3    3  502    0  0.41641012945E+03 -0.61763738469E+03  0.79816035173E+03  0.10917577089E+04  0.12699999809E+01 0.  1.
       -4    1    3    3    0  502 -0.41641012945E+03  0.61763738469E+03 -0.17010386091E+04  0.18569887715E+04  0.12699999809E+01 0. -1.
</event>
<event>
 5   0  0.3226364E-06  0.2891878E+04  0.7818609E-02  0.8275298E-01
       -2   -1    0    0    0  501  0.00000000000E+00  0.00000000000E+00  0.77193799182E+03  0.77193799182E+03  0.25500000920E-02 0.  1.
        2   -1    0    0  501    0  0.00000000000E+00  0.00000000000E+00 -0.27084295594E+04  0.27084295594E+04  0.25500000920E-02 0. -1.
    10030    2    1    2    0    0  0.00000000000E+00  0.00000000000E+00 -0.19364915676E+04  0.34803675512E+04  0.28918780577E+04 0.  0.
        5    1    3    3  502    0 -0.13682500584E+04  0.33595998141E+03 -0.57689581004E+03  0.15224349566E+04  0.46999998093E+01 0.  1.
       -5    1    3    3    0  502  0.13682500584E+04 -0.33595998141E+03 -0.13595957576E+04  0.19579325947E+04  0.46999998093E+01 0. -1.
</event>
<event>
 5   0  0.1235252E-06  0.2803806E+04  0.7818609E-02  0.8302088E-01
       -1   -1    0    0    0  501  0.00000000000E+00  0.00000000000E+00  0.18698519717E+04  0.18698519717E+04  0.50400001928E-02 0.  1.
        1   -1    0    0  501    0  0.00000000000E+00  0.00000000000E+00 -0.10510631474E+04  0.10510631474E+04  0.50400001928E-02 0. -1.
    10030    2    1    2    0    0  0.00000000000E+00  0.00000000000E+00  0.81878882431E+03  0.29209151192E+04  0.28038063404E+04 0.  0.
        1    1    3    3  502    0 -0.36204220996E+03  0.70508315333E+03  0.16140292387E+04  0.17981399273E+04  0.50400001928E-02 0.  1.
       -1    1    3    3    0  502  0.36204220996E+03 -0.70508315333E+03 -0.79524041435E+03  0.11227751919E+04  0.50400001928E-02 0. -1.
</event>
<event>
 5   0  0.3212679E-06  0.2787459E+04  0.7818609E-02  0.8307173E-01
       -2   -1    0    0    0  501  0.00000000000E+00  0.00000000000E+00  0.10788285691E+04  0.10788285691E+04  0.25500000920E-02 0. -1.
        2   -1    0    0  501    0  0.00000000000E+00  0.00000000000E+00 -0.18005467439E+04  0.18005467439E+04  0.25500000920E-02 0.  1.
    10030    2    1    2    0    0  0.00000000000E+00  0.00000000000E+00 -0.72171817475E+03  0.28793753130E+04  0.27874585323E+04 0.  0.
        4    1    3    3  502    0 -0.86424898339E+03 -0.44382770943E+03 -0.13930955284E+04  0.16984187072E+04  0.12699999809E+01 0. -1.
       -4    1    3    3    0  502  0.86424898339E+03  0.44382770943E+03  0.67137735362E+03  0.11809566058E+04  0.12699999809E+01 0.  1.
</event>
<event>
 5   0  0.1263513E-06  0.2794236E+04  0.7818609E-02  0.8305060E-01
       -1   -1    0    0    0  501  0.00000000000E+00  0.00000000000E+00  0.89106615326E+03  0.89106615327E+03  0.50400001928E-02 0.  1.
        1   -1    0    0  501    0  0.00000000000E+00  0.00000000000E+00 -0.21905653534E+04  0.21905653535E+04  0.50400001928E-02 0. -1.
    10030    2    1    2    0    0  0.00000000000E+00  0.00000000000E+00 -0.12994992002E+04  0.30816315067E+04  0.27942359550E+04 0.  0.
        3    1    3    3  502    0 -0.13073396349E+03 -0.80515433809E+03 -0.19006852604E+04  0.20683252517E+04  0.10100000352E+00 0. -1.
       -3    1    3    3    0  502  0.13073396349E+03  0.80515433809E+03  0.60118606021E+03  0.10133062551E+04  0.10100000352E+00 0.  1.
</event>
<event>
 5   0  0.1246044E-06  0.2799409E+04  0.7818609E-02  0.8303452E-01
        1   -1    0    0  501    0  0.00000000000E+00  0.00000000000E+00  0.14610931987E+04  0.14610931987E+04  0.50400001928E-02 0. -1.
       -1   -1    0    0    0  501  0.00000000000E+00  0.00000000000E+00 -0.13408952551E+04  0.13408952551E+04  0.50400001928E-02 0.  1.
    10030    2    1    2    0    0  0.00000000000E+00  0.00000000000E+00  0.12019794359E+03  0.28019884537E+04  0.27994091786E+04 0.  0.
        2    1    3    3  502    0  0.47354813318E+03 -0.98193309885E+03 -0.81862362212E+03  0.13632993361E+04  0.25500000920E-02 0.  1.
       -2    1    3    3    0  502 -0.47354813318E+03  0.98193309885E+03  0.93882156571E+03  0.14386891177E+04  0.25500000920E-02 0. -1.
</event>
<event>
 5   0  0.1246044E-06  0.2804700E+04  0.7818609E-02  0.8301811E-01
       -1   -1    0    0    0  501  0.00000000000E+00  0.00000000000E+00  0.73874538387E+03  0.73874538388E+03  0.50400001928E-02 0.  1.
        1   -1    0    0  501    0  0.00000000000E+00  0.00000000000E+00 -0.26620616287E+04  0.26620616287E+04  0.50400001928E-02 0. -1.
    10030    2    1    2    0    0  0.00000000000E+00  0.00000000000E+00 -0.19233162448E+04  0.34008070125E+04  0.28047001549E+04 0.  0.
        2    1    3    3  502    0 -0.16946945593E+03  0.69796338703E+03 -0.24221067787E+04  0.25263558802E+04  0.25500000920E-02 0. -1.
       -2    1    3    3    0  502  0.16946945593E+03 -0.69796338703E+03  0.49879053389E+03  0.87445113233E+03  0.25500000920E-02 0.  1.
</event>
<event>
 5   0  0.1235252E-06  0.2796277E+04  0.7818609E-02  0.8304425E-01
       -1   -1    0    0    0  501  0.00000000000E+00  0.00000000000E+00  0.86696092210E+03  0.86696092212E+03  0.50400001928E-02 0. -1.
        1   -1    0    0  501    0  0.00000000000E+00  0.00000000000E+00 -0.22547622721E+04  0.22547622721E+04  0.50400001928E-02 0.  1.
    10030    2    1    2    0    0  0.00000000000E+00  0.00000000000E+00 -0.13878013500E+04  0.31217231942E+04  0.27962766520E+04 0.  0.
        1    1    3    3  502    0  0.96385492955E+03  0.26573100358E+03  0.39716942952E+03  0.10758126451E+04  0.50400001928E-02 0. -1.
       -1    1    3    3    0  502 -0.96385492955E+03 -0.26573100358E+03 -0.17849707795E+04  0.20459105492E+04  0.50400001928E-02 0.  1.
</event>
<event>
 5   0  0.1243055E-06  0.2811106E+04  0.7818609E-02  0.8299829E-01
        1   -1    0    0  501    0  0.00000000000E+00  0.00000000000E+00  0.19826732865E+04  0.19826732865E+04  0.50400001928E-02 0. -1.
       -1   -1    0    0    0  501  0.00000000000E+00  0.00000000000E+00 -0.99642194615E+03  0.99642194617E+03  0.50400001928E-02 0.  1.
    10030    2    1    2    0    0  0.00000000000E+00  0.00000000000E+00  0.98625134031E+03  0.29790952326E+04  0.28111059565E+04 0.  0.
        5    1    3    3  502    0 -0.50754197731E+02 -0.10870740050E+03 -0.99097754158E+03  0.99822435626E+03  0.46999998093E+01 0.  1.
       -5    1    3    3    0  502  0.50754197731E+02  0.10870740050E+03  0.19772288819E+04  0.19808708764E+04  0.46999998093E+01 0. -1.
</event>
<event>
 5   0  0.1246044E-06  0.2774795E+04  0.7818609E-02  0.8311136E-01
       -1   -1    0    0    0  501  0.00000000000E+00  0.00000000000E+00  0.94884647215E+03  0.94884647217E+03  0.50400001928E-02 0. -1.
        1   -1    0    0  501    0  0.00000000000E+00  0.00000000000E+00 -0.20286442213E+04  0.20286442213E+04  0.50400001928E-02 0.  1.
    10030    2    1    2    0    0  0.00000000000E+00  0.00000000000E+00 -0.10797977492E+04  0.29774906935E+04  0.27747950646E+04 0.  0.
        2    1    3    3  502    0 -0.54424701303E+02  0.13757024432E+04 -0.72374021402E+03  0.15554160722E+04  0.25500000920E-02 0.  1.
       -2    1    3    3    0  502  0.54424701303E+02 -0.13757024432E+04 -0.35605753515E+03  0.14220746213E+04  0.25500000920E-02 0. -1.
</event>
<event>
 5   0  0.3212679E-06  0.2804040E+04  0.7818609E-02  0.8302015E-01
       -2   -1    0    0    0  501  0.00000000000E+00  0.00000000000E+00  0.19648095402E+04  0.19648095402E+04  0.25500000920E-02 0.  1.
        2   -1    0    0  501    0  0.00000000000E+00  0.00000000000E+00 -0.10004326764E+04  0.10004326765E+04  0.25500000920E-02 0. -1.
    10030    2    1    2    0    0  0.00000000000E+00  0.00000000000E+00  0.96437686374E+03  0.29652422166E+04  0.28040397052E+04 0.  0.
        4    1    3    3  502    0 -0.85072413934E+03 -0.33147805688E+03 -0.64295681076E+03  0.11166934838E+04  0.12699999809E+01 0. -1.
       -4    1    3    3    0  502  0.85072413934E+03  0.33147805688E+03  0.16073336745E+04  0.18485487328E+04  0.12699999809E+01 0.  1.
</event>
<event>
 5   0  0.3212679E-06  0.2848481E+04  0.7818609E-02  0.8288373E-01
       -2   -1    0    0    0  501  0.00000000000E+00  0.00000000000E+00  0.10182320578E+04  0.10182320578E+04  0.25500000920E-02 0. -1.
        2   -1    0    0  501    0  0.00000000000E+00  0.00000000000E+00 -0.19921401055E+04  0.19921401055E+04  0.25500000920E-02 0.  1.
    10030    2    1    2    0    0  0.00000000000E+00  0.00000000000E+00 -0.97390804770E+03  0.30103721633E+04  0.28484809418E+04 0.  0.
        4    1    3    3  502    0  0.40938213534E+03  0.37703715837E+03 -0.18724586833E+04  0.19534210721E+04  0.12699999809E+01 0.  1.
       -4    1    3    3    0  502 -0.40938213534E+03 -0.37703715837E+03  0.89855063556E+03  0.10569510912E+04  0.12699999809E+01 0. -1.
</event>
<event>
 5   0  0.3162695E-06  0.2815299E+04  0.7818609E-02  0.8298534E-01
        2   -1    0    0  501    0  0.00000000000E+00  0.00000000000E+00  0.12572452101E+04  0.12572452101E+04  0.25500000920E-02 0. -1.
       -2   -1    0    0    0  501  0.00000000000E+00  0.00000000000E+00 -0.15760471447E+04  0.15760471447E+04  0.25500000920E-02 0.  1.
    10030    2    1    2    0    0  0.00000000000E+00  0.00000000000E+00 -0.31880193455E+03  0.28332923548E+04  0.28152994325E+04 0.  0.
        1    1    3    3  502    0 -0.53311751546E+03 -0.53345631500E+03 -0.13555626712E+04  0.15512382412E+04  0.50400001928E-02 0.  1.
       -1    1    3    3    0  502  0.53311751546E+03  0.53345631500E+03  0.10367607366E+04  0.12820541137E+04  0.50400001928E-02 0. -1.
</event>
<event>
 5   0  0.1220265E-06  0.2790370E+04  0.7818609E-02  0.8306264E-01
       -1   -1    0    0    0  501  0.00000000000E+00  0.00000000000E+00  0.17155111440E+04  0.17155111441E+04  0.50400001928E-02 0. -1.
        1   -1    0    0  501    0  0.00000000000E+00  0.00000000000E+00 -0.11346713207E+04  0.11346713207E+04  0.50400001928E-02 0.  1.
    10030    2    1    2    0    0  0.00000000000E+00  0.00000000000E+00  0.58083982332E+03  0.28501824648E+04  0.27903700798E+04 0.  0.
        4    1    3    3  502    0  0.75281466191E+03  0.10010451644E+04 -0.33734190610E+03  0.12971594007E+04  0.12699999809E+01 0.  1.
       -4    1    3    3    0  502 -0.75281466191E+03 -0.10010451644E+04  0.91818172942E+03  0.15530230641E+04  0.12699999809E+01 0. -1.
</event>
<event>
 5   0  0.1220265E-06  0.2802020E+04  0.7818609E-02  0.8302642E-01
       -1   -1    0    0    0  501  0.00000000000E+00  0.00000000000E+00  0.10570116274E+04  0.10570116274E+04  0.50400001928E-02 0. -1.
        1   -1    0    0  501    0  0.00000000000E+00  0.00000000000E+00 -0.18569601112E+04  0.18569601112E+04  0.50400001928E-02 0.  1.
    10030    2    1    2    0    0  0.00000000000E+00  0.00000000000E+00 -0.79994848377E+03  0.29139717386E+04  0.28020195782E+04 0.  0.
        4    1    3    3  502    0  0.40280373661E+03 -0.86586893976E+03 -0.14660397764E+04  0.17496439952E+04  0.12699999809E+01 0.  1.
       -4    1    3    3    0  502 -0.40280373661E+03  0.86586893976E+03  0.66609129260E+03  0.11643277434E+04  0.12699999809E+01 0. -1.
</event>
<event>
 5   0  0.3226364E-06  0.2801095E+04  0.7818609E-02  0.8302928E-01
        2   -1    0    0  501    0  0.00000000000E+00  0.00000000000E+00  0.18280608029E+04  0.18280608029E+04  0.25500000920E-02 0.  1.
       -2   -1    0    0    0  501  0.00000000000E+00  0.00000000000E+00 -0.10730131500E+04  0.10730131500E+04  0.25500000920E-02 0. -1.
    10030    2    1    2    0    0  0.00000000000E+00  0.00000000000E+00  0.75504765290E+03  0.29010739529E+04  0.28010949862E+04 0.  0.
        5    1    3    3  502    0  0.77369556055E+03  0.11674318110E+04  0.37435915628E+03  0.14497133240E+04  0.46999998093E+01 0. -1.
       -5    1    3    3    0  502 -0.77369556055E+03 -0.11674318110E+04  0.38068849661E+03  0.14513606289E+04  0.46999998093E+01 0.  1.
</event>
<event>
 5   0  0.1243055E-06  0.2786543E+04  0.7818609E-02  0.8307458E-01
        1   -1    0    0  501    0  0.00000000000E+00  0.00000000000E+00  0.23482549491E+04  0.23482549491E+04  0.50400001928E-02 0.  1.
       -1   -1    0    0    0  501  0.00000000000E+00  0.00000000000E+00 -0.82665883054E+03  0.82665883056E+03  0.50400001928E-02 0. -1.
    10030    2    1    2    0    0  0.00000000000E+00  0.00000000000E+00  0.15215961185E+04  0.31749137796E+04  0.27865431560E+04 0.  0.
        5    1    3    3  502    0 -0.10121970306E+04 -0.92787071973E+03  0.49190419698E+03  0.14585879234E+04  0.46999998093E+01 0. -1.
       -5    1    3    3    0  502  0.10121970306E+04  0.92787071973E+03  0.10296919215E+04  0.17163258562E+04  0.46999998093E+01 0.  1.
</event>
<event>
 5   0  0.1065675E-06  0.2793744E+04  0.7818609E-02  0.8305213E-01
        3   -1    0    0  501    0  0.00000000000E+00  0.00000000000E+00  0.11968940925E+04  0.11968940967E+04  0.10100000352E+00 0. -1.
       -3   -1    0    0    0  501  0.00000000000E+00  0.00000000000E+00 -0.16302619457E+04  0.16302619488E+04  0.10100000352E+00 0.  1.
    10030    2    1    2    0    0  0.00000000000E+00  0.00000000000E+00 -0.43336785324E+03  0.28271560456E+04  0.27937436550E+04 0.  0.
        1    1    3    3  502    0  0.19196285710E+03 -0.84745906906E+03 -0.13234802789E+04  0.15832361355E+04  0.50400001928E-02 0.  1.
       -1    1    3    3    0  502 -0.19196285710E+03  0.84745906906E+03  0.89011242565E+03  0.12439199100E+04  0.50400001928E-02 0. -1.
</event>
<event>
 5   0  0.3345919E-06  0.2807989E+04  0.7818609E-02  0.8300792E-01
       -2   -1    0    0    0  501  0.00000000000E+00  0.00000000000E+00  0.12641163971E+04  0.12641163971E+04  0.25500000920E-02 0. -1.
        2   -1    0    0  501    0  0.00000000000E+00  0.00000000000E+00 -0.15593507813E+04  0.15593507813E+04  0.25500000920E-02 0.  1.
    10030    2    1    2    0    0  0.00000000000E+00  0.00000000000E+00 -0.29523438411E+03  0.28234671784E+04  0.28079892389E+04 0.  0.
        2    1    3    3  502    0  0.13880498919E+04  0.20667650677E+03 -0.10491889645E+03  0.14072688640E+04  0.25500000920E-02 0. -1.
       -2    1    3    3    0  502 -0.13880498919E+04 -0.20667650677E+03 -0.19031548766E+03  0.14161983144E+04  0.25500000920E-02 0.  1.
</event>
<event>
 5   0  0.1263513E-06  0.2799420E+04  0.7818609E-02  0.8303448E-01
       -1   -1    0    0    0  501  0.00000000000E+00  0.00000000000E+00  0.13548692096E+04  0.13548692096E+04  0.50400001928E-02 0. -1.
        1   -1    0    0  501    0  0.00000000000E+00  0.00000000000E+00 -0.14460346871E+04  0.14460346871E+04  0.50400001928E-02 0.  1.
    10030    2    1    2    0    0  0.00000000000E+00  0.00000000000E+00 -0.91165477497E+02  0.28009038967E+04  0.27994198496E+04 0.  0.
        3    1    3    3  502    0 -0.89936678236E+01  0.12734917316E+04 -0.62668817867E+03  0.14193661121E+04  0.10100000352E+00 0.  1.
       -3    1    3    3    0  502  0.89936678236E+01 -0.12734917316E+04  0.53552270117E+03  0.13815377846E+04  0.10100000352E+00 0. -1.
</event>
<event>
 5   0  0.3167616E-06  0.2796065E+04  0.7818609E-02  0.8304491E-01
        2   -1    0    0  501    0  0.00000000000E+00  0.00000000000E+00  0.21817249083E+04  0.21817249083E+04  0.25500000920E-02 0. -1.
       -2   -1    0    0    0  501  0.00000000000E+00  0.00000000000E+00 -0.89584874779E+03  0.89584874780E+03  0.25500000920E-02 0.  1.
    10030    2    1    2    0    0  0.00000000000E+00  0.00000000000E+00  0.12858761605E+04  0.30775736561E+04  0.27960654693E+04 0.  0.
        3    1    3    3  502    0  0.85199218346E+02 -0.13001400047E+03 -0.88630749958E+03  0.89983528556E+03  0.10100000352E+00 0.  1.
       -3    1    3    3    0  502 -0.85199218346E+02  0.13001400047E+03  0.21721836601E+04  0.21777383705E+04  0.10100000352E+00 0. -1.
</event>
<event>
 5   0  0.3212679E-06  0.2819396E+04  0.7818609E-02  0.8297272E-01
       -2   -1    0    0    0  501  0.00000000000E+00  0.00000000000E+00  0.16293984529E+04  0.16293984529E+04  0.25500000920E-02 0. -1.
        2   -1    0    0  501    0  0.00000000000E+00  0.00000000000E+00 -0.12196212717E+04  0.12196212717E+04  0.25500000920E-02 0.  1.
    10030    2    1    2    0    0  0.00000000000E+00  0.00000000000E+00  0.40977718122E+03  0.28490197246E+04  0.28193963986E+04 0.  0.
        4    1    3    3  502    0  0.81313332711E+03  0.10407030586E+04 -0.29323983231E+03  0.13528635836E+04  0.12699999809E+01 0.  1.
       -4    1    3    3    0  502 -0.81313332711E+03 -0.10407030586E+04  0.70301701353E+03  0.14961561409E+04  0.12699999809E+01 0. -1.
</event>
<event>
 5   0  0.3212679E-06  0.2803175E+04  0.7818609E-02  0.8302283E-01
        2   -1    0    0  501    0  0.00000000000E+00  0.00000000000E+00  0.12778847607E+04  0.12778847608E+04  0.25500000920E-02 0.  1.
       -2   -1    0    0    0  501  0.00000000000E+00  0.00000000000E+00 -0.15372650542E+04  0.15372650542E+04  0.25500000920E-02 0. -1.
    10030    2    1    2    0    0  0.00000000000E+00  0.00000000000E+00 -0.25938029345E+03  0.28151498150E+04  0.28031750470E+04 0.  0.
        4    1    3    3  502    0 -0.39076121632E+02 -0.31313655677E+03 -0.15011242261E+04  0.15339351360E+04  0.12699999809E+01 0. -1.
       -4    1    3    3    0  502  0.39076121632E+02  0.31313655677E+03  0.12417439326E+04  0.12812146790E+04  0.12699999809E+01 0.  1.
</event>
<event>
 5   0  0.1246044E-06  0.2902444E+04  0.7818609E-02  0.8272151E-01
        1   -1    0    0  501    0  0.00000000000E+00  0.00000000000E+00  0.10826105001E+04  0.10826105001E+04  0.50400001928E-02 0. -1.
       -1   -1    0    0    0  501  0.00000000000E+00  0.00000000000E+00 -0.19453396883E+04  0.19453396883E+04  0.50400001928E-02 0.  1.
    10030    2    1    2    0    0  0.00000000000E+00  0.00000000000E+00 -0.86272918816E+03  0.30279501884E+04  0.29024439170E+04 0.  0.
        2    1    3    3  502    0 -0.43698895907E+03  0.11514224165E+04 -0.12322264715E+04  0.17421581469E+04  0.25500000920E-02 0.  1.
       -2    1    3    3    0  502  0.43698895907E+03 -0.11514224165E+04  0.36949728333E+03  0.12857920415E+04  0.25500000920E-02 0. -1.
</event>
<event>
 5   0  0.3162695E-06  0.2796477E+04  0.7818609E-02  0.8304363E-01
        2   -1    0    0  501    0  0.00000000000E+00  0.00000000000E+00  0.11285467443E+04  0.11285467443E+04  0.25500000920E-02 0.  1.
       -2   -1    0    0    0  501  0.00000000000E+00  0.00000000000E+00 -0.17323785952E+04  0.17323785952E+04  0.25500000920E-02 0. -1.
    10030    2    1    2    0    0  0.00000000000E+00  0.00000000000E+00 -0.60383185090E+03  0.28609253395E+04  0.27964765142E+04 0.  0.
        1    1    3    3  502    0  0.28290010343E+03  0.13486607789E+04 -0.59490919285E+02  0.13792960286E+04  0.50400001928E-02 0. -1.
       -1    1    3    3    0  502 -0.28290010343E+03 -0.13486607789E+04 -0.54434093161E+03  0.14816293109E+04  0.50400001928E-02 0.  1.
</event>
<event>
 5   0  0.1235252E-06  0.2803979E+04  0.7818609E-02  0.8302034E-01
        1   -1    0    0  501    0  0.00000000000E+00  0.00000000000E+00  0.11405984850E+04  0.11405984851E+04  0.50400001928E-02 0.  1.
       -1   -1    0    0    0  501  0.00000000000E+00  0.00000000000E+00 -0.17232829823E+04  0.17232829823E+04  0.50400001928E-02 0. -1.
    10030    2    1    2    0    0  0.00000000000E+00  0.00000000000E+00 -0.58268449729E+03  0.28638814674E+04  0.28039785726E+04 0.  0.
        1    1    3    3  502    0 -0.40243910020E+03 -0.92941059199E+03  0.69880776758E+03  0.12304850970E+04  0.50400001928E-02 0.  1.
       -1    1    3    3    0  502  0.40243910020E+03  0.92941059199E+03 -0.12814922649E+04  0.16333963704E+04  0.50400001928E-02 0. -1.
</event>
<event>
 5   0  0.1243055E-06  0.2808443E+04  0.7818609E-02  0.8300652E-01
       -1   -1    0    0    0  501  0.00000000000E+00  0.00000000000E+00  0.11656412821E+04  0.11656412821E+04  0.50400001928E-02 0.  1.
        1   -1    0    0  501    0  0.00000000000E+00  0.00000000000E+00 -0.16916337546E+04  0.16916337547E+04  0.50400001928E-02 0. -1.
    10030    2    1    2    0    0  0.00000000000E+00  0.00000000000E+00 -0.52599247252E+03  0.28572750368E+04  0.28084430838E+04 0.  0.
        5    1    3    3  502    0 -0.36823097450E+03  0.86949267102E+03  0.79440401621E+03  0.12339819231E+04  0.46999998093E+01 0.  1.
       -5    1    3    3    0  502  0.36823097450E+03 -0.86949267102E+03 -0.13203964887E+04  0.16232931137E+04  0.46999998093E+01 0. -1.
</event>
<event>
 5   0  0.3162695E-06  0.2800901E+04  0.7818609E-02  0.8302989E-01
       -2   -1    0    0    0  501  0.00000000000E+00  0.00000000000E+00  0.11705756591E+04  0.11705756591E+04  0.25500000920E-02 0. -1.
        2   -1    0    0  501    0  0.00000000000E+00  0.00000000000E+00 -0.16754679259E+04  0.16754679259E+04  0.25500000920E-02 0.  1.
    10030    2    1    2    0    0  0.00000000000E+00  0.00000000000E+00 -0.50489226683E+03  0.28460435850E+04  0.28009012632E+04 0.  0.
        1    1    3    3  502    0 -0.64362710682E+03 -0.96029888858E+02 -0.15125068427E+04  0.16465583930E+04  0.50400001928E-02 0.  1.
       -1    1    3    3    0  502  0.64362710682E+03  0.96029888858E+02  0.10076145759E+04  0.11994851920E+04  0.50400001928E-02 0. -1.
</event>
<event>
 5   0  0.1243055E-06  0.2809021E+04  0.7818609E-02  0.8300473E-01
       -1   -1    0    0    0  501  0.00000000000E+00  0.00000000000E+00  0.12060470693E+04  0.12060470693E+04  0.50400001928E-02 0.  1.
        1   -1    0    0  501    0  0.00000000000E+00  0.00000000000E+00 -0.16356322245E+04  0.16356322245E+04  0.50400001928E-02 0. -1.
    10030    2    1    2    0    0  0.00000000000E+00  0.00000000000E+00 -0.42958515518E+03  0.28416792937E+04  0.28090207908E+04 0.  0.
        5    1    3    3  502    0 -0.29351971563E+03 -0.11692997078E+04 -0.94373354214E+03  0.15310358319E+04  0.46999998093E+01 0.  1.
       -5    1    3    3    0  502  0.29351971563E+03  0.11692997078E+04  0.51414838696E+03  0.13106434618E+04  0.46999998093E+01 0. -1.
</event>
<event>
 5   0  0.1243055E-06  0.2785188E+04  0.7818609E-02  0.8307882E-01
        1   -1    0    0  501    0  0.00000000000E+00  0.00000000000E+00  0.24105942155E+04  0.24105942155E+04  0.50400001928E-02 0. -1.
       -1   -1    0    0    0  501  0.00000000000E+00  0.00000000000E+00 -0.80449772486E+03  0.80449772487E+03  0.50400001928E-02 0.  1.
    10030    2    1    2    0    0  0.00000000000E+00  0.00000000000E+00  0.16060964906E+04  0.32150919403E+04  0.27851876504E+04 0.  0.
        5    1    3    3  502    0 -0.13862211815E+04 -0.12915323737E+03  0.83965689979E+03  0.16258337929E+04  0.46999998093E+01 0. -1.
       -5    1    3    3    0  502  0.13862211815E+04  0.12915323737E+03  0.76643959081E+03  0.15892581474E+04  0.46999998093E+01 0.  1.
</event>
<event>
 5   0  0.1220265E-06  0.2789579E+04  0.7818609E-02  0.8306511E-01
        1   -1    0    0  501    0  0.00000000000E+00  0.00000000000E+00  0.18878808923E+04  0.18878808923E+04  0.50400001928E-02 0.  1.
       -1   -1    0    0    0  501  0.00000000000E+00  0.00000000000E+00 -0.10304875035E+04  0.10304875035E+04  0.50400001928E-02 0. -1.
    10030    2    1    2    0    0  0.00000000000E+00  0.00000000000E+00  0.85739338878E+03  0.29183683958E+04  0.27895789414E+04 0.  0.
        4    1    3    3  502    0 -0.18593665495E+02 -0.81504644971E+03  0.16126657627E+04  0.18070248794E+04  0.12699999809E+01 0.  1.
       -4    1    3    3    0  502  0.18593665495E+02  0.81504644971E+03 -0.75527237396E+03  0.11113435164E+04  0.12699999809E+01 0. -1.
</event>
<event>
 5   0  0.3226364E-06  0.2790052E+04  0.7818609E-02  0.8306363E-01
       -2   -1    0    0    0  501  0.00000000000E+00  0.00000000000E+00  0.69299133020E+03  0.69299133021E+03  0.25500000920E-02 0.  1.
        2   -1    0    0  501    0  0.00000000000E+00  0.00000000000E+00 -0.28082574579E+04  0.28082574579E+04  0.25500000920E-02 0. -1.
    10030    2    1    2    0    0  0.00000000000E+00  0.00000000000E+00 -0.21152661277E+04  0.35012487881E+04  0.27900523804E+04 0.  0.
        5    1    3    3  502    0  0.13569530280E+04  0.22747164130E+03 -0.13465640221E+04  0.19251809327E+04  0.46999998093E+01 0. -1.
       -5    1    3    3    0  502 -0.13569530280E+04 -0.22747164130E+03 -0.76870210556E+03  0.15760678554E+04  0.46999998093E+01 0.  1.
</event>
<event>
 5   0  0.3162695E-06  0.2795790E+04  0.7818609E-02  0.8304576E-01
       -2   -1    0    0    0  501  0.00000000000E+00  0.00000000000E+00  0.11730763604E+04  0.11730763604E+04  0.25500000920E-02 0.  1.
        2   -1    0    0  501    0  0.00000000000E+00  0.00000000000E+00 -0.16658001786E+04  0.16658001786E+04  0.25500000920E-02 0. -1.
    10030    2    1    2    0    0  0.00000000000E+00  0.00000000000E+00 -0.49272381823E+03  0.28388765390E+04  0.27957902716E+04 0.  0.
        1    1    3    3  502    0  0.10177853814E+04 -0.61274311417E+03  0.50172090145E+03  0.12895988018E+04  0.50400001928E-02 0.  1.
       -1    1    3    3    0  502 -0.10177853814E+04  0.61274311417E+03 -0.99444471969E+03  0.15492777372E+04  0.50400001928E-02 0. -1.
</event>
<event>
 5   0  0.1246044E-06  0.2776175E+04  0.7818609E-02  0.8310703E-01
        1   -1    0    0  501    0  0.00000000000E+00  0.00000000000E+00  0.98896806747E+03  0.98896806748E+03  0.50400001928E-02 0. -1.
       -1   -1    0    0    0  501  0.00000000000E+00  0.00000000000E+00 -0.19482799988E+04  0.19482799989E+04  0.50400001928E-02 0.  1.
    10030    2    1    2    0    0  0.00000000000E+00  0.00000000000E+00 -0.95931193138E+03  0.29372480663E+04  0.27761748543E+04 0.  0.
        2    1    3    3  502    0  0.87210320187E+03  0.15426869690E+03 -0.16105123302E+04  0.18379643063E+04  0.25500000920E-02 0.  1.
       -2    1    3    3    0  502 -0.87210320187E+03 -0.15426869690E+03  0.65120039884E+03  0.10992837600E+04  0.25500000920E-02 0. -1.
</event>
<event>
 5   0  0.1243055E-06  0.2792910E+04  0.7818609E-02  0.8305473E-01
       -1   -1    0    0    0  501  0.00000000000E+00  0.00000000000E+00  0.66206213378E+03  0.66206213380E+03  0.50400001928E-02 0.  1.
        1   -1    0    0  501    0  0.00000000000E+00  0.00000000000E+00 -0.29454726666E+04  0.29454726666E+04  0.50400001928E-02 0. -1.
    10030    2    1    2    0    0  0.00000000000E+00  0.00000000000E+00 -0.22834105328E+04  0.36075348004E+04  0.27929095357E+04 0.  0.
        5    1    3    3  502    0 -0.72548603133E+03 -0.11865027257E+04 -0.97860011491E+03  0.17005290279E+04  0.46999998093E+01 0.  1.
       -5    1    3    3    0  502  0.72548603133E+03  0.11865027257E+04 -0.13048104179E+04  0.19070057725E+04  0.46999998093E+01 0. -1.
</event>
<event>
 5   0  0.3167616E-06  0.2809544E+04  0.7818609E-02  0.8300311E-01
       -2   -1    0    0    0  501  0.00000000000E+00  0.00000000000E+00  0.99778085553E+03  0.99778085553E+03  0.25500000920E-02 0. -1.
        2   -1    0    0  501    0  0.00000000000E+00  0.00000000000E+00 -0.19777738012E+04  0.19777738012E+04  0.25500000920E-02 0.  1.
    10030    2    1    2    0    0  0.00000000000E+00  0.00000000000E+00 -0.97999294565E+03  0.29755546567E+04  0.28095443299E+04 0.  0.
        3    1    3    3  502    0 -0.62677299117E+03 -0.11989578773E+04 -0.89055084716E+03  0.16196991065E+04  0.10100000352E+00 0.  1.
       -3    1    3    3    0  502  0.62677299117E+03  0.11989578773E+04 -0.89442098490E+02  0.13558555502E+04  0.10100000352E+00 0. -1.
</event>
<event>
 5   0  0.3162695E-06  0.2800795E+04  0.7818609E-02  0.8303022E-01
       -2   -1    0    0    0  501  0.00000000000E+00  0.00000000000E+00  0.91058808210E+03  0.91058808211E+03  0.25500000920E-02 0.  1.
        2   -1    0    0  501    0  0.00000000000E+00  0.00000000000E+00 -0.21536770115E+04  0.21536770115E+04  0.25500000920E-02 0. -1.
    10030    2    1    2    0    0  0.00000000000E+00  0.00000000000E+00 -0.12430889294E+04  0.30642650936E+04  0.28007946154E+04 0.  0.
        1    1    3    3  502    0  0.61399079348E+03 -0.84752411697E+03 -0.16395768306E+04  0.19451205635E+04  0.50400001928E-02 0. -1.
       -1    1    3    3    0  502 -0.61399079348E+03  0.84752411697E+03  0.39648790119E+03  0.11191445301E+04  0.50400001928E-02 0.  1.
</event>
<event>
 5   0  0.1065675E-06  0.2808636E+04  0.7818609E-02  0.8300592E-01
       -3   -1    0    0    0  501  0.00000000000E+00  0.00000000000E+00  0.12682494408E+04  0.12682494449E+04  0.10100000352E+00 0. -1.
        3   -1    0    0  501    0  0.00000000000E+00  0.00000000000E+00 -0.15549852340E+04  0.15549852373E+04  0.10100000352E+00 0.  1.
    10030    2    1    2    0    0  0.00000000000E+00  0.00000000000E+00 -0.28673579321E+03  0.28232346822E+04  0.28086360846E+04 0.  0.
        5    1    3    3  502    0 -0.54861729031E+03  0.12294716337E+04 -0.54482536131E+03  0.14523905100E+04  0.46999998093E+01 0. -1.
       -5    1    3    3    0  502  0.54861729031E+03 -0.12294716337E+04  0.25808956810E+03  0.13708441722E+04  0.46999998093E+01 0.  1.
</event>
<event>
 5   0  0.1246044E-06  0.2806810E+04  0.7818609E-02  0.8301157E-01
        1   -1    0    0  501    0  0.00000000000E+00  0.00000000000E+00  0.17100099334E+04  0.17100099334E+04  0.50400001928E-02 0.  1.
       -1   -1    0    0    0  501  0.00000000000E+00  0.00000000000E+00 -0.11517744192E+04  0.11517744192E+04  0.50400001928E-02 0. -1.
    10030    2    1    2    0    0  0.00000000000E+00  0.00000000000E+00  0.55823551419E+03  0.28617843527E+04  0.28068100741E+04 0.  0.
        2    1    3    3  502    0  0.44489897134E+03  0.75855911841E+03  0.13942478485E+04  0.16484156314E+04  0.25500000920E-02 0.  1.
       -2    1    3    3    0  502 -0.44489897134E+03 -0.75855911841E+03 -0.83601233427E+03  0.12133687213E+04  0.25500000920E-02 0. -1.
</event>
<event>
 5   0  0.1243055E-06  0.2814772E+04  0.7818609E-02  0.8298697E-01
        1   -1    0    0  501    0  0.00000000000E+00  0.00000000000E+00  0.16109731668E+04  0.16109731668E+04  0.50400001928E-02 0.  1.
       -1   -1    0    0    0  501  0.00000000000E+00  0.00000000000E+00 -0.12295274391E+04  0.12295274391E+04  0.50400001928E-02 0. -1.
    10030    2    1    2    0    0  0.00000000000E+00  0.00000000000E+00  0.38144572771E+03  0.28405006059E+04  0.28147722553E+04 0.  0.
        5    1    3    3  502    0 -0.35913900273E+03 -0.13300434387E+04 -0.99512059417E+02  0.13812751761E+04  0.46999998093E+01 0.  1.
       -5    1    3    3    0  502  0.35913900273E+03  0.13300434387E+04  0.48095778712E+03  0.14592254298E+04  0.46999998093E+01 0. -1.
</event>
<event>
 5   0  0.1246044E-06  0.2794202E+04  0.7818609E-02  0.8305071E-01
       -1   -1    0    0    0  501  0.00000000000E+00  0.00000000000E+00  0.12671972411E+04  0.12671972411E+04  0.50400001928E-02 0.  1.
        1   -1    0    0  501    0  0.00000000000E+00  0.00000000000E+00 -0.15403214121E+04  0.15403214121E+04  0.50400001928E-02 0. -1.
    10030    2    1    2    0    0  0.00000000000E+00  0.00000000000E+00 -0.27312417099E+03  0.28075186532E+04  0.27942018852E+04 0.  0.
        2    1    3    3  502    0 -0.39107543213E+03 -0.10176598820E+04 -0.10144074565E+04  0.14891588622E+04  0.25500000920E-02 0. -1.
       -2    1    3    3    0  502  0.39107543213E+03  0.10176598820E+04  0.74128328550E+03  0.13183597910E+04  0.25500000920E-02 0.  1.
</event>
<event>
 5   0  0.1243055E-06  0.2788488E+04  0.7818609E-02  0.8306851E-01
       -1   -1    0    0    0  501  0.00000000000E+00  0.00000000000E+00  0.98284781399E+03  0.98284781401E+03  0.50400001928E-02 0. -1.
        1   -1    0    0  501    0  0.00000000000E+00  0.00000000000E+00 -0.19778402256E+04  0.19778402256E+04  0.50400001928E-02 0.  1.
    10030    2    1    2    0    0  0.00000000000E+00  0.00000000000E+00 -0.99499241162E+03  0.29606880396E+04  0.27884877208E+04 0.  0.
        5    1    3    3  502    0 -0.21423845657E+03 -0.73642853747E+03  0.73873785358E+03  0.10648853522E+04  0.46999998093E+01 0. -1.
       -5    1    3    3    0  502  0.21423845657E+03  0.73642853747E+03 -0.17337302652E+04  0.18958026874E+04  0.46999998093E+01 0.  1.
</event>
<event>
 5   0  0.1246044E-06  0.2772614E+04  0.7818609E-02  0.8311821E-01
       -1   -1    0    0    0  501  0.00000000000E+00  0.00000000000E+00  0.10457019309E+04  0.10457019309E+04  0.50400001928E-02 0.  1.
        1   -1    0    0  501    0  0.00000000000E+00  0.00000000000E+00 -0.18378533092E+04  0.18378533092E+04  0.50400001928E-02 0. -1.
    10030    2    1    2    0    0  0.00000000000E+00  0.00000000000E+00 -0.79215137834E+03  0.28835552402E+04  0.27726137518E+04 0.  0.
        2    1    3    3  502    0 -0.87838281798E+03 -0.21782848249E+03 -0.14882586082E+04  0.17418149465E+04  0.25500000920E-02 0. -1.
       -2    1    3    3    0  502  0.87838281798E+03  0.21782848249E+03  0.69610722991E+03  0.11417402937E+04  0.25500000920E-02 0.  1.
</event>
<event>
 5   0  0.3167616E-06  0.2799791E+04  0.7818609E-02  0.8303333E-01
        2   -1    0    0  501    0  0.00000000000E+00  0.00000000000E+00  0.28413930202E+04  0.28413930202E+04  0.25500000920E-02 0. -1.
       -2   -1    0    0    0  501  0.00000000000E+00  0.00000000000E+00 -0.68969943799E+03  0.68969943799E+03  0.25500000920E-02 0.  1.
    10030    2    1    2    0    0  0.00000000000E+00  0.00000000000E+00  0.21516935822E+04  0.35310924582E+04  0.27997908273E+04 0.  0.
        3    1    3    3  502    0 -0.10700267043E+03 -0.10011823098E+04 -0.15075665479E+03  0.10181076407E+04  0.10100000352E+00 0.  1.
       -3    1    3    3    0  502  0.10700267043E+03  0.10011823098E+04  0.23024502370E+04  0.25129848175E+04  0.10100000352E+00 0. -1.
</event>
<event>
 5   0  0.3345919E-06  0.2798116E+04  0.7818609E-02  0.8303854E-01
        2   -1    0    0  501    0  0.00000000000E+00  0.00000000000E+00  0.11559470779E+04  0.11559470780E+04  0.25500000920E-02 0. -1.
       -2   -1    0    0    0  501  0.00000000000E+00  0.00000000000E+00 -0.16932980155E+04  0.16932980155E+04  0.25500000920E-02 0.  1.
    10030    2    1    2    0    0  0.00000000000E+00  0.00000000000E+00 -0.53735093760E+03  0.28492450935E+04  0.27981157182E+04 0.  0.
        2    1    3    3  502    0  0.31761445036E+03  0.15747616581E+03  0.11094525341E+04  0.11647156766E+04  0.25500000920E-02 0. -1.
       -2    1    3    3    0  502 -0.31761445036E+03 -0.15747616581E+03 -0.16468034717E+04  0.16845294169E+04  0.25500000920E-02 0.  1.
</event>
<event>
 5   0  0.3162695E-06  0.2784958E+04  0.7818609E-02  0.8307953E-01
        2   -1    0    0  501    0  0.00000000000E+00  0.00000000000E+00  0.26751281650E+04  0.26751281650E+04  0.25500000920E-02 0.  1.
       -2   -1    0    0    0  501  0.00000000000E+00  0.00000000000E+00 -0.72482445266E+03  0.72482445267E+03  0.25500000920E-02 0. -1.
    10030    2    1    2    0    0  0.00000000000E+00  0.00000000000E+00  0.19503037123E+04  0.33999526177E+04  0.27849583896E+04 0.  0.
        1    1    3    3  502    0 -0.30511040007E+03 -0.41733471097E+03 -0.60332500883E+03  0.79451978170E+03  0.50400001928E-02 0. -1.
       -1    1    3    3    0  502  0.30511040007E+03  0.41733471097E+03  0.25536287211E+04  0.26054328360E+04  0.50400001928E-02 0.  1.
</event>
<event>
 5   0  0.1246044E-06  0.2782290E+04  0.7818609E-02  0.8308788E-01
       -1   -1    0    0    0  501  0.00000000000E+00  0.00000000000E+00  0.12462236664E+04  0.12462236664E+04  0.50400001928E-02 0.  1.
        1   -1    0    0  501    0  0.00000000000E+00  0.00000000000E+00 -0.15529186059E+04  0.15529186059E+04  0.50400001928E-02 0. -1.
    10030    2    1    2    0    0  0.00000000000E+00  0.00000000000E+00 -0.30669493947E+03  0.27991422724E+04  0.27822896461E+04 0.  0.
        2    1    3    3  502    0 -0.95059739607E+03 -0.66712138737E+03 -0.92388316244E+03  0.14839967833E+04  0.25500000920E-02 0. -1.
       -2    1    3    3    0  502  0.95059739607E+03  0.66712138737E+03  0.61718822297E+03  0.13151454891E+04  0.25500000920E-02 0.  1.
</event>
<event>
 5   0  0.3212679E-06  0.2748302E+04  0.7818609E-02  0.8319501E-01
       -2   -1    0    0    0  501  0.00000000000E+00  0.00000000000E+00  0.94759907272E+03  0.94759907272E+03  0.25500000920E-02 0.  1.
        2   -1    0    0  501    0  0.00000000000E+00  0.00000000000E+00 -0.19927112878E+04  0.19927112878E+04  0.25500000920E-02 0. -1.
    10030    2    1    2    0    0  0.00000000000E+00  0.00000000000E+00 -0.10451122151E+04  0.29403103605E+04  0.27483022894E+04 0.  0.
        4    1    3    3  502    0 -0.12875570585E+04  0.31255627549E+03 -0.13268613843E+03  0.13315786978E+04  0.12699999809E+01 0.  1.
       -4    1    3    3    0  502  0.12875570585E+04 -0.31255627549E+03 -0.91242607665E+03  0.16087316627E+04  0.12699999809E+01 0. -1.
</event>
<event>
 5   0  0.1235252E-06  0.2800782E+04  0.7818609E-02  0.8303025E-01
       -1   -1    0    0    0  501  0.00000000000E+00  0.00000000000E+00  0.19032302185E+04  0.19032302185E+04  0.50400001928E-02 0. -1.
        1   -1    0    0  501    0  0.00000000000E+00  0.00000000000E+00 -0.10304037620E+04  0.10304037620E+04  0.50400001928E-02 0.  1.
    10030    2    1    2    0    0  0.00000000000E+00  0.00000000000E+00  0.87282645657E+03  0.29336339805E+04  0.28007824457E+04 0.  0.
        1    1    3    3  502    0  0.91210397341E+03  0.10591608531E+04  0.52615211456E+03  0.14935164608E+04  0.50400001928E-02 0.  1.
       -1    1    3    3    0  502 -0.91210397341E+03 -0.10591608531E+04  0.34667434200E+03  0.14401175197E+04  0.50400001928E-02 0. -1.
</event>
<event>
 5   0  0.1220265E-06  0.2799085E+04  0.7818609E-02  0.8303552E-01
        1   -1    0    0  501    0  0.00000000000E+00  0.00000000000E+00  0.19215083130E+04  0.19215083130E+04  0.50400001928E-02 0.  1.
       -1   -1    0    0    0  501  0.00000000000E+00  0.00000000000E+00 -0.10193657524E+04  0.10193657524E+04  0.50400001928E-02 0. -1.
    10030    2    1    2    0    0  0.00000000000E+00  0.00000000000E+00  0.90214256056E+03  0.29408740654E+04  0.27990853987E+04 0.  0.
        4    1    3    3  502    0 -0.71027049479E+03 -0.14439091439E+03 -0.80681605083E+03  0.10845675012E+04  0.12699999809E+01 0. -1.
       -4    1    3    3    0  502  0.71027049479E+03  0.14439091439E+03  0.17089586114E+04  0.18563065642E+04  0.12699999809E+01 0.  1.
</event>
<event>
 5   0  0.3167616E-06  0.2805865E+04  0.7818609E-02  0.8301450E-01
        2   -1    0    0  501    0  0.00000000000E+00  0.00000000000E+00  0.11727968513E+04  0.11727968513E+04  0.25500000920E-02 0.  1.
       -2   -1    0    0    0  501  0.00000000000E+00  0.00000000000E+00 -0.16782276542E+04  0.16782276542E+04  0.25500000920E-02 0. -1.
    10030    2    1    2    0    0  0.00000000000E+00  0.00000000000E+00 -0.50543080290E+03  0.28510245055E+04  0.28058653629E+04 0.  0.
        3    1    3    3  502    0 -0.37807078016E+03 -0.13465590020E+04 -0.36430755593E+03  0.14452953560E+04  0.10100000352E+00 0. -1.
       -3    1    3    3    0  502  0.37807078016E+03  0.13465590020E+04 -0.14112324697E+03  0.14057291495E+04  0.10100000352E+00 0.  1.
</event>
<event>
 5   0  0.1243055E-06  0.2806736E+04  0.7818609E-02  0.8301180E-01
        1   -1    0    0  501    0  0.00000000000E+00  0.00000000000E+00  0.22661774207E+04  0.22661774207E+04  0.50400001928E-02 0. -1.
       -1   -1    0    0    0  501  0.00000000000E+00  0.00000000000E+00 -0.86905886909E+03  0.86905886910E+03  0.50400001928E-02 0.  1.
    10030    2    1    2    0    0  0.00000000000E+00  0.00000000000E+00  0.13971185516E+04  0.31352362898E+04  0.28067358881E+04 0.  0.
        5    1    3    3  502    0 -0.13089205336E+04 -0.25621076594E+03  0.21100928044E+03  0.13503569625E+04  0.46999998093E+01 0.  1.
       -5    1    3    3    0  502  0.13089205336E+04  0.25621076594E+03  0.11861092712E+04  0.17848793273E+04  0.46999998093E+01 0. -1.
</event>
<event>
 5   0  0.3167616E-06  0.2801778E+04  0.7818609E-02  0.8302716E-01
       -2   -1    0    0    0  501  0.00000000000E+00  0.00000000000E+00  0.99563710462E+03  0.99563710463E+03  0.25500000920E-02 0.  1.
        2   -1    0    0  501    0  0.00000000000E+00  0.00000000000E+00 -0.19710901073E+04  0.19710901073E+04  0.25500000920E-02 0. -1.
    10030    2    1    2    0    0  0.00000000000E+00  0.00000000000E+00 -0.97545300271E+03  0.29667272120E+04  0.28017783263E+04 0.  0.
        3    1    3    3  502    0  0.20146288602E+03 -0.75457411909E+03  0.74372087811E+03  0.10784665736E+04  0.10100000352E+00 0.  1.
       -3    1    3    3    0  502 -0.20146288602E+03  0.75457411909E+03 -0.17191738808E+04  0.18882606383E+04  0.10100000352E+00 0. -1.
</event>
<event>
 5   0  0.1220265E-06  0.2796123E+04  0.7818609E-02  0.8304473E-01
        1   -1    0    0  501    0  0.00000000000E+00  0.00000000000E+00  0.15890123113E+04  0.15890123113E+04  0.50400001928E-02 0. -1.
       -1   -1    0    0    0  501  0.00000000000E+00  0.00000000000E+00 -0.12300569294E+04  0.12300569294E+04  0.50400001928E-02 0.  1.
    10030    2    1    2    0    0  0.00000000000E+00  0.00000000000E+00  0.35895538191E+03  0.28190692406E+04  0.27961227472E+04 0.  0.
        4    1    3    3  502    0  0.78956999015E+03  0.69573241873E+03  0.11074164564E+04  0.15276901481E+04  0.12699999809E+01 0. -1.
       -4    1    3    3    0  502 -0.78956999015E+03 -0.69573241873E+03 -0.74846107445E+03  0.12913790926E+04  0.12699999809E+01 0.  1.
</event>
<event>
 5   0  0.1243055E-06  0.2780898E+04  0.7818609E-02  0.8309223E-01
       -1   -1    0    0    0  501  0.00000000000E+00  0.00000000000E+00  0.19279420093E+04  0.19279420093E+04  0.50400001928E-02 0. -1.
        1   -1    0    0  501    0  0.00000000000E+00  0.00000000000E+00 -0.10028045173E+04  0.10028045173E+04  0.50400001928E-02 0.  1.
    10030    2    1    2    0    0  0.00000000000E+00  0.00000000000E+00  0.92513749203E+03  0.29307465266E+04  0.27808983843E+04 0.  0.
        5    1    3    3  502    0 -0.67724742785E+03 -0.84074252040E+03 -0.46089825115E+03  0.11738659856E+04  0.46999998093E+01 0.  1.
       -5    1    3    3    0  502  0.67724742785E+03  0.84074252040E+03  0.13860357432E+04  0.17568805410E+04  0.46999998093E+01 0. -1.
</event>
<event>
 5   0  0.3226364E-06  0.2793785E+04  0.7818609E-02  0.8305200E-01
        2   -1    0    0  501    0  0.00000000000E+00  0.00000000000E+00  0.24174067910E+04  0.24174067910E+04  0.25500000920E-02 0.  1.
       -2   -1    0    0    0  501  0.00000000000E+00  0.00000000000E+00 -0.80719106246E+03  0.80719106247E+03  0.25500000920E-02 0. -1.
    10030    2    1    2    0    0  0.00000000000E+00  0.00000000000E+00  0.16102157286E+04  0.32245978535E+04  0.27937853576E+04 0.  0.
        5    1    3    3  502    0 -0.50221533795E+03  0.42428666739E+03 -0.61744436795E+03  0.90194182701E+03  0.46999998093E+01 0. -1.
       -5    1    3    3    0  502  0.50221533795E+03 -0.42428666739E+03  0.22276600965E+04  0.23226560265E+04  0.46999998093E+01 0.  1.
</event>
<event>
 5   0  0.1235252E-06  0.2808772E+04  0.7818609E-02  0.8300550E-01
        1   -1    0    0  501    0  0.00000000000E+00  0.00000000000E+00  0.98577653284E+03  0.98577653286E+03  0.50400001928E-02 0.  1.
       -1   -1    0    0    0  501  0.00000000000E+00  0.00000000000E+00 -0.20007584444E+04  0.20007584444E+04  0.50400001928E-02 0. -1.
    10030    2    1    2    0    0  0.00000000000E+00  0.00000000000E+00 -0.10149819115E+04  0.29865349772E+04  0.28087724880E+04 0.  0.
        1    1    3    3  502    0  0.34660028385E+03  0.13607335037E+04 -0.53294993967E+03  0.15019197925E+04  0.50400001928E-02 0. -1.
       -1    1    3    3    0  502 -0.34660028385E+03 -0.13607335037E+04 -0.48203197186E+03  0.14846151847E+04  0.50400001928E-02 0.  1.
</event>
<event>
 5   0  0.3226364E-06  0.2792491E+04  0.7818609E-02  0.8305604E-01
        2   -1    0    0  501    0  0.00000000000E+00  0.00000000000E+00  0.16360024720E+04  0.16360024720E+04  0.25500000920E-02 0. -1.
       -2   -1    0    0    0  501  0.00000000000E+00  0.00000000000E+00 -0.11916246359E+04  0.11916246359E+04  0.25500000920E-02 0.  1.
    10030    2    1    2    0    0  0.00000000000E+00  0.00000000000E+00  0.44437783605E+03  0.28276271079E+04  0.27924905372E+04 0.  0.
        5    1    3    3  502    0  0.29889491224E+03 -0.13592092880E+04  0.33625939734E+03  0.14317403848E+04  0.46999998093E+01 0.  1.
       -5    1    3    3    0  502 -0.29889491224E+03  0.13592092880E+04  0.10811843871E+03  0.13958867232E+04  0.46999998093E+01 0. -1.
</event>
<event>
 5   0  0.1246044E-06  0.2796381E+04  0.7818609E-02  0.8304393E-01
       -1   -1    0    0    0  501  0.00000000000E+00  0.00000000000E+00  0.16388199867E+04  0.16388199867E+04  0.50400001928E-02 0.  1.
        1   -1    0    0  501    0  0.00000000000E+00  0.00000000000E+00 -0.11928924687E+04  0.11928924687E+04  0.50400001928E-02 0. -1.
    10030    2    1    2    0    0  0.00000000000E+00  0.00000000000E+00  0.44592751801E+03  0.28317124554E+04  0.27963805318E+04 0.  0.
        2    1    3    3  502    0  0.12931600368E+04  0.51814176878E+03  0.10228484229E+03  0.13968521619E+04  0.25500000920E-02 0. -1.
       -2    1    3    3    0  502 -0.12931600368E+04 -0.51814176878E+03  0.34364267572E+03  0.14348602935E+04  0.25500000920E-02 0.  1.
</event>
<event>
 5   0  0.1263513E-06  0.2789055E+04  0.7818609E-02  0.8306674E-01
        1   -1    0    0  501    0  0.00000000000E+00  0.00000000000E+00  0.98178302531E+03  0.98178302533E+03  0.50400001928E-02 0.  1.
       -1   -1    0    0    0  501  0.00000000000E+00  0.00000000000E+00 -0.19807914370E+04  0.19807914370E+04  0.50400001928E-02 0. -1.
    10030    2    1    2    0    0  0.00000000000E+00  0.00000000000E+00 -0.99900841165E+03  0.29625744623E+04  0.27890553308E+04 0.  0.
        3    1    3    3  502    0 -0.13555024036E+04  0.29616042587E+03 -0.64825075670E+03  0.15314459892E+04  0.10100000352E+00 0. -1.
       -3    1    3    3    0  502  0.13555024036E+04 -0.29616042587E+03 -0.35075765495E+03  0.14311284731E+04  0.10100000352E+00 0.  1.
</event>
<event>
 5   0  0.1243055E-06  0.2794697E+04  0.7818609E-02  0.8304917E-01
        1   -1    0    0  501    0  0.00000000000E+00  0.00000000000E+00  0.16048610976E+04  0.16048610976E+04  0.50400001928E-02 0. -1.
       -1   -1    0    0    0  501  0.00000000000E+00  0.00000000000E+00 -0.12166676901E+04  0.12166676901E+04  0.50400001928E-02 0.  1.
    10030    2    1    2    0    0  0.00000000000E+00  0.00000000000E+00  0.38819340753E+03  0.28215287878E+04  0.27946968670E+04 0.  0.
        5    1    3    3  502    0 -0.60224981952E+03  0.12206945348E+03 -0.10729243136E+04  0.12364442848E+04  0.46999998093E+01 0.  1.
       -5    1    3    3    0  502  0.60224981952E+03 -0.12206945348E+03  0.14611177212E+04  0.15850845030E+04  0.46999998093E+01 0. -1.
</event>
<event>
 5   0  0.3345919E-06  0.2797478E+04  0.7818609E-02  0.8304052E-01
       -2   -1    0    0    0  501  0.00000000000E+00  0.00000000000E+00  0.14171850495E+04  0.14171850495E+04  0.25500000920E-02 0. -1.
        2   -1    0    0  501    0  0.00000000000E+00  0.00000000000E+00 -0.13805329835E+04  0.13805329835E+04  0.25500000920E-02 0.  1.
    10030    2    1    2    0    0  0.00000000000E+00  0.00000000000E+00  0.36652065925E+02  0.27977180330E+04  0.27974779388E+04 0.  0.
        2    1    3    3  502    0 -0.10786512140E+04  0.32386508657E+03 -0.81125927632E+03  0.13879908679E+04  0.25500000920E-02 0.  1.
       -2    1    3    3    0  502  0.10786512140E+04 -0.32386508657E+03  0.84791134224E+03  0.14097271651E+04  0.25500000920E-02 0. -1.
</event>
<event>
 5   0  0.3162695E-06  0.2799202E+04  0.7818609E-02  0.8303516E-01
       -2   -1    0    0    0  501  0.00000000000E+00  0.00000000000E+00  0.12167761761E+04  0.12167761761E+04  0.25500000920E-02 0.  1.
        2   -1    0    0  501    0  0.00000000000E+00  0.00000000000E+00 -0.16098959117E+04  0.16098959117E+04  0.25500000920E-02 0. -1.
    10030    2    1    2    0    0  0.00000000000E+00  0.00000000000E+00 -0.39311973562E+03  0.28266720879E+04  0.27992020230E+04 0.  0.
        1    1    3    3  502    0  0.11172417318E+04  0.45069834423E+03 -0.91595892961E+03  0.15133865486E+04  0.50400001928E-02 0. -1.
       -1    1    3    3    0  502 -0.11172417318E+04 -0.45069834423E+03  0.52283919400E+03  0.13132855392E+04  0.50400001928E-02 0.  1.
</event>
<event>
 5   0  0.1235252E-06  0.2794486E+04  0.7818609E-02  0.8304982E-01
       -1   -1    0    0    0  501  0.00000000000E+00  0.00000000000E+00  0.11267021397E+04  0.11267021397E+04  0.50400001928E-02 0.  1.
        1   -1    0    0  501    0  0.00000000000E+00  0.00000000000E+00 -0.17327456759E+04  0.17327456759E+04  0.50400001928E-02 0. -1.
    10030    2    1    2    0    0  0.00000000000E+00  0.00000000000E+00 -0.60604353628E+03  0.28594478156E+04  0.27944861857E+04 0.  0.
        1    1    3    3  502    0 -0.86894619315E+02 -0.11227682567E+04  0.54332670886E+03  0.12503452106E+04  0.50400001928E-02 0.  1.
       -1    1    3    3    0  502  0.86894619315E+02  0.11227682567E+04 -0.11493702451E+04  0.16091026050E+04  0.50400001928E-02 0. -1.
</event>
<event>
 5   0  0.1263513E-06  0.2780323E+04  0.7818609E-02  0.8309403E-01
        1   -1    0    0  501    0  0.00000000000E+00  0.00000000000E+00  0.23503206690E+04  0.23503206691E+04  0.50400001928E-02 0.  1.
       -1   -1    0    0    0  501  0.00000000000E+00  0.00000000000E+00 -0.82224923282E+03  0.82224923284E+03  0.50400001928E-02 0. -1.
    10030    2    1    2    0    0  0.00000000000E+00  0.00000000000E+00  0.15280714362E+04  0.31725699019E+04  0.27803232668E+04 0.  0.
        3    1    3    3  502    0 -0.75912673558E+03  0.96121882887E+03  0.15143198502E+04  0.19476600464E+04  0.10100000352E+00 0.  1.
       -3    1    3    3    0  502  0.75912673558E+03 -0.96121882887E+03  0.13751586034E+02  0.12249098554E+04  0.10100000352E+00 0. -1.
</event>
<event>
 5   0  0.1263513E-06  0.2797077E+04  0.7818609E-02  0.8304176E-01
        1   -1    0    0  501    0  0.00000000000E+00  0.00000000000E+00  0.20017971327E+04  0.20017971327E+04  0.50400001928E-02 0. -1.
       -1   -1    0    0    0  501  0.00000000000E+00  0.00000000000E+00 -0.97707703285E+03  0.97707703287E+03  0.50400001928E-02 0.  1.
    10030    2    1    2    0    0  0.00000000000E+00  0.00000000000E+00  0.10247200999E+04  0.29788741656E+04  0.27970770478E+04 0.  0.
        3    1    3    3  502    0  0.60752111143E+03 -0.16248372354E+03  0.18427209581E+04  0.19470756022E+04  0.10100000352E+00 0. -1.
       -3    1    3    3    0  502 -0.60752111143E+03  0.16248372354E+03 -0.81800085818E+03  0.10317985634E+04  0.10100000352E+00 0.  1.
</event>
<event>
 5   0  0.1220265E-06  0.2820729E+04  0.7818609E-02  0.8296862E-01
        1   -1    0    0  501    0  0.00000000000E+00  0.00000000000E+00  0.14093874783E+04  0.14093874783E+04  0.50400001928E-02 0. -1.
       -1   -1    0    0    0  501  0.00000000000E+00  0.00000000000E+00 -0.14113418170E+04  0.14113418170E+04  0.50400001928E-02 0.  1.
    10030    2    1    2    0    0  0.00000000000E+00  0.00000000000E+00 -0.19543386985E+01  0.28207292953E+04  0.28207286183E+04 0.  0.
        4    1    3    3  502    0 -0.54474583037E+03  0.35056171769E+03  0.12518137499E+04  0.14094966531E+04  0.12699999809E+01 0. -1.
       -4    1    3    3    0  502  0.54474583037E+03 -0.35056171769E+03 -0.12537680886E+04  0.14112326422E+04  0.12699999809E+01 0.  1.
</event>
<event>
 5   0  0.3162695E-06  0.2822572E+04  0.7818609E-02  0.8296295E-01
       -2   -1    0    0    0  501  0.00000000000E+00  0.00000000000E+00  0.16580374040E+04  0.16580374040E+04  0.25500000920E-02 0. -1.
        2   -1    0    0  501    0  0.00000000000E+00  0.00000000000E+00 -0.12012564588E+04  0.12012564588E+04  0.25500000920E-02 0.  1.
    10030    2    1    2    0    0  0.00000000000E+00  0.00000000000E+00  0.45678094519E+03  0.28592938628E+04  0.28225719764E+04 0.  0.
        1    1    3    3  502    0 -0.39060438008E+03  0.12995001636E+04  0.62132307604E+03  0.14924191174E+04  0.50400001928E-02 0. -1.
       -1    1    3    3    0  502  0.39060438008E+03 -0.12995001636E+04 -0.16454213084E+03  0.13668747455E+04  0.50400001928E-02 0.  1.
</event>
<event>
 5   0  0.3167616E-06  0.2795742E+04  0.7818609E-02  0.8304591E-01
       -2   -1    0    0    0  501  0.00000000000E+00  0.00000000000E+00  0.73965692741E+03  0.73965692741E+03  0.25500000920E-02 0.  1.
        2   -1    0    0  501    0  0.00000000000E+00  0.00000000000E+00 -0.26418243946E+04  0.26418243946E+04  0.25500000920E-02 0. -1.
    10030    2    1    2    0    0  0.00000000000E+00  0.00000000000E+00 -0.19021674672E+04  0.33814813220E+04  0.27957422731E+04 0.  0.
        3    1    3    3  502    0 -0.58936345612E+03  0.11131245217E+04 -0.21770874672E+03  0.12781989645E+04  0.10100000352E+00 0.  1.
       -3    1    3    3    0  502  0.58936345612E+03 -0.11131245217E+04 -0.16844587204E+04  0.21032823575E+04  0.10100000352E+00 0. -1.
</event>
<event>
 5   0  0.1263513E-06  0.2760994E+04  0.7818609E-02  0.8315481E-01
       -1   -1    0    0    0  501  0.00000000000E+00  0.00000000000E+00  0.83511745271E+03  0.83511745272E+03  0.50400001928E-02 0.  1.
        1   -1    0    0  501    0  0.00000000000E+00  0.00000000000E+00 -0.22820406947E+04  0.22820406947E+04  0.50400001928E-02 0. -1.
    10030    2    1    2    0    0  0.00000000000E+00  0.00000000000E+00 -0.14469232420E+04  0.31171581474E+04  0.27609940326E+04 0.  0.
        3    1    3    3  502    0  0.13274999428E+04 -0.52709757716E+02 -0.29991773608E+03  0.13619783682E+04  0.10100000352E+00 0.  1.
       -3    1    3    3    0  502 -0.13274999428E+04  0.52709757716E+02 -0.11470055059E+04  0.17551797793E+04  0.10100000352E+00 0. -1.
</event>
<event>
 5   0  0.3212679E-06  0.2804213E+04  0.7818609E-02  0.8301962E-01
       -2   -1    0    0    0  501  0.00000000000E+00  0.00000000000E+00  0.14093536045E+04  0.14093536045E+04  0.25500000920E-02 0. -1.
        2   -1    0    0  501    0  0.00000000000E+00  0.00000000000E+00 -0.13948968099E+04  0.13948968099E+04  0.25500000920E-02 0.  1.
    10030    2    1    2    0    0  0.00000000000E+00  0.00000000000E+00  0.14456794629E+02  0.28042504144E+04  0.28042131495E+04 0.  0.
        4    1    3    3  502    0  0.70713770808E+03  0.11036659227E+04  0.50500908433E+03  0.14046914235E+04  0.12699999809E+01 0.  1.
       -4    1    3    3    0  502 -0.70713770808E+03 -0.11036659227E+04 -0.49055228970E+03  0.13995589909E+04  0.12699999809E+01 0. -1.
</event>
<event>
 5   0  0.1263513E-06  0.2808013E+04  0.7818609E-02  0.8300785E-01
       -1   -1    0    0    0  501  0.00000000000E+00  0.00000000000E+00  0.24285548258E+04  0.24285548258E+04  0.50400001928E-02 0.  1.
        1   -1    0    0  501    0  0.00000000000E+00  0.00000000000E+00 -0.81169028669E+03  0.81169028671E+03  0.50400001928E-02 0. -1.
    10030    2    1    2    0    0  0.00000000000E+00  0.00000000000E+00  0.16168645391E+04  0.32402451125E+04  0.28080130789E+04 0.  0.
        3    1    3    3  502    0  0.37232081843E+03  0.74977358085E+03  0.21090741116E+04  0.22691357017E+04  0.10100000352E+00 0.  1.
       -3    1    3    3    0  502 -0.37232081843E+03 -0.74977358085E+03 -0.49220957246E+03  0.97110941083E+03  0.10100000352E+00 0. -1.
</event>
<event>
 5   0  0.1263513E-06  0.2873349E+04  0.7818609E-02  0.8280851E-01
       -1   -1    0    0    0  501  0.00000000000E+00  0.00000000000E+00  0.16411678500E+04  0.16411678500E+04  0.50400001928E-02 0. -1.
        1   -1    0    0  501    0  0.00000000000E+00  0.00000000000E+00 -0.12576611560E+04  0.12576611560E+04  0.50400001928E-02 0.  1.
    10030    2    1    2    0    0  0.00000000000E+00  0.00000000000E+00  0.38350669401E+03  0.28988290060E+04  0.28733486078E+04 0.  0.
        3    1    3    3  502    0 -0.59364174479E+03 -0.27920123119E+03 -0.10977317840E+04  0.12788193494E+04  0.10100000352E+00 0.  1.
       -3    1    3    3    0  502  0.59364174479E+03  0.27920123119E+03  0.14812384780E+04  0.16200096566E+04  0.10100000352E+00 0. -1.
</event>
<event>
 5   0  0.3226364E-06  0.2774565E+04  0.7818609E-02  0.8311209E-01
        2   -1    0    0  501    0  0.00000000000E+00  0.00000000000E+00  0.20974040814E+04  0.20974040814E+04  0.25500000920E-02 0. -1.
       -2   -1    0    0    0  501  0.00000000000E+00  0.00000000000E+00 -0.91758806291E+03  0.91758806291E+03  0.25500000920E-02 0.  1.
    10030    2    1    2    0    0  0.00000000000E+00  0.00000000000E+00  0.11798160185E+04  0.30149921443E+04  0.27745651538E+04 0.  0.
        5    1    3    3  502    0 -0.71313417170E+02  0.45513208165E+03  0.20118477465E+04  0.20639244803E+04  0.46999998093E+01 0. -1.
       -5    1    3    3    0  502  0.71313417170E+02 -0.45513208165E+03 -0.83203172799E+03  0.95106766405E+03  0.46999998093E+01 0.  1.
</event>
<event>
 5   0  0.1220265E-06  0.2797686E+04  0.7818609E-02  0.8303987E-01
        1   -1    0    0  501    0  0.00000000000E+00  0.00000000000E+00  0.16848732680E+04  0.16848732680E+04  0.50400001928E-02 0.  1.
       -1   -1    0    0    0  501  0.00000000000E+00  0.00000000000E+00 -0.11613704348E+04  0.11613704349E+04  0.50400001928E-02 0. -1.
    10030    2    1    2    0    0  0.00000000000E+00  0.00000000000E+00  0.52350283313E+03  0.28462437028E+04  0.27976861868E+04 0.  0.
        4    1    3    3  502    0 -0.75532337662E+03 -0.64062468828E+03 -0.74324369246E+03  0.12382754919E+04  0.12699999809E+01 0. -1.
       -4    1    3    3    0  502  0.75532337662E+03  0.64062468828E+03  0.12667465256E+04  0.16079682110E+04  0.12699999809E+01 0.  1.
</event>
<event>
 5   0  0.1263513E-06  0.2793910E+04  0.7818609E-02  0.8305161E-01
        1   -1    0    0  501    0  0.00000000000E+00  0.00000000000E+00  0.17328071989E+04  0.17328071989E+04  0.50400001928E-02 0. -1.
       -1   -1    0    0    0  501  0.00000000000E+00  0.00000000000E+00 -0.11261978833E+04  0.11261978833E+04  0.50400001928E-02 0.  1.
    10030    2    1    2    0    0  0.00000000000E+00  0.00000000000E+00  0.60660931557E+03  0.28590050822E+04  0.27939103776E+04 0.  0.
        3    1    3    3  502    0  0.29412614044E+03  0.62596659369E+03 -0.93870331302E+03  0.11659795380E+04  0.10100000352E+00 0.  1.
       -3    1    3    3    0  502 -0.29412614044E+03 -0.62596659369E+03  0.15453126286E+04  0.16930255442E+04  0.10100000352E+00 0. -1.
</event>
<event>
 5   0  0.3345919E-06  0.2777953E+04  0.7818609E-02  0.8310146E-01
        2   -1    0    0  501    0  0.00000000000E+00  0.00000000000E+00  0.16418782450E+04  0.16418782450E+04  0.25500000920E-02 0. -1.
       -2   -1    0    0    0  501  0.00000000000E+00  0.00000000000E+00 -0.11750295459E+04  0.11750295459E+04  0.25500000920E-02 0.  1.
    10030    2    1    2    0    0  0.00000000000E+00  0.00000000000E+00  0.46684869912E+03  0.28169077910E+04  0.27779528065E+04 0.  0.
        2    1    3    3  502    0 -0.23214612590E+03  0.13693086225E+04  0.21425096616E+03  0.14052762732E+04  0.25500000920E-02 0.  1.
       -2    1    3    3    0  502  0.23214612590E+03 -0.13693086225E+04  0.25259773296E+03  0.14116315178E+04  0.25500000920E-02 0. -1.
</event>
<event>
 5   0  0.1235252E-06  0.2799109E+04  0.7818609E-02  0.8303545E-01
        1   -1    0    0  501    0  0.00000000000E+00  0.00000000000E+00  0.13869716853E+04  0.13869716853E+04  0.50400001928E-02 0. -1.
       -1   -1    0    0    0  501  0.00000000000E+00  0.00000000000E+00 -0.14122512530E+04  0.14122512530E+04  0.50400001928E-02 0.  1.
    10030    2    1    2    0    0  0.00000000000E+00  0.00000000000E+00 -0.25279567731E+02  0.27992229383E+04  0.27991087871E+04 0.  0.
        1    1    3    3  502    0  0.74155112408E+03  0.39556764992E+03 -0.11317835703E+04  0.14097183709E+04  0.50400001928E-02 0.  1.
       -1    1    3    3    0  502 -0.74155112408E+03 -0.39556764992E+03  0.11065040025E+04  0.13895045674E+04  0.50400001928E-02 0. -1.
</event>
<event>
 5   0  0.3162695E-06  0.2782169E+04  0.7818609E-02  0.8308826E-01
        2   -1    0    0  501    0  0.00000000000E+00  0.00000000000E+00  0.20418522354E+04  0.20418522354E+04  0.25500000920E-02 0.  1.
       -2   -1    0    0    0  501  0.00000000000E+00  0.00000000000E+00 -0.94772591723E+03  0.94772591723E+03  0.25500000920E-02 0. -1.
    10030    2    1    2    0    0  0.00000000000E+00  0.00000000000E+00  0.10941263181E+04  0.29895781526E+04  0.27821691412E+04 0.  0.
        1    1    3    3  502    0  0.28651971964E+03 -0.12824694839E+04  0.10374801968E+04  0.16742719868E+04  0.50400001928E-02 0.  1.
       -1    1    3    3    0  502 -0.28651971964E+03  0.12824694839E+04  0.56646121322E+02  0.13153061658E+04  0.50400001928E-02 0. -1.
</event>
<event>
 5   0  0.1246044E-06  0.2804092E+04  0.7818609E-02  0.8301999E-01
        1   -1    0    0  501    0  0.00000000000E+00  0.00000000000E+00  0.16256006928E+04  0.16256006928E+04  0.50400001928E-02 0. -1.
       -1   -1    0    0    0  501  0.00000000000E+00  0.00000000000E+00 -0.12092348802E+04  0.12092348802E+04  0.50400001928E-02 0.  1.
    10030    2    1    2    0    0  0.00000000000E+00  0.00000000000E+00  0.41636581266E+03  0.28348355730E+04  0.28040920520E+04 0.  0.
        2    1    3    3  502    0 -0.13656624610E+04  0.74602700139E+02  0.52000180502E+03  0.14632161144E+04  0.25500000920E-02 0. -1.
       -2    1    3    3    0  502  0.13656624610E+04 -0.74602700139E+02 -0.10363599236E+03  0.13716194586E+04  0.25500000920E-02 0.  1.
</event>
<event>
 5   0  0.1220265E-06  0.2720287E+04  0.7818609E-02  0.8328452E-01
       -1   -1    0    0    0  501  0.00000000000E+00  0.00000000000E+00  0.10909932081E+04  0.10909932081E+04  0.50400001928E-02 0.  1.
        1   -1    0    0  501    0  0.00000000000E+00  0.00000000000E+00 -0.16956935217E+04  0.16956935217E+04  0.50400001928E-02 0. -1.
    10030    2    1    2    0    0  0.00000000000E+00  0.00000000000E+00 -0.60470031359E+03  0.27866867299E+04  0.27202868344E+04 0.  0.
        4    1    3    3  502    0 -0.34567676820E+03 -0.12537267026E+04 -0.71040130638E+03  0.14818888966E+04  0.12699999809E+01 0. -1.
       -4    1    3    3    0  502  0.34567676820E+03  0.12537267026E+04  0.10570099279E+03  0.13047978333E+04  0.12699999809E+01 0.  1.
</event>
<event>
 5   0  0.3167616E-06  0.2713097E+04  0.7818609E-02  0.8330768E-01
        2   -1    0    0  501    0  0.00000000000E+00  0.00000000000E+00  0.12666599319E+04  0.12666599319E+04  0.25500000920E-02 0.  1.
       -2   -1    0    0    0  501  0.00000000000E+00  0.00000000000E+00 -0.14528157693E+04  0.14528157693E+04  0.25500000920E-02 0. -1.
    10030    2    1    2    0    0  0.00000000000E+00  0.00000000000E+00 -0.18615583738E+03  0.27194757012E+04  0.27130967719E+04 0.  0.
        3    1    3    3  502    0  0.16522654510E+03  0.17228206814E+03  0.12454428440E+04  0.12681123019E+04  0.10100000352E+00 0.  1.
       -3    1    3    3    0  502 -0.16522654510E+03 -0.17228206814E+03 -0.14315986814E+04  0.14513633994E+04  0.10100000352E+00 0. -1.
</event>
<event>
 5   0  0.1263513E-06  0.2812218E+04  0.7818609E-02  0.8299485E-01
        1   -1    0    0  501    0  0.00000000000E+00  0.00000000000E+00  0.26592895697E+04  0.26592895697E+04  0.50400001928E-02 0. -1.
       -1   -1    0    0    0  501  0.00000000000E+00  0.00000000000E+00 -0.74348523064E+03  0.74348523065E+03  0.50400001928E-02 0.  1.
    10030    2    1    2    0    0  0.00000000000E+00  0.00000000000E+00  0.19158043391E+04  0.34027748004E+04  0.28122179994E+04 0.  0.
        3    1    3    3  502    0 -0.35453922878E+03 -0.59831337131E+03  0.24366081504E+04  0.25339171738E+04  0.10100000352E+00 0. -1.
       -3    1    3    3    0  502  0.35453922878E+03  0.59831337131E+03 -0.52080381135E+03  0.86885762651E+03  0.10100000352E+00 0.  1.
</event>
<event>
 5   0  0.3345919E-06  0.2790453E+04  0.7818609E-02  0.8306238E-01
       -2   -1    0    0    0  501  0.00000000000E+00  0.00000000000E+00  0.13686246864E+04  0.13686246864E+04  0.25500000920E-02 0. -1.
        2   -1    0    0  501    0  0.00000000000E+00  0.00000000000E+00 -0.14223452215E+04  0.14223452215E+04  0.25500000920E-02 0.  1.
    10030    2    1    2    0    0  0.00000000000E+00  0.00000000000E+00 -0.53720535093E+02  0.27909699080E+04  0.27904528541E+04 0.  0.
        2    1    3    3  502    0  0.80549332569E+03 -0.11167006613E+04  0.19860758398E+03  0.13911451531E+04  0.25500000920E-02 0. -1.
       -2    1    3    3    0  502 -0.80549332569E+03  0.11167006613E+04 -0.25232811907E+03  0.13998247548E+04  0.25500000920E-02 0.  1.
</event>
<event>
 5   0  0.3167616E-06  0.2805502E+04  0.7818609E-02  0.8301562E-01
       -2   -1    0    0    0  501  0.00000000000E+00  0.00000000000E+00  0.11241391047E+04  0.11241391047E+04  0.25500000920E-02 0. -1.
        2   -1    0    0  501    0  0.00000000000E+00  0.00000000000E+00 -0.17504155279E+04  0.17504155279E+04  0.25500000920E-02 0.  1.
    10030    2    1    2    0    0  0.00000000000E+00  0.00000000000E+00 -0.62627642318E+03  0.28745546326E+04  0.28055021257E+04 0.  0.
        3    1    3    3  502    0 -0.63285991276E+02 -0.23111796455E+03  0.11030129248E+04  0.11287418450E+04  0.10100000352E+00 0. -1.
       -3    1    3    3    0  502  0.63285991276E+02  0.23111796455E+03 -0.17292893479E+04  0.17458127876E+04  0.10100000352E+00 0.  1.
</event>
<event>
 5   0  0.3345919E-06  0.2794622E+04  0.7818609E-02  0.8304940E-01
        2   -1    0    0  501    0  0.00000000000E+00  0.00000000000E+00  0.13478594904E+04  0.13478594904E+04  0.25500000920E-02 0.  1.
       -2   -1    0    0    0  501  0.00000000000E+00  0.00000000000E+00 -0.14485773384E+04  0.14485773384E+04  0.25500000920E-02 0. -1.
    10030    2    1    2    0    0  0.00000000000E+00  0.00000000000E+00 -0.10071784793E+03  0.27964368288E+04  0.27946224884E+04 0.  0.
        2    1    3    3  502    0 -0.39572533737E+03  0.36173266998E+03  0.12408390885E+04  0.13517139900E+04  0.25500000920E-02 0.  1.
       -2    1    3    3    0  502  0.39572533737E+03 -0.36173266998E+03 -0.13415569364E+04  0.14447228388E+04  0.25500000920E-02 0. -1.
</event>
<event>
 5   0  0.3212679E-06  0.2797505E+04  0.7818609E-02  0.8304043E-01
       -2   -1    0    0    0  501  0.00000000000E+00  0.00000000000E+00  0.88105999062E+03  0.88105999062E+03  0.25500000920E-02 0.  1.
        2   -1    0    0  501    0  0.00000000000E+00  0.00000000000E+00 -0.22206308390E+04  0.22206308390E+04  0.25500000920E-02 0. -1.
    10030    2    1    2    0    0  0.00000000000E+00  0.00000000000E+00 -0.13395708484E+04  0.31016908297E+04  0.27975053074E+04 0.  0.
        4    1    3    3  502    0 -0.11904904443E+04 -0.66825478947E+03 -0.33225739102E+03  0.14050724353E+04  0.12699999809E+01 0.  1.
       -4    1    3    3    0  502  0.11904904443E+04  0.66825478947E+03 -0.10073134574E+04  0.16966183943E+04  0.12699999809E+01 0. -1.
</event>
<event>
 5   0  0.1243055E-06  0.2797871E+04  0.7818609E-02  0.8303930E-01
       -1   -1    0    0    0  501  0.00000000000E+00  0.00000000000E+00  0.14650484643E+04  0.14650484643E+04  0.50400001928E-02 0. -1.
        1   -1    0    0  501    0  0.00000000000E+00  0.00000000000E+00 -0.13358055789E+04  0.13358055789E+04  0.50400001928E-02 0.  1.
    10030    2    1    2    0    0  0.00000000000E+00  0.00000000000E+00  0.12924288540E+03  0.28008540431E+04  0.27978705559E+04 0.  0.
        5    1    3    3  502    0  0.29827785617E+03  0.32475774764E+03 -0.12644088568E+04  0.13391001162E+04  0.46999998093E+01 0.  1.
       -5    1    3    3    0  502 -0.29827785617E+03 -0.32475774764E+03  0.13936517422E+04  0.14617539269E+04  0.46999998093E+01 0. -1.
</event>
<event>
 5   0  0.1235252E-06  0.2805720E+04  0.7818609E-02  0.8301495E-01
        1   -1    0    0  501    0  0.00000000000E+00  0.00000000000E+00  0.19986766894E+04  0.19986766894E+04  0.50400001928E-02 0. -1.
       -1   -1    0    0    0  501  0.00000000000E+00  0.00000000000E+00 -0.98465960980E+03  0.98465960981E+03  0.50400001928E-02 0.  1.
    10030    2    1    2    0    0  0.00000000000E+00  0.00000000000E+00  0.10140170796E+04  0.29833362992E+04  0.28057200210E+04 0.  0.
        1    1    3    3  502    0 -0.12225550357E+04 -0.50726304233E+02 -0.22257854843E+03  0.12436861274E+04  0.50400001928E-02 0.  1.
       -1    1    3    3    0  502  0.12225550357E+04  0.50726304233E+02  0.12365956280E+04  0.17396501718E+04  0.50400001928E-02 0. -1.
</event>
<event>
 5   0  0.3345919E-06  0.2800366E+04  0.7818609E-02  0.8303155E-01
       -2   -1    0    0    0  501  0.00000000000E+00  0.00000000000E+00  0.97442235550E+03  0.97442235550E+03  0.25500000920E-02 0. -1.
        2   -1    0    0  501    0  0.00000000000E+00  0.00000000000E+00 -0.20119744892E+04  0.20119744892E+04  0.25500000920E-02 0.  1.
    10030    2    1    2    0    0  0.00000000000E+00  0.00000000000E+00 -0.10375521337E+04  0.29863968447E+04  0.28003663482E+04 0.  0.
        2    1    3    3  502    0 -0.94289913284E+03 -0.58165939612E+03 -0.14318840189E+04  0.18104359341E+04  0.25500000920E-02 0. -1.
       -2    1    3    3    0  502  0.94289913284E+03  0.58165939612E+03  0.39433188514E+03  0.11759609107E+04  0.25500000920E-02 0.  1.
</event>
<event>
 5   0  0.3345919E-06  0.2739676E+04  0.7818609E-02  0.8322245E-01
       -2   -1    0    0    0  501  0.00000000000E+00  0.00000000000E+00  0.11280612709E+04  0.11280612709E+04  0.25500000920E-02 0. -1.
        2   -1    0    0  501    0  0.00000000000E+00  0.00000000000E+00 -0.16634342059E+04  0.16634342059E+04  0.25500000920E-02 0.  1.
    10030    2    1    2    0    0  0.00000000000E+00  0.00000000000E+00 -0.53537293500E+03  0.27914954768E+04  0.27396756774E+04 0.  0.
        2    1    3    3  502    0 -0.88563545774E+03 -0.21768385406E+02 -0.13322604284E+04  0.15999193341E+04  0.25500000920E-02 0.  1.
       -2    1    3    3    0  502  0.88563545774E+03  0.21768385406E+02  0.79688749341E+03  0.11915761427E+04  0.25500000920E-02 0. -1.
</event>
<event>
 5   0  0.3167616E-06  0.2797949E+04  0.7818609E-02  0.8303905E-01
        2   -1    0    0  501    0  0.00000000000E+00  0.00000000000E+00  0.15495604263E+04  0.15495604263E+04  0.25500000920E-02 0.  1.
       -2   -1    0    0    0  501  0.00000000000E+00  0.00000000000E+00 -0.12630223970E+04  0.12630223970E+04  0.25500000920E-02 0. -1.
    10030    2    1    2    0    0  0.00000000000E+00  0.00000000000E+00  0.28653802923E+03  0.28125828233E+04  0.27979489087E+04 0.  0.
        3    1    3    3  502    0 -0.25771856161E+03  0.73156798528E+01 -0.12389342982E+04  0.12654764248E+04  0.10100000352E+00 0. -1.
       -3    1    3    3    0  502  0.25771856161E+03 -0.73156798528E+01  0.15254723275E+04  0.15471063985E+04  0.10100000352E+00 0.  1.
</event>
<event>
 5   0  0.1246044E-06  0.2783382E+04  0.7818609E-02  0.8308446E-01
       -1   -1    0    0    0  501  0.00000000000E+00  0.00000000000E+00  0.11446357564E+04  0.11446357564E+04  0.50400001928E-02 0.  1.
        1   -1    0    0  501    0  0.00000000000E+00  0.00000000000E+00 -0.16920698737E+04  0.16920698737E+04  0.50400001928E-02 0. -1.
    10030    2    1    2    0    0  0.00000000000E+00  0.00000000000E+00 -0.54743411731E+03  0.28367056301E+04  0.27833818852E+04 0.  0.
        2    1    3    3  502    0  0.97895239783E+03 -0.86987224468E+03 -0.75367243689E+03  0.15109757316E+04  0.25500000920E-02 0.  1.
       -2    1    3    3    0  502 -0.97895239783E+03  0.86987224468E+03  0.20623831958E+03  0.13257298985E+04  0.25500000920E-02 0. -1.
</event>
<event>
 5   0  0.1235252E-06  0.2795766E+04  0.7818609E-02  0.8304584E-01
        1   -1    0    0  501    0  0.00000000000E+00  0.00000000000E+00  0.16711425375E+04  0.16711425375E+04  0.50400001928E-02 0. -1.
       -1   -1    0    0    0  501  0.00000000000E+00  0.00000000000E+00 -0.11693059822E+04  0.11693059823E+04  0.50400001928E-02 0.  1.
    10030    2    1    2    0    0  0.00000000000E+00  0.00000000000E+00  0.50183655528E+03  0.28404485198E+04  0.27957660606E+04 0.  0.
        1    1    3    3  502    0 -0.13035230999E+04  0.16584235228E+03 -0.23356868662E+03  0.13346274721E+04  0.50400001928E-02 0.  1.
       -1    1    3    3    0  502  0.13035230999E+04 -0.16584235228E+03  0.73540524191E+03  0.15058210477E+04  0.50400001928E-02 0. -1.
</event>
<event>
 5   0  0.3345919E-06  0.2814709E+04  0.7818609E-02  0.8298716E-01
       -2   -1    0    0    0  501  0.00000000000E+00  0.00000000000E+00  0.10840864958E+04  0.10840864958E+04  0.25500000920E-02 0.  1.
        2   -1    0    0  501    0  0.00000000000E+00  0.00000000000E+00 -0.18270189613E+04  0.18270189613E+04  0.25500000920E-02 0. -1.
    10030    2    1    2    0    0  0.00000000000E+00  0.00000000000E+00 -0.74293246554E+03  0.29111054571E+04  0.28147089252E+04 0.  0.
        2    1    3    3  502    0 -0.10126241863E+04  0.12123393067E+02  0.63929137978E+03  0.11976010135E+04  0.25500000920E-02 0.  1.
       -2    1    3    3    0  502  0.10126241863E+04 -0.12123393067E+02 -0.13822238453E+04  0.17135044435E+04  0.25500000920E-02 0. -1.
</event>
<event>
 5   0  0.3226364E-06  0.2798117E+04  0.7818609E-02  0.8303853E-01
       -2   -1    0    0    0  501  0.00000000000E+00  0.00000000000E+00  0.10063400474E+04  0.10063400474E+04  0.25500000920E-02 0. -1.
        2   -1    0    0  501    0  0.00000000000E+00  0.00000000000E+00 -0.19450328656E+04  0.19450328656E+04  0.25500000920E-02 0.  1.
    10030    2    1    2    0    0  0.00000000000E+00  0.00000000000E+00 -0.93869281818E+03  0.29513729130E+04  0.27981168425E+04 0.  0.
        5    1    3    3  502    0  0.12929071651E+04  0.20809217880E+03  0.49994331363E+02  0.13105086096E+04  0.46999998093E+01 0.  1.
       -5    1    3    3    0  502 -0.12929071651E+04 -0.20809217880E+03 -0.98868714955E+03  0.16408643034E+04  0.46999998093E+01 0. -1.
</event>
<event>
 5   0  0.1246044E-06  0.2732697E+04  0.7818609E-02  0.8324473E-01
       -1   -1    0    0    0  501  0.00000000000E+00  0.00000000000E+00  0.80512876501E+03  0.80512876502E+03  0.50400001928E-02 0.  1.
        1   -1    0    0  501    0  0.00000000000E+00  0.00000000000E+00 -0.23187705166E+04  0.23187705166E+04  0.50400001928E-02 0. -1.
    10030    2    1    2    0    0  0.00000000000E+00  0.00000000000E+00 -0.15136417516E+04  0.31238992816E+04  0.27326974530E+04 0.  0.
        2    1    3    3  502    0 -0.12646198022E+04 -0.43126549974E+03 -0.10834828907E+04  0.17202291562E+04  0.25500000920E-02 0. -1.
       -2    1    3    3    0  502  0.12646198022E+04  0.43126549974E+03 -0.43015886095E+03  0.14036701255E+04  0.25500000920E-02 0.  1.
</event>
<event>
 5   0  0.1243055E-06  0.2766890E+04  0.7818609E-02  0.8313622E-01
        1   -1    0    0  501    0  0.00000000000E+00  0.00000000000E+00  0.15912247625E+04  0.15912247625E+04  0.50400001928E-02 0. -1.
       -1   -1    0    0    0  501  0.00000000000E+00  0.00000000000E+00 -0.12027969857E+04  0.12027969857E+04  0.50400001928E-02 0.  1.
    10030    2    1    2    0    0  0.00000000000E+00  0.00000000000E+00  0.38842777677E+03  0.27940217482E+04  0.27668902023E+04 0.  0.
        5    1    3    3  502    0  0.56619141776E+03  0.43595991639E+02  0.14681009737E+04  0.15741079667E+04  0.46999998093E+01 0. -1.
       -5    1    3    3    0  502 -0.56619141776E+03 -0.43595991639E+02 -0.10796731969E+04  0.12199137814E+04  0.46999998093E+01 0.  1.
</event>
<event>
 5   0  0.3212679E-06  0.2806395E+04  0.7818609E-02  0.8301286E-01
        2   -1    0    0  501    0  0.00000000000E+00  0.00000000000E+00  0.10170826538E+04  0.10170826538E+04  0.25500000920E-02 0. -1.
       -2   -1    0    0    0  501  0.00000000000E+00  0.00000000000E+00 -0.19358935003E+04  0.19358935004E+04  0.25500000920E-02 0.  1.
    10030    2    1    2    0    0  0.00000000000E+00  0.00000000000E+00 -0.91881084657E+03  0.29529761541E+04  0.28063953383E+04 0.  0.
        4    1    3    3  502    0  0.90493611827E+03 -0.86427486256E+03 -0.11274533402E+04  0.16843494481E+04  0.12699999809E+01 0.  1.
       -4    1    3    3    0  502 -0.90493611827E+03  0.86427486256E+03  0.20864249358E+03  0.12686267060E+04  0.12699999809E+01 0. -1.
</event>
<event>
 5   0  0.1263513E-06  0.2858164E+04  0.7818609E-02  0.8285435E-01
        1   -1    0    0  501    0  0.00000000000E+00  0.00000000000E+00  0.14949223218E+04  0.14949223219E+04  0.50400001928E-02 0. -1.
       -1   -1    0    0    0  501  0.00000000000E+00  0.00000000000E+00 -0.13661411106E+04  0.13661411106E+04  0.50400001928E-02 0.  1.
    10030    2    1    2    0    0  0.00000000000E+00  0.00000000000E+00  0.12878121121E+03  0.28610634325E+04  0.28581636350E+04 0.  0.
        3    1    3    3  502    0 -0.62670616979E+02 -0.14275042102E+04  0.40304717839E+02  0.14294475705E+04  0.10100000352E+00 0. -1.
       -3    1    3    3    0  502  0.62670616979E+02  0.14275042102E+04  0.88476493370E+02  0.14316158620E+04  0.10100000352E+00 0.  1.
</event>
<event>
 5   0  0.1246044E-06  0.2797617E+04  0.7818609E-02  0.8304009E-01
        1   -1    0    0  501    0  0.00000000000E+00  0.00000000000E+00  0.87566744703E+03  0.87566744704E+03  0.50400001928E-02 0. -1.
       -1   -1    0    0    0  501  0.00000000000E+00  0.00000000000E+00 -0.22344843114E+04  0.22344843114E+04  0.50400001928E-02 0.  1.
    10030    2    1    2    0    0  0.00000000000E+00  0.00000000000E+00 -0.13588168643E+04  0.31101517584E+04  0.27976169662E+04 0.  0.
        2    1    3    3  502    0 -0.79726754419E+03  0.62243159060E+03 -0.17535851570E+04  0.20243807757E+04  0.25500000920E-02 0.  1.
       -2    1    3    3    0  502  0.79726754419E+03 -0.62243159060E+03  0.39476829269E+03  0.10857709827E+04  0.25500000920E-02 0. -1.
</event>
<event>
 5   0  0.3345919E-06  0.2801115E+04  0.7818609E-02  0.8302922E-01
        2   -1    0    0  501    0  0.00000000000E+00  0.00000000000E+00  0.15924509301E+04  0.15924509301E+04  0.25500000920E-02 0. -1.
       -2   -1    0    0    0  501  0.00000000000E+00  0.00000000000E+00 -0.12317879358E+04  0.12317879358E+04  0.25500000920E-02 0.  1.
    10030    2    1    2    0    0  0.00000000000E+00  0.00000000000E+00  0.36066299434E+03  0.28242388659E+04  0.28011153807E+04 0.  0.
        2    1    3    3  502    0 -0.14987468213E+03  0.13879138455E+04  0.29437839186E+03  0.14266835320E+04  0.25500000920E-02 0. -1.
       -2    1    3    3    0  502  0.14987468213E+03 -0.13879138455E+04  0.66284602473E+02  0.13975553339E+04  0.25500000920E-02 0.  1.
</event>
<event>
 5   0  0.3226364E-06  0.2780585E+04  0.7818609E-02  0.8309321E-01
       -2   -1    0    0    0  501  0.00000000000E+00  0.00000000000E+00  0.15236632047E+04  0.15236632047E+04  0.25500000920E-02 0.  1.
        2   -1    0    0  501    0  0.00000000000E+00  0.00000000000E+00 -0.12685958884E+04  0.12685958884E+04  0.25500000920E-02 0. -1.
    10030    2    1    2    0    0  0.00000000000E+00  0.00000000000E+00  0.25506731631E+03  0.27922590932E+04  0.27805847420E+04 0.  0.
        5    1    3    3  502    0  0.82970121200E+03  0.50663121260E+03 -0.87052626639E+03  0.13049587569E+04  0.46999998093E+01 0. -1.
       -5    1    3    3    0  502 -0.82970121200E+03 -0.50663121260E+03  0.11255935827E+04  0.14873003362E+04  0.46999998093E+01 0.  1.
</event>
<event>
 5   0  0.1220265E-06  0.2799037E+04  0.7818609E-02  0.8303567E-01
        1   -1    0    0  501    0  0.00000000000E+00  0.00000000000E+00  0.22177619386E+04  0.22177619386E+04  0.50400001928E-02 0.  1.
       -1   -1    0    0    0  501  0.00000000000E+00  0.00000000000E+00 -0.88316605564E+03  0.88316605566E+03  0.50400001928E-02 0. -1.
    10030    2    1    2    0    0  0.00000000000E+00  0.00000000000E+00  0.13345958830E+04  0.31009279943E+04  0.27990370228E+04 0.  0.
        4    1    3    3  502    0  0.18163180846E+03  0.88446700122E+03  0.18519151635E+04  0.20603066218E+04  0.12699999809E+01 0.  1.
       -4    1    3    3    0  502 -0.18163180846E+03 -0.88446700122E+03 -0.51731928049E+03  0.10406213725E+04  0.12699999809E+01 0. -1.
</event>
<event>
 5   0  0.3226364E-06  0.2795840E+04  0.7818609E-02  0.8304561E-01
       -2   -1    0    0    0  501  0.00000000000E+00  0.00000000000E+00  0.83807526342E+03  0.83807526343E+03  0.25500000920E-02 0. -1.
        2   -1    0    0  501    0  0.00000000000E+00  0.00000000000E+00 -0.23317486148E+04  0.23317486148E+04  0.25500000920E-02 0.  1.
    10030    2    1    2    0    0  0.00000000000E+00  0.00000000000E+00 -0.14936733513E+04  0.31698238782E+04  0.27958403635E+04 0.  0.
        5    1    3    3  502    0  0.79668482926E+03  0.19750503953E+03 -0.20297668525E+04  0.21894498221E+04  0.46999998093E+01 0.  1.
       -5    1    3    3    0  502 -0.79668482926E+03 -0.19750503953E+03  0.53609350120E+03  0.98037405609E+03  0.46999998093E+01 0. -1.
</event>
<event>
 5   0  0.1263513E-06  0.2803176E+04  0.7818609E-02  0.8302283E-01
       -1   -1    0    0    0  501  0.00000000000E+00  0.00000000000E+00  0.76970129989E+03  0.76970129991E+03  0.50400001928E-02 0. -1.
        1   -1    0    0  501    0  0.00000000000E+00  0.00000000000E+00 -0.25522229262E+04  0.25522229262E+04  0.50400001928E-02 0.  1.
    10030    2    1    2    0    0  0.00000000000E+00  0.00000000000E+00 -0.17825216263E+04  0.33219242261E+04  0.28031762727E+04 0.  0.
        3    1    3    3  502    0  0.12634382524E+04  0.60057952178E+03 -0.78878718204E+03  0.16059754694E+04  0.10100000352E+00 0.  1.
       -3    1    3    3    0  502 -0.12634382524E+04 -0.60057952178E+03 -0.99373444422E+03  0.17159487567E+04  0.10100000352E+00 0. -1.
</event>
<event>
 5   0  0.3345919E-06  0.2798207E+04  0.7818609E-02  0.8303825E-01
       -2   -1    0    0    0  501  0.00000000000E+00  0.00000000000E+00  0.12056552733E+04  0.12056552733E+04  0.25500000920E-02 0. -1.
        2   -1    0    0  501    0  0.00000000000E+00  0.00000000000E+00 -0.16235906705E+04  0.16235906705E+04  0.25500000920E-02 0.  1.
    10030    2    1    2    0    0  0.00000000000E+00  0.00000000000E+00 -0.41793539713E+03  0.28292459438E+04  0.27982070356E+04 0.  0.
        2    1    3    3  502    0  0.56807857929E+03  0.67756556638E+03  0.88734853474E+03  0.12526754532E+04  0.25500000920E-02 0. -1.
       -2    1    3    3    0  502 -0.56807857929E+03 -0.67756556638E+03 -0.13052839319E+04  0.15765704906E+04  0.25500000920E-02 0.  1.
</event>
<event>
 5   0  0.3167616E-06  0.2613851E+04  0.7818609E-02  0.8363511E-01
       -2   -1    0    0    0  501  0.00000000000E+00  0.00000000000E+00  0.71490215802E+03  0.71490215802E+03  0.25500000920E-02 0.  1.
        2   -1    0    0  501    0  0.00000000000E+00  0.00000000000E+00 -0.23892145825E+04  0.23892145825E+04  0.25500000920E-02 0. -1.
    10030    2    1    2    0    0  0.00000000000E+00  0.00000000000E+00 -0.16743124245E+04  0.31041167405E+04  0.26138513049E+04 0.  0.
        3    1    3    3  502    0 -0.26271230967E+03  0.79793828328E+02 -0.23545781299E+04  0.23705322172E+04  0.10100000352E+00 0. -1.
       -3    1    3    3    0  502  0.26271230967E+03 -0.79793828328E+02  0.68026570543E+03  0.73358452333E+03  0.10100000352E+00 0.  1.
</event>
<event>
 5   0  0.3162695E-06  0.2798033E+04  0.7818609E-02  0.8303879E-01
       -2   -1    0    0    0  501  0.00000000000E+00  0.00000000000E+00  0.95176232858E+03  0.95176232858E+03  0.25500000920E-02 0.  1.
        2   -1    0    0  501    0  0.00000000000E+00  0.00000000000E+00 -0.20564446179E+04  0.20564446179E+04  0.25500000920E-02 0. -1.
    10030    2    1    2    0    0  0.00000000000E+00  0.00000000000E+00 -0.11046822893E+04  0.30082069464E+04  0.27980325360E+04 0.  0.
        1    1    3    3  502    0 -0.35928817830E+03 -0.13023205135E+04 -0.16155522394E+03  0.13605979587E+04  0.50400001928E-02 0. -1.
       -1    1    3    3    0  502  0.35928817830E+03  0.13023205135E+04 -0.94312706533E+03  0.16476089877E+04  0.50400001928E-02 0.  1.
</event>
<event>
 5   0  0.1235252E-06  0.2799523E+04  0.7818609E-02  0.8303417E-01
       -1   -1    0    0    0  501  0.00000000000E+00  0.00000000000E+00  0.99955878470E+03  0.99955878471E+03  0.50400001928E-02 0. -1.
        1   -1    0    0  501    0  0.00000000000E+00  0.00000000000E+00 -0.19601965982E+04  0.19601965982E+04  0.50400001928E-02 0.  1.
    10030    2    1    2    0    0  0.00000000000E+00  0.00000000000E+00 -0.96063781348E+03  0.29597553829E+04  0.27995226232E+04 0.  0.
        1    1    3    3  502    0 -0.13586579143E+04 -0.19161206084E+02 -0.83573453368E+03  0.15952337417E+04  0.50400001928E-02 0.  1.
       -1    1    3    3    0  502  0.13586579143E+04  0.19161206084E+02 -0.12490327980E+03  0.13645216412E+04  0.50400001928E-02 0. -1.
</event>
<event>
 5   0  0.3167616E-06  0.2790358E+04  0.7818609E-02  0.8306268E-01
       -2   -1    0    0    0  501  0.00000000000E+00  0.00000000000E+00  0.10853036037E+04  0.10853036037E+04  0.25500000920E-02 0. -1.
        2   -1    0    0  501    0  0.00000000000E+00  0.00000000000E+00 -0.17935299091E+04  0.17935299091E+04  0.25500000920E-02 0.  1.
    10030    2    1    2    0    0  0.00000000000E+00  0.00000000000E+00 -0.70822630546E+03  0.28788335128E+04  0.27903580227E+04 0.  0.
        3    1    3    3  502    0  0.12958842317E+03  0.45903460041E+00  0.10790809653E+04  0.10868344446E+04  0.10100000352E+00 0. -1.
       -3    1    3    3    0  502 -0.12958842317E+03 -0.45903460041E+00 -0.17873072708E+04  0.17919990682E+04  0.10100000352E+00 0.  1.
</event>
<event>
 5   0  0.1220265E-06  0.2801563E+04  0.7818609E-02  0.8302783E-01
       -1   -1    0    0    0  501  0.00000000000E+00  0.00000000000E+00  0.84496322347E+03  0.84496322348E+03  0.50400001928E-02 0.  1.
        1   -1    0    0  501    0  0.00000000000E+00  0.00000000000E+00 -0.23222187959E+04  0.23222187959E+04  0.50400001928E-02 0. -1.
    10030    2    1    2    0    0  0.00000000000E+00  0.00000000000E+00 -0.14772555724E+04  0.31671820194E+04  0.28015634773E+04 0.  0.
        4    1    3    3  502    0 -0.31457807409E+03  0.92883856809E+03  0.39215287213E+03  0.10561656775E+04  0.12699999809E+01 0.  1.
       -4    1    3    3    0  502  0.31457807409E+03 -0.92883856809E+03 -0.18694084445E+04  0.21110163419E+04  0.12699999809E+01 0. -1.
</event>
<event>
 5   0  0.3226364E-06  0.2773364E+04  0.7818609E-02  0.8311586E-01
        2   -1    0    0  501    0  0.00000000000E+00  0.00000000000E+00  0.75842698521E+03  0.75842698522E+03  0.25500000920E-02 0. -1.
       -2   -1    0    0    0  501  0.00000000000E+00  0.00000000000E+00 -0.25353617253E+04  0.25353617253E+04  0.25500000920E-02 0.  1.
    10030    2    1    2    0    0  0.00000000000E+00  0.00000000000E+00 -0.17769347401E+04  0.32937887105E+04  0.27733638418E+04 0.  0.
        5    1    3    3  502    0  0.75662844584E+03 -0.11462580572E+04 -0.11152761546E+04  0.17692532690E+04  0.46999998093E+01 0.  1.
       -5    1    3    3    0  502 -0.75662844584E+03  0.11462580572E+04 -0.66165858542E+03  0.15245354415E+04  0.46999998093E+01 0. -1.
</event>
<event>
 5   0  0.1220265E-06  0.2808484E+04  0.7818609E-02  0.8300639E-01
        1   -1    0    0  501    0  0.00000000000E+00  0.00000000000E+00  0.15085351883E+04  0.15085351883E+04  0.50400001928E-02 0.  1.
       -1   -1    0    0    0  501  0.00000000000E+00  0.00000000000E+00 -0.13071592733E+04  0.13071592733E+04  0.50400001928E-02 0. -1.
    10030    2    1    2    0    0  0.00000000000E+00  0.00000000000E+00  0.20137591498E+03  0.28156944616E+04  0.28084841182E+04 0.  0.
        4    1    3    3  502    0  0.57317164413E+03 -0.46405937432E+03 -0.10973767926E+04  0.13221627261E+04  0.12699999809E+01 0. -1.
       -4    1    3    3    0  502 -0.57317164413E+03  0.46405937432E+03  0.12987527076E+04  0.14935317355E+04  0.12699999809E+01 0.  1.
</event>
<event>
 5   0  0.1243055E-06  0.2805033E+04  0.7818609E-02  0.8301707E-01
        1   -1    0    0  501    0  0.00000000000E+00  0.00000000000E+00  0.12598523272E+04  0.12598523272E+04  0.50400001928E-02 0. -1.
       -1   -1    0    0    0  501  0.00000000000E+00  0.00000000000E+00 -0.15613362558E+04  0.15613362558E+04  0.50400001928E-02 0.  1.
    10030    2    1    2    0    0  0.00000000000E+00  0.00000000000E+00 -0.30148392860E+03  0.28211885831E+04  0.28050334155E+04 0.  0.
        5    1    3    3  502    0 -0.51974214061E+03  0.68018004866E+02  0.11576240380E+04  0.12707768668E+04  0.46999998093E+01 0. -1.
       -5    1    3    3    0  502  0.51974214061E+03 -0.68018004866E+02 -0.14591079666E+04  0.15504117163E+04  0.46999998093E+01 0.  1.
</event>
<event>
 5   0  0.3162695E-06  0.2798229E+04  0.7818609E-02  0.8303818E-01
        2   -1    0    0  501    0  0.00000000000E+00  0.00000000000E+00  0.16813913888E+04  0.16813913888E+04  0.25500000920E-02 0.  1.
       -2   -1    0    0    0  501  0.00000000000E+00  0.00000000000E+00 -0.11642270247E+04  0.11642270247E+04  0.25500000920E-02 0. -1.
    10030    2    1    2    0    0  0.00000000000E+00  0.00000000000E+00  0.51716436403E+03  0.28456184135E+04  0.27982289356E+04 0.  0.
        1    1    3    3  502    0  0.85774652797E+03 -0.79495797562E+03  0.10395952895E+04  0.15647509882E+04  0.50400001928E-02 0.  1.
       -1    1    3    3    0  502 -0.85774652797E+03  0.79495797562E+03 -0.52243092543E+03  0.12808674253E+04  0.50400001928E-02 0. -1.
</event>
<event>
 5   0  0.3212679E-06  0.2810677E+04  0.7818609E-02  0.8299961E-01
       -2   -1    0    0    0  501  0.00000000000E+00  0.00000000000E+00  0.11324193064E+04  0.11324193064E+04  0.25500000920E-02 0.  1.
        2   -1    0    0  501    0  0.00000000000E+00  0.00000000000E+00 -0.17440320986E+04  0.17440320986E+04  0.25500000920E-02 0. -1.
    10030    2    1    2    0    0  0.00000000000E+00  0.00000000000E+00 -0.61161279217E+03  0.28764514050E+04  0.28106765160E+04 0.  0.
        4    1    3    3  502    0  0.12243084714E+04 -0.57029793457E+03  0.91614980646E+02  0.13537229720E+04  0.12699999809E+01 0.  1.
       -4    1    3    3    0  502 -0.12243084714E+04  0.57029793457E+03 -0.70322777281E+03  0.15227284330E+04  0.12699999809E+01 0. -1.
</event>
<event>
 5   0  0.3167616E-06  0.2808932E+04  0.7818609E-02  0.8300501E-01
       -2   -1    0    0    0  501  0.00000000000E+00  0.00000000000E+00  0.10780292404E+04  0.10780292404E+04  0.25500000920E-02 0.  1.
        2   -1    0    0  501    0  0.00000000000E+00  0.00000000000E+00 -0.18297501786E+04  0.18297501786E+04  0.25500000920E-02 0. -1.
    10030    2    1    2    0    0  0.00000000000E+00  0.00000000000E+00 -0.75172093821E+03  0.29077794190E+04  0.28089316084E+04 0.  0.
        3    1    3    3  502    0  0.11681769053E+04  0.31990241795E+03 -0.11119015757E+04  0.16441715127E+04  0.10100000352E+00 0. -1.
       -3    1    3    3    0  502 -0.11681769053E+04 -0.31990241795E+03  0.36018063749E+03  0.12636079063E+04  0.10100000352E+00 0.  1.
</event>
<event>
 5   0  0.1220265E-06  0.2801067E+04  0.7818609E-02  0.8302937E-01
       -1   -1    0    0    0  501  0.00000000000E+00  0.00000000000E+00  0.10659127145E+04  0.10659127145E+04  0.50400001928E-02 0.  1.
        1   -1    0    0  501    0  0.00000000000E+00  0.00000000000E+00 -0.18402018465E+04  0.18402018465E+04  0.50400001928E-02 0. -1.
    10030    2    1    2    0    0  0.00000000000E+00  0.00000000000E+00 -0.77428913199E+03  0.29061145610E+04  0.28010673290E+04 0.  0.
        4    1    3    3  502    0 -0.96705950129E+02 -0.52819745060E+03  0.95486745649E+03  0.10954990004E+04  0.12699999809E+01 0.  1.
       -4    1    3    3    0  502  0.96705950129E+02  0.52819745060E+03 -0.17291565885E+04  0.18106155605E+04  0.12699999809E+01 0. -1.
</event>
<event>
 5   0  0.1246044E-06  0.2756441E+04  0.7818609E-02  0.8316921E-01
        1   -1    0    0  501    0  0.00000000000E+00  0.00000000000E+00  0.21462916143E+04  0.21462916143E+04  0.50400001928E-02 0.  1.
       -1   -1    0    0    0  501  0.00000000000E+00  0.00000000000E+00 -0.88501125487E+03  0.88501125489E+03  0.50400001928E-02 0. -1.
    10030    2    1    2    0    0  0.00000000000E+00  0.00000000000E+00  0.12612803594E+04  0.30313028692E+04  0.27564413543E+04 0.  0.
        2    1    3    3  502    0 -0.42036327678E+03 -0.19344895214E+03  0.20583090452E+04  0.21096833666E+04  0.25500000920E-02 0.  1.
       -2    1    3    3    0  502  0.42036327678E+03  0.19344895214E+03 -0.79702868581E+03  0.92161950260E+03  0.25500000920E-02 0. -1.
</event>
<event>
 5   0  0.3226364E-06  0.2793859E+04  0.7818609E-02  0.8305177E-01
       -2   -1    0    0    0  501  0.00000000000E+00  0.00000000000E+00  0.94439091075E+03  0.94439091075E+03  0.25500000920E-02 0. -1.
        2   -1    0    0  501    0  0.00000000000E+00  0.00000000000E+00 -0.20663181098E+04  0.20663181098E+04  0.25500000920E-02 0.  1.
    10030    2    1    2    0    0  0.00000000000E+00  0.00000000000E+00 -0.11219271991E+04  0.30107090206E+04  0.27938590098E+04 0.  0.
        5    1    3    3  502    0 -0.65169369797E+03  0.12239229500E+04 -0.74351672256E+03  0.15733821120E+04  0.46999998093E+01 0. -1.
       -5    1    3    3    0  502  0.65169369797E+03 -0.12239229500E+04 -0.37841047649E+03  0.14373269086E+04  0.46999998093E+01 0.  1.
</event>
<event>
 5   0  0.1235252E-06  0.2794510E+04  0.7818609E-02  0.8304975E-01
        1   -1    0    0  501    0  0.00000000000E+00  0.00000000000E+00  0.13096028778E+04  0.13096028778E+04  0.50400001928E-02 0.  1.
       -1   -1    0    0    0  501  0.00000000000E+00  0.00000000000E+00 -0.14907739125E+04  0.14907739126E+04  0.50400001928E-02 0. -1.
    10030    2    1    2    0    0  0.00000000000E+00  0.00000000000E+00 -0.18117103475E+03  0.28003767904E+04  0.27945101940E+04 0.  0.
        1    1    3    3  502    0 -0.36388831779E+02 -0.13952765305E+04 -0.15553718931E+03  0.14043904589E+04  0.50400001928E-02 0.  1.
       -1    1    3    3    0  502  0.36388831779E+02  0.13952765305E+04 -0.25633845441E+02  0.13959863315E+04  0.50400001928E-02 0. -1.
</event>
<event>
 5   0  0.3167616E-06  0.2797267E+04  0.7818609E-02  0.8304117E-01
        2   -1    0    0  501    0  0.00000000000E+00  0.00000000000E+00  0.12713462252E+04  0.12713462252E+04  0.25500000920E-02 0.  1.
       -2   -1    0    0    0  501  0.00000000000E+00  0.00000000000E+00 -0.15386646222E+04  0.15386646222E+04  0.25500000920E-02 0. -1.
    10030    2    1    2    0    0  0.00000000000E+00  0.00000000000E+00 -0.26731839694E+03  0.28100108474E+04  0.27972668513E+04 0.  0.
        3    1    3    3  502    0  0.92405834200E+03 -0.37875721714E+03 -0.11173213160E+04  0.14985819238E+04  0.10100000352E+00 0. -1.
       -3    1    3    3    0  502 -0.92405834200E+03  0.37875721714E+03  0.85000291908E+03  0.13114289236E+04  0.10100000352E+00 0.  1.
</event>
<event>
 5   0  0.1246044E-06  0.2797716E+04  0.7818609E-02  0.8303978E-01
        1   -1    0    0  501    0  0.00000000000E+00  0.00000000000E+00  0.25540283194E+04  0.25540283194E+04  0.50400001928E-02 0.  1.
       -1   -1    0    0    0  501  0.00000000000E+00  0.00000000000E+00 -0.76616357930E+03  0.76616357932E+03  0.50400001928E-02 0. -1.
    10030    2    1    2    0    0  0.00000000000E+00  0.00000000000E+00  0.17878647401E+04  0.33201918987E+04  0.27977158389E+04 0.  0.
        2    1    3    3  502    0 -0.13153833218E+04  0.41784974894E+03  0.11644797872E+04  0.18057809586E+04  0.25500000920E-02 0.  1.
       -2    1    3    3    0  502  0.13153833218E+04 -0.41784974894E+03  0.62338495293E+03  0.15144109401E+04  0.25500000920E-02 0. -1.
</event>
<event>
 5   0  0.1220265E-06  0.2800718E+04  0.7818609E-02  0.8303046E-01
        1   -1    0    0  501    0  0.00000000000E+00  0.00000000000E+00  0.23100542469E+04  0.23100542469E+04  0.50400001928E-02 0. -1.
       -1   -1    0    0    0  501  0.00000000000E+00  0.00000000000E+00 -0.84889995581E+03  0.84889995583E+03  0.50400001928E-02 0.  1.
    10030    2    1    2    0    0  0.00000000000E+00  0.00000000000E+00  0.14611542911E+04  0.31589542028E+04  0.28007177281E+04 0.  0.
        4    1    3    3  502    0  0.67796288667E+03  0.57541543248E+03  0.19507361250E+04  0.21438539217E+04  0.12699999809E+01 0. -1.
       -4    1    3    3    0  502 -0.67796288667E+03 -0.57541543248E+03 -0.48958183383E+03  0.10151002810E+04  0.12699999809E+01 0.  1.
</event>
<event>
 5   0  0.1065675E-06  0.2799062E+04  0.7818609E-02  0.8303559E-01
       -3   -1    0    0    0  501  0.00000000000E+00  0.00000000000E+00  0.18684362531E+04  0.18684362559E+04  0.10100000352E+00 0. -1.
        3   -1    0    0  501    0  0.00000000000E+00  0.00000000000E+00 -0.10483031642E+04  0.10483031691E+04  0.10100000352E+00 0.  1.
    10030    2    1    2    0    0  0.00000000000E+00  0.00000000000E+00  0.82013308889E+03  0.29167394250E+04  0.27990624483E+04 0.  0.
        5    1    3    3  502    0  0.97133460767E+03  0.83152918642E+03  0.10029633355E+04  0.16250813057E+04  0.46999998093E+01 0. -1.
       -5    1    3    3    0  502 -0.97133460767E+03 -0.83152918642E+03 -0.18283024660E+03  0.12916581192E+04  0.46999998093E+01 0.  1.
</event>
<event>
 5   0  0.3212679E-06  0.2799097E+04  0.7818609E-02  0.8303549E-01
       -2   -1    0    0    0  501  0.00000000000E+00  0.00000000000E+00  0.10073676075E+04  0.10073676075E+04  0.25500000920E-02 0. -1.
        2   -1    0    0  501    0  0.00000000000E+00  0.00000000000E+00 -0.19444100538E+04  0.19444100538E+04  0.25500000920E-02 0.  1.
    10030    2    1    2    0    0  0.00000000000E+00  0.00000000000E+00 -0.93704244630E+03  0.29517776612E+04  0.27990967856E+04 0.  0.
        4    1    3    3  502    0  0.43363139043E+03  0.26691067322E+03  0.90621939772E+03  0.10394771282E+04  0.12699999809E+01 0. -1.
       -4    1    3    3    0  502 -0.43363139043E+03 -0.26691067322E+03 -0.18432618440E+04  0.19123005331E+04  0.12699999809E+01 0.  1.
</event>
<event>
 5   0  0.1243055E-06  0.2798354E+04  0.7818609E-02  0.8303779E-01
       -1   -1    0    0    0  501  0.00000000000E+00  0.00000000000E+00  0.11988600009E+04  0.11988600009E+04  0.50400001928E-02 0.  1.
        1   -1    0    0  501    0  0.00000000000E+00  0.00000000000E+00 -0.16329653485E+04  0.16329653485E+04  0.50400001928E-02 0. -1.
    10030    2    1    2    0    0  0.00000000000E+00  0.00000000000E+00 -0.43410534761E+03  0.28318253494E+04  0.27983544016E+04 0.  0.
        5    1    3    3  502    0 -0.26988474487E+03 -0.73254969917E+03  0.95795901070E+03  0.12357889761E+04  0.46999998093E+01 0.  1.
       -5    1    3    3    0  502  0.26988474487E+03  0.73254969917E+03 -0.13920643583E+04  0.15960363733E+04  0.46999998093E+01 0. -1.
</event>
<event>
 5   0  0.3345919E-06  0.2800174E+04  0.7818609E-02  0.8303214E-01
        2   -1    0    0  501    0  0.00000000000E+00  0.00000000000E+00  0.14995734072E+04  0.14995734072E+04  0.25500000920E-02 0.  1.
       -2   -1    0    0    0  501  0.00000000000E+00  0.00000000000E+00 -0.13072011172E+04  0.13072011172E+04  0.25500000920E-02 0. -1.
    10030    2    1    2    0    0  0.00000000000E+00  0.00000000000E+00  0.19237228994E+03  0.28067745244E+04  0.28001743040E+04 0.  0.
        2    1    3    3  502    0 -0.10306601327E+04  0.89551086022E+03 -0.21445403708E+03  0.13820964308E+04  0.25500000920E-02 0. -1.
       -2    1    3    3    0  502  0.10306601327E+04 -0.89551086022E+03  0.40682632702E+03  0.14246780936E+04  0.25500000920E-02 0.  1.
</event>
<event>
 5   0  0.1220265E-06  0.2815091E+04  0.7818609E-02  0.8298599E-01
        1   -1    0    0  501    0  0.00000000000E+00  0.00000000000E+00  0.18126280349E+04  0.18126280349E+04  0.50400001928E-02 0.  1.
       -1   -1    0    0    0  501  0.00000000000E+00  0.00000000000E+00 -0.10929896254E+04  0.10929896254E+04  0.50400001928E-02 0. -1.
    10030    2    1    2    0    0  0.00000000000E+00  0.00000000000E+00  0.71963840953E+03  0.29056176603E+04  0.28150905043E+04 0.  0.
        4    1    3    3  502    0 -0.11685570825E+04 -0.61930953128E+03  0.85709230865E+03  0.15759691587E+04  0.12699999809E+01 0. -1.
       -4    1    3    3    0  502  0.11685570825E+04  0.61930953128E+03 -0.13745389912E+03  0.13296485016E+04  0.12699999809E+01 0.  1.
</event>
<event>
 5   0  0.1235252E-06  0.2800134E+04  0.7818609E-02  0.8303227E-01
        1   -1    0    0  501    0  0.00000000000E+00  0.00000000000E+00  0.18697625718E+04  0.18697625718E+04  0.50400001928E-02 0.  1.
       -1   -1    0    0    0  501  0.00000000000E+00  0.00000000000E+00 -0.10483614893E+04  0.10483614893E+04  0.50400001928E-02 0. -1.
    10030    2    1    2    0    0  0.00000000000E+00  0.00000000000E+00  0.82140108251E+03  0.29181240612E+04  0.28001336215E+04 0.  0.
        1    1    3    3  502    0 -0.84699264226E+03 -0.85526894699E+03  0.11558875172E+04  0.16688191814E+04  0.50400001928E-02 0.  1.
       -1    1    3    3    0  502  0.84699264226E+03  0.85526894699E+03 -0.33448643466E+03  0.12493048798E+04  0.50400001928E-02 0. -1.
</event>
<event>
 5   0  0.3345919E-06  0.2794608E+04  0.7818609E-02  0.8304944E-01
        2   -1    0    0  501    0  0.00000000000E+00  0.00000000000E+00  0.17690751881E+04  0.17690751881E+04  0.25500000920E-02 0. -1.
       -2   -1    0    0    0  501  0.00000000000E+00  0.00000000000E+00 -0.11036608852E+04  0.11036608852E+04  0.25500000920E-02 0.  1.
    10030    2    1    2    0    0  0.00000000000E+00  0.00000000000E+00  0.66541430282E+03  0.28727360733E+04  0.27946084435E+04 0.  0.
        2    1    3    3  502    0  0.45897834376E+03  0.11695146738E+04  0.96138759530E+03  0.15819898232E+04  0.25500000920E-02 0. -1.
       -2    1    3    3    0  502 -0.45897834376E+03 -0.11695146738E+04 -0.29597329249E+03  0.12907462501E+04  0.25500000920E-02 0.  1.
</event>
<event>
 5   0  0.3162695E-06  0.2816704E+04  0.7818609E-02  0.8298101E-01
        2   -1    0    0  501    0  0.00000000000E+00  0.00000000000E+00  0.22061437903E+04  0.22061437903E+04  0.25500000920E-02 0. -1.
       -2   -1    0    0    0  501  0.00000000000E+00  0.00000000000E+00 -0.89905992125E+03  0.89905992126E+03  0.25500000920E-02 0.  1.
    10030    2    1    2    0    0  0.00000000000E+00  0.00000000000E+00  0.13070838691E+04  0.31052037116E+04  0.28167040756E+04 0.  0.
        1    1    3    3  502    0 -0.10169906288E+04 -0.85277940654E+03  0.13416914174E+03  0.13339805148E+04  0.50400001928E-02 0.  1.
       -1    1    3    3    0  502  0.10169906288E+04  0.85277940654E+03  0.11729147273E+04  0.17712231968E+04  0.50400001928E-02 0. -1.
</event>
<event>
 5   0  0.1246044E-06  0.2798232E+04  0.7818609E-02  0.8303817E-01
        1   -1    0    0  501    0  0.00000000000E+00  0.00000000000E+00  0.17348556578E+04  0.17348556578E+04  0.50400001928E-02 0.  1.
       -1   -1    0    0    0  501  0.00000000000E+00  0.00000000000E+00 -0.11283508093E+04  0.11283508093E+04  0.50400001928E-02 0. -1.
    10030    2    1    2    0    0  0.00000000000E+00  0.00000000000E+00  0.60650484851E+03  0.28632064671E+04  0.27982321458E+04 0.  0.
        2    1    3    3  502    0  0.97442449929E+03  0.77590606032E+03  0.95522287441E+03  0.15697082720E+04  0.25500000920E-02 0.  1.
       -2    1    3    3    0  502 -0.97442449929E+03 -0.77590606032E+03 -0.34871802591E+03  0.12934981952E+04  0.25500000920E-02 0. -1.
</event>
<event>
 5   0  0.1235252E-06  0.2794245E+04  0.7818609E-02  0.8305057E-01
        1   -1    0    0  501    0  0.00000000000E+00  0.00000000000E+00  0.14729598963E+04  0.14729598963E+04  0.50400001928E-02 0. -1.
       -1   -1    0    0    0  501  0.00000000000E+00  0.00000000000E+00 -0.13251898819E+04  0.13251898819E+04  0.50400001928E-02 0.  1.
    10030    2    1    2    0    0  0.00000000000E+00  0.00000000000E+00  0.14777001440E+03  0.27981497783E+04  0.27942451941E+04 0.  0.
        1    1    3    3  502    0 -0.10482821834E+04 -0.25028548891E+03  0.96417918670E+03  0.14460912371E+04  0.50400001928E-02 0. -1.
       -1    1    3    3    0  502  0.10482821834E+04  0.25028548891E+03 -0.81640917229E+03  0.13520585411E+04  0.50400001928E-02 0.  1.
</event>
<event>
 5   0  0.1235252E-06  0.2795597E+04  0.7818609E-02  0.8304637E-01
        1   -1    0    0  501    0  0.00000000000E+00  0.00000000000E+00  0.18261513511E+04  0.18261513512E+04  0.50400001928E-02 0.  1.
       -1   -1    0    0    0  501  0.00000000000E+00  0.00000000000E+00 -0.10699226699E+04  0.10699226699E+04  0.50400001928E-02 0. -1.
    10030    2    1    2    0    0  0.00000000000E+00  0.00000000000E+00  0.75622868126E+03  0.28960740211E+04  0.27955970591E+04 0.  0.
        1    1    3    3  502    0 -0.50964815670E+03  0.20313666398E+03 -0.95371884109E+03  0.11002660477E+04  0.50400001928E-02 0. -1.
       -1    1    3    3    0  502  0.50964815670E+03 -0.20313666398E+03  0.17099475224E+04  0.17958079733E+04  0.50400001928E-02 0.  1.
</event>
<event>
 5   0  0.3212679E-06  0.2817598E+04  0.7818609E-02  0.8297826E-01
       -2   -1    0    0    0  501  0.00000000000E+00  0.00000000000E+00  0.11648369102E+04  0.11648369102E+04  0.25500000920E-02 0.  1.
        2   -1    0    0  501    0  0.00000000000E+00  0.00000000000E+00 -0.17038564858E+04  0.17038564858E+04  0.25500000920E-02 0. -1.
    10030    2    1    2    0    0  0.00000000000E+00  0.00000000000E+00 -0.53901957554E+03  0.28686933960E+04  0.28175982143E+04 0.  0.
        4    1    3    3  502    0 -0.64553715573E+03 -0.47288907713E+03 -0.14500061146E+04  0.16561587013E+04  0.12699999809E+01 0. -1.
       -4    1    3    3    0  502  0.64553715573E+03  0.47288907713E+03  0.91098653902E+03  0.12125346947E+04  0.12699999809E+01 0.  1.
</event>
<event>
 5   0  0.1263513E-06  0.2808103E+04  0.7818609E-02  0.8300757E-01
        1   -1    0    0  501    0  0.00000000000E+00  0.00000000000E+00  0.16875788032E+04  0.16875788033E+04  0.50400001928E-02 0.  1.
       -1   -1    0    0    0  501  0.00000000000E+00  0.00000000000E+00 -0.11681588786E+04  0.11681588786E+04  0.50400001928E-02 0. -1.
    10030    2    1    2    0    0  0.00000000000E+00  0.00000000000E+00  0.51941992469E+03  0.28557376818E+04  0.28081026778E+04 0.  0.
        3    1    3    3  502    0 -0.59004814685E+03 -0.31247672222E+03  0.15157983703E+04  0.16563342740E+04  0.10100000352E+00 0.  1.
       -3    1    3    3    0  502  0.59004814685E+03  0.31247672222E+03 -0.99637844565E+03  0.11994034078E+04  0.10100000352E+00 0. -1.
</event>
<event>
 5   0  0.1235252E-06  0.2791601E+04  0.7818609E-02  0.8305881E-01
       -1   -1    0    0    0  501  0.00000000000E+00  0.00000000000E+00  0.68365267825E+03  0.68365267827E+03  0.50400001928E-02 0.  1.
        1   -1    0    0  501    0  0.00000000000E+00  0.00000000000E+00 -0.28497797630E+04  0.28497797630E+04  0.50400001928E-02 0. -1.
    10030    2    1    2    0    0  0.00000000000E+00  0.00000000000E+00 -0.21661270848E+04  0.35334324413E+04  0.27916013809E+04 0.  0.
        1    1    3    3  502    0  0.15310150579E+02 -0.13394852707E+04 -0.15794589260E+04  0.20710252751E+04  0.50400001928E-02 0. -1.
       -1    1    3    3    0  502 -0.15310150579E+02  0.13394852707E+04 -0.58666815877E+03  0.14624071662E+04  0.50400001928E-02 0.  1.
</event>
<event>
 5   0  0.1235252E-06  0.2805333E+04  0.7818609E-02  0.8301615E-01
        1   -1    0    0  501    0  0.00000000000E+00  0.00000000000E+00  0.12114261050E+04  0.12114261051E+04  0.50400001928E-02 0. -1.
       -1   -1    0    0    0  501  0.00000000000E+00  0.00000000000E+00 -0.16240967591E+04  0.16240967591E+04  0.50400001928E-02 0.  1.
    10030    2    1    2    0    0  0.00000000000E+00  0.00000000000E+00 -0.41267065407E+03  0.28355228642E+04  0.28053329294E+04 0.  0.
        1    1    3    3  502    0 -0.33190897051E+03 -0.84472467248E+03  0.87463624712E+03  0.12604411536E+04  0.50400001928E-02 0. -1.
       -1    1    3    3    0  502  0.33190897051E+03  0.84472467248E+03 -0.12873069012E+04  0.15750817105E+04  0.50400001928E-02 0.  1.
</event>
<event>
 5   0  0.3212679E-06  0.2802752E+04  0.7818609E-02  0.8302415E-01
       -2   -1    0    0    0  501  0.00000000000E+00  0.00000000000E+00  0.26548142664E+04  0.26548142664E+04  0.25500000920E-02 0. -1.
        2   -1    0    0  501    0  0.00000000000E+00  0.00000000000E+00 -0.73973322840E+03  0.73973322841E+03  0.25500000920E-02 0.  1.
    10030    2    1    2    0    0  0.00000000000E+00  0.00000000000E+00  0.19150810380E+04  0.33945474948E+04  0.28027517394E+04 0.  0.
        4    1    3    3  502    0 -0.50212209323E+03 -0.13004087426E+04  0.78344152282E+03  0.15990533847E+04  0.12699999809E+01 0. -1.
       -4    1    3    3    0  502  0.50212209323E+03  0.13004087426E+04  0.11316395152E+04  0.17954941102E+04  0.12699999809E+01 0.  1.
</event>
<event>
 5   0  0.3167616E-06  0.2803563E+04  0.7818609E-02  0.8302163E-01
       -2   -1    0    0    0  501  0.00000000000E+00  0.00000000000E+00  0.11681520203E+04  0.11681520203E+04  0.25500000920E-02 0. -1.
        2   -1    0    0  501    0  0.00000000000E+00  0.00000000000E+00 -0.16821368017E+04  0.16821368018E+04  0.25500000920E-02 0.  1.
    10030    2    1    2    0    0  0.00000000000E+00  0.00000000000E+00 -0.51398478147E+03  0.28502888220E+04  0.28035630925E+04 0.  0.
        3    1    3    3  502    0  0.83381558178E+03  0.26866951274E+03  0.85557706608E+03  0.12245178062E+04  0.10100000352E+00 0. -1.
       -3    1    3    3    0  502 -0.83381558178E+03 -0.26866951274E+03 -0.13695618475E+04  0.16257710158E+04  0.10100000352E+00 0.  1.
</event>
<event>
 5   0  0.3226364E-06  0.2805933E+04  0.7818609E-02  0.8301429E-01
        2   -1    0    0  501    0  0.00000000000E+00  0.00000000000E+00  0.19494720943E+04  0.19494720943E+04  0.25500000920E-02 0.  1.
       -2   -1    0    0    0  501  0.00000000000E+00  0.00000000000E+00 -0.10096656970E+04  0.10096656970E+04  0.25500000920E-02 0. -1.
    10030    2    1    2    0    0  0.00000000000E+00  0.00000000000E+00  0.93980639732E+03  0.29591377913E+04  0.28059330718E+04 0.  0.
        5    1    3    3  502    0  0.29457683142E+03  0.70937863573E+03  0.17080144560E+04  0.18727864348E+04  0.46999998093E+01 0.  1.
       -5    1    3    3    0  502 -0.29457683142E+03 -0.70937863573E+03 -0.76820805864E+03  0.10863513565E+04  0.46999998093E+01 0. -1.
</event>
<event>
 5   0  0.3167616E-06  0.2799585E+04  0.7818609E-02  0.8303397E-01
       -2   -1    0    0    0  501  0.00000000000E+00  0.00000000000E+00  0.14472148634E+04  0.14472148634E+04  0.25500000920E-02 0.  1.
        2   -1    0    0  501    0  0.00000000000E+00  0.00000000000E+00 -0.13539241500E+04  0.13539241500E+04  0.25500000920E-02 0. -1.
    10030    2    1    2    0    0  0.00000000000E+00  0.00000000000E+00  0.93290713466E+02  0.28011390134E+04  0.27995850791E+04 0.  0.
        3    1    3    3  502    0 -0.36144002671E+03 -0.56612173331E+03 -0.11821594584E+04  0.13596446981E+04  0.10100000352E+00 0. -1.
       -3    1    3    3    0  502  0.36144002671E+03  0.56612173331E+03  0.12754501719E+04  0.14414943153E+04  0.10100000352E+00 0.  1.
</event>
<event>
 5   0  0.1243055E-06  0.2786953E+04  0.7818609E-02  0.8307330E-01
        1   -1    0    0  501    0  0.00000000000E+00  0.00000000000E+00  0.27186485132E+04  0.27186485132E+04  0.50400001928E-02 0. -1.
       -1   -1    0    0    0  501  0.00000000000E+00  0.00000000000E+00 -0.71424356663E+03  0.71424356665E+03  0.50400001928E-02 0.  1.
    10030    2    1    2    0    0  0.00000000000E+00  0.00000000000E+00  0.20044049466E+04  0.34328920799E+04  0.27869533262E+04 0.  0.
        5    1    3    3  502    0  0.37230634739E+03  0.49629573114E+03  0.25391235288E+04  0.26138270512E+04  0.46999998093E+01 0. -1.
       -5    1    3    3    0  502 -0.37230634739E+03 -0.49629573114E+03 -0.53471858221E+03  0.81906502868E+03  0.46999998093E+01 0.  1.
</event>
<event>
 5   0  0.3226364E-06  0.2718059E+04  0.7818609E-02  0.8329169E-01
       -2   -1    0    0    0  501  0.00000000000E+00  0.00000000000E+00  0.53507209971E+03  0.53507209972E+03  0.25500000920E-02 0.  1.
        2   -1    0    0  501    0  0.00000000000E+00  0.00000000000E+00 -0.34517978811E+04  0.34517978811E+04  0.25500000920E-02 0. -1.
    10030    2    1    2    0    0  0.00000000000E+00  0.00000000000E+00 -0.29167257813E+04  0.39868699808E+04  0.27180586749E+04 0.  0.
        5    1    3    3  502    0 -0.91596618741E+03  0.11951142506E+03 -0.29205148189E+04  0.30631202939E+04  0.46999998093E+01 0. -1.
       -5    1    3    3    0  502  0.91596618741E+03 -0.11951142506E+03  0.37890376005E+01  0.92374968688E+03  0.46999998093E+01 0.  1.
</event>
<event>
 5   0  0.3345919E-06  0.2790679E+04  0.7818609E-02  0.8306168E-01
       -2   -1    0    0    0  501  0.00000000000E+00  0.00000000000E+00  0.12104412991E+04  0.12104412991E+04  0.25500000920E-02 0. -1.
        2   -1    0    0  501    0  0.00000000000E+00  0.00000000000E+00 -0.16084808839E+04  0.16084808839E+04  0.25500000920E-02 0.  1.
    10030    2    1    2    0    0  0.00000000000E+00  0.00000000000E+00 -0.39803958486E+03  0.28189221830E+04  0.27906785488E+04 0.  0.
        2    1    3    3  502    0  0.29035757072E+03  0.27290456849E+03  0.11517451247E+04  0.12187293607E+04  0.25500000920E-02 0. -1.
       -2    1    3    3    0  502 -0.29035757072E+03 -0.27290456849E+03 -0.15497847096E+04  0.16001928223E+04  0.25500000920E-02 0.  1.
</event>
<event>
 5   0  0.3226364E-06  0.2795273E+04  0.7818609E-02  0.8304737E-01
        2   -1    0    0  501    0  0.00000000000E+00  0.00000000000E+00  0.17573189453E+04  0.17573189453E+04  0.25500000920E-02 0. -1.
       -2   -1    0    0    0  501  0.00000000000E+00  0.00000000000E+00 -0.11115727463E+04  0.11115727463E+04  0.25500000920E-02 0.  1.
    10030    2    1    2    0    0  0.00000000000E+00  0.00000000000E+00  0.64574619905E+03  0.28688916916E+04  0.27952730429E+04 0.  0.
        5    1    3    3  502    0 -0.12358498280E+04  0.59686518041E+03  0.51731854782E+02  0.13734158569E+04  0.46999998093E+01 0. -1.
       -5    1    3    3    0  502  0.12358498280E+04 -0.59686518041E+03  0.59401434427E+03  0.14954758347E+04  0.46999998093E+01 0.  1.
</event>
<event>
 5   0  0.1235252E-06  0.2796315E+04  0.7818609E-02  0.8304413E-01
       -1   -1    0    0    0  501  0.00000000000E+00  0.00000000000E+00  0.89605931202E+03  0.89605931204E+03  0.50400001928E-02 0. -1.
        1   -1    0    0  501    0  0.00000000000E+00  0.00000000000E+00 -0.21816010266E+04  0.21816010266E+04  0.50400001928E-02 0.  1.
    10030    2    1    2    0    0  0.00000000000E+00  0.00000000000E+00 -0.12855417146E+04  0.30776603387E+04  0.27963146569E+04 0.  0.
        1    1    3    3  502    0  0.48755593975E+03 -0.38661465189E+03  0.73526620005E+03  0.96322275118E+03  0.50400001928E-02 0. -1.
       -1    1    3    3    0  502 -0.48755593975E+03  0.38661465189E+03 -0.20208079147E+04  0.21144375875E+04  0.50400001928E-02 0.  1.
</event>
<event>
 5   0  0.3345919E-06  0.2797857E+04  0.7818609E-02  0.8303934E-01
        2   -1    0    0  501    0  0.00000000000E+00  0.00000000000E+00  0.13042338639E+04  0.13042338639E+04  0.25500000920E-02 0. -1.
       -2   -1    0    0    0  501  0.00000000000E+00  0.00000000000E+00 -0.15004981861E+04  0.15004981861E+04  0.25500000920E-02 0.  1.
    10030    2    1    2    0    0  0.00000000000E+00  0.00000000000E+00 -0.19626432214E+03  0.28047320500E+04  0.27978567133E+04 0.  0.
        2    1    3    3  502    0  0.33083859103E+03 -0.12176231507E+03 -0.14552388926E+04  0.14973311154E+04  0.25500000920E-02 0.  1.
       -2    1    3    3    0  502 -0.33083859103E+03  0.12176231507E+03  0.12589745705E+04  0.13074009346E+04  0.25500000920E-02 0. -1.
</event>
<event>
 5   0  0.1243055E-06  0.2795246E+04  0.7818609E-02  0.8304746E-01
       -1   -1    0    0    0  501  0.00000000000E+00  0.00000000000E+00  0.10884786930E+04  0.10884786930E+04  0.50400001928E-02 0. -1.
        1   -1    0    0  501    0  0.00000000000E+00  0.00000000000E+00 -0.17945683642E+04  0.17945683642E+04  0.50400001928E-02 0.  1.
    10030    2    1    2    0    0  0.00000000000E+00  0.00000000000E+00 -0.70608967120E+03  0.28830470572E+04  0.27952455545E+04 0.  0.
        5    1    3    3  502    0  0.43829632076E+03  0.81205947229E+03 -0.14356742342E+04  0.17066712771E+04  0.46999998093E+01 0.  1.
       -5    1    3    3    0  502 -0.43829632076E+03 -0.81205947229E+03  0.72958456303E+03  0.11763757801E+04  0.46999998093E+01 0. -1.
</event>
<event>
 5   0  0.1263513E-06  0.2800363E+04  0.7818609E-02  0.8303156E-01
        1   -1    0    0  501    0  0.00000000000E+00  0.00000000000E+00  0.15153676488E+04  0.15153676488E+04  0.50400001928E-02 0. -1.
       -1   -1    0    0    0  501  0.00000000000E+00  0.00000000000E+00 -0.12937507571E+04  0.12937507571E+04  0.50400001928E-02 0.  1.
    10030    2    1    2    0    0  0.00000000000E+00  0.00000000000E+00  0.22161689165E+03  0.28091184059E+04  0.28003628643E+04 0.  0.
        3    1    3    3  502    0  0.74155161490E+03 -0.44586277217E+03 -0.99345833895E+03  0.13174414183E+04  0.10100000352E+00 0.  1.
       -3    1    3    3    0  502 -0.74155161490E+03  0.44586277217E+03  0.12150752306E+04  0.14916769876E+04  0.10100000352E+00 0. -1.
</event>
<event>
 5   0  0.3212679E-06  0.2791665E+04  0.7818609E-02  0.8305861E-01
       -2   -1    0    0    0  501  0.00000000000E+00  0.00000000000E+00  0.16279326121E+04  0.16279326121E+04  0.25500000920E-02 0. -1.
        2   -1    0    0  501    0  0.00000000000E+00  0.00000000000E+00 -0.11968238856E+04  0.11968238856E+04  0.25500000920E-02 0.  1.
    10030    2    1    2    0    0  0.00000000000E+00  0.00000000000E+00  0.43110872651E+03  0.28247564977E+04  0.27916651908E+04 0.  0.
        4    1    3    3  502    0  0.71363396054E+03 -0.11363674606E+04 -0.17337482164E+03  0.13530206491E+04  0.12699999809E+01 0. -1.
       -4    1    3    3    0  502 -0.71363396054E+03  0.11363674606E+04  0.60448354815E+03  0.14717358486E+04  0.12699999809E+01 0.  1.
</event>
<event>
 5   0  0.1243055E-06  0.2816408E+04  0.7818609E-02  0.8298192E-01
       -1   -1    0    0    0  501  0.00000000000E+00  0.00000000000E+00  0.14688761848E+04  0.14688761848E+04  0.50400001928E-02 0.  1.
        1   -1    0    0  501    0  0.00000000000E+00  0.00000000000E+00 -0.13500380233E+04  0.13500380233E+04  0.50400001928E-02 0. -1.
    10030    2    1    2    0    0  0.00000000000E+00  0.00000000000E+00  0.11883816147E+03  0.28189142082E+04  0.28164081388E+04 0.  0.
        5    1    3    3  502    0 -0.30087026387E+03 -0.13585606104E+04 -0.15712213623E+03  0.14003282842E+04  0.46999998093E+01 0.  1.
       -5    1    3    3    0  502  0.30087026387E+03  0.13585606104E+04  0.27596029771E+03  0.14185859240E+04  0.46999998093E+01 0. -1.
</event>
<event>
 5   0  0.1235252E-06  0.2800955E+04  0.7818609E-02  0.8302972E-01
       -1   -1    0    0    0  501  0.00000000000E+00  0.00000000000E+00  0.14083076205E+04  0.14083076205E+04  0.50400001928E-02 0.  1.
        1   -1    0    0  501    0  0.00000000000E+00  0.00000000000E+00 -0.13926912715E+04  0.13926912715E+04  0.50400001928E-02 0. -1.
    10030    2    1    2    0    0  0.00000000000E+00  0.00000000000E+00  0.15616349005E+02  0.28009988919E+04  0.28009553588E+04 0.  0.
        1    1    3    3  502    0  0.99003729024E+03 -0.25994678915E+03  0.96364286732E+03  0.14058284906E+04  0.50400001928E-02 0.  1.
       -1    1    3    3    0  502 -0.99003729024E+03  0.25994678915E+03 -0.94802651832E+03  0.13951704013E+04  0.50400001928E-02 0. -1.
</event>
<event>
 5   0  0.1243055E-06  0.2793674E+04  0.7818609E-02  0.8305235E-01
       -1   -1    0    0    0  501  0.00000000000E+00  0.00000000000E+00  0.15407361966E+04  0.15407361966E+04  0.50400001928E-02 0. -1.
        1   -1    0    0  501    0  0.00000000000E+00  0.00000000000E+00 -0.12663776819E+04  0.12663776819E+04  0.50400001928E-02 0.  1.
    10030    2    1    2    0    0  0.00000000000E+00  0.00000000000E+00  0.27435851471E+03  0.28071138785E+04  0.27936742351E+04 0.  0.
        5    1    3    3  502    0 -0.88633832711E+03 -0.74321147160E+03  0.92399991321E+03  0.14804583247E+04  0.46999998093E+01 0. -1.
       -5    1    3    3    0  502  0.88633832711E+03  0.74321147160E+03 -0.64964139850E+03  0.13266555537E+04  0.46999998093E+01 0.  1.
</event>
<event>
 5   0  0.3226364E-06  0.2804301E+04  0.7818609E-02  0.8301934E-01
       -2   -1    0    0    0  501  0.00000000000E+00  0.00000000000E+00  0.16659781533E+04  0.16659781533E+04  0.25500000920E-02 0. -1.
        2   -1    0    0  501    0  0.00000000000E+00  0.00000000000E+00 -0.11801033576E+04  0.11801033576E+04  0.25500000920E-02 0.  1.
    10030    2    1    2    0    0  0.00000000000E+00  0.00000000000E+00  0.48587479573E+03  0.28460815109E+04  0.28043012765E+04 0.  0.
        5    1    3    3  502    0 -0.25879440556E+03  0.34736640989E+03  0.15963595515E+04  0.16540930672E+04  0.46999998093E+01 0. -1.
       -5    1    3    3    0  502  0.25879440556E+03 -0.34736640989E+03 -0.11104847558E+04  0.11919884437E+04  0.46999998093E+01 0.  1.
</event>
<event>
 5   0  0.1235252E-06  0.2793011E+04  0.7818609E-02  0.8305441E-01
        1   -1    0    0  501    0  0.00000000000E+00  0.00000000000E+00  0.24205682457E+04  0.24205682457E+04  0.50400001928E-02 0. -1.
       -1   -1    0    0    0  501  0.00000000000E+00  0.00000000000E+00 -0.80569019004E+03  0.80569019005E+03  0.50400001928E-02 0.  1.
    10030    2    1    2    0    0  0.00000000000E+00  0.00000000000E+00  0.16148780556E+04  0.32262584357E+04  0.27930113425E+04 0.  0.
        1    1    3    3  502    0  0.45090825250E+02 -0.11726424640E+04 -0.67027892250E+02  0.11754217410E+04  0.50400001928E-02 0.  1.
       -1    1    3    3    0  502 -0.45090825250E+02  0.11726424640E+04  0.16819059479E+04  0.20508366947E+04  0.50400001928E-02 0. -1.
</event>
<event>
 5   0  0.1065675E-06  0.2736679E+04  0.7818609E-02  0.8323201E-01
        3   -1    0    0  501    0  0.00000000000E+00  0.00000000000E+00  0.14663449221E+04  0.14663449256E+04  0.10100000352E+00 0. -1.
       -3   -1    0    0    0  501  0.00000000000E+00  0.00000000000E+00 -0.12768845747E+04  0.12768845787E+04  0.10100000352E+00 0.  1.
    10030    2    1    2    0    0  0.00000000000E+00  0.00000000000E+00  0.18946034741E+03  0.27432295043E+04  0.27366791719E+04 0.  0.
        1    1    3    3  502    0 -0.12358760681E+04 -0.54482545696E+03  0.31463801739E+03  0.13868026234E+04  0.50400001928E-02 0. -1.
       -1    1    3    3    0  502  0.12358760681E+04  0.54482545696E+03 -0.12517766998E+03  0.13564268809E+04  0.50400001928E-02 0.  1.
</event>
<event>
 5   0  0.3226364E-06  0.2804377E+04  0.7818609E-02  0.8301911E-01
       -2   -1    0    0    0  501  0.00000000000E+00  0.00000000000E+00  0.12546848925E+04  0.12546848925E+04  0.25500000920E-02 0.  1.
        2   -1    0    0  501    0  0.00000000000E+00  0.00000000000E+00 -0.15670330868E+04  0.15670330868E+04  0.25500000920E-02 0. -1.
    10030    2    1    2    0    0  0.00000000000E+00  0.00000000000E+00 -0.31234819429E+03  0.28217179793E+04  0.28043771073E+04 0.  0.
        5    1    3    3  502    0 -0.32656035979E+03  0.58286898777E+02 -0.15269755535E+04  0.15625989448E+04  0.46999998093E+01 0. -1.
       -5    1    3    3    0  502  0.32656035979E+03 -0.58286898777E+02  0.12146273592E+04  0.12591190345E+04  0.46999998093E+01 0.  1.
</event>
<event>
 5   0  0.1243055E-06  0.2803489E+04  0.7818609E-02  0.8302186E-01
       -1   -1    0    0    0  501  0.00000000000E+00  0.00000000000E+00  0.89486744060E+03  0.89486744061E+03  0.50400001928E-02 0. -1.
        1   -1    0    0  501    0  0.00000000000E+00  0.00000000000E+00 -0.21957308877E+04  0.21957308877E+04  0.50400001928E-02 0.  1.
    10030    2    1    2    0    0  0.00000000000E+00  0.00000000000E+00 -0.13008634471E+04  0.30905983283E+04  0.28034893113E+04 0.  0.
        5    1    3    3  502    0  0.11705875678E+04  0.45894655969E+03 -0.13335343710E+04  0.18328238342E+04  0.46999998093E+01 0.  1.
       -5    1    3    3    0  502 -0.11705875678E+04 -0.45894655969E+03  0.32670923993E+02  0.12577744940E+04  0.46999998093E+01 0. -1.
</event>
<event>
 5   0  0.3212679E-06  0.2801418E+04  0.7818609E-02  0.8302828E-01
        2   -1    0    0  501    0  0.00000000000E+00  0.00000000000E+00  0.10878589441E+04  0.10878589441E+04  0.25500000920E-02 0. -1.
       -2   -1    0    0    0  501  0.00000000000E+00  0.00000000000E+00 -0.18035294896E+04  0.18035294896E+04  0.25500000920E-02 0.  1.
    10030    2    1    2    0    0  0.00000000000E+00  0.00000000000E+00 -0.71567054555E+03  0.28913884337E+04  0.28014179883E+04 0.  0.
        4    1    3    3  502    0 -0.63611719700E+03 -0.94564377932E+03 -0.11982951811E+04  0.16537231327E+04  0.12699999809E+01 0.  1.
       -4    1    3    3    0  502  0.63611719700E+03  0.94564377932E+03  0.48262463552E+03  0.12376653010E+04  0.12699999809E+01 0. -1.
</event>
<event>
 5   0  0.1220265E-06  0.2814851E+04  0.7818609E-02  0.8298672E-01
       -1   -1    0    0    0  501  0.00000000000E+00  0.00000000000E+00  0.89744460520E+03  0.89744460521E+03  0.50400001928E-02 0.  1.
        1   -1    0    0  501    0  0.00000000000E+00  0.00000000000E+00 -0.22072079313E+04  0.22072079313E+04  0.50400001928E-02 0. -1.
    10030    2    1    2    0    0  0.00000000000E+00  0.00000000000E+00 -0.13097633261E+04  0.31046525365E+04  0.28148512220E+04 0.  0.
        4    1    3    3  502    0 -0.53519650594E+01  0.86852129127E+03 -0.18763693556E+04  0.20676366819E+04  0.12699999809E+01 0. -1.
       -4    1    3    3    0  502  0.53519650594E+01 -0.86852129127E+03  0.56660602956E+03  0.10370158545E+04  0.12699999809E+01 0.  1.
</event>
<event>
 5   0  0.1246044E-06  0.2800218E+04  0.7818609E-02  0.8303201E-01
       -1   -1    0    0    0  501  0.00000000000E+00  0.00000000000E+00  0.15431598726E+04  0.15431598727E+04  0.50400001928E-02 0. -1.
        1   -1    0    0  501    0  0.00000000000E+00  0.00000000000E+00 -0.12703185284E+04  0.12703185285E+04  0.50400001928E-02 0.  1.
    10030    2    1    2    0    0  0.00000000000E+00  0.00000000000E+00  0.27284134420E+03  0.28134784011E+04  0.28002175477E+04 0.  0.
        2    1    3    3  502    0  0.29216145935E+03  0.16082803303E+03 -0.12298279413E+04  0.12742451647E+04  0.25500000920E-02 0.  1.
       -2    1    3    3    0  502 -0.29216145935E+03 -0.16082803303E+03  0.15026692855E+04  0.15392332364E+04  0.25500000920E-02 0. -1.
</event>
<event>
 5   0  0.1263513E-06  0.2799145E+04  0.7818609E-02  0.8303534E-01
        1   -1    0    0  501    0  0.00000000000E+00  0.00000000000E+00  0.15903434840E+04  0.15903434840E+04  0.50400001928E-02 0. -1.
       -1   -1    0    0    0  501  0.00000000000E+00  0.00000000000E+00 -0.12316857716E+04  0.12316857716E+04  0.50400001928E-02 0.  1.
    10030    2    1    2    0    0  0.00000000000E+00  0.00000000000E+00  0.35865771235E+03  0.28220292556E+04  0.27991451847E+04 0.  0.
        3    1    3    3  502    0  0.60500188394E+03  0.39194317131E+03  0.13887850115E+04  0.15647269882E+04  0.10100000352E+00 0. -1.
       -3    1    3    3    0  502 -0.60500188394E+03 -0.39194317131E+03 -0.10301272992E+04  0.12573022675E+04  0.10100000352E+00 0.  1.
</event>
<event>
 5   0  0.3167616E-06  0.2802965E+04  0.7818609E-02  0.8302349E-01
       -2   -1    0    0    0  501  0.00000000000E+00  0.00000000000E+00  0.11287610887E+04  0.11287610887E+04  0.25500000920E-02 0.  1.
        2   -1    0    0  501    0  0.00000000000E+00  0.00000000000E+00 -0.17400959379E+04  0.17400959379E+04  0.25500000920E-02 0. -1.
    10030    2    1    2    0    0  0.00000000000E+00  0.00000000000E+00 -0.61133484925E+03  0.28688570266E+04  0.28029645629E+04 0.  0.
        3    1    3    3  502    0  0.12011411795E+04  0.70722975596E+03 -0.45482776420E+03  0.14662136155E+04  0.10100000352E+00 0. -1.
       -3    1    3    3    0  502 -0.12011411795E+04 -0.70722975596E+03 -0.15650708505E+03  0.14026434111E+04  0.10100000352E+00 0.  1.
</event>
<event>
 5   0  0.1246044E-06  0.2800511E+04  0.7818609E-02  0.8303110E-01
       -1   -1    0    0    0  501  0.00000000000E+00  0.00000000000E+00  0.10943856909E+04  0.10943856909E+04  0.50400001928E-02 0. -1.
        1   -1    0    0  501    0  0.00000000000E+00  0.00000000000E+00 -0.17916122448E+04  0.17916122448E+04  0.50400001928E-02 0.  1.
    10030    2    1    2    0    0  0.00000000000E+00  0.00000000000E+00 -0.69722655390E+03  0.28859979357E+04  0.28005105279E+04 0.  0.
        2    1    3    3  502    0  0.75252650897E+03 -0.74582314139E+03 -0.12920742842E+04  0.16709291610E+04  0.25500000920E-02 0.  1.
       -2    1    3    3    0  502 -0.75252650897E+03  0.74582314139E+03  0.59484773035E+03  0.12150687747E+04  0.25500000920E-02 0. -1.
</event>
<event>
 5   0  0.1246044E-06  0.2795317E+04  0.7818609E-02  0.8304724E-01
       -1   -1    0    0    0  501  0.00000000000E+00  0.00000000000E+00  0.97610926497E+03  0.97610926498E+03  0.50400001928E-02 0.  1.
        1   -1    0    0  501    0  0.00000000000E+00  0.00000000000E+00 -0.20012611096E+04  0.20012611096E+04  0.50400001928E-02 0. -1.
    10030    2    1    2    0    0  0.00000000000E+00  0.00000000000E+00 -0.10251518446E+04  0.29773703746E+04  0.27953171632E+04 0.  0.
        2    1    3    3  502    0  0.94179855537E+03 -0.78795022461E+03  0.19843142331E+03  0.12438750360E+04  0.25500000920E-02 0.  1.
       -2    1    3    3    0  502 -0.94179855537E+03  0.78795022461E+03 -0.12235832680E+04  0.17334953386E+04  0.25500000920E-02 0. -1.
</event>
<event>
 5   0  0.3226364E-06  0.2810167E+04  0.7818609E-02  0.8300119E-01
       -2   -1    0    0    0  501  0.00000000000E+00  0.00000000000E+00  0.12007824972E+04  0.12007824972E+04  0.25500000920E-02 0. -1.
        2   -1    0    0  501    0  0.00000000000E+00  0.00000000000E+00 -0.16441446430E+04  0.16441446430E+04  0.25500000920E-02 0.  1.
    10030    2    1    2    0    0  0.00000000000E+00  0.00000000000E+00 -0.44336214582E+03  0.28449271402E+04  0.28101673332E+04 0.  0.
        5    1    3    3  502    0 -0.10512908557E+04 -0.74962147337E+03  0.33933340604E+03  0.13350333580E+04  0.46999998093E+01 0. -1.
       -5    1    3    3    0  502  0.10512908557E+04  0.74962147337E+03 -0.78269555186E+03  0.15098937822E+04  0.46999998093E+01 0.  1.
</event>
<event>
 5   0  0.3212679E-06  0.2811958E+04  0.7818609E-02  0.8299565E-01
       -2   -1    0    0    0  501  0.00000000000E+00  0.00000000000E+00  0.27567936747E+04  0.27567936747E+04  0.25500000920E-02 0.  1.
        2   -1    0    0  501    0  0.00000000000E+00  0.00000000000E+00 -0.71705656042E+03  0.71705656043E+03  0.25500000920E-02 0. -1.
    10030    2    1    2    0    0  0.00000000000E+00  0.00000000000E+00  0.20397371143E+04  0.34738502351E+04  0.28119580297E+04 0.  0.
        4    1    3    3  502    0 -0.43007919114E+03 -0.59220410637E+02 -0.63217871672E+03  0.76689419770E+03  0.12699999809E+01 0. -1.
       -4    1    3    3    0  502  0.43007919114E+03  0.59220410637E+02  0.26719158310E+04  0.27069560374E+04  0.12699999809E+01 0.  1.
</event>
<event>
 5   0  0.1246044E-06  0.2801601E+04  0.7818609E-02  0.8302771E-01
       -1   -1    0    0    0  501  0.00000000000E+00  0.00000000000E+00  0.31875690325E+04  0.31875690325E+04  0.50400001928E-02 0. -1.
        1   -1    0    0  501    0  0.00000000000E+00  0.00000000000E+00 -0.61559208799E+03  0.61559208801E+03  0.50400001928E-02 0.  1.
    10030    2    1    2    0    0  0.00000000000E+00  0.00000000000E+00  0.25719769445E+04  0.38031611205E+04  0.28016011681E+04 0.  0.
        2    1    3    3  502    0  0.12283264884E+04  0.62987195575E+03  0.96269460494E+03  0.16829454968E+04  0.25500000920E-02 0.  1.
       -2    1    3    3    0  502 -0.12283264884E+04 -0.62987195575E+03  0.16092823395E+04  0.21202156237E+04  0.25500000920E-02 0. -1.
</event>
<event>
 5   0  0.1263513E-06  0.2793903E+04  0.7818609E-02  0.8305164E-01
       -1   -1    0    0    0  501  0.00000000000E+00  0.00000000000E+00  0.17240551283E+04  0.17240551283E+04  0.50400001928E-02 0.  1.
        1   -1    0    0  501    0  0.00000000000E+00  0.00000000000E+00 -0.11319091054E+04  0.11319091055E+04  0.50400001928E-02 0. -1.
    10030    2    1    2    0    0  0.00000000000E+00  0.00000000000E+00  0.59214602285E+03  0.28559642337E+04  0.27939031465E+04 0.  0.
        3    1    3    3  502    0 -0.22760538436E+03  0.68375383897E+03 -0.92723465132E+03  0.11743456187E+04  0.10100000352E+00 0. -1.
       -3    1    3    3    0  502  0.22760538436E+03 -0.68375383897E+03  0.15193806742E+04  0.16816186151E+04  0.10100000352E+00 0.  1.
</event>
<event>
 5   0  0.1243055E-06  0.2798251E+04  0.7818609E-02  0.8303812E-01
       -1   -1    0    0    0  501  0.00000000000E+00  0.00000000000E+00  0.16632432515E+04  0.16632432515E+04  0.50400001928E-02 0.  1.
        1   -1    0    0  501    0  0.00000000000E+00  0.00000000000E+00 -0.11769483923E+04  0.11769483923E+04  0.50400001928E-02 0. -1.
    10030    2    1    2    0    0  0.00000000000E+00  0.00000000000E+00  0.48629485916E+03  0.28401916438E+04  0.27982505041E+04 0.  0.
        5    1    3    3  502    0 -0.28547442320E+02  0.12415944645E+04  0.89713208161E+03  0.15320704399E+04  0.46999998093E+01 0.  1.
       -5    1    3    3    0  502  0.28547442320E+02 -0.12415944645E+04 -0.41083722244E+03  0.13081212039E+04  0.46999998093E+01 0. -1.
</event>
<event>
 5   0  0.3345919E-06  0.2806131E+04  0.7818609E-02  0.8301368E-01
        2   -1    0    0  501    0  0.00000000000E+00  0.00000000000E+00  0.19797563628E+04  0.19797563628E+04  0.25500000920E-02 0. -1.
       -2   -1    0    0    0  501  0.00000000000E+00  0.00000000000E+00 -0.99436091404E+03  0.99436091404E+03  0.25500000920E-02 0.  1.
    10030    2    1    2    0    0  0.00000000000E+00  0.00000000000E+00  0.98539544875E+03  0.29741172768E+04  0.28061306787E+04 0.  0.
        2    1    3    3  502    0 -0.13716716859E+04 -0.26625063790E+03  0.62767852908E+03  0.15317809739E+04  0.25500000920E-02 0. -1.
       -2    1    3    3    0  502  0.13716716859E+04  0.26625063790E+03  0.35771691966E+03  0.14423363029E+04  0.25500000920E-02 0.  1.
</event>
<event>
 5   0  0.1235252E-06  0.2805132E+04  0.7818609E-02  0.8301677E-01
       -1   -1    0    0    0  501  0.00000000000E+00  0.00000000000E+00  0.13388266891E+04  0.13388266891E+04  0.50400001928E-02 0.  1.
        1   -1    0    0  501    0  0.00000000000E+00  0.00000000000E+00 -0.14693396959E+04  0.14693396959E+04  0.50400001928E-02 0. -1.
    10030    2    1    2    0    0  0.00000000000E+00  0.00000000000E+00 -0.13051300685E+03  0.28081663850E+04  0.28051318687E+04 0.  0.
        1    1    3    3  502    0  0.96222226611E+03  0.77479828651E+03 -0.73005856524E+03  0.14349806908E+04  0.50400001928E-02 0. -1.
       -1    1    3    3    0  502 -0.96222226611E+03 -0.77479828651E+03  0.59954555839E+03  0.13731856942E+04  0.50400001928E-02 0.  1.
</event>
<event>
 5   0  0.3226364E-06  0.2796857E+04  0.7818609E-02  0.8304245E-01
        2   -1    0    0  501    0  0.00000000000E+00  0.00000000000E+00  0.22420918362E+04  0.22420918363E+04  0.25500000920E-02 0.  1.
       -2   -1    0    0    0  501  0.00000000000E+00  0.00000000000E+00 -0.87222236202E+03  0.87222236202E+03  0.25500000920E-02 0. -1.
    10030    2    1    2    0    0  0.00000000000E+00  0.00000000000E+00  0.13698694742E+04  0.31143141983E+04  0.27968572629E+04 0.  0.
        5    1    3    3  502    0 -0.51991757963E+03  0.12417032414E+04  0.26321276517E+03  0.13716574934E+04  0.46999998093E+01 0. -1.
       -5    1    3    3    0  502  0.51991757963E+03 -0.12417032414E+04  0.11066567091E+04  0.17426567049E+04  0.46999998093E+01 0.  1.
</event>
<event>
 5   0  0.1263513E-06  0.2788691E+04  0.7818609E-02  0.8306788E-01
        1   -1    0    0  501    0  0.00000000000E+00  0.00000000000E+00  0.10947401963E+04  0.10947401963E+04  0.50400001928E-02 0. -1.
       -1   -1    0    0    0  501  0.00000000000E+00  0.00000000000E+00 -0.17759454139E+04  0.17759454140E+04  0.50400001928E-02 0.  1.
    10030    2    1    2    0    0  0.00000000000E+00  0.00000000000E+00 -0.68120521766E+03  0.28706856103E+04  0.27886906111E+04 0.  0.
        3    1    3    3  502    0  0.58375060209E+03  0.38126291497E+03 -0.15836133427E+04  0.17303055814E+04  0.10100000352E+00 0.  1.
       -3    1    3    3    0  502 -0.58375060209E+03 -0.38126291497E+03  0.90240812504E+03  0.11403800288E+04  0.10100000352E+00 0. -1.
</event>
<event>
 5   0  0.3345919E-06  0.2794906E+04  0.7818609E-02  0.8304852E-01
       -2   -1    0    0    0  501  0.00000000000E+00  0.00000000000E+00  0.78908318463E+03  0.78908318463E+03  0.25500000920E-02 0.  1.
        2   -1    0    0  501    0  0.00000000000E+00  0.00000000000E+00 -0.24748654570E+04  0.24748654570E+04  0.25500000920E-02 0. -1.
    10030    2    1    2    0    0  0.00000000000E+00  0.00000000000E+00 -0.16857822723E+04  0.32639486416E+04  0.27949058777E+04 0.  0.
        2    1    3    3  502    0 -0.86505513905E+03  0.99707832562E+03 -0.30723290382E+03  0.13553145901E+04  0.25500000920E-02 0.  1.
       -2    1    3    3    0  502  0.86505513905E+03 -0.99707832562E+03 -0.13785493685E+04  0.19086340515E+04  0.25500000920E-02 0. -1.
</event>
<event>
 5   0  0.3226364E-06  0.2790794E+04  0.7818609E-02  0.8306132E-01
       -2   -1    0    0    0  501  0.00000000000E+00  0.00000000000E+00  0.17841959557E+04  0.17841959557E+04  0.25500000920E-02 0.  1.
        2   -1    0    0  501    0  0.00000000000E+00  0.00000000000E+00 -0.10913220406E+04  0.10913220406E+04  0.25500000920E-02 0. -1.
    10030    2    1    2    0    0  0.00000000000E+00  0.00000000000E+00  0.69287391505E+03  0.28755179963E+04  0.27907937016E+04 0.  0.
        5    1    3    3  502    0  0.50324302725E+03 -0.12529427644E+04 -0.16376784021E+02  0.13503367744E+04  0.46999998093E+01 0. -1.
       -5    1    3    3    0  502 -0.50324302725E+03  0.12529427644E+04  0.70925069907E+03  0.15251812219E+04  0.46999998093E+01 0.  1.
</event>
<event>
 5   0  0.1235252E-06  0.2796642E+04  0.7818609E-02  0.8304312E-01
       -1   -1    0    0    0  501  0.00000000000E+00  0.00000000000E+00  0.10012767297E+04  0.10012767297E+04  0.50400001928E-02 0.  1.
        1   -1    0    0  501    0  0.00000000000E+00  0.00000000000E+00 -0.19528079896E+04  0.19528079896E+04  0.50400001928E-02 0. -1.
    10030    2    1    2    0    0  0.00000000000E+00  0.00000000000E+00 -0.95153125991E+03  0.29540847194E+04  0.27966416987E+04 0.  0.
        1    1    3    3  502    0  0.10686180599E+04  0.20669551448E+03  0.45151265330E+03  0.11783595672E+04  0.50400001928E-02 0.  1.
       -1    1    3    3    0  502 -0.10686180599E+04 -0.20669551448E+03 -0.14030439132E+04  0.17757251522E+04  0.50400001928E-02 0. -1.
</event>
<event>
 5   0  0.1220265E-06  0.2798945E+04  0.7818609E-02  0.8303596E-01
        1   -1    0    0  501    0  0.00000000000E+00  0.00000000000E+00  0.15691374749E+04  0.15691374750E+04  0.50400001928E-02 0.  1.
       -1   -1    0    0    0  501  0.00000000000E+00  0.00000000000E+00 -0.12481525752E+04  0.12481525752E+04  0.50400001928E-02 0. -1.
    10030    2    1    2    0    0  0.00000000000E+00  0.00000000000E+00  0.32098489978E+03  0.28172900501E+04  0.27989447870E+04 0.  0.
        4    1    3    3  502    0  0.91243077730E+02 -0.11667474219E+04  0.93291816662E+03  0.14966505150E+04  0.12699999809E+01 0.  1.
       -4    1    3    3    0  502 -0.91243077730E+02  0.11667474219E+04 -0.61193326684E+03  0.13206395351E+04  0.12699999809E+01 0. -1.
</event>
<event>
 5   0  0.3167616E-06  0.2796964E+04  0.7818609E-02  0.8304212E-01
       -2   -1    0    0    0  501  0.00000000000E+00  0.00000000000E+00  0.70558226448E+03  0.70558226448E+03  0.25500000920E-02 0. -1.
        2   -1    0    0  501    0  0.00000000000E+00  0.00000000000E+00 -0.27718266338E+04  0.27718266338E+04  0.25500000920E-02 0.  1.
    10030    2    1    2    0    0  0.00000000000E+00  0.00000000000E+00 -0.20662443693E+04  0.34774088983E+04  0.27969638632E+04 0.  0.
        3    1    3    3  502    0  0.51281501320E+03  0.12790431619E+04 -0.73675947811E+03  0.15626084559E+04  0.10100000352E+00 0. -1.
       -3    1    3    3    0  502 -0.51281501320E+03 -0.12790431619E+04 -0.13294848912E+04  0.19148004423E+04  0.10100000352E+00 0.  1.
</event>
<event>
 5   0  0.1243055E-06  0.2798432E+04  0.7818609E-02  0.8303755E-01
       -1   -1    0    0    0  501  0.00000000000E+00  0.00000000000E+00  0.13819390337E+04  0.13819390337E+04  0.50400001928E-02 0. -1.
        1   -1    0    0  501    0  0.00000000000E+00  0.00000000000E+00 -0.14167087556E+04  0.14167087556E+04  0.50400001928E-02 0.  1.
    10030    2    1    2    0    0  0.00000000000E+00  0.00000000000E+00 -0.34769721881E+02  0.27986477893E+04  0.27984317956E+04 0.  0.
        5    1    3    3  502    0 -0.84862854681E+03  0.56778507592E+03 -0.97413666968E+03  0.14112103472E+04  0.46999998093E+01 0.  1.
       -5    1    3    3    0  502  0.84862854681E+03 -0.56778507592E+03  0.93936694780E+03  0.13874374420E+04  0.46999998093E+01 0. -1.
</event>
<event>
 5   0  0.3162695E-06  0.2795095E+04  0.7818609E-02  0.8304793E-01
       -2   -1    0    0    0  501  0.00000000000E+00  0.00000000000E+00  0.18495612495E+04  0.18495612495E+04  0.25500000920E-02 0.  1.
        2   -1    0    0  501    0  0.00000000000E+00  0.00000000000E+00 -0.10560015437E+04  0.10560015437E+04  0.25500000920E-02 0. -1.
    10030    2    1    2    0    0  0.00000000000E+00  0.00000000000E+00  0.79355970580E+03  0.29055627932E+04  0.27950953720E+04 0.  0.
        1    1    3    3  502    0  0.29559469878E+02  0.64766902976E+03 -0.89020978041E+03  0.11012821562E+04  0.50400001928E-02 0. -1.
       -1    1    3    3    0  502 -0.29559469878E+02 -0.64766902976E+03  0.16837694862E+04  0.18042806370E+04  0.50400001928E-02 0.  1.
</event>
<event>
 5   0  0.1235252E-06  0.2799709E+04  0.7818609E-02  0.8303359E-01
        1   -1    0    0  501    0  0.00000000000E+00  0.00000000000E+00  0.11743175997E+04  0.11743175997E+04  0.50400001928E-02 0.  1.
       -1   -1    0    0    0  501  0.00000000000E+00  0.00000000000E+00 -0.16687076416E+04  0.16687076416E+04  0.50400001928E-02 0. -1.
    10030    2    1    2    0    0  0.00000000000E+00  0.00000000000E+00 -0.49439004188E+03  0.28430252414E+04  0.27997090937E+04 0.  0.
        1    1    3    3  502    0  0.10452119532E+04 -0.18205462606E+02  0.69822670239E+03  0.12571077893E+04  0.50400001928E-02 0.  1.
       -1    1    3    3    0  502 -0.10452119532E+04  0.18205462606E+02 -0.11926167443E+04  0.15859174521E+04  0.50400001928E-02 0. -1.
</event>
<event>
 5   0  0.3345919E-06  0.2798187E+04  0.7818609E-02  0.8303832E-01
        2   -1    0    0  501    0  0.00000000000E+00  0.00000000000E+00  0.25852542220E+04  0.25852542220E+04  0.25500000920E-02 0. -1.
       -2   -1    0    0    0  501  0.00000000000E+00  0.00000000000E+00 -0.75716424711E+03  0.75716424711E+03  0.25500000920E-02 0.  1.
    10030    2    1    2    0    0  0.00000000000E+00  0.00000000000E+00  0.18280899749E+04  0.33424184692E+04  0.27981866032E+04 0.  0.
        2    1    3    3  502    0 -0.94892238839E+02 -0.81909694669E+03 -0.43607079964E+03  0.93278190772E+03  0.25500000920E-02 0.  1.
       -2    1    3    3    0  502  0.94892238839E+02  0.81909694669E+03  0.22641607746E+04  0.24096365614E+04  0.25500000920E-02 0. -1.
</event>
<event>
 5   0  0.1263513E-06  0.2824559E+04  0.7818609E-02  0.8295684E-01
        1   -1    0    0  501    0  0.00000000000E+00  0.00000000000E+00  0.22042709818E+04  0.22042709818E+04  0.50400001928E-02 0.  1.
       -1   -1    0    0    0  501  0.00000000000E+00  0.00000000000E+00 -0.90484953104E+03  0.90484953105E+03  0.50400001928E-02 0. -1.
    10030    2    1    2    0    0  0.00000000000E+00  0.00000000000E+00  0.12994214507E+04  0.31091205128E+04  0.28245591261E+04 0.  0.
        3    1    3    3  502    0  0.20378399658E+03  0.13515300453E+04  0.25840823393E+03  0.13910198439E+04  0.10100000352E+00 0. -1.
       -3    1    3    3    0  502 -0.20378399658E+03 -0.13515300453E+04  0.10410132168E+04  0.17181006689E+04  0.10100000352E+00 0.  1.
</event>
<event>
 5   0  0.3212679E-06  0.2798713E+04  0.7818609E-02  0.8303668E-01
       -2   -1    0    0    0  501  0.00000000000E+00  0.00000000000E+00  0.13365098622E+04  0.13365098622E+04  0.25500000920E-02 0.  1.
        2   -1    0    0  501    0  0.00000000000E+00  0.00000000000E+00 -0.14651587805E+04  0.14651587805E+04  0.25500000920E-02 0. -1.
    10030    2    1    2    0    0  0.00000000000E+00  0.00000000000E+00 -0.12864891830E+03  0.28016686427E+04  0.27987133900E+04 0.  0.
        4    1    3    3  502    0  0.59787053070E+03  0.12576437446E+04  0.73953898233E+02  0.13944847621E+04  0.12699999809E+01 0. -1.
       -4    1    3    3    0  502 -0.59787053070E+03 -0.12576437446E+04 -0.20260281653E+03  0.14071838806E+04  0.12699999809E+01 0.  1.
</event>
<event>
 5   0  0.3162695E-06  0.2819830E+04  0.7818609E-02  0.8297138E-01
        2   -1    0    0  501    0  0.00000000000E+00  0.00000000000E+00  0.16404468619E+04  0.16404468619E+04  0.25500000920E-02 0. -1.
       -2   -1    0    0    0  501  0.00000000000E+00  0.00000000000E+00 -0.12117795189E+04  0.12117795189E+04  0.25500000920E-02 0.  1.
    10030    2    1    2    0    0  0.00000000000E+00  0.00000000000E+00  0.42866734300E+03  0.28522263809E+04  0.28198297177E+04 0.  0.
        1    1    3    3  502    0  0.75668503459E+03  0.10467764202E+04 -0.35744551363E+03  0.13401792457E+04  0.50400001928E-02 0.  1.
       -1    1    3    3    0  502 -0.75668503459E+03 -0.10467764202E+04  0.78611285663E+03  0.15120471351E+04  0.50400001928E-02 0. -1.
</event>
<event>
 5   0  0.1263513E-06  0.2802879E+04  0.7818609E-02  0.8302375E-01
       -1   -1    0    0    0  501  0.00000000000E+00  0.00000000000E+00  0.10187228359E+04  0.10187228359E+04  0.50400001928E-02 0. -1.
        1   -1    0    0  501    0  0.00000000000E+00  0.00000000000E+00 -0.19279365126E+04  0.19279365126E+04  0.50400001928E-02 0.  1.
    10030    2    1    2    0    0  0.00000000000E+00  0.00000000000E+00 -0.90921367672E+03  0.29466593484E+04  0.28028791993E+04 0.  0.
        3    1    3    3  502    0  0.81499824340E+03 -0.68749761328E+03  0.50152932671E+03  0.11783067431E+04  0.10100000352E+00 0. -1.
       -3    1    3    3    0  502 -0.81499824340E+03  0.68749761328E+03 -0.14107430034E+04  0.17683526054E+04  0.10100000352E+00 0.  1.
</event>
<event>
 5   0  0.1243055E-06  0.2798274E+04  0.7818609E-02  0.8303804E-01
       -1   -1    0    0    0  501  0.00000000000E+00  0.00000000000E+00  0.23949700687E+04  0.23949700687E+04  0.50400001928E-02 0. -1.
        1   -1    0    0  501    0  0.00000000000E+00  0.00000000000E+00 -0.81737341283E+03  0.81737341285E+03  0.50400001928E-02 0.  1.
    10030    2    1    2    0    0  0.00000000000E+00  0.00000000000E+00  0.15775966559E+04  0.32123434816E+04  0.27982743673E+04 0.  0.
        5    1    3    3  502    0  0.74457122869E+03  0.78893239655E+03  0.18031558439E+04  0.21043273814E+04  0.46999998093E+01 0. -1.
       -5    1    3    3    0  502 -0.74457122869E+03 -0.78893239655E+03 -0.22555918798E+03  0.11080161001E+04  0.46999998093E+01 0.  1.
</event>
<event>
 5   0  0.1263513E-06  0.2794658E+04  0.7818609E-02  0.8304929E-01
        1   -1    0    0  501    0  0.00000000000E+00  0.00000000000E+00  0.24656749731E+04  0.24656749731E+04  0.50400001928E-02 0.  1.
       -1   -1    0    0    0  501  0.00000000000E+00  0.00000000000E+00 -0.79188373921E+03  0.79188373922E+03  0.50400001928E-02 0. -1.
    10030    2    1    2    0    0  0.00000000000E+00  0.00000000000E+00  0.16737912339E+04  0.32575587124E+04  0.27946577017E+04 0.  0.
        3    1    3    3  502    0  0.36311025151E+03  0.56472745144E+03 -0.59155144672E+03  0.89481801137E+03  0.10100000352E+00 0. -1.
       -3    1    3    3    0  502 -0.36311025151E+03 -0.56472745144E+03  0.22653426807E+04  0.23627407010E+04  0.10100000352E+00 0.  1.
</event>
<event>
 5   0  0.1065675E-06  0.2782976E+04  0.7818609E-02  0.8308573E-01
        3   -1    0    0  501    0  0.00000000000E+00  0.00000000000E+00  0.15402114990E+04  0.15402115023E+04  0.10100000352E+00 0.  1.
       -3   -1    0    0    0  501  0.00000000000E+00  0.00000000000E+00 -0.12571256180E+04  0.12571256221E+04  0.10100000352E+00 0. -1.
    10030    2    1    2    0    0  0.00000000000E+00  0.00000000000E+00  0.28308588102E+03  0.27973371244E+04  0.27829763512E+04 0.  0.
        1    1    3    3  502    0 -0.10030306344E+04  0.21907072807E+03 -0.80254648935E+03  0.13031282765E+04  0.50400001928E-02 0. -1.
       -1    1    3    3    0  502  0.10030306344E+04 -0.21907072807E+03  0.10856323704E+04  0.14942088479E+04  0.50400001928E-02 0.  1.
</event>
<event>
 5   0  0.3345919E-06  0.2798812E+04  0.7818609E-02  0.8303637E-01
        2   -1    0    0  501    0  0.00000000000E+00  0.00000000000E+00  0.22769345105E+04  0.22769345105E+04  0.25500000920E-02 0. -1.
       -2   -1    0    0    0  501  0.00000000000E+00  0.00000000000E+00 -0.86007639025E+03  0.86007639026E+03  0.25500000920E-02 0.  1.
    10030    2    1    2    0    0  0.00000000000E+00  0.00000000000E+00  0.14168581202E+04  0.31370109007E+04  0.27988123300E+04 0.  0.
        2    1    3    3  502    0  0.12940321134E+04  0.13488084068E+03  0.13076245074E+03  0.13075973273E+04  0.25500000920E-02 0.  1.
       -2    1    3    3    0  502 -0.12940321134E+04 -0.13488084068E+03  0.12860956695E+04  0.18294135735E+04  0.25500000920E-02 0. -1.
</event>
<event>
 5   0  0.1263513E-06  0.2800391E+04  0.7818609E-02  0.8303147E-01
       -1   -1    0    0    0  501  0.00000000000E+00  0.00000000000E+00  0.87662842038E+03  0.87662842040E+03  0.50400001928E-02 0. -1.
        1   -1    0    0  501    0  0.00000000000E+00  0.00000000000E+00 -0.22364631778E+04  0.22364631778E+04  0.50400001928E-02 0.  1.
    10030    2    1    2    0    0  0.00000000000E+00  0.00000000000E+00 -0.13598347574E+04  0.31130915982E+04  0.28003908176E+04 0.  0.
        3    1    3    3  502    0 -0.43785880904E+02  0.13992481653E+04 -0.64978861438E+03  0.15433852031E+04  0.10100000352E+00 0. -1.
       -3    1    3    3    0  502  0.43785880904E+02 -0.13992481653E+04 -0.71004614305E+03  0.15697063951E+04  0.10100000352E+00 0.  1.
</event>
<event>
 5   0  0.3162695E-06  0.2798273E+04  0.7818609E-02  0.8303805E-01
       -2   -1    0    0    0  501  0.00000000000E+00  0.00000000000E+00  0.73744129687E+03  0.73744129688E+03  0.25500000920E-02 0. -1.
        2   -1    0    0  501    0  0.00000000000E+00  0.00000000000E+00 -0.26545612412E+04  0.26545612412E+04  0.25500000920E-02 0.  1.
    10030    2    1    2    0    0  0.00000000000E+00  0.00000000000E+00 -0.19171199443E+04  0.33920025380E+04  0.27982730991E+04 0.  0.
        1    1    3    3  502    0  0.82893286331E+03 -0.77549673741E+03  0.32952133192E+02  0.11356102873E+04  0.50400001928E-02 0. -1.
       -1    1    3    3    0  502 -0.82893286331E+03  0.77549673741E+03 -0.19500720775E+04  0.22563922507E+04  0.50400001928E-02 0.  1.
</event>
<event>
 5   0  0.3212679E-06  0.2795480E+04  0.7818609E-02  0.8304673E-01
       -2   -1    0    0    0  501  0.00000000000E+00  0.00000000000E+00  0.12192973034E+04  0.12192973034E+04  0.25500000920E-02 0.  1.
        2   -1    0    0  501    0  0.00000000000E+00  0.00000000000E+00 -0.16022971670E+04  0.16022971670E+04  0.25500000920E-02 0. -1.
    10030    2    1    2    0    0  0.00000000000E+00  0.00000000000E+00 -0.38299986366E+03  0.28215944704E+04  0.27954796475E+04 0.  0.
        4    1    3    3  502    0  0.94382308846E+03  0.26235024040E+03 -0.11978321006E+04  0.15473955620E+04  0.12699999809E+01 0. -1.
       -4    1    3    3    0  502 -0.94382308846E+03 -0.26235024040E+03  0.81483223698E+03  0.12741989084E+04  0.12699999809E+01 0.  1.
</event>
<event>
 5   0  0.1243055E-06  0.2798121E+04  0.7818609E-02  0.8303852E-01
       -1   -1    0    0    0  501  0.00000000000E+00  0.00000000000E+00  0.15605467409E+04  0.15605467409E+04  0.50400001928E-02 0. -1.
        1   -1    0    0  501    0  0.00000000000E+00  0.00000000000E+00 -0.12542851687E+04  0.12542851688E+04  0.50400001928E-02 0.  1.
    10030    2    1    2    0    0  0.00000000000E+00  0.00000000000E+00  0.30626157218E+03  0.28148319097E+04  0.27981212499E+04 0.  0.
        5    1    3    3  502    0  0.36306131852E+03 -0.71198998016E+03 -0.10020324076E+04  0.12817309736E+04  0.46999998093E+01 0.  1.
       -5    1    3    3    0  502 -0.36306131852E+03  0.71198998016E+03  0.13082939797E+04  0.15331009361E+04  0.46999998093E+01 0. -1.
</event>
<event>
 5   0  0.3167616E-06  0.2790917E+04  0.7818609E-02  0.8306094E-01
       -2   -1    0    0    0  501  0.00000000000E+00  0.00000000000E+00  0.92168446442E+03  0.92168446443E+03  0.25500000920E-02 0.  1.
        2   -1    0    0  501    0  0.00000000000E+00  0.00000000000E+00 -0.21127670554E+04  0.21127670554E+04  0.25500000920E-02 0. -1.
    10030    2    1    2    0    0  0.00000000000E+00  0.00000000000E+00 -0.11910825909E+04  0.30344515198E+04  0.27909171051E+04 0.  0.
        3    1    3    3  502    0  0.20576337470E+03 -0.10722799549E+04  0.34930027485E+03  0.11463566462E+04  0.10100000352E+00 0.  1.
       -3    1    3    3    0  502 -0.20576337470E+03  0.10722799549E+04 -0.15403828658E+04  0.18880948736E+04  0.10100000352E+00 0. -1.
</event>
<event>
 5   0  0.3167616E-06  0.2834128E+04  0.7818609E-02  0.8292751E-01
       -2   -1    0    0    0  501  0.00000000000E+00  0.00000000000E+00  0.14762018396E+04  0.14762018396E+04  0.25500000920E-02 0.  1.
        2   -1    0    0  501    0  0.00000000000E+00  0.00000000000E+00 -0.13602956297E+04  0.13602956297E+04  0.25500000920E-02 0. -1.
    10030    2    1    2    0    0  0.00000000000E+00  0.00000000000E+00  0.11590620989E+03  0.28364974692E+04  0.28341283746E+04 0.  0.
        3    1    3    3  502    0  0.13752443846E+04 -0.20548981456E+03 -0.21530941138E+03  0.14070825612E+04  0.10100000352E+00 0. -1.
       -3    1    3    3    0  502 -0.13752443846E+04  0.20548981456E+03  0.33121562127E+03  0.14294149080E+04  0.10100000352E+00 0.  1.
</event>
<event>
 5   0  0.1246044E-06  0.2807069E+04  0.7818609E-02  0.8301077E-01
        1   -1    0    0  501    0  0.00000000000E+00  0.00000000000E+00  0.13752534269E+04  0.13752534269E+04  0.50400001928E-02 0. -1.
       -1   -1    0    0    0  501  0.00000000000E+00  0.00000000000E+00 -0.14323969030E+04  0.14323969030E+04  0.50400001928E-02 0.  1.
    10030    2    1    2    0    0  0.00000000000E+00  0.00000000000E+00 -0.57143476047E+02  0.28076503299E+04  0.28070687555E+04 0.  0.
        2    1    3    3  502    0  0.10077754776E+04  0.63792571440E+03 -0.76855480821E+03  0.14188858740E+04  0.25500000920E-02 0.  1.
       -2    1    3    3    0  502 -0.10077754776E+04 -0.63792571440E+03  0.71141133217E+03  0.13887644559E+04  0.25500000920E-02 0. -1.
</event>
<event>
 5   0  0.1243055E-06  0.2832118E+04  0.7818609E-02  0.8293366E-01
       -1   -1    0    0    0  501  0.00000000000E+00  0.00000000000E+00  0.12031595965E+04  0.12031595965E+04  0.50400001928E-02 0.  1.
        1   -1    0    0  501    0  0.00000000000E+00  0.00000000000E+00 -0.16666312127E+04  0.16666312127E+04  0.50400001928E-02 0. -1.
    10030    2    1    2    0    0  0.00000000000E+00  0.00000000000E+00 -0.46347161613E+03  0.28697908092E+04  0.28321181737E+04 0.  0.
        5    1    3    3  502    0 -0.82826760481E+03 -0.11466411485E+04 -0.16461192626E+03  0.14240548883E+04  0.46999998093E+01 0. -1.
       -5    1    3    3    0  502  0.82826760481E+03  0.11466411485E+04 -0.29885968987E+03  0.14457359209E+04  0.46999998093E+01 0.  1.
</event>
<event>
 5   0  0.1235252E-06  0.2798549E+04  0.7818609E-02  0.8303719E-01
       -1   -1    0    0    0  501  0.00000000000E+00  0.00000000000E+00  0.14864622224E+04  0.14864622224E+04  0.50400001928E-02 0. -1.
        1   -1    0    0  501    0  0.00000000000E+00  0.00000000000E+00 -0.13172004793E+04  0.13172004793E+04  0.50400001928E-02 0.  1.
    10030    2    1    2    0    0  0.00000000000E+00  0.00000000000E+00  0.16926174308E+03  0.28036627016E+04  0.27985487323E+04 0.  0.
        1    1    3    3  502    0 -0.88971734374E+03 -0.12334045346E+02  0.11665207842E+04  0.14671468299E+04  0.50400001928E-02 0. -1.
       -1    1    3    3    0  502  0.88971734374E+03  0.12334045346E+02 -0.99725904110E+03  0.13365158718E+04  0.50400001928E-02 0.  1.
</event>
<event>
 5   0  0.3226364E-06  0.2797783E+04  0.7818609E-02  0.8303957E-01
       -2   -1    0    0    0  501  0.00000000000E+00  0.00000000000E+00  0.13766712743E+04  0.13766712743E+04  0.25500000920E-02 0. -1.
        2   -1    0    0  501    0  0.00000000000E+00  0.00000000000E+00 -0.14214707640E+04  0.14214707640E+04  0.25500000920E-02 0.  1.
    10030    2    1    2    0    0  0.00000000000E+00  0.00000000000E+00 -0.44799489637E+02  0.27981420383E+04  0.27977833855E+04 0.  0.
        5    1    3    3  502    0 -0.52190821751E+03  0.12943030833E+04 -0.11867848134E+03  0.14006124842E+04  0.46999998093E+01 0.  1.
       -5    1    3    3    0  502  0.52190821751E+03 -0.12943030833E+04  0.73878991703E+02  0.13975295541E+04  0.46999998093E+01 0. -1.
</event>
<event>
 5   0  0.3167616E-06  0.2826556E+04  0.7818609E-02  0.8295071E-01
       -2   -1    0    0    0  501  0.00000000000E+00  0.00000000000E+00  0.11266367270E+04  0.11266367270E+04  0.25500000920E-02 0. -1.
        2   -1    0    0  501    0  0.00000000000E+00  0.00000000000E+00 -0.17728466918E+04  0.17728466918E+04  0.25500000920E-02 0.  1.
    10030    2    1    2    0    0  0.00000000000E+00  0.00000000000E+00 -0.64620996480E+03  0.28994834188E+04  0.28265556385E+04 0.  0.
        3    1    3    3  502    0 -0.38120819805E+03 -0.10109803927E+04 -0.12576277295E+04  0.16580194694E+04  0.10100000352E+00 0.  1.
       -3    1    3    3    0  502  0.38120819805E+03  0.10109803927E+04  0.61141776465E+03  0.12414639495E+04  0.10100000352E+00 0. -1.
</event>
<event>
 5   0  0.3212679E-06  0.2792802E+04  0.7818609E-02  0.8305507E-01
       -2   -1    0    0    0  501  0.00000000000E+00  0.00000000000E+00  0.10408689637E+04  0.10408689637E+04  0.25500000920E-02 0. -1.
        2   -1    0    0  501    0  0.00000000000E+00  0.00000000000E+00 -0.18733724375E+04  0.18733724375E+04  0.25500000920E-02 0.  1.
    10030    2    1    2    0    0  0.00000000000E+00  0.00000000000E+00 -0.83250347377E+03  0.29142414012E+04  0.27928016239E+04 0.  0.
        4    1    3    3  502    0  0.11789351069E+03  0.12964484155E+04 -0.94344957404E+03  0.16077238835E+04  0.12699999809E+01 0.  1.
       -4    1    3    3    0  502 -0.11789351069E+03 -0.12964484155E+04  0.11094610027E+03  0.13065175177E+04  0.12699999809E+01 0. -1.
</event>
<event>
 5   0  0.3167616E-06  0.2806259E+04  0.7818609E-02  0.8301328E-01
        2   -1    0    0  501    0  0.00000000000E+00  0.00000000000E+00  0.15514158187E+04  0.15514158187E+04  0.25500000920E-02 0.  1.
       -2   -1    0    0    0  501  0.00000000000E+00  0.00000000000E+00 -0.12690165093E+04  0.12690165093E+04  0.25500000920E-02 0. -1.
    10030    2    1    2    0    0  0.00000000000E+00  0.00000000000E+00  0.28239930936E+03  0.28204323280E+04  0.28062589237E+04 0.  0.
        3    1    3    3  502    0  0.76223329241E+03  0.11673477741E+04  0.30034033490E+03  0.14261503234E+04  0.10100000352E+00 0. -1.
       -3    1    3    3    0  502 -0.76223329241E+03 -0.11673477741E+04 -0.17941025538E+02  0.13942820046E+04  0.10100000352E+00 0.  1.
</event>
<event>
 5   0  0.1243055E-06  0.2802986E+04  0.7818609E-02  0.8302342E-01
       -1   -1    0    0    0  501  0.00000000000E+00  0.00000000000E+00  0.68997023239E+03  0.68997023241E+03  0.50400001928E-02 0.  1.
        1   -1    0    0  501    0  0.00000000000E+00  0.00000000000E+00 -0.28467644187E+04  0.28467644187E+04  0.50400001928E-02 0. -1.
    10030    2    1    2    0    0  0.00000000000E+00  0.00000000000E+00 -0.21567941863E+04  0.35367346511E+04  0.28029860560E+04 0.  0.
        5    1    3    3  502    0 -0.14558730439E+01  0.73538910631E+03 -0.25837527750E+04  0.26863729730E+04  0.46999998093E+01 0. -1.
       -5    1    3    3    0  502  0.14558730439E+01 -0.73538910631E+03  0.42695858872E+03  0.85036167818E+03  0.46999998093E+01 0.  1.
</event>
<event>
 5   0  0.1220265E-06  0.2801873E+04  0.7818609E-02  0.8302687E-01
        1   -1    0    0  501    0  0.00000000000E+00  0.00000000000E+00  0.77944769349E+03  0.77944769350E+03  0.50400001928E-02 0.  1.
       -1   -1    0    0    0  501  0.00000000000E+00  0.00000000000E+00 -0.25179660189E+04  0.25179660189E+04  0.50400001928E-02 0. -1.
    10030    2    1    2    0    0  0.00000000000E+00  0.00000000000E+00 -0.17385183254E+04  0.32974137124E+04  0.28018728064E+04 0.  0.
        4    1    3    3  502    0 -0.83695890887E+03  0.13630413891E+03  0.44310777355E+03  0.95677852468E+03  0.12699999809E+01 0.  1.
       -4    1    3    3    0  502  0.83695890887E+03 -0.13630413891E+03 -0.21816260990E+04  0.23406351877E+04  0.12699999809E+01 0. -1.
</event>
<event>
 5   0  0.1243055E-06  0.2709946E+04  0.7818609E-02  0.8331785E-01
        1   -1    0    0  501    0  0.00000000000E+00  0.00000000000E+00  0.27053764141E+04  0.27053764141E+04  0.50400001928E-02 0.  1.
       -1   -1    0    0    0  501  0.00000000000E+00  0.00000000000E+00 -0.67863069922E+03  0.67863069924E+03  0.50400001928E-02 0. -1.
    10030    2    1    2    0    0  0.00000000000E+00  0.00000000000E+00  0.20267457149E+04  0.33840071134E+04  0.27099457468E+04 0.  0.
        5    1    3    3  502    0  0.31893493424E+03 -0.12784493848E+04  0.14078174954E+04  0.19282438933E+04  0.46999998093E+01 0.  1.
       -5    1    3    3    0  502 -0.31893493424E+03  0.12784493848E+04  0.61892821951E+03  0.14557632200E+04  0.46999998093E+01 0. -1.
</event>
<event>
 5   0  0.1220265E-06  0.2791439E+04  0.7818609E-02  0.8305931E-01
       -1   -1    0    0    0  501  0.00000000000E+00  0.00000000000E+00  0.13602285541E+04  0.13602285541E+04  0.50400001928E-02 0.  1.
        1   -1    0    0  501    0  0.00000000000E+00  0.00000000000E+00 -0.14321368140E+04  0.14321368140E+04  0.50400001928E-02 0. -1.
    10030    2    1    2    0    0  0.00000000000E+00  0.00000000000E+00 -0.71908259851E+02  0.27923653681E+04  0.27914393333E+04 0.  0.
        4    1    3    3  502    0  0.79951197582E+03  0.33906076461E+03 -0.11289511120E+04  0.14243292554E+04  0.12699999809E+01 0. -1.
       -4    1    3    3    0  502 -0.79951197582E+03 -0.33906076461E+03  0.10570428521E+04  0.13680361127E+04  0.12699999809E+01 0.  1.
</event>
<event>
 5   0  0.3167616E-06  0.2795999E+04  0.7818609E-02  0.8304512E-01
       -2   -1    0    0    0  501  0.00000000000E+00  0.00000000000E+00  0.61805579514E+03  0.61805579514E+03  0.25500000920E-02 0. -1.
        2   -1    0    0  501    0  0.00000000000E+00  0.00000000000E+00 -0.31621788017E+04  0.31621788017E+04  0.25500000920E-02 0.  1.
    10030    2    1    2    0    0  0.00000000000E+00  0.00000000000E+00 -0.25441230066E+04  0.37802345969E+04  0.27959992373E+04 0.  0.
        3    1    3    3  502    0 -0.13612721785E+03 -0.11928441328E+04 -0.22404248567E+04  0.25418322709E+04  0.10100000352E+00 0.  1.
       -3    1    3    3    0  502  0.13612721785E+03  0.11928441328E+04 -0.30369814988E+03  0.12384023260E+04  0.10100000352E+00 0. -1.
</event>
<event>
 5   0  0.1263513E-06  0.2794364E+04  0.7818609E-02  0.8305020E-01
       -1   -1    0    0    0  501  0.00000000000E+00  0.00000000000E+00  0.83679067198E+03  0.83679067200E+03  0.50400001928E-02 0.  1.
        1   -1    0    0  501    0  0.00000000000E+00  0.00000000000E+00 -0.23328624687E+04  0.23328624687E+04  0.50400001928E-02 0. -1.
    10030    2    1    2    0    0  0.00000000000E+00  0.00000000000E+00 -0.14960717967E+04  0.31696531407E+04  0.27943640084E+04 0.  0.
        3    1    3    3  502    0 -0.10714274247E+04 -0.81949916870E+03 -0.11610557503E+04  0.17797713559E+04  0.10100000352E+00 0. -1.
       -3    1    3    3    0  502  0.10714274247E+04  0.81949916870E+03 -0.33501604642E+03  0.13898817847E+04  0.10100000352E+00 0.  1.
</event>
<event>
 5   0  0.1065675E-06  0.2809795E+04  0.7818609E-02  0.8300234E-01
       -4   -1    0    0    0  501  0.00000000000E+00  0.00000000000E+00  0.12252169636E+04  0.12252176218E+04  0.12699999809E+01 0.  1.
        4   -1    0    0  501    0  0.00000000000E+00  0.00000000000E+00 -0.16109274888E+04  0.16109279894E+04  0.12699999809E+01 0. -1.
    10030    2    1    2    0    0  0.00000000000E+00  0.00000000000E+00 -0.38571052524E+03  0.28361456112E+04  0.28097952449E+04 0.  0.
        4    1    3    3  502    0 -0.52433951072E+03 -0.91385426642E+03 -0.11309113752E+04  0.15456466912E+04  0.12699999809E+01 0. -1.
       -4    1    3    3    0  502  0.52433951072E+03  0.91385426642E+03  0.74520084992E+03  0.12904989199E+04  0.12699999809E+01 0.  1.
</event>
<event>
 5   0  0.3167616E-06  0.2793387E+04  0.7818609E-02  0.8305324E-01
       -2   -1    0    0    0  501  0.00000000000E+00  0.00000000000E+00  0.14245193742E+04  0.14245193742E+04  0.25500000920E-02 0. -1.
        2   -1    0    0  501    0  0.00000000000E+00  0.00000000000E+00 -0.13694107985E+04  0.13694107985E+04  0.25500000920E-02 0.  1.
    10030    2    1    2    0    0  0.00000000000E+00  0.00000000000E+00  0.55108575732E+02  0.27939301726E+04  0.27933866282E+04 0.  0.
        3    1    3    3  502    0  0.82301959187E+03  0.63894504180E+03  0.95786439939E+03  0.14153148882E+04  0.10100000352E+00 0. -1.
       -3    1    3    3    0  502 -0.82301959187E+03 -0.63894504180E+03 -0.90275582365E+03  0.13786152844E+04  0.10100000352E+00 0.  1.
</event>
<event>
 5   0  0.1263513E-06  0.2800864E+04  0.7818609E-02  0.8303000E-01
       -1   -1    0    0    0  501  0.00000000000E+00  0.00000000000E+00  0.96747576440E+03  0.96747576441E+03  0.50400001928E-02 0. -1.
        1   -1    0    0  501    0  0.00000000000E+00  0.00000000000E+00 -0.20271415862E+04  0.20271415862E+04  0.50400001928E-02 0.  1.
    10030    2    1    2    0    0  0.00000000000E+00  0.00000000000E+00 -0.10596658218E+04  0.29946173506E+04  0.28008644063E+04 0.  0.
        3    1    3    3  502    0  0.43362523419E+03  0.88182543626E+03  0.53696882442E+03  0.11198135882E+04  0.10100000352E+00 0. -1.
       -3    1    3    3    0  502 -0.43362523419E+03 -0.88182543626E+03 -0.15966346462E+04  0.18748037624E+04  0.10100000352E+00 0.  1.
</event>
<event>
 5   0  0.3212679E-06  0.2827859E+04  0.7818609E-02  0.8294671E-01
        2   -1    0    0  501    0  0.00000000000E+00  0.00000000000E+00  0.12522829198E+04  0.12522829198E+04  0.25500000920E-02 0. -1.
       -2   -1    0    0    0  501  0.00000000000E+00  0.00000000000E+00 -0.15964420592E+04  0.15964420592E+04  0.25500000920E-02 0.  1.
    10030    2    1    2    0    0  0.00000000000E+00  0.00000000000E+00 -0.34415913943E+03  0.28487249790E+04  0.28278593481E+04 0.  0.
        4    1    3    3  502    0  0.57901879376E+03  0.22804460294E+03 -0.14510649884E+04  0.15788788167E+04  0.12699999809E+01 0.  1.
       -4    1    3    3    0  502 -0.57901879376E+03 -0.22804460294E+03  0.11069058490E+04  0.12698461623E+04  0.12699999809E+01 0. -1.
</event>
<event>
 5   0  0.1065675E-06  0.2789090E+04  0.7818609E-02  0.8306664E-01
        4   -1    0    0  501    0  0.00000000000E+00  0.00000000000E+00  0.99196150155E+03  0.99196231453E+03  0.12699999809E+01 0. -1.
       -4   -1    0    0    0  501  0.00000000000E+00  0.00000000000E+00 -0.19605133565E+04  0.19605137679E+04  0.12699999809E+01 0.  1.
    10030    2    1    2    0    0  0.00000000000E+00  0.00000000000E+00 -0.96855185499E+03  0.29524760824E+04  0.27890898733E+04 0.  0.
        3    1    3    3  502    0  0.28354066893E+02 -0.52154428228E+03  0.88450717800E+03  0.10272124170E+04  0.10100000352E+00 0. -1.
       -3    1    3    3    0  502 -0.28354066893E+02  0.52154428228E+03 -0.18530590330E+04  0.19252636654E+04  0.10100000352E+00 0.  1.
</event>
<event>
 5   0  0.1246044E-06  0.2810160E+04  0.7818609E-02  0.8300121E-01
       -1   -1    0    0    0  501  0.00000000000E+00  0.00000000000E+00  0.12637402551E+04  0.12637402551E+04  0.50400001928E-02 0. -1.
        1   -1    0    0  501    0  0.00000000000E+00  0.00000000000E+00 -0.15622276723E+04  0.15622276723E+04  0.50400001928E-02 0.  1.
    10030    2    1    2    0    0  0.00000000000E+00  0.00000000000E+00 -0.29848741720E+03  0.28259679274E+04  0.28101601357E+04 0.  0.
        2    1    3    3  502    0 -0.20322337611E+03 -0.11261725630E+04 -0.96911239567E+03  0.14995810140E+04  0.25500000920E-02 0.  1.
       -2    1    3    3    0  502  0.20322337611E+03  0.11261725630E+04  0.67062497848E+03  0.13263869134E+04  0.25500000920E-02 0. -1.
</event>
<event>
 5   0  0.1220265E-06  0.2837920E+04  0.7818609E-02  0.8291591E-01
        1   -1    0    0  501    0  0.00000000000E+00  0.00000000000E+00  0.14988742829E+04  0.14988742829E+04  0.50400001928E-02 0. -1.
       -1   -1    0    0    0  501  0.00000000000E+00  0.00000000000E+00 -0.13433066210E+04  0.13433066210E+04  0.50400001928E-02 0.  1.
    10030    2    1    2    0    0  0.00000000000E+00  0.00000000000E+00  0.15556766186E+03  0.28421809039E+04  0.28379201880E+04 0.  0.
        4    1    3    3  502    0 -0.10060553003E+03 -0.80613051532E+03  0.12429213332E+04  0.14848646180E+04  0.12699999809E+01 0. -1.
       -4    1    3    3    0  502  0.10060553003E+03  0.80613051532E+03 -0.10873536714E+04  0.13573162859E+04  0.12699999809E+01 0.  1.
</event>
<event>
 5   0  0.1263513E-06  0.2794985E+04  0.7818609E-02  0.8304827E-01
       -1   -1    0    0    0  501  0.00000000000E+00  0.00000000000E+00  0.11809801490E+04  0.11809801490E+04  0.50400001928E-02 0.  1.
        1   -1    0    0  501    0  0.00000000000E+00  0.00000000000E+00 -0.16536990578E+04  0.16536990578E+04  0.50400001928E-02 0. -1.
    10030    2    1    2    0    0  0.00000000000E+00  0.00000000000E+00 -0.47271890878E+03  0.28346792068E+04  0.27949853378E+04 0.  0.
        3    1    3    3  502    0 -0.37945231693E+03 -0.87881367715E+02  0.11248182385E+04  0.11903458638E+04  0.10100000352E+00 0.  1.
       -3    1    3    3    0  502  0.37945231693E+03  0.87881367715E+02 -0.15975371473E+04  0.16443333430E+04  0.10100000352E+00 0. -1.
</event>
<event>
 5   0  0.1243055E-06  0.2803799E+04  0.7818609E-02  0.8302090E-01
        1   -1    0    0  501    0  0.00000000000E+00  0.00000000000E+00  0.12693496828E+04  0.12693496828E+04  0.50400001928E-02 0.  1.
       -1   -1    0    0    0  501  0.00000000000E+00  0.00000000000E+00 -0.15482901901E+04  0.15482901901E+04  0.50400001928E-02 0. -1.
    10030    2    1    2    0    0  0.00000000000E+00  0.00000000000E+00 -0.27894050730E+03  0.28176398728E+04  0.28037986102E+04 0.  0.
        5    1    3    3  502    0  0.46559640599E+03  0.99676332659E+03 -0.10126569101E+04  0.14952636055E+04  0.46999998093E+01 0. -1.
       -5    1    3    3    0  502 -0.46559640599E+03 -0.99676332659E+03  0.73371640280E+03  0.13223762673E+04  0.46999998093E+01 0.  1.
</event>
<event>
 5   0  0.3167616E-06  0.2779264E+04  0.7818609E-02  0.8309735E-01
       -2   -1    0    0    0  501  0.00000000000E+00  0.00000000000E+00  0.13388191245E+04  0.13388191245E+04  0.25500000920E-02 0. -1.
        2   -1    0    0  501    0  0.00000000000E+00  0.00000000000E+00 -0.14423735945E+04  0.14423735945E+04  0.25500000920E-02 0.  1.
    10030    2    1    2    0    0  0.00000000000E+00  0.00000000000E+00 -0.10355447004E+03  0.27811927190E+04  0.27792641853E+04 0.  0.
        3    1    3    3  502    0  0.84345723323E+03 -0.19467994712E+03  0.10360635483E+04  0.13500918756E+04  0.10100000352E+00 0. -1.
       -3    1    3    3    0  502 -0.84345723323E+03  0.19467994712E+03 -0.11396180184E+04  0.14311008434E+04  0.10100000352E+00 0.  1.
</event>
<event>
 5   0  0.1235252E-06  0.2805370E+04  0.7818609E-02  0.8301603E-01
       -1   -1    0    0    0  501  0.00000000000E+00  0.00000000000E+00  0.86617934676E+03  0.86617934677E+03  0.50400001928E-02 0.  1.
        1   -1    0    0  501    0  0.00000000000E+00  0.00000000000E+00 -0.22714992607E+04  0.22714992607E+04  0.50400001928E-02 0. -1.
    10030    2    1    2    0    0  0.00000000000E+00  0.00000000000E+00 -0.14053199140E+04  0.31376786075E+04  0.28053703826E+04 0.  0.
        1    1    3    3  502    0 -0.13437164945E+04  0.38668325826E+03 -0.57797469224E+03  0.15129946149E+04  0.50400001928E-02 0.  1.
       -1    1    3    3    0  502  0.13437164945E+04 -0.38668325826E+03 -0.82734522174E+03  0.16246839926E+04  0.50400001928E-02 0. -1.
</event>
<event>
 5   0  0.3162695E-06  0.2798381E+04  0.7818609E-02  0.8303771E-01
        2   -1    0    0  501    0  0.00000000000E+00  0.00000000000E+00  0.18417355804E+04  0.18417355804E+04  0.25500000920E-02 0.  1.
       -2   -1    0    0    0  501  0.00000000000E+00  0.00000000000E+00 -0.10629832238E+04  0.10629832238E+04  0.25500000920E-02 0. -1.
    10030    2    1    2    0    0  0.00000000000E+00  0.00000000000E+00  0.77875235663E+03  0.29047188041E+04  0.27983809780E+04 0.  0.
        1    1    3    3  502    0  0.50666054066E+02  0.58052973851E+03  0.17097805086E+04  0.18063585508E+04  0.50400001928E-02 0.  1.
       -1    1    3    3    0  502 -0.50666054066E+02 -0.58052973851E+03 -0.93102815199E+03  0.10983602534E+04  0.50400001928E-02 0. -1.
</event>
<event>
 5   0  0.1263513E-06  0.2805970E+04  0.7818609E-02  0.8301417E-01
        1   -1    0    0  501    0  0.00000000000E+00  0.00000000000E+00  0.17161542739E+04  0.17161542739E+04  0.50400001928E-02 0.  1.
       -1   -1    0    0    0  501  0.00000000000E+00  0.00000000000E+00 -0.11469641171E+04  0.11469641171E+04  0.50400001928E-02 0. -1.
    10030    2    1    2    0    0  0.00000000000E+00  0.00000000000E+00  0.56919015678E+03  0.28631183910E+04  0.28059703288E+04 0.  0.
        3    1    3    3  502    0  0.93519341194E+03 -0.25178107250E+03  0.13203485651E+04  0.16374677920E+04  0.10100000352E+00 0.  1.
       -3    1    3    3    0  502 -0.93519341194E+03  0.25178107250E+03 -0.75115840833E+03  0.12256505990E+04  0.10100000352E+00 0. -1.
</event>
<event>
 5   0  0.1246044E-06  0.2793370E+04  0.7818609E-02  0.8305330E-01
       -1   -1    0    0    0  501  0.00000000000E+00  0.00000000000E+00  0.16585795475E+04  0.16585795475E+04  0.50400001928E-02 0. -1.
        1   -1    0    0  501    0  0.00000000000E+00  0.00000000000E+00 -0.11761446592E+04  0.11761446592E+04  0.50400001928E-02 0.  1.
    10030    2    1    2    0    0  0.00000000000E+00  0.00000000000E+00  0.48243488829E+03  0.28347242067E+04  0.27933703490E+04 0.  0.
        2    1    3    3  502    0  0.30348373658E+03 -0.36716208242E+03 -0.10911626573E+04  0.11906075415E+04  0.25500000920E-02 0.  1.
       -2    1    3    3    0  502 -0.30348373658E+03  0.36716208242E+03  0.15735975456E+04  0.16441166652E+04  0.25500000920E-02 0. -1.
</event>
<event>
 5   0  0.1243055E-06  0.2787455E+04  0.7818609E-02  0.8307174E-01
       -1   -1    0    0    0  501  0.00000000000E+00  0.00000000000E+00  0.11468465985E+04  0.11468465985E+04  0.50400001928E-02 0. -1.
        1   -1    0    0  501    0  0.00000000000E+00  0.00000000000E+00 -0.16937546391E+04  0.16937546391E+04  0.50400001928E-02 0.  1.
    10030    2    1    2    0    0  0.00000000000E+00  0.00000000000E+00 -0.54690804062E+03  0.28406012377E+04  0.27874552887E+04 0.  0.
        5    1    3    3  502    0 -0.17137151132E+03 -0.81505238032E+03  0.86533860880E+03  0.12010460339E+04  0.46999998093E+01 0. -1.
       -5    1    3    3    0  502  0.17137151132E+03  0.81505238032E+03 -0.14122466494E+04  0.16395552038E+04  0.46999998093E+01 0.  1.
</event>
<event>
 5   0  0.3226364E-06  0.2752578E+04  0.7818609E-02  0.8318144E-01
        2   -1    0    0  501    0  0.00000000000E+00  0.00000000000E+00  0.23969747444E+04  0.23969747444E+04  0.25500000920E-02 0. -1.
       -2   -1    0    0    0  501  0.00000000000E+00  0.00000000000E+00 -0.79023436394E+03  0.79023436395E+03  0.25500000920E-02 0.  1.
    10030    2    1    2    0    0  0.00000000000E+00  0.00000000000E+00  0.16067403805E+04  0.31872091084E+04  0.27525782914E+04 0.  0.
        5    1    3    3  502    0  0.61659555704E+03 -0.83907722300E+03  0.18454212625E+04  0.21189248201E+04  0.46999998093E+01 0. -1.
       -5    1    3    3    0  502 -0.61659555704E+03  0.83907722300E+03 -0.23868088203E+03  0.10682842883E+04  0.46999998093E+01 0.  1.
</event>
<event>
 5   0  0.3226364E-06  0.2799569E+04  0.7818609E-02  0.8303402E-01
       -2   -1    0    0    0  501  0.00000000000E+00  0.00000000000E+00  0.10542248073E+04  0.10542248073E+04  0.25500000920E-02 0.  1.
        2   -1    0    0  501    0  0.00000000000E+00  0.00000000000E+00 -0.18586136349E+04  0.18586136349E+04  0.25500000920E-02 0. -1.
    10030    2    1    2    0    0  0.00000000000E+00  0.00000000000E+00 -0.80438882766E+03  0.29128384422E+04  0.27995689676E+04 0.  0.
        5    1    3    3  502    0  0.12817708009E+03  0.35715237948E+03  0.99968247531E+03  0.10692868312E+04  0.46999998093E+01 0.  1.
       -5    1    3    3    0  502 -0.12817708009E+03 -0.35715237948E+03 -0.18040713030E+04  0.18435516109E+04  0.46999998093E+01 0. -1.
</event>
<event>
 5   0  0.3226364E-06  0.2818777E+04  0.7818609E-02  0.8297463E-01
       -2   -1    0    0    0  501  0.00000000000E+00  0.00000000000E+00  0.78889275130E+03  0.78889275130E+03  0.25500000920E-02 0. -1.
        2   -1    0    0  501    0  0.00000000000E+00  0.00000000000E+00 -0.25179286024E+04  0.25179286024E+04  0.25500000920E-02 0.  1.
    10030    2    1    2    0    0  0.00000000000E+00  0.00000000000E+00 -0.17290358511E+04  0.33068213537E+04  0.28187767721E+04 0.  0.
        5    1    3    3  502    0  0.11598080897E+04  0.70696462595E+03 -0.42338003382E+03  0.14227531515E+04  0.46999998093E+01 0. -1.
       -5    1    3    3    0  502 -0.11598080897E+04 -0.70696462595E+03 -0.13056558173E+04  0.18840682021E+04  0.46999998093E+01 0.  1.
</event>
<event>
 5   0  0.1220265E-06  0.2805487E+04  0.7818609E-02  0.8301567E-01
        1   -1    0    0  501    0  0.00000000000E+00  0.00000000000E+00  0.12659143815E+04  0.12659143816E+04  0.50400001928E-02 0. -1.
       -1   -1    0    0    0  501  0.00000000000E+00  0.00000000000E+00 -0.15543619049E+04  0.15543619049E+04  0.50400001928E-02 0.  1.
    10030    2    1    2    0    0  0.00000000000E+00  0.00000000000E+00 -0.28844752334E+03  0.28202762864E+04  0.28054868309E+04 0.  0.
        4    1    3    3  502    0 -0.24454332305E+03  0.19345300045E+03 -0.15190818196E+04  0.15507535871E+04  0.12699999809E+01 0.  1.
       -4    1    3    3    0  502  0.24454332305E+03 -0.19345300045E+03  0.12306342963E+04  0.12695226994E+04  0.12699999809E+01 0. -1.
</event>
<event>
 5   0  0.3345919E-06  0.2805617E+04  0.7818609E-02  0.8301526E-01
        2   -1    0    0  501    0  0.00000000000E+00  0.00000000000E+00  0.24968356834E+04  0.24968356834E+04  0.25500000920E-02 0. -1.
       -2   -1    0    0    0  501  0.00000000000E+00  0.00000000000E+00 -0.78814653295E+03  0.78814653296E+03  0.25500000920E-02 0.  1.
    10030    2    1    2    0    0  0.00000000000E+00  0.00000000000E+00  0.17086891504E+04  0.32849822163E+04  0.28056174987E+04 0.  0.
        2    1    3    3  502    0 -0.19346587689E+03 -0.12576680722E+04  0.16292849069E+03  0.12828498425E+04  0.25500000920E-02 0.  1.
       -2    1    3    3    0  502  0.19346587689E+03  0.12576680722E+04  0.15457606597E+04  0.20021323738E+04  0.25500000920E-02 0. -1.
</event>
<event>
 5   0  0.3167616E-06  0.2764287E+04  0.7818609E-02  0.8314442E-01
       -2   -1    0    0    0  501  0.00000000000E+00  0.00000000000E+00  0.13548185791E+04  0.13548185791E+04  0.25500000920E-02 0. -1.
        2   -1    0    0  501    0  0.00000000000E+00  0.00000000000E+00 -0.14100194634E+04  0.14100194634E+04  0.25500000920E-02 0.  1.
    10030    2    1    2    0    0  0.00000000000E+00  0.00000000000E+00 -0.55200884267E+02  0.27648380425E+04  0.27642869358E+04 0.  0.
        3    1    3    3  502    0  0.46668298255E+03  0.51472823641E+02  0.12726118389E+04  0.13564598632E+04  0.10100000352E+00 0. -1.
       -3    1    3    3    0  502 -0.46668298255E+03 -0.51472823641E+02 -0.13278127232E+04  0.14083781793E+04  0.10100000352E+00 0.  1.
</event>
<event>
 5   0  0.1263513E-06  0.2803696E+04  0.7818609E-02  0.8302122E-01
       -1   -1    0    0    0  501  0.00000000000E+00  0.00000000000E+00  0.11022126180E+04  0.11022126180E+04  0.50400001928E-02 0. -1.
        1   -1    0    0  501    0  0.00000000000E+00  0.00000000000E+00 -0.17829383944E+04  0.17829383944E+04  0.50400001928E-02 0.  1.
    10030    2    1    2    0    0  0.00000000000E+00  0.00000000000E+00 -0.68072577640E+03  0.28851510124E+04  0.28036955579E+04 0.  0.
        3    1    3    3  502    0  0.11103451112E+04  0.81686050626E+03 -0.77904300726E+02  0.13806507317E+04  0.10100000352E+00 0.  1.
       -3    1    3    3    0  502 -0.11103451112E+04 -0.81686050626E+03 -0.60282147568E+03  0.15045002806E+04  0.10100000352E+00 0. -1.
</event>
<event>
 5   0  0.3167616E-06  0.2797221E+04  0.7818609E-02  0.8304132E-01
        2   -1    0    0  501    0  0.00000000000E+00  0.00000000000E+00  0.14402946758E+04  0.14402946758E+04  0.25500000920E-02 0. -1.
       -2   -1    0    0    0  501  0.00000000000E+00  0.00000000000E+00 -0.13581323748E+04  0.13581323748E+04  0.25500000920E-02 0.  1.
    10030    2    1    2    0    0  0.00000000000E+00  0.00000000000E+00  0.82162301004E+02  0.27984270507E+04  0.27972206410E+04 0.  0.
        3    1    3    3  502    0  0.39637581664E+03  0.12941020592E+04  0.39379084639E+03  0.14095691429E+04  0.10100000352E+00 0.  1.
       -3    1    3    3    0  502 -0.39637581664E+03 -0.12941020592E+04 -0.31162854539E+03  0.13888579078E+04  0.10100000352E+00 0. -1.
</event>
<event>
 5   0  0.1235252E-06  0.2800053E+04  0.7818609E-02  0.8303252E-01
       -1   -1    0    0    0  501  0.00000000000E+00  0.00000000000E+00  0.12007253050E+04  0.12007253050E+04  0.50400001928E-02 0. -1.
        1   -1    0    0  501    0  0.00000000000E+00  0.00000000000E+00 -0.16324086827E+04  0.16324086827E+04  0.50400001928E-02 0.  1.
    10030    2    1    2    0    0  0.00000000000E+00  0.00000000000E+00 -0.43168337773E+03  0.28331339878E+04  0.28000531520E+04 0.  0.
        1    1    3    3  502    0  0.57048220301E+03 -0.78818370207E+03 -0.12344080832E+04  0.15717655067E+04  0.50400001928E-02 0.  1.
       -1    1    3    3    0  502 -0.57048220301E+03  0.78818370207E+03  0.80272470548E+03  0.12613684810E+04  0.50400001928E-02 0. -1.
</event>
<event>
 5   0  0.3226364E-06  0.2796757E+04  0.7818609E-02  0.8304276E-01
       -2   -1    0    0    0  501  0.00000000000E+00  0.00000000000E+00  0.15036872015E+04  0.15036872015E+04  0.25500000920E-02 0.  1.
        2   -1    0    0  501    0  0.00000000000E+00  0.00000000000E+00 -0.13004451286E+04  0.13004451286E+04  0.25500000920E-02 0. -1.
    10030    2    1    2    0    0  0.00000000000E+00  0.00000000000E+00  0.20324207295E+03  0.28041323301E+04  0.27967571909E+04 0.  0.
        5    1    3    3  502    0  0.87507322586E+03  0.60044552435E+03 -0.81135837095E+03  0.13358938859E+04  0.46999998093E+01 0. -1.
       -5    1    3    3    0  502 -0.87507322586E+03 -0.60044552435E+03  0.10146004439E+04  0.14682384442E+04  0.46999998093E+01 0.  1.
</event>
<event>
 5   0  0.1263513E-06  0.2802242E+04  0.7818609E-02  0.8302573E-01
       -1   -1    0    0    0  501  0.00000000000E+00  0.00000000000E+00  0.14842378306E+04  0.14842378306E+04  0.50400001928E-02 0. -1.
        1   -1    0    0  501    0  0.00000000000E+00  0.00000000000E+00 -0.13226588345E+04  0.13226588346E+04  0.50400001928E-02 0.  1.
    10030    2    1    2    0    0  0.00000000000E+00  0.00000000000E+00  0.16157899602E+03  0.28068966651E+04  0.28022421588E+04 0.  0.
        3    1    3    3  502    0  0.68863057347E+03  0.85996291566E+03  0.94790167302E+03  0.14533636417E+04  0.10100000352E+00 0. -1.
       -3    1    3    3    0  502 -0.68863057347E+03 -0.85996291566E+03 -0.78632267700E+03  0.13535330235E+04  0.10100000352E+00 0.  1.
</event>
<event>
 5   0  0.3345919E-06  0.2779425E+04  0.7818609E-02  0.8309685E-01
        2   -1    0    0  501    0  0.00000000000E+00  0.00000000000E+00  0.12730371527E+04  0.12730371527E+04  0.25500000920E-02 0.  1.
       -2   -1    0    0    0  501  0.00000000000E+00  0.00000000000E+00 -0.15170807775E+04  0.15170807775E+04  0.25500000920E-02 0. -1.
    10030    2    1    2    0    0  0.00000000000E+00  0.00000000000E+00 -0.24404362480E+03  0.27901179301E+04  0.27794245399E+04 0.  0.
        2    1    3    3  502    0 -0.10495524202E+04 -0.90909019050E+03 -0.17964418942E+03  0.14000990294E+04  0.25500000920E-02 0.  1.
       -2    1    3    3    0  502  0.10495524202E+04  0.90909019050E+03 -0.64399435383E+02  0.13900189008E+04  0.25500000920E-02 0. -1.
</event>
<event>
 5   0  0.1243055E-06  0.2842413E+04  0.7818609E-02  0.8290221E-01
       -1   -1    0    0    0  501  0.00000000000E+00  0.00000000000E+00  0.23145806577E+04  0.23145806577E+04  0.50400001928E-02 0.  1.
        1   -1    0    0  501    0  0.00000000000E+00  0.00000000000E+00 -0.87265384818E+03  0.87265384820E+03  0.50400001928E-02 0. -1.
    10030    2    1    2    0    0  0.00000000000E+00  0.00000000000E+00  0.14419268095E+04  0.31872345059E+04  0.28424128608E+04 0.  0.
        5    1    3    3  502    0 -0.72724849573E+03  0.11990487349E+04  0.97958929557E+03  0.17106213846E+04  0.46999998093E+01 0.  1.
       -5    1    3    3    0  502  0.72724849573E+03 -0.11990487349E+04  0.46233751391E+03  0.14766131213E+04  0.46999998093E+01 0. -1.
</event>
<event>
 5   0  0.1246044E-06  0.2801090E+04  0.7818609E-02  0.8302930E-01
       -1   -1    0    0    0  501  0.00000000000E+00  0.00000000000E+00  0.14922759974E+04  0.14922759974E+04  0.50400001928E-02 0.  1.
        1   -1    0    0  501    0  0.00000000000E+00  0.00000000000E+00 -0.13144523098E+04  0.13144523098E+04  0.50400001928E-02 0. -1.
    10030    2    1    2    0    0  0.00000000000E+00  0.00000000000E+00  0.17782368761E+03  0.28067283072E+04  0.28010895249E+04 0.  0.
        2    1    3    3  502    0  0.12589678486E+04  0.54517869112E+03 -0.19326788572E+03  0.13854863134E+04  0.25500000920E-02 0. -1.
       -2    1    3    3    0  502 -0.12589678486E+04 -0.54517869112E+03  0.37109157334E+03  0.14212419938E+04  0.25500000920E-02 0.  1.
</event>
<event>
 5   0  0.1065675E-06  0.2805650E+04  0.7818609E-02  0.8301516E-01
        3   -1    0    0  501    0  0.00000000000E+00  0.00000000000E+00  0.11981927163E+04  0.11981927206E+04  0.10100000352E+00 0. -1.
       -3   -1    0    0    0  501  0.00000000000E+00  0.00000000000E+00 -0.16424054378E+04  0.16424054409E+04  0.10100000352E+00 0.  1.
    10030    2    1    2    0    0  0.00000000000E+00  0.00000000000E+00 -0.44421272145E+03  0.28405981614E+04  0.28056501872E+04 0.  0.
        2    1    3    3  502    0 -0.74728645099E+03 -0.56589671186E+03  0.83456148578E+03  0.12550573700E+04  0.25500000920E-02 0. -1.
       -2    1    3    3    0  502  0.74728645099E+03  0.56589671186E+03 -0.12787742072E+04  0.15855407915E+04  0.25500000920E-02 0.  1.
</event>
<event>
 5   0  0.3226364E-06  0.2805613E+04  0.7818609E-02  0.8301528E-01
       -2   -1    0    0    0  501  0.00000000000E+00  0.00000000000E+00  0.81340445752E+03  0.81340445753E+03  0.25500000920E-02 0. -1.
        2   -1    0    0  501    0  0.00000000000E+00  0.00000000000E+00 -0.24192962871E+04  0.24192962871E+04  0.25500000920E-02 0.  1.
    10030    2    1    2    0    0  0.00000000000E+00  0.00000000000E+00 -0.16058918295E+04  0.32327007446E+04  0.28056132192E+04 0.  0.
        5    1    3    3  502    0 -0.10909680818E+04 -0.84923208614E+03 -0.52921569156E+03  0.14803708420E+04  0.46999998093E+01 0. -1.
       -5    1    3    3    0  502  0.10909680818E+04  0.84923208614E+03 -0.10766761380E+04  0.17523299026E+04  0.46999998093E+01 0.  1.
</event>
<event>
 5   0  0.1243055E-06  0.2792431E+04  0.7818609E-02  0.8305622E-01
       -1   -1    0    0    0  501  0.00000000000E+00  0.00000000000E+00  0.13885667904E+04  0.13885667904E+04  0.50400001928E-02 0. -1.
        1   -1    0    0  501    0  0.00000000000E+00  0.00000000000E+00 -0.14039062163E+04  0.14039062163E+04  0.50400001928E-02 0.  1.
    10030    2    1    2    0    0  0.00000000000E+00  0.00000000000E+00 -0.15339425898E+02  0.27924730067E+04  0.27924308757E+04 0.  0.
        5    1    3    3  502    0  0.53308175921E+03 -0.10852580347E+02  0.12827378829E+04  0.13891481227E+04  0.46999998093E+01 0. -1.
       -5    1    3    3    0  502 -0.53308175921E+03  0.10852580347E+02 -0.12980773088E+04  0.14033248840E+04  0.46999998093E+01 0.  1.
</event>
<event>
 5   0  0.3162695E-06  0.2803975E+04  0.7818609E-02  0.8302035E-01
        2   -1    0    0  501    0  0.00000000000E+00  0.00000000000E+00  0.17407559333E+04  0.17407559333E+04  0.25500000920E-02 0.  1.
       -2   -1    0    0    0  501  0.00000000000E+00  0.00000000000E+00 -0.11291468017E+04  0.11291468017E+04  0.25500000920E-02 0. -1.
    10030    2    1    2    0    0  0.00000000000E+00  0.00000000000E+00  0.61160913158E+03  0.28699027350E+04  0.28039750317E+04 0.  0.
        1    1    3    3  502    0 -0.14009291090E+04  0.53798385816E+02  0.31451103438E+03  0.14368068156E+04  0.50400001928E-02 0.  1.
       -1    1    3    3    0  502  0.14009291090E+04 -0.53798385816E+02  0.29709809720E+03  0.14330959193E+04  0.50400001928E-02 0. -1.
</event>
<event>
 5   0  0.3226364E-06  0.2801653E+04  0.7818609E-02  0.8302755E-01
        2   -1    0    0  501    0  0.00000000000E+00  0.00000000000E+00  0.14002761944E+04  0.14002761944E+04  0.25500000920E-02 0. -1.
       -2   -1    0    0    0  501  0.00000000000E+00  0.00000000000E+00 -0.14013773687E+04  0.14013773687E+04  0.25500000920E-02 0.  1.
    10030    2    1    2    0    0  0.00000000000E+00  0.00000000000E+00 -0.11011742977E+01  0.28016535631E+04  0.28016533467E+04 0.  0.
        5    1    3    3  502    0  0.35873035476E+03  0.82675655593E+03 -0.10729682233E+04  0.14012482893E+04  0.46999998093E+01 0.  1.
       -5    1    3    3    0  502 -0.35873035476E+03 -0.82675655593E+03  0.10718670490E+04  0.14004052738E+04  0.46999998093E+01 0. -1.
</event>
<event>
 5   0  0.3226364E-06  0.2787991E+04  0.7818609E-02  0.8307006E-01
       -2   -1    0    0    0  501  0.00000000000E+00  0.00000000000E+00  0.63296242131E+03  0.63296242131E+03  0.25500000920E-02 0.  1.
        2   -1    0    0  501    0  0.00000000000E+00  0.00000000000E+00 -0.30700458931E+04  0.30700458931E+04  0.25500000920E-02 0. -1.
    10030    2    1    2    0    0  0.00000000000E+00  0.00000000000E+00 -0.24370834718E+04  0.37030083144E+04  0.27879911635E+04 0.  0.
        5    1    3    3  502    0  0.85632632213E+03 -0.81684137586E+03 -0.24010218985E+03  0.12075577646E+04  0.46999998093E+01 0.  1.
       -5    1    3    3    0  502 -0.85632632213E+03  0.81684137586E+03 -0.21969812819E+04  0.24954505498E+04  0.46999998093E+01 0. -1.
</event>
<event>
 5   0  0.1243055E-06  0.2805859E+04  0.7818609E-02  0.8301452E-01
        1   -1    0    0  501    0  0.00000000000E+00  0.00000000000E+00  0.15288065401E+04  0.15288065401E+04  0.50400001928E-02 0.  1.
       -1   -1    0    0    0  501  0.00000000000E+00  0.00000000000E+00 -0.12874167776E+04  0.12874167776E+04  0.50400001928E-02 0. -1.
    10030    2    1    2    0    0  0.00000000000E+00  0.00000000000E+00  0.24138976250E+03  0.28162233177E+04  0.28058590054E+04 0.  0.
        5    1    3    3  502    0  0.48229177793E+03 -0.82703336335E+03 -0.90856831360E+03  0.13198893945E+04  0.46999998093E+01 0. -1.
       -5    1    3    3    0  502 -0.48229177793E+03  0.82703336335E+03  0.11499580761E+04  0.14963339233E+04  0.46999998093E+01 0.  1.
</event>
<event>
 5   0  0.1243055E-06  0.2815413E+04  0.7818609E-02  0.8298499E-01
       -1   -1    0    0    0  501  0.00000000000E+00  0.00000000000E+00  0.10739316706E+04  0.10739316707E+04  0.50400001928E-02 0. -1.
        1   -1    0    0  501    0  0.00000000000E+00  0.00000000000E+00 -0.18452176515E+04  0.18452176515E+04  0.50400001928E-02 0.  1.
    10030    2    1    2    0    0  0.00000000000E+00  0.00000000000E+00 -0.77128598086E+03  0.29191493222E+04  0.28154130604E+04 0.  0.
        5    1    3    3  502    0  0.12838252923E+04  0.57022754028E+03 -0.29147388884E+03  0.14346936770E+04  0.46999998093E+01 0. -1.
       -5    1    3    3    0  502 -0.12838252923E+04 -0.57022754028E+03 -0.47981209202E+03  0.14844556452E+04  0.46999998093E+01 0.  1.
</event>
<event>
 5   0  0.3226364E-06  0.2802432E+04  0.7818609E-02  0.8302514E-01
        2   -1    0    0  501    0  0.00000000000E+00  0.00000000000E+00  0.16032808255E+04  0.16032808255E+04  0.25500000920E-02 0. -1.
       -2   -1    0    0    0  501  0.00000000000E+00  0.00000000000E+00 -0.12246174938E+04  0.12246174938E+04  0.25500000920E-02 0.  1.
    10030    2    1    2    0    0  0.00000000000E+00  0.00000000000E+00  0.37866333170E+03  0.28278983193E+04  0.28024316201E+04 0.  0.
        5    1    3    3  502    0 -0.94929115522E+03 -0.63461993836E+03 -0.63013642450E+03  0.13042201375E+04  0.46999998093E+01 0.  1.
       -5    1    3    3    0  502  0.94929115522E+03  0.63461993836E+03  0.10087997562E+04  0.15236781818E+04  0.46999998093E+01 0. -1.
</event>
<event>
 5   0  0.1220265E-06  0.2801593E+04  0.7818609E-02  0.8302774E-01
       -1   -1    0    0    0  501  0.00000000000E+00  0.00000000000E+00  0.96602159283E+03  0.96602159284E+03  0.50400001928E-02 0. -1.
        1   -1    0    0  501    0  0.00000000000E+00  0.00000000000E+00 -0.20312499417E+04  0.20312499417E+04  0.50400001928E-02 0.  1.
    10030    2    1    2    0    0  0.00000000000E+00  0.00000000000E+00 -0.10652283489E+04  0.29972715346E+04  0.28015933354E+04 0.  0.
        4    1    3    3  502    0  0.12757893740E+04 -0.29321467682E+03 -0.10660544574E+04  0.16882200960E+04  0.12699999809E+01 0.  1.
       -4    1    3    3    0  502 -0.12757893740E+04  0.29321467682E+03  0.82610848311E+00  0.13090514386E+04  0.12699999809E+01 0. -1.
</event>
<event>
 5   0  0.3162695E-06  0.2802287E+04  0.7818609E-02  0.8302559E-01
       -2   -1    0    0    0  501  0.00000000000E+00  0.00000000000E+00  0.14115189446E+04  0.14115189446E+04  0.25500000920E-02 0. -1.
        2   -1    0    0  501    0  0.00000000000E+00  0.00000000000E+00 -0.13908446929E+04  0.13908446929E+04  0.25500000920E-02 0.  1.
    10030    2    1    2    0    0  0.00000000000E+00  0.00000000000E+00  0.20674251727E+02  0.28023636376E+04  0.28022873751E+04 0.  0.
        1    1    3    3  502    0 -0.11733275607E+04  0.81567635753E+02 -0.75116425321E+03  0.13955638929E+04  0.50400001928E-02 0.  1.
       -1    1    3    3    0  502  0.11733275607E+04 -0.81567635753E+02  0.77183850493E+03  0.14067997447E+04  0.50400001928E-02 0. -1.
</event>
<event>
 5   0  0.1243055E-06  0.2803717E+04  0.7818609E-02  0.8302115E-01
       -1   -1    0    0    0  501  0.00000000000E+00  0.00000000000E+00  0.11785286380E+04  0.11785286380E+04  0.50400001928E-02 0. -1.
        1   -1    0    0  501    0  0.00000000000E+00  0.00000000000E+00 -0.16675089482E+04  0.16675089482E+04  0.50400001928E-02 0.  1.
    10030    2    1    2    0    0  0.00000000000E+00  0.00000000000E+00 -0.48898031014E+03  0.28460375862E+04  0.28037168542E+04 0.  0.
        5    1    3    3  502    0  0.12579850161E+04  0.15838587245E+03 -0.85148999918E+03  0.15273079892E+04  0.46999998093E+01 0.  1.
       -5    1    3    3    0  502 -0.12579850161E+04 -0.15838587245E+03  0.36250968904E+03  0.13187295970E+04  0.46999998093E+01 0. -1.
</event>
<event>
 5   0  0.1235252E-06  0.2830784E+04  0.7818609E-02  0.8293774E-01
       -1   -1    0    0    0  501  0.00000000000E+00  0.00000000000E+00  0.11447272172E+04  0.11447272172E+04  0.50400001928E-02 0. -1.
        1   -1    0    0  501    0  0.00000000000E+00  0.00000000000E+00 -0.17500539298E+04  0.17500539298E+04  0.50400001928E-02 0.  1.
    10030    2    1    2    0    0  0.00000000000E+00  0.00000000000E+00 -0.60532671259E+03  0.28947811470E+04  0.28307838949E+04 0.  0.
        1    1    3    3  502    0 -0.53856999095E+03  0.33191017078E+03 -0.15974285075E+04  0.17181384790E+04  0.50400001928E-02 0.  1.
       -1    1    3    3    0  502  0.53856999095E+03 -0.33191017078E+03  0.99210179487E+03  0.11766426679E+04  0.50400001928E-02 0. -1.
</event>
<event>
 5   0  0.1235252E-06  0.2802162E+04  0.7818609E-02  0.8302597E-01
       -1   -1    0    0    0  501  0.00000000000E+00  0.00000000000E+00  0.14479416787E+04  0.14479416788E+04  0.50400001928E-02 0.  1.
        1   -1    0    0  501    0  0.00000000000E+00  0.00000000000E+00 -0.13557368693E+04  0.13557368693E+04  0.50400001928E-02 0. -1.
    10030    2    1    2    0    0  0.00000000000E+00  0.00000000000E+00  0.92204809494E+02  0.28036785480E+04  0.28021619642E+04 0.  0.
        1    1    3    3  502    0 -0.81593903576E+03 -0.48100338872E+02  0.11846804025E+04  0.14392837833E+04  0.50400001928E-02 0.  1.
       -1    1    3    3    0  502  0.81593903576E+03  0.48100338872E+02 -0.10924755930E+04  0.13643947647E+04  0.50400001928E-02 0. -1.
</event>
<event>
 5   0  0.1220265E-06  0.2797767E+04  0.7818609E-02  0.8303962E-01
        1   -1    0    0  501    0  0.00000000000E+00  0.00000000000E+00  0.14625264739E+04  0.14625264739E+04  0.50400001928E-02 0. -1.
       -1   -1    0    0    0  501  0.00000000000E+00  0.00000000000E+00 -0.13380103615E+04  0.13380103615E+04  0.50400001928E-02 0.  1.
    10030    2    1    2    0    0  0.00000000000E+00  0.00000000000E+00  0.12451611237E+03  0.28005368354E+04  0.27977673785E+04 0.  0.
        4    1    3    3  502    0 -0.11410237935E+04  0.12255344461E+03 -0.73848337154E+03  0.13646662402E+04  0.12699999809E+01 0. -1.
       -4    1    3    3    0  502  0.11410237935E+04 -0.12255344461E+03  0.86299948391E+03  0.14358705953E+04  0.12699999809E+01 0.  1.
</event>
<event>
 5   0  0.3212679E-06  0.2799493E+04  0.7818609E-02  0.8303426E-01
       -2   -1    0    0    0  501  0.00000000000E+00  0.00000000000E+00  0.77895524316E+03  0.77895524317E+03  0.25500000920E-02 0. -1.
        2   -1    0    0  501    0  0.00000000000E+00  0.00000000000E+00 -0.25152799271E+04  0.25152799271E+04  0.25500000920E-02 0.  1.
    10030    2    1    2    0    0  0.00000000000E+00  0.00000000000E+00 -0.17363246839E+04  0.32942351702E+04  0.27994931593E+04 0.  0.
        4    1    3    3  502    0  0.68386861722E+03  0.99717555057E+03 -0.16979445482E+04  0.20844789915E+04  0.12699999809E+01 0.  1.
       -4    1    3    3    0  502 -0.68386861722E+03 -0.99717555057E+03 -0.38380135683E+02  0.12097561787E+04  0.12699999809E+01 0. -1.
</event>
<event>
 5   0  0.3167616E-06  0.2797346E+04  0.7818609E-02  0.8304093E-01
        2   -1    0    0  501    0  0.00000000000E+00  0.00000000000E+00  0.11781910379E+04  0.11781910379E+04  0.25500000920E-02 0.  1.
       -2   -1    0    0    0  501  0.00000000000E+00  0.00000000000E+00 -0.16604146372E+04  0.16604146372E+04  0.25500000920E-02 0. -1.
    10030    2    1    2    0    0  0.00000000000E+00  0.00000000000E+00 -0.48222359929E+03  0.28386056751E+04  0.27973456310E+04 0.  0.
        3    1    3    3  502    0 -0.76407813793E+02  0.67733925055E+03  0.99823747333E+03  0.12087616298E+04  0.10100000352E+00 0.  1.
       -3    1    3    3    0  502  0.76407813793E+02 -0.67733925055E+03 -0.14804610726E+04  0.16298440453E+04  0.10100000352E+00 0. -1.
</event>
<event>
 5   0  0.1235252E-06  0.2821790E+04  0.7818609E-02  0.8296535E-01
        1   -1    0    0  501    0  0.00000000000E+00  0.00000000000E+00  0.17735331519E+04  0.17735331519E+04  0.50400001928E-02 0.  1.
       -1   -1    0    0    0  501  0.00000000000E+00  0.00000000000E+00 -0.11224063650E+04  0.11224063650E+04  0.50400001928E-02 0. -1.
    10030    2    1    2    0    0  0.00000000000E+00  0.00000000000E+00  0.65112678695E+03  0.28959395169E+04  0.28217901398E+04 0.  0.
        1    1    3    3  502    0 -0.13213819217E+03  0.94204302445E+03 -0.74379568774E+03  0.12075336794E+04  0.50400001928E-02 0. -1.
       -1    1    3    3    0  502  0.13213819217E+03 -0.94204302445E+03  0.13949224747E+04  0.16884058375E+04  0.50400001928E-02 0.  1.
</event>
<event>
 5   0  0.3226364E-06  0.2795310E+04  0.7818609E-02  0.8304726E-01
       -2   -1    0    0    0  501  0.00000000000E+00  0.00000000000E+00  0.99191860565E+03  0.99191860566E+03  0.25500000920E-02 0.  1.
        2   -1    0    0  501    0  0.00000000000E+00  0.00000000000E+00 -0.19693546649E+04  0.19693546649E+04  0.25500000920E-02 0. -1.
    10030    2    1    2    0    0  0.00000000000E+00  0.00000000000E+00 -0.97743605928E+03  0.29612732706E+04  0.27953100245E+04 0.  0.
        5    1    3    3  502    0 -0.45366096809E+03  0.86394456108E+03 -0.15487302434E+04  0.18305179419E+04  0.46999998093E+01 0. -1.
       -5    1    3    3    0  502  0.45366096809E+03 -0.86394456108E+03  0.57129418416E+03  0.11307553287E+04  0.46999998093E+01 0.  1.
</event>
<event>
 5   0  0.3167616E-06  0.2860805E+04  0.7818609E-02  0.8284636E-01
       -2   -1    0    0    0  501  0.00000000000E+00  0.00000000000E+00  0.79621582581E+03  0.79621582581E+03  0.25500000920E-02 0.  1.
        2   -1    0    0  501    0  0.00000000000E+00  0.00000000000E+00 -0.25697197817E+04  0.25697197817E+04  0.25500000920E-02 0. -1.
    10030    2    1    2    0    0  0.00000000000E+00  0.00000000000E+00 -0.17735039559E+04  0.33659356075E+04  0.28608051720E+04 0.  0.
        3    1    3    3  502    0  0.13156484526E+04  0.75484912329E+02 -0.23227612994E+03  0.13381259408E+04  0.10100000352E+00 0.  1.
       -3    1    3    3    0  502 -0.13156484526E+04 -0.75484912329E+02 -0.15412278259E+04  0.20278096667E+04  0.10100000352E+00 0. -1.
</event>
<event>
 5   0  0.3212679E-06  0.2808732E+04  0.7818609E-02  0.8300562E-01
       -2   -1    0    0    0  501  0.00000000000E+00  0.00000000000E+00  0.13835232786E+04  0.13835232786E+04  0.25500000920E-02 0. -1.
        2   -1    0    0  501    0  0.00000000000E+00  0.00000000000E+00 -0.14255231379E+04  0.14255231379E+04  0.25500000920E-02 0.  1.
    10030    2    1    2    0    0  0.00000000000E+00  0.00000000000E+00 -0.41999859287E+02  0.28090464165E+04  0.28087324155E+04 0.  0.
        4    1    3    3  502    0  0.66872270731E+03 -0.31513996088E+03  0.11731769317E+04  0.13866683021E+04  0.12699999809E+01 0. -1.
       -4    1    3    3    0  502 -0.66872270731E+03  0.31513996088E+03 -0.12151767910E+04  0.14223781144E+04  0.12699999809E+01 0.  1.
</event>
<event>
 5   0  0.3345919E-06  0.2805825E+04  0.7818609E-02  0.8301462E-01
       -2   -1    0    0    0  501  0.00000000000E+00  0.00000000000E+00  0.81855940598E+03  0.81855940598E+03  0.25500000920E-02 0.  1.
        2   -1    0    0  501    0  0.00000000000E+00  0.00000000000E+00 -0.24044228184E+04  0.24044228184E+04  0.25500000920E-02 0. -1.
    10030    2    1    2    0    0  0.00000000000E+00  0.00000000000E+00 -0.15858634125E+04  0.32229822244E+04  0.28058245947E+04 0.  0.
        2    1    3    3  502    0  0.11325914662E+04 -0.75714180375E+03 -0.11775850257E+04  0.18007591824E+04  0.25500000920E-02 0. -1.
       -2    1    3    3    0  502 -0.11325914662E+04  0.75714180375E+03 -0.40827838676E+03  0.14222230420E+04  0.25500000920E-02 0.  1.
</event>
<event>
 5   0  0.3345919E-06  0.2801403E+04  0.7818609E-02  0.8302833E-01
        2   -1    0    0  501    0  0.00000000000E+00  0.00000000000E+00  0.19370058328E+04  0.19370058328E+04  0.25500000920E-02 0. -1.
       -2   -1    0    0    0  501  0.00000000000E+00  0.00000000000E+00 -0.10128850306E+04  0.10128850306E+04  0.25500000920E-02 0.  1.
    10030    2    1    2    0    0  0.00000000000E+00  0.00000000000E+00  0.92412080214E+03  0.29498908634E+04  0.28014026574E+04 0.  0.
        2    1    3    3  502    0  0.12985740581E+04 -0.51540172821E+03  0.35659846555E+03  0.14419070676E+04  0.25500000920E-02 0.  1.
       -2    1    3    3    0  502 -0.12985740581E+04  0.51540172821E+03  0.56752233659E+03  0.15079837958E+04  0.25500000920E-02 0. -1.
</event>
<event>
 5   0  0.3345919E-06  0.2801485E+04  0.7818609E-02  0.8302807E-01
       -2   -1    0    0    0  501  0.00000000000E+00  0.00000000000E+00  0.12410132804E+04  0.12410132804E+04  0.25500000920E-02 0. -1.
        2   -1    0    0  501    0  0.00000000000E+00  0.00000000000E+00 -0.15810302829E+04  0.15810302829E+04  0.25500000920E-02 0.  1.
    10030    2    1    2    0    0  0.00000000000E+00  0.00000000000E+00 -0.34001700255E+03  0.28220435633E+04  0.28014850189E+04 0.  0.
        2    1    3    3  502    0 -0.12284093864E+03 -0.12473545851E+04  0.45995765547E+03  0.13351196209E+04  0.25500000920E-02 0. -1.
       -2    1    3    3    0  502  0.12284093864E+03  0.12473545851E+04 -0.79997465801E+03  0.14869239425E+04  0.25500000920E-02 0.  1.
</event>
<event>
 5   0  0.3167616E-06  0.2803737E+04  0.7818609E-02  0.8302109E-01
       -2   -1    0    0    0  501  0.00000000000E+00  0.00000000000E+00  0.11461466808E+04  0.11461466809E+04  0.25500000920E-02 0.  1.
        2   -1    0    0  501    0  0.00000000000E+00  0.00000000000E+00 -0.17146461078E+04  0.17146461078E+04  0.25500000920E-02 0. -1.
    10030    2    1    2    0    0  0.00000000000E+00  0.00000000000E+00 -0.56849942692E+03  0.28607927886E+04  0.28037374665E+04 0.  0.
        3    1    3    3  502    0  0.33460584466E+03 -0.12915946223E+04 -0.72318775190E+03  0.15176225731E+04  0.10100000352E+00 0. -1.
       -3    1    3    3    0  502 -0.33460584466E+03  0.12915946223E+04  0.15468832498E+03  0.13431702155E+04  0.10100000352E+00 0.  1.
</event>
<event>
 5   0  0.3212679E-06  0.2801262E+04  0.7818609E-02  0.8302877E-01
       -2   -1    0    0    0  501  0.00000000000E+00  0.00000000000E+00  0.12719904340E+04  0.12719904340E+04  0.25500000920E-02 0. -1.
        2   -1    0    0  501    0  0.00000000000E+00  0.00000000000E+00 -0.15422818291E+04  0.15422818291E+04  0.25500000920E-02 0.  1.
    10030    2    1    2    0    0  0.00000000000E+00  0.00000000000E+00 -0.27029139509E+03  0.28142722632E+04  0.28012623820E+04 0.  0.
        4    1    3    3  502    0  0.15965881620E+03 -0.11538097941E+04  0.64628297334E+03  0.13320853100E+04  0.12699999809E+01 0. -1.
       -4    1    3    3    0  502 -0.15965881620E+03  0.11538097941E+04 -0.91657436843E+03  0.14821869532E+04  0.12699999809E+01 0.  1.
</event>
<event>
 5   0  0.3162695E-06  0.2793930E+04  0.7818609E-02  0.8305155E-01
       -2   -1    0    0    0  501  0.00000000000E+00  0.00000000000E+00  0.84474251805E+03  0.84474251805E+03  0.25500000920E-02 0. -1.
        2   -1    0    0  501    0  0.00000000000E+00  0.00000000000E+00 -0.23101854074E+04  0.23101854074E+04  0.25500000920E-02 0.  1.
    10030    2    1    2    0    0  0.00000000000E+00  0.00000000000E+00 -0.14654428893E+04  0.31549279254E+04  0.27939304488E+04 0.  0.
        1    1    3    3  502    0 -0.19922074387E+03  0.53816509700E+03 -0.21709444089E+04  0.22455088962E+04  0.50400001928E-02 0.  1.
       -1    1    3    3    0  502  0.19922074387E+03 -0.53816509700E+03  0.70550151961E+03  0.90941902917E+03  0.50400001928E-02 0. -1.
</event>
<event>
 5   0  0.1235252E-06  0.2797654E+04  0.7818609E-02  0.8303997E-01
       -1   -1    0    0    0  501  0.00000000000E+00  0.00000000000E+00  0.10229824911E+04  0.10229824911E+04  0.50400001928E-02 0.  1.
        1   -1    0    0  501    0  0.00000000000E+00  0.00000000000E+00 -0.19127571807E+04  0.19127571807E+04  0.50400001928E-02 0. -1.
    10030    2    1    2    0    0  0.00000000000E+00  0.00000000000E+00 -0.88977468961E+03  0.29357396718E+04  0.27976540927E+04 0.  0.
        1    1    3    3  502    0 -0.12449631032E+03 -0.55939565322E+02 -0.19057531780E+04  0.19106343820E+04  0.50400001928E-02 0. -1.
       -1    1    3    3    0  502  0.12449631032E+03  0.55939565322E+02  0.10159784884E+04  0.10251052898E+04  0.50400001928E-02 0.  1.
</event>
<event>
 5   0  0.1263513E-06  0.2789026E+04  0.7818609E-02  0.8306683E-01
       -1   -1    0    0    0  501  0.00000000000E+00  0.00000000000E+00  0.18187389828E+04  0.18187389828E+04  0.50400001928E-02 0. -1.
        1   -1    0    0  501    0  0.00000000000E+00  0.00000000000E+00 -0.10692390597E+04  0.10692390597E+04  0.50400001928E-02 0.  1.
    10030    2    1    2    0    0  0.00000000000E+00  0.00000000000E+00  0.74949992310E+03  0.28879780426E+04  0.27890261812E+04 0.  0.
        3    1    3    3  502    0  0.81760496851E+03  0.11202377649E+04  0.52571774013E+03  0.14831687992E+04  0.10100000352E+00 0. -1.
       -3    1    3    3    0  502 -0.81760496851E+03 -0.11202377649E+04  0.22378218297E+03  0.14048092433E+04  0.10100000352E+00 0.  1.
</event>
<event>
 5   0  0.1235252E-06  0.2785428E+04  0.7818609E-02  0.8307807E-01
        1   -1    0    0  501    0  0.00000000000E+00  0.00000000000E+00  0.77609222486E+03  0.77609222487E+03  0.50400001928E-02 0.  1.
       -1   -1    0    0    0  501  0.00000000000E+00  0.00000000000E+00 -0.24992552989E+04  0.24992552989E+04  0.50400001928E-02 0. -1.
    10030    2    1    2    0    0  0.00000000000E+00  0.00000000000E+00 -0.17231630740E+04  0.32753475238E+04  0.27854282295E+04 0.  0.
        1    1    3    3  502    0  0.60289141660E+03 -0.68353220488E+03  0.37671031695E+03  0.98620738095E+03  0.50400001928E-02 0.  1.
       -1    1    3    3    0  502 -0.60289141660E+03  0.68353220488E+03 -0.20998733910E+04  0.22891401428E+04  0.50400001928E-02 0. -1.
</event>
<event>
 5   0  0.3212679E-06  0.2789047E+04  0.7818609E-02  0.8306677E-01
       -2   -1    0    0    0  501  0.00000000000E+00  0.00000000000E+00  0.16271043539E+04  0.16271043539E+04  0.25500000920E-02 0.  1.
        2   -1    0    0  501    0  0.00000000000E+00  0.00000000000E+00 -0.11951881209E+04  0.11951881209E+04  0.25500000920E-02 0. -1.
    10030    2    1    2    0    0  0.00000000000E+00  0.00000000000E+00  0.43191623303E+03  0.28222924749E+04  0.27890470024E+04 0.  0.
        4    1    3    3  502    0  0.11052396607E+04  0.65230701795E+03 -0.33610433023E+03  0.13266600495E+04  0.12699999809E+01 0. -1.
       -4    1    3    3    0  502 -0.11052396607E+04 -0.65230701795E+03  0.76802056326E+03  0.14956324254E+04  0.12699999809E+01 0.  1.
</event>
<event>
 5   0  0.3345919E-06  0.2836225E+04  0.7818609E-02  0.8292109E-01
       -2   -1    0    0    0  501  0.00000000000E+00  0.00000000000E+00  0.10919055004E+04  0.10919055004E+04  0.25500000920E-02 0. -1.
        2   -1    0    0  501    0  0.00000000000E+00  0.00000000000E+00 -0.18417744604E+04  0.18417744604E+04  0.25500000920E-02 0.  1.
    10030    2    1    2    0    0  0.00000000000E+00  0.00000000000E+00 -0.74986895998E+03  0.29336799608E+04  0.28362254239E+04 0.  0.
        2    1    3    3  502    0  0.18328227679E+03 -0.13971840723E+04 -0.53955043091E+03  0.15089169600E+04  0.25500000920E-02 0. -1.
       -2    1    3    3    0  502 -0.18328227679E+03  0.13971840723E+04 -0.21031852907E+03  0.14247630008E+04  0.25500000920E-02 0.  1.
</event>
<event>
 5   0  0.3345919E-06  0.2788364E+04  0.7818609E-02  0.8306890E-01
       -2   -1    0    0    0  501  0.00000000000E+00  0.00000000000E+00  0.11146377834E+04  0.11146377834E+04  0.25500000920E-02 0. -1.
        2   -1    0    0  501    0  0.00000000000E+00  0.00000000000E+00 -0.17438345831E+04  0.17438345831E+04  0.25500000920E-02 0.  1.
    10030    2    1    2    0    0  0.00000000000E+00  0.00000000000E+00 -0.62919679976E+03  0.28584723665E+04  0.27883643336E+04 0.  0.
        2    1    3    3  502    0  0.73372490823E+03  0.90606974850E+03 -0.10982995132E+04  0.16017416929E+04  0.25500000920E-02 0.  1.
       -2    1    3    3    0  502 -0.73372490823E+03 -0.90606974850E+03  0.46910271343E+03  0.12567306736E+04  0.25500000920E-02 0. -1.
</event>
<event>
 5   0  0.3162695E-06  0.2805543E+04  0.7818609E-02  0.8301550E-01
        2   -1    0    0  501    0  0.00000000000E+00  0.00000000000E+00  0.18635452934E+04  0.18635452934E+04  0.25500000920E-02 0. -1.
       -2   -1    0    0    0  501  0.00000000000E+00  0.00000000000E+00 -0.10559268622E+04  0.10559268622E+04  0.25500000920E-02 0.  1.
    10030    2    1    2    0    0  0.00000000000E+00  0.00000000000E+00  0.80761843120E+03  0.29194721555E+04  0.28055427526E+04 0.  0.
        1    1    3    3  502    0  0.10349424143E+04  0.65456820900E+03 -0.30823041819E+03  0.12627633713E+04  0.50400001928E-02 0.  1.
       -1    1    3    3    0  502 -0.10349424143E+04 -0.65456820900E+03  0.11158488494E+04  0.16567087843E+04  0.50400001928E-02 0. -1.
</event>
<event>
 5   0  0.3226364E-06  0.2796809E+04  0.7818609E-02  0.8304260E-01
       -2   -1    0    0    0  501  0.00000000000E+00  0.00000000000E+00  0.17307266716E+04  0.17307266716E+04  0.25500000920E-02 0.  1.
        2   -1    0    0  501    0  0.00000000000E+00  0.00000000000E+00 -0.11298921529E+04  0.11298921529E+04  0.25500000920E-02 0. -1.
    10030    2    1    2    0    0  0.00000000000E+00  0.00000000000E+00  0.60083451875E+03  0.28606188245E+04  0.27968085276E+04 0.  0.
        5    1    3    3  502    0  0.65203781625E+03 -0.11985976908E+04  0.61354356405E+03  0.14960773821E+04  0.46999998093E+01 0. -1.
       -5    1    3    3    0  502 -0.65203781625E+03  0.11985976908E+04 -0.12709045304E+02  0.13645414424E+04  0.46999998093E+01 0.  1.
</event>
<event>
 5   0  0.1246044E-06  0.2804944E+04  0.7818609E-02  0.8301735E-01
        1   -1    0    0  501    0  0.00000000000E+00  0.00000000000E+00  0.15457634799E+04  0.15457634799E+04  0.50400001928E-02 0. -1.
       -1   -1    0    0    0  501  0.00000000000E+00  0.00000000000E+00 -0.12724633718E+04  0.12724633718E+04  0.50400001928E-02 0.  1.
    10030    2    1    2    0    0  0.00000000000E+00  0.00000000000E+00  0.27330010815E+03  0.28182268517E+04  0.28049437853E+04 0.  0.
        2    1    3    3  502    0  0.96798801149E+03 -0.97851336330E+03 -0.13376798729E+03  0.13828893907E+04  0.25500000920E-02 0.  1.
       -2    1    3    3    0  502 -0.96798801149E+03  0.97851336330E+03  0.40706809544E+03  0.14353374610E+04  0.25500000920E-02 0. -1.
</event>
<event>
 5   0  0.1263513E-06  0.2803677E+04  0.7818609E-02  0.8302128E-01
        1   -1    0    0  501    0  0.00000000000E+00  0.00000000000E+00  0.15712303373E+04  0.15712303373E+04  0.50400001928E-02 0. -1.
       -1   -1    0    0    0  501  0.00000000000E+00  0.00000000000E+00 -0.12507083880E+04  0.12507083880E+04  0.50400001928E-02 0.  1.
    10030    2    1    2    0    0  0.00000000000E+00  0.00000000000E+00  0.32052194931E+03  0.28219387252E+04  0.28036768446E+04 0.  0.
        3    1    3    3  502    0  0.12367114020E+04 -0.50056966760E+03 -0.27280411790E+03  0.13617808858E+04  0.10100000352E+00 0.  1.
       -3    1    3    3    0  502 -0.12367114020E+04  0.50056966760E+03  0.59332606720E+03  0.14601578395E+04  0.10100000352E+00 0. -1.
</event>
<event>
 5   0  0.1235252E-06  0.2805494E+04  0.7818609E-02  0.8301565E-01
       -1   -1    0    0    0  501  0.00000000000E+00  0.00000000000E+00  0.79478571438E+03  0.79478571440E+03  0.50400001928E-02 0. -1.
        1   -1    0    0  501    0  0.00000000000E+00  0.00000000000E+00 -0.24757597433E+04  0.24757597433E+04  0.50400001928E-02 0.  1.
    10030    2    1    2    0    0  0.00000000000E+00  0.00000000000E+00 -0.16809740289E+04  0.32705454577E+04  0.28054935225E+04 0.  0.
        1    1    3    3  502    0 -0.45243891014E+03  0.95465601891E+03 -0.19162986595E+04  0.21882115150E+04  0.50400001928E-02 0.  1.
       -1    1    3    3    0  502  0.45243891014E+03 -0.95465601891E+03  0.23532463056E+03  0.10823339427E+04  0.50400001928E-02 0. -1.
</event>
<event>
 5   0  0.1246044E-06  0.2808020E+04  0.7818609E-02  0.8300783E-01
       -1   -1    0    0    0  501  0.00000000000E+00  0.00000000000E+00  0.17695975454E+04  0.17695975454E+04  0.50400001928E-02 0.  1.
        1   -1    0    0  501    0  0.00000000000E+00  0.00000000000E+00 -0.11139501103E+04  0.11139501104E+04  0.50400001928E-02 0. -1.
    10030    2    1    2    0    0  0.00000000000E+00  0.00000000000E+00  0.65564743508E+03  0.28835476558E+04  0.28080195021E+04 0.  0.
        2    1    3    3  502    0 -0.11319904087E+04  0.42622165621E+03 -0.40421520358E+03  0.12753262785E+04  0.25500000920E-02 0. -1.
       -2    1    3    3    0  502  0.11319904087E+04 -0.42622165621E+03  0.10598626387E+04  0.16082213773E+04  0.25500000920E-02 0.  1.
</event>
<event>
 5   0  0.3167616E-06  0.2781751E+04  0.7818609E-02  0.8308957E-01
       -2   -1    0    0    0  501  0.00000000000E+00  0.00000000000E+00  0.11487951660E+04  0.11487951660E+04  0.25500000920E-02 0.  1.
        2   -1    0    0  501    0  0.00000000000E+00  0.00000000000E+00 -0.16839678984E+04  0.16839678984E+04  0.25500000920E-02 0. -1.
    10030    2    1    2    0    0  0.00000000000E+00  0.00000000000E+00 -0.53517273245E+03  0.28327630644E+04  0.27817506584E+04 0.  0.
        3    1    3    3  502    0  0.74019968955E+03  0.90263956719E+03  0.50250926340E+03  0.12708931264E+04  0.10100000352E+00 0.  1.
       -3    1    3    3    0  502 -0.74019968955E+03 -0.90263956719E+03 -0.10376819958E+04  0.15618699380E+04  0.10100000352E+00 0. -1.
</event>
<event>
 5   0  0.1246044E-06  0.2781500E+04  0.7818609E-02  0.8309035E-01
        1   -1    0    0  501    0  0.00000000000E+00  0.00000000000E+00  0.26427708294E+04  0.26427708294E+04  0.50400001928E-02 0. -1.
       -1   -1    0    0    0  501  0.00000000000E+00  0.00000000000E+00 -0.73187766768E+03  0.73187766769E+03  0.50400001928E-02 0.  1.
    10030    2    1    2    0    0  0.00000000000E+00  0.00000000000E+00  0.19108931617E+04  0.33746484971E+04  0.27814995602E+04 0.  0.
        2    1    3    3  502    0  0.84521372997E+03  0.48770251839E+03  0.21576919682E+04  0.23680951470E+04  0.25500000920E-02 0. -1.
       -2    1    3    3    0  502 -0.84521372997E+03 -0.48770251839E+03 -0.24679880641E+03  0.10065533501E+04  0.25500000920E-02 0.  1.
</event>
<event>
 5   0  0.3226364E-06  0.2799493E+04  0.7818609E-02  0.8303426E-01
        2   -1    0    0  501    0  0.00000000000E+00  0.00000000000E+00  0.17264211973E+04  0.17264211973E+04  0.25500000920E-02 0.  1.
       -2   -1    0    0    0  501  0.00000000000E+00  0.00000000000E+00 -0.11348856418E+04  0.11348856418E+04  0.25500000920E-02 0. -1.
    10030    2    1    2    0    0  0.00000000000E+00  0.00000000000E+00  0.59153555547E+03  0.28613068391E+04  0.27994932602E+04 0.  0.
        5    1    3    3  502    0  0.29690888698E+03 -0.13102151997E+04 -0.10591078677E+03  0.13476119402E+04  0.46999998093E+01 0. -1.
       -5    1    3    3    0  502 -0.29690888698E+03  0.13102151997E+04  0.69744634224E+03  0.15136948989E+04  0.46999998093E+01 0.  1.
</event>
<event>
 5   0  0.3162695E-06  0.2796266E+04  0.7818609E-02  0.8304429E-01
       -2   -1    0    0    0  501  0.00000000000E+00  0.00000000000E+00  0.12743828919E+04  0.12743828919E+04  0.25500000920E-02 0.  1.
        2   -1    0    0  501    0  0.00000000000E+00  0.00000000000E+00 -0.15338996024E+04  0.15338996024E+04  0.25500000920E-02 0. -1.
    10030    2    1    2    0    0  0.00000000000E+00  0.00000000000E+00 -0.25951671044E+03  0.28082824943E+04  0.27962656606E+04 0.  0.
        1    1    3    3  502    0 -0.45673570005E+03 -0.35740551125E+03 -0.14074004663E+04  0.15222096674E+04  0.50400001928E-02 0. -1.
       -1    1    3    3    0  502  0.45673570005E+03  0.35740551125E+03  0.11478837558E+04  0.12860728269E+04  0.50400001928E-02 0.  1.
</event>
<event>
 5   0  0.1243055E-06  0.2798416E+04  0.7818609E-02  0.8303760E-01
        1   -1    0    0  501    0  0.00000000000E+00  0.00000000000E+00  0.16682140695E+04  0.16682140695E+04  0.50400001928E-02 0. -1.
       -1   -1    0    0    0  501  0.00000000000E+00  0.00000000000E+00 -0.11735800051E+04  0.11735800051E+04  0.50400001928E-02 0.  1.
    10030    2    1    2    0    0  0.00000000000E+00  0.00000000000E+00  0.49463406441E+03  0.28417940746E+04  0.27984157491E+04 0.  0.
        5    1    3    3  502    0  0.35722068429E+02  0.66595757538E+03 -0.10017843337E+04  0.12034822390E+04  0.46999998093E+01 0.  1.
       -5    1    3    3    0  502 -0.35722068429E+02 -0.66595757538E+03  0.14964183981E+04  0.16383118356E+04  0.46999998093E+01 0. -1.
</event>
<event>
 5   0  0.1263513E-06  0.2803819E+04  0.7818609E-02  0.8302084E-01
       -1   -1    0    0    0  501  0.00000000000E+00  0.00000000000E+00  0.16935104307E+04  0.16935104307E+04  0.50400001928E-02 0. -1.
        1   -1    0    0  501    0  0.00000000000E+00  0.00000000000E+00 -0.11605188808E+04  0.11605188808E+04  0.50400001928E-02 0.  1.
    10030    2    1    2    0    0  0.00000000000E+00  0.00000000000E+00  0.53299154991E+03  0.28540293116E+04  0.28038194163E+04 0.  0.
        3    1    3    3  502    0 -0.45581154274E+03  0.11954439942E+04  0.84990902016E+03  0.15359674015E+04  0.10100000352E+00 0. -1.
       -3    1    3    3    0  502  0.45581154274E+03 -0.11954439942E+04 -0.31691747026E+03  0.13180619101E+04  0.10100000352E+00 0.  1.
</event>
<event>
 5   0  0.1235252E-06  0.2735661E+04  0.7818609E-02  0.8323526E-01
       -1   -1    0    0    0  501  0.00000000000E+00  0.00000000000E+00  0.92644179874E+03  0.92644179875E+03  0.50400001928E-02 0. -1.
        1   -1    0    0  501    0  0.00000000000E+00  0.00000000000E+00 -0.20195112425E+04  0.20195112425E+04  0.50400001928E-02 0.  1.
    10030    2    1    2    0    0  0.00000000000E+00  0.00000000000E+00 -0.10930694437E+04  0.29459530412E+04  0.27356605258E+04 0.  0.
        1    1    3    3  502    0 -0.11365082002E+04 -0.10987738124E+03 -0.13575805488E+04  0.17739077977E+04  0.50400001928E-02 0. -1.
       -1    1    3    3    0  502  0.11365082002E+04  0.10987738124E+03  0.26451110513E+03  0.11720452435E+04  0.50400001928E-02 0.  1.
</event>
<event>
 5   0  0.1243055E-06  0.2816225E+04  0.7818609E-02  0.8298249E-01
       -1   -1    0    0    0  501  0.00000000000E+00  0.00000000000E+00  0.11530981375E+04  0.11530981375E+04  0.50400001928E-02 0. -1.
        1   -1    0    0  501    0  0.00000000000E+00  0.00000000000E+00 -0.17195247479E+04  0.17195247480E+04  0.50400001928E-02 0.  1.
    10030    2    1    2    0    0  0.00000000000E+00  0.00000000000E+00 -0.56642661042E+03  0.28726228855E+04  0.28162249799E+04 0.  0.
        5    1    3    3  502    0 -0.11986555334E+04  0.69999232691E+03 -0.41843261348E+02  0.13887178597E+04  0.46999998093E+01 0. -1.
       -5    1    3    3    0  502  0.11986555334E+04 -0.69999232691E+03 -0.52458334907E+03  0.14839050258E+04  0.46999998093E+01 0.  1.
</event>
<event>
 5   0  0.3345919E-06  0.2806157E+04  0.7818609E-02  0.8301360E-01
        2   -1    0    0  501    0  0.00000000000E+00  0.00000000000E+00  0.25161064179E+04  0.25161064179E+04  0.25500000920E-02 0.  1.
       -2   -1    0    0    0  501  0.00000000000E+00  0.00000000000E+00 -0.78241078102E+03  0.78241078102E+03  0.25500000920E-02 0. -1.
    10030    2    1    2    0    0  0.00000000000E+00  0.00000000000E+00  0.17336956368E+04  0.32985171989E+04  0.28061566510E+04 0.  0.
        2    1    3    3  502    0  0.44593591042E+03 -0.93999939259E+03 -0.23968839379E+03  0.10676648446E+04  0.25500000920E-02 0. -1.
       -2    1    3    3    0  502 -0.44593591042E+03  0.93999939259E+03  0.19733840306E+04  0.22308523543E+04  0.25500000920E-02 0.  1.
</event>
<event>
 5   0  0.1246044E-06  0.2860256E+04  0.7818609E-02  0.8284801E-01
        1   -1    0    0  501    0  0.00000000000E+00  0.00000000000E+00  0.18739065920E+04  0.18739065920E+04  0.50400001928E-02 0. -1.
       -1   -1    0    0    0  501  0.00000000000E+00  0.00000000000E+00 -0.10914454410E+04  0.10914454410E+04  0.50400001928E-02 0.  1.
    10030    2    1    2    0    0  0.00000000000E+00  0.00000000000E+00  0.78246115105E+03  0.29653520330E+04  0.28602564967E+04 0.  0.
        2    1    3    3  502    0  0.78146420918E+03 -0.11886478286E+04  0.54394127981E+03  0.15229714661E+04  0.25500000920E-02 0.  1.
       -2    1    3    3    0  502 -0.78146420918E+03  0.11886478286E+04  0.23851987125E+03  0.14423805669E+04  0.25500000920E-02 0. -1.
</event>
<event>
 5   0  0.3226364E-06  0.2798646E+04  0.7818609E-02  0.8303689E-01
        2   -1    0    0  501    0  0.00000000000E+00  0.00000000000E+00  0.13101542882E+04  0.13101542882E+04  0.25500000920E-02 0. -1.
       -2   -1    0    0    0  501  0.00000000000E+00  0.00000000000E+00 -0.14945609648E+04  0.14945609648E+04  0.25500000920E-02 0.  1.
    10030    2    1    2    0    0  0.00000000000E+00  0.00000000000E+00 -0.18440667656E+03  0.28047152530E+04  0.27986464278E+04 0.  0.
        5    1    3    3  502    0 -0.69326039234E+03  0.69178753551E+03  0.90941550843E+03  0.13365023842E+04  0.46999998093E+01 0. -1.
       -5    1    3    3    0  502  0.69326039234E+03 -0.69178753551E+03 -0.10938221850E+04  0.14682128689E+04  0.46999998093E+01 0.  1.
</event>
<event>
 5   0  0.1235252E-06  0.2774329E+04  0.7818609E-02  0.8311283E-01
       -1   -1    0    0    0  501  0.00000000000E+00  0.00000000000E+00  0.73295598177E+03  0.73295598178E+03  0.50400001928E-02 0.  1.
        1   -1    0    0  501    0  0.00000000000E+00  0.00000000000E+00 -0.26252948235E+04  0.26252948235E+04  0.50400001928E-02 0. -1.
    10030    2    1    2    0    0  0.00000000000E+00  0.00000000000E+00 -0.18923388417E+04  0.33582508053E+04  0.27743291404E+04 0.  0.
        1    1    3    3  502    0  0.17880864079E+03 -0.10351817524E+03  0.71422599540E+03  0.74351013118E+03  0.50400001928E-02 0.  1.
       -1    1    3    3    0  502 -0.17880864079E+03  0.10351817524E+03 -0.26065648371E+04  0.26147406741E+04  0.50400001928E-02 0. -1.
</event>
<event>
 5   0  0.3167616E-06  0.2803498E+04  0.7818609E-02  0.8302183E-01
        2   -1    0    0  501    0  0.00000000000E+00  0.00000000000E+00  0.92666242022E+03  0.92666242023E+03  0.25500000920E-02 0.  1.
       -2   -1    0    0    0  501  0.00000000000E+00  0.00000000000E+00 -0.21204056478E+04  0.21204056478E+04  0.25500000920E-02 0. -1.
    10030    2    1    2    0    0  0.00000000000E+00  0.00000000000E+00 -0.11937432276E+04  0.30470680680E+04  0.28034979789E+04 0.  0.
        3    1    3    3  502    0  0.33747119741E+03  0.60421097239E+03  0.72802781358E+03  0.10044810679E+04  0.10100000352E+00 0.  1.
       -3    1    3    3    0  502 -0.33747119741E+03 -0.60421097239E+03 -0.19217710412E+04  0.20425870001E+04  0.10100000352E+00 0. -1.
</event>
<event>
 5   0  0.3226364E-06  0.2804076E+04  0.7818609E-02  0.8302004E-01
        2   -1    0    0  501    0  0.00000000000E+00  0.00000000000E+00  0.25348214360E+04  0.25348214360E+04  0.25500000920E-02 0. -1.
       -2   -1    0    0    0  501  0.00000000000E+00  0.00000000000E+00 -0.77548265738E+03  0.77548265738E+03  0.25500000920E-02 0.  1.
    10030    2    1    2    0    0  0.00000000000E+00  0.00000000000E+00  0.17593387786E+04  0.33103040934E+04  0.28040756503E+04 0.  0.
        5    1    3    3  502    0  0.10140137183E+04 -0.46610026287E+02 -0.26202980675E+03  0.10483692218E+04  0.46999998093E+01 0.  1.
       -5    1    3    3    0  502 -0.10140137183E+04  0.46610026287E+02  0.20213685854E+04  0.22619348716E+04  0.46999998093E+01 0. -1.
</event>
<event>
 5   0  0.3226364E-06  0.2790621E+04  0.7818609E-02  0.8306186E-01
        2   -1    0    0  501    0  0.00000000000E+00  0.00000000000E+00  0.17388347790E+04  0.17388347790E+04  0.25500000920E-02 0. -1.
       -2   -1    0    0    0  501  0.00000000000E+00  0.00000000000E+00 -0.11196531975E+04  0.11196531975E+04  0.25500000920E-02 0.  1.
    10030    2    1    2    0    0  0.00000000000E+00  0.00000000000E+00  0.61918158143E+03  0.28584879765E+04  0.27906213790E+04 0.  0.
        5    1    3    3  502    0  0.71514491420E+03 -0.11859682466E+04  0.48377601759E+03  0.14669745245E+04  0.46999998093E+01 0. -1.
       -5    1    3    3    0  502 -0.71514491420E+03  0.11859682466E+04  0.13540556384E+03  0.13915134520E+04  0.46999998093E+01 0.  1.
</event>
<event>
 5   0  0.3167616E-06  0.2788124E+04  0.7818609E-02  0.8306965E-01
        2   -1    0    0  501    0  0.00000000000E+00  0.00000000000E+00  0.19070747793E+04  0.19070747793E+04  0.25500000920E-02 0. -1.
       -2   -1    0    0    0  501  0.00000000000E+00  0.00000000000E+00 -0.10190525170E+04  0.10190525170E+04  0.25500000920E-02 0.  1.
    10030    2    1    2    0    0  0.00000000000E+00  0.00000000000E+00  0.88802226228E+03  0.29261272963E+04  0.27881243544E+04 0.  0.
        3    1    3    3  502    0 -0.36703144914E+03 -0.83775815093E+02 -0.96469293527E+03  0.10355495842E+04  0.10100000352E+00 0.  1.
       -3    1    3    3    0  502  0.36703144914E+03  0.83775815093E+02  0.18527151975E+04  0.18905777120E+04  0.10100000352E+00 0. -1.
</event>
<event>
 5   0  0.1235252E-06  0.2809019E+04  0.7818609E-02  0.8300474E-01
        1   -1    0    0  501    0  0.00000000000E+00  0.00000000000E+00  0.17480146666E+04  0.17480146666E+04  0.50400001928E-02 0.  1.
       -1   -1    0    0    0  501  0.00000000000E+00  0.00000000000E+00 -0.11285068322E+04  0.11285068322E+04  0.50400001928E-02 0. -1.
    10030    2    1    2    0    0  0.00000000000E+00  0.00000000000E+00  0.61950783448E+03  0.28765214988E+04  0.28090186856E+04 0.  0.
        1    1    3    3  502    0  0.79505775928E+03 -0.66567583092E+03  0.12798334042E+04  0.16471838680E+04  0.50400001928E-02 0.  1.
       -1    1    3    3    0  502 -0.79505775928E+03  0.66567583092E+03 -0.66032556974E+03  0.12293376308E+04  0.50400001928E-02 0. -1.
</event>
<event>
 5   0  0.1220265E-06  0.2801206E+04  0.7818609E-02  0.8302894E-01
        1   -1    0    0  501    0  0.00000000000E+00  0.00000000000E+00  0.18770441879E+04  0.18770441879E+04  0.50400001928E-02 0. -1.
       -1   -1    0    0    0  501  0.00000000000E+00  0.00000000000E+00 -0.10450945344E+04  0.10450945345E+04  0.50400001928E-02 0.  1.
    10030    2    1    2    0    0  0.00000000000E+00  0.00000000000E+00  0.83194965348E+03  0.29221387224E+04  0.28012058987E+04 0.  0.
        4    1    3    3  502    0 -0.13611651114E+04  0.29522260336E+03  0.56985648889E+03  0.15048803530E+04  0.12699999809E+01 0. -1.
       -4    1    3    3    0  502  0.13611651114E+04 -0.29522260336E+03  0.26209316460E+03  0.14172583694E+04  0.12699999809E+01 0.  1.
</event>
<event>
 5   0  0.1243055E-06  0.2731384E+04  0.7818609E-02  0.8324893E-01
        1   -1    0    0  501    0  0.00000000000E+00  0.00000000000E+00  0.10647298866E+04  0.10647298866E+04  0.50400001928E-02 0. -1.
       -1   -1    0    0    0  501  0.00000000000E+00  0.00000000000E+00 -0.17517258377E+04  0.17517258377E+04  0.50400001928E-02 0.  1.
    10030    2    1    2    0    0  0.00000000000E+00  0.00000000000E+00 -0.68699595113E+03  0.28164557243E+04  0.27313841565E+04 0.  0.
        5    1    3    3  502    0  0.22787384598E+03 -0.94247101028E+03  0.64818070284E+03  0.11663354614E+04  0.46999998093E+01 0.  1.
       -5    1    3    3    0  502 -0.22787384598E+03  0.94247101028E+03 -0.13351766540E+04  0.16501202629E+04  0.46999998093E+01 0. -1.
</event>
<event>
 5   0  0.3345919E-06  0.2790581E+04  0.7818609E-02  0.8306199E-01
        2   -1    0    0  501    0  0.00000000000E+00  0.00000000000E+00  0.17156566239E+04  0.17156566239E+04  0.25500000920E-02 0.  1.
       -2   -1    0    0    0  501  0.00000000000E+00  0.00000000000E+00 -0.11347467342E+04  0.11347467342E+04  0.25500000920E-02 0. -1.
    10030    2    1    2    0    0  0.00000000000E+00  0.00000000000E+00  0.58090988963E+03  0.28504033581E+04  0.27905811230E+04 0.  0.
        2    1    3    3  502    0 -0.11092935599E+04  0.69304311948E+03  0.78666192652E+03  0.15263282590E+04  0.25500000920E-02 0.  1.
       -2    1    3    3    0  502  0.11092935599E+04 -0.69304311948E+03 -0.20575203689E+03  0.13240750991E+04  0.25500000920E-02 0. -1.
</event>
<event>
 5   0  0.1263513E-06  0.2800686E+04  0.7818609E-02  0.8303055E-01
        1   -1    0    0  501    0  0.00000000000E+00  0.00000000000E+00  0.18809582849E+04  0.18809582849E+04  0.50400001928E-02 0.  1.
       -1   -1    0    0    0  501  0.00000000000E+00  0.00000000000E+00 -0.10425326235E+04  0.10425326235E+04  0.50400001928E-02 0. -1.
    10030    2    1    2    0    0  0.00000000000E+00  0.00000000000E+00  0.83842566141E+03  0.29234909084E+04  0.28006858984E+04 0.  0.
        3    1    3    3  502    0 -0.13518607863E+04  0.23048262200E+03  0.12339549753E+03  0.13769082336E+04  0.10100000352E+00 0. -1.
       -3    1    3    3    0  502  0.13518607863E+04 -0.23048262200E+03  0.71503016388E+03  0.15465826748E+04  0.10100000352E+00 0.  1.
</event>
<event>
 5   0  0.1220265E-06  0.2732489E+04  0.7818609E-02  0.8324540E-01
        1   -1    0    0  501    0  0.00000000000E+00  0.00000000000E+00  0.14464103978E+04  0.14464103978E+04  0.50400001928E-02 0.  1.
       -1   -1    0    0    0  501  0.00000000000E+00  0.00000000000E+00 -0.12905214756E+04  0.12905214756E+04  0.50400001928E-02 0. -1.
    10030    2    1    2    0    0  0.00000000000E+00  0.00000000000E+00  0.15588892227E+03  0.27369318734E+04  0.27324887417E+04 0.  0.
        4    1    3    3  502    0  0.11993108372E+04  0.42470599129E+03  0.57665003698E+03  0.13968709823E+04  0.12699999809E+01 0.  1.
       -4    1    3    3    0  502 -0.11993108372E+04 -0.42470599129E+03 -0.42076111471E+03  0.13400608911E+04  0.12699999809E+01 0. -1.
</event>
<event>
 5   0  0.3212679E-06  0.2802782E+04  0.7818609E-02  0.8302405E-01
       -2   -1    0    0    0  501  0.00000000000E+00  0.00000000000E+00  0.89229134760E+03  0.89229134760E+03  0.25500000920E-02 0.  1.
        2   -1    0    0  501    0  0.00000000000E+00  0.00000000000E+00 -0.22009593529E+04  0.22009593529E+04  0.25500000920E-02 0. -1.
    10030    2    1    2    0    0  0.00000000000E+00  0.00000000000E+00 -0.13086680053E+04  0.30932507005E+04  0.28027821799E+04 0.  0.
        4    1    3    3  502    0  0.17926560438E+03  0.12092139390E+03 -0.21824361054E+04  0.21931226840E+04  0.12699999809E+01 0. -1.
       -4    1    3    3    0  502 -0.17926560438E+03 -0.12092139390E+03  0.87376810006E+03  0.90012801645E+03  0.12699999809E+01 0.  1.
</event>
<event>
 5   0  0.1220265E-06  0.2796438E+04  0.7818609E-02  0.8304375E-01
        1   -1    0    0  501    0  0.00000000000E+00  0.00000000000E+00  0.14067901366E+04  0.14067901367E+04  0.50400001928E-02 0. -1.
       -1   -1    0    0    0  501  0.00000000000E+00  0.00000000000E+00 -0.13897000087E+04  0.13897000087E+04  0.50400001928E-02 0.  1.
    10030    2    1    2    0    0  0.00000000000E+00  0.00000000000E+00  0.17090127959E+02  0.27964901453E+04  0.27964379236E+04 0.  0.
        4    1    3    3  502    0  0.92388718706E+03  0.10307316007E+04  0.20613287530E+03  0.13994525867E+04  0.12699999809E+01 0. -1.
       -4    1    3    3    0  502 -0.92388718706E+03 -0.10307316007E+04 -0.18904274734E+03  0.13970375587E+04  0.12699999809E+01 0.  1.
</event>
<event>
 5   0  0.1220265E-06  0.2789493E+04  0.7818609E-02  0.8306538E-01
       -1   -1    0    0    0  501  0.00000000000E+00  0.00000000000E+00  0.10389577640E+04  0.10389577640E+04  0.50400001928E-02 0. -1.
        1   -1    0    0  501    0  0.00000000000E+00  0.00000000000E+00 -0.18723741650E+04  0.18723741650E+04  0.50400001928E-02 0.  1.
    10030    2    1    2    0    0  0.00000000000E+00  0.00000000000E+00 -0.83341640092E+03  0.29113319290E+04  0.27894929115E+04 0.  0.
        4    1    3    3  502    0  0.16091178858E+03  0.81308835023E+03  0.75403170617E+03  0.11205225102E+04  0.12699999809E+01 0. -1.
       -4    1    3    3    0  502 -0.16091178858E+03 -0.81308835023E+03 -0.15874481071E+04  0.17908094188E+04  0.12699999809E+01 0.  1.
</event>
<event>
 5   0  0.1235252E-06  0.2805631E+04  0.7818609E-02  0.8301522E-01
       -1   -1    0    0    0  501  0.00000000000E+00  0.00000000000E+00  0.10536375254E+04  0.10536375254E+04  0.50400001928E-02 0.  1.
        1   -1    0    0  501    0  0.00000000000E+00  0.00000000000E+00 -0.18677118783E+04  0.18677118783E+04  0.50400001928E-02 0. -1.
    10030    2    1    2    0    0  0.00000000000E+00  0.00000000000E+00 -0.81407435282E+03  0.29213494037E+04  0.28056309962E+04 0.  0.
        1    1    3    3  502    0  0.66272277897E+02 -0.12416246210E+04 -0.10833397534E+04  0.16491357541E+04  0.50400001928E-02 0.  1.
       -1    1    3    3    0  502 -0.66272277897E+02  0.12416246210E+04  0.26926540056E+03  0.12722136496E+04  0.50400001928E-02 0. -1.
</event>
<event>
 5   0  0.3162695E-06  0.2853930E+04  0.7818609E-02  0.8286718E-01
        2   -1    0    0  501    0  0.00000000000E+00  0.00000000000E+00  0.15613014123E+04  0.15613014123E+04  0.25500000920E-02 0. -1.
       -2   -1    0    0    0  501  0.00000000000E+00  0.00000000000E+00 -0.13041867545E+04  0.13041867545E+04  0.25500000920E-02 0.  1.
    10030    2    1    2    0    0  0.00000000000E+00  0.00000000000E+00  0.25711465781E+03  0.28654881668E+04  0.28539296569E+04 0.  0.
        1    1    3    3  502    0 -0.13414914728E+04 -0.48433384668E+03  0.83097307172E+02  0.14286650444E+04  0.50400001928E-02 0. -1.
       -1    1    3    3    0  502  0.13414914728E+04  0.48433384668E+03  0.17401735064E+03  0.14368231224E+04  0.50400001928E-02 0.  1.
</event>
<event>
 5   0  0.1263513E-06  0.2783837E+04  0.7818609E-02  0.8308304E-01
        1   -1    0    0  501    0  0.00000000000E+00  0.00000000000E+00  0.13950587680E+04  0.13950587680E+04  0.50400001928E-02 0.  1.
       -1   -1    0    0    0  501  0.00000000000E+00  0.00000000000E+00 -0.13887851041E+04  0.13887851041E+04  0.50400001928E-02 0. -1.
    10030    2    1    2    0    0  0.00000000000E+00  0.00000000000E+00  0.62736639100E+01  0.27838438722E+04  0.27838368030E+04 0.  0.
        3    1    3    3  502    0 -0.58384876252E+03  0.29343796917E+03  0.12321442681E+04  0.13946916243E+04  0.10100000352E+00 0.  1.
       -3    1    3    3    0  502  0.58384876252E+03 -0.29343796917E+03 -0.12258706042E+04  0.13891522479E+04  0.10100000352E+00 0. -1.
</event>
<event>
 5   0  0.3345919E-06  0.2809552E+04  0.7818609E-02  0.8300309E-01
        2   -1    0    0  501    0  0.00000000000E+00  0.00000000000E+00  0.18083621143E+04  0.18083621143E+04  0.25500000920E-02 0. -1.
       -2   -1    0    0    0  501  0.00000000000E+00  0.00000000000E+00 -0.10912615423E+04  0.10912615423E+04  0.25500000920E-02 0.  1.
    10030    2    1    2    0    0  0.00000000000E+00  0.00000000000E+00  0.71710057198E+03  0.28996236566E+04  0.28095522987E+04 0.  0.
        2    1    3    3  502    0 -0.10070571706E+04  0.49234224152E+03  0.12323520226E+04  0.16659101222E+04  0.25500000920E-02 0. -1.
       -2    1    3    3    0  502  0.10070571706E+04 -0.49234224152E+03 -0.51525145062E+03  0.12337135344E+04  0.25500000920E-02 0.  1.
</event>
<event>
 5   0  0.3167616E-06  0.2793766E+04  0.7818609E-02  0.8305206E-01
       -2   -1    0    0    0  501  0.00000000000E+00  0.00000000000E+00  0.11299750405E+04  0.11299750405E+04  0.25500000920E-02 0.  1.
        2   -1    0    0  501    0  0.00000000000E+00  0.00000000000E+00 -0.17268367292E+04  0.17268367292E+04  0.25500000920E-02 0. -1.
    10030    2    1    2    0    0  0.00000000000E+00  0.00000000000E+00 -0.59686168875E+03  0.28568117697E+04  0.27937662056E+04 0.  0.
        3    1    3    3  502    0 -0.95047717805E+03  0.63458446734E+03 -0.11197867211E+04  0.16000083197E+04  0.10100000352E+00 0. -1.
       -3    1    3    3    0  502  0.95047717805E+03 -0.63458446734E+03  0.52292503233E+03  0.12568034500E+04  0.10100000352E+00 0.  1.
</event>
<event>
 5   0  0.1243055E-06  0.2793707E+04  0.7818609E-02  0.8305225E-01
        1   -1    0    0  501    0  0.00000000000E+00  0.00000000000E+00  0.16024018085E+04  0.16024018085E+04  0.50400001928E-02 0.  1.
       -1   -1    0    0    0  501  0.00000000000E+00  0.00000000000E+00 -0.12176720460E+04  0.12176720460E+04  0.50400001928E-02 0. -1.
    10030    2    1    2    0    0  0.00000000000E+00  0.00000000000E+00  0.38472976250E+03  0.28200738546E+04  0.27937071348E+04 0.  0.
        5    1    3    3  502    0  0.11239682238E+04 -0.40752947097E+03 -0.53680498606E+03  0.13105596213E+04  0.46999998093E+01 0. -1.
       -5    1    3    3    0  502 -0.11239682238E+04  0.40752947097E+03  0.92153474856E+03  0.15095142333E+04  0.46999998093E+01 0.  1.
</event>
<event>
 5   0  0.3212679E-06  0.2796192E+04  0.7818609E-02  0.8304452E-01
        2   -1    0    0  501    0  0.00000000000E+00  0.00000000000E+00  0.12307214632E+04  0.12307214633E+04  0.25500000920E-02 0.  1.
       -2   -1    0    0    0  501  0.00000000000E+00  0.00000000000E+00 -0.15882331989E+04  0.15882331989E+04  0.25500000920E-02 0. -1.
    10030    2    1    2    0    0  0.00000000000E+00  0.00000000000E+00 -0.35751173567E+03  0.28189546622E+04  0.27961921869E+04 0.  0.
        4    1    3    3  502    0 -0.72466564273E+03  0.12836230168E+02  0.10265375881E+04  0.12566169246E+04  0.12699999809E+01 0.  1.
       -4    1    3    3    0  502  0.72466564273E+03 -0.12836230168E+02 -0.13840493238E+04  0.15623377375E+04  0.12699999809E+01 0. -1.
</event>
<event>
 5   0  0.3212679E-06  0.2803619E+04  0.7818609E-02  0.8302146E-01
        2   -1    0    0  501    0  0.00000000000E+00  0.00000000000E+00  0.12294543052E+04  0.12294543052E+04  0.25500000920E-02 0. -1.
       -2   -1    0    0    0  501  0.00000000000E+00  0.00000000000E+00 -0.15983265763E+04  0.15983265763E+04  0.25500000920E-02 0.  1.
    10030    2    1    2    0    0  0.00000000000E+00  0.00000000000E+00 -0.36887227117E+03  0.28277808815E+04  0.28036187261E+04 0.  0.
        4    1    3    3  502    0  0.49352069548E+03 -0.12297601417E+04  0.27688425775E+03  0.13537131115E+04  0.12699999809E+01 0. -1.
       -4    1    3    3    0  502 -0.49352069548E+03  0.12297601417E+04 -0.64575652892E+03  0.14740677700E+04  0.12699999809E+01 0.  1.
</event>
<event>
 5   0  0.3345919E-06  0.2787407E+04  0.7818609E-02  0.8307189E-01
        2   -1    0    0  501    0  0.00000000000E+00  0.00000000000E+00  0.16421908004E+04  0.16421908004E+04  0.25500000920E-02 0. -1.
       -2   -1    0    0    0  501  0.00000000000E+00  0.00000000000E+00 -0.11828156408E+04  0.11828156408E+04  0.25500000920E-02 0.  1.
    10030    2    1    2    0    0  0.00000000000E+00  0.00000000000E+00  0.45937515955E+03  0.28250064412E+04  0.27874066542E+04 0.  0.
        2    1    3    3  502    0 -0.63623208223E+03  0.12936589931E+03 -0.10201883185E+04  0.12092605194E+04  0.25500000920E-02 0.  1.
       -2    1    3    3    0  502  0.63623208223E+03 -0.12936589931E+03  0.14795634781E+04  0.16157459219E+04  0.25500000920E-02 0. -1.
</event>
<event>
 5   0  0.1243055E-06  0.2799260E+04  0.7818609E-02  0.8303498E-01
       -1   -1    0    0    0  501  0.00000000000E+00  0.00000000000E+00  0.90174606346E+03  0.90174606348E+03  0.50400001928E-02 0.  1.
        1   -1    0    0  501    0  0.00000000000E+00  0.00000000000E+00 -0.21724121389E+04  0.21724121389E+04  0.50400001928E-02 0. -1.
    10030    2    1    2    0    0  0.00000000000E+00  0.00000000000E+00 -0.12706660755E+04  0.30741582024E+04  0.27992599697E+04 0.  0.
        5    1    3    3  502    0 -0.45365306367E+03  0.51083778029E+02  0.81767469713E+03  0.93649594494E+03  0.46999998093E+01 0.  1.
       -5    1    3    3    0  502  0.45365306367E+03 -0.51083778029E+02 -0.20883407726E+04  0.21376622575E+04  0.46999998093E+01 0. -1.
</event>
<event>
 5   0  0.3167616E-06  0.2824199E+04  0.7818609E-02  0.8295795E-01
        2   -1    0    0  501    0  0.00000000000E+00  0.00000000000E+00  0.15953320696E+04  0.15953320696E+04  0.25500000920E-02 0. -1.
       -2   -1    0    0    0  501  0.00000000000E+00  0.00000000000E+00 -0.12499121982E+04  0.12499121982E+04  0.25500000920E-02 0.  1.
    10030    2    1    2    0    0  0.00000000000E+00  0.00000000000E+00  0.34541987142E+03  0.28452442678E+04  0.28241990114E+04 0.  0.
        3    1    3    3  502    0 -0.30846769828E+03  0.89209997935E+03  0.12307886645E+04  0.15510755755E+04  0.10100000352E+00 0. -1.
       -3    1    3    3    0  502  0.30846769828E+03 -0.89209997935E+03 -0.88536879312E+03  0.12941686923E+04  0.10100000352E+00 0.  1.
</event>
<event>
 5   0  0.1263513E-06  0.2787047E+04  0.7818609E-02  0.8307301E-01
        1   -1    0    0  501    0  0.00000000000E+00  0.00000000000E+00  0.24064652717E+04  0.24064652717E+04  0.50400001928E-02 0.  1.
       -1   -1    0    0    0  501  0.00000000000E+00  0.00000000000E+00 -0.80695435905E+03  0.80695435907E+03  0.50400001928E-02 0. -1.
    10030    2    1    2    0    0  0.00000000000E+00  0.00000000000E+00  0.15995109126E+04  0.32134196307E+04  0.27870469253E+04 0.  0.
        3    1    3    3  502    0 -0.77113213954E+03 -0.11456290657E+04  0.10148321869E+04  0.17137663524E+04  0.10100000352E+00 0.  1.
       -3    1    3    3    0  502  0.77113213954E+03  0.11456290657E+04  0.58467872573E+03  0.14996532784E+04  0.10100000352E+00 0. -1.
</event>
<event>
 5   0  0.3212679E-06  0.2790282E+04  0.7818609E-02  0.8306292E-01
        2   -1    0    0  501    0  0.00000000000E+00  0.00000000000E+00  0.15729992059E+04  0.15729992059E+04  0.25500000920E-02 0. -1.
       -2   -1    0    0    0  501  0.00000000000E+00  0.00000000000E+00 -0.12373927127E+04  0.12373927127E+04  0.25500000920E-02 0.  1.
    10030    2    1    2    0    0  0.00000000000E+00  0.00000000000E+00  0.33560649318E+03  0.28103919186E+04  0.27902815303E+04 0.  0.
        4    1    3    3  502    0  0.88604011768E+03  0.80573091258E+03  0.88860539643E+03  0.14912714565E+04  0.12699999809E+01 0. -1.
       -4    1    3    3    0  502 -0.88604011768E+03 -0.80573091258E+03 -0.55299890325E+03  0.13191204621E+04  0.12699999809E+01 0.  1.
</event>
<event>
 5   0  0.1220265E-06  0.2828579E+04  0.7818609E-02  0.8294450E-01
       -1   -1    0    0    0  501  0.00000000000E+00  0.00000000000E+00  0.20561598143E+04  0.20561598143E+04  0.50400001928E-02 0. -1.
        1   -1    0    0  501    0  0.00000000000E+00  0.00000000000E+00 -0.97279152882E+03  0.97279152883E+03  0.50400001928E-02 0.  1.
    10030    2    1    2    0    0  0.00000000000E+00  0.00000000000E+00  0.10833682854E+04  0.30289513431E+04  0.28285790420E+04 0.  0.
        4    1    3    3  502    0  0.96226874704E+03 -0.52395236905E+03 -0.41593890107E+03  0.11719616073E+04  0.12699999809E+01 0.  1.
       -4    1    3    3    0  502 -0.96226874704E+03  0.52395236905E+03  0.14993071865E+04  0.18569897358E+04  0.12699999809E+01 0. -1.
</event>
<event>
 5   0  0.1263513E-06  0.2803210E+04  0.7818609E-02  0.8302272E-01
       -1   -1    0    0    0  501  0.00000000000E+00  0.00000000000E+00  0.95547430368E+03  0.95547430369E+03  0.50400001928E-02 0. -1.
        1   -1    0    0  501    0  0.00000000000E+00  0.00000000000E+00 -0.20560435587E+04  0.20560435587E+04  0.50400001928E-02 0.  1.
    10030    2    1    2    0    0  0.00000000000E+00  0.00000000000E+00 -0.11005692550E+04  0.30115178624E+04  0.28032101510E+04 0.  0.
        3    1    3    3  502    0 -0.30769971964E+03 -0.10997438969E+04 -0.14233104271E+04  0.18248091237E+04  0.10100000352E+00 0.  1.
       -3    1    3    3    0  502  0.30769971964E+03  0.10997438969E+04  0.32274117202E+03  0.11867087387E+04  0.10100000352E+00 0. -1.
</event>
<event>
 5   0  0.3345919E-06  0.2787551E+04  0.7818609E-02  0.8307144E-01
       -2   -1    0    0    0  501  0.00000000000E+00  0.00000000000E+00  0.99247514768E+03  0.99247514769E+03  0.25500000920E-02 0.  1.
        2   -1    0    0  501    0  0.00000000000E+00  0.00000000000E+00 -0.19573384148E+04  0.19573384148E+04  0.25500000920E-02 0. -1.
    10030    2    1    2    0    0  0.00000000000E+00  0.00000000000E+00 -0.96486326708E+03  0.29498135625E+04  0.27875507043E+04 0.  0.
        2    1    3    3  502    0 -0.93036407943E+03 -0.69665138280E+02  0.61330322296E+03  0.11164996171E+04  0.25500000920E-02 0.  1.
       -2    1    3    3    0  502  0.93036407943E+03  0.69665138280E+02 -0.15781664900E+04  0.18333139453E+04  0.25500000920E-02 0. -1.
</event>
<event>
 5   0  0.1263513E-06  0.2797696E+04  0.7818609E-02  0.8303984E-01
       -1   -1    0    0    0  501  0.00000000000E+00  0.00000000000E+00  0.90715635594E+03  0.90715635595E+03  0.50400001928E-02 0. -1.
        1   -1    0    0  501    0  0.00000000000E+00  0.00000000000E+00 -0.21570428764E+04  0.21570428764E+04  0.50400001928E-02 0.  1.
    10030    2    1    2    0    0  0.00000000000E+00  0.00000000000E+00 -0.12498865205E+04  0.30641992324E+04  0.27976955913E+04 0.  0.
        3    1    3    3  502    0 -0.70067524669E+03 -0.87287791197E+03  0.29397352914E+03  0.11572735617E+04  0.10100000352E+00 0. -1.
       -3    1    3    3    0  502  0.70067524669E+03  0.87287791197E+03 -0.15438600496E+04  0.19069256707E+04  0.10100000352E+00 0.  1.
</event>
<event>
 5   0  0.3162695E-06  0.2805190E+04  0.7818609E-02  0.8301659E-01
        2   -1    0    0  501    0  0.00000000000E+00  0.00000000000E+00  0.23121452948E+04  0.23121452948E+04  0.25500000920E-02 0. -1.
       -2   -1    0    0    0  501  0.00000000000E+00  0.00000000000E+00 -0.85084284791E+03  0.85084284791E+03  0.25500000920E-02 0.  1.
    10030    2    1    2    0    0  0.00000000000E+00  0.00000000000E+00  0.14613024469E+04  0.31629881427E+04  0.28051896816E+04 0.  0.
        1    1    3    3  502    0  0.49114268126E+03 -0.90637140802E+03 -0.34173124527E+03  0.10860527182E+04  0.50400001928E-02 0.  1.
       -1    1    3    3    0  502 -0.49114268126E+03  0.90637140802E+03  0.18030336921E+04  0.20769354245E+04  0.50400001928E-02 0. -1.
</event>
<event>
 5   0  0.3162695E-06  0.2786580E+04  0.7818609E-02  0.8307447E-01
       -2   -1    0    0    0  501  0.00000000000E+00  0.00000000000E+00  0.11277253829E+04  0.11277253829E+04  0.25500000920E-02 0.  1.
        2   -1    0    0  501    0  0.00000000000E+00  0.00000000000E+00 -0.17213917225E+04  0.17213917225E+04  0.25500000920E-02 0. -1.
    10030    2    1    2    0    0  0.00000000000E+00  0.00000000000E+00 -0.59366633965E+03  0.28491171054E+04  0.27865800827E+04 0.  0.
        1    1    3    3  502    0  0.11326876254E+04 -0.60939351785E+03 -0.84449909232E+03  0.15386748952E+04  0.50400001928E-02 0. -1.
       -1    1    3    3    0  502 -0.11326876254E+04  0.60939351785E+03  0.25083275268E+03  0.13104422101E+04  0.50400001928E-02 0.  1.
</event>
<event>
 5   0  0.3167616E-06  0.2811560E+04  0.7818609E-02  0.8299688E-01
       -2   -1    0    0    0  501  0.00000000000E+00  0.00000000000E+00  0.85490490458E+03  0.85490490459E+03  0.25500000920E-02 0.  1.
        2   -1    0    0  501    0  0.00000000000E+00  0.00000000000E+00 -0.23116225380E+04  0.23116225380E+04  0.25500000920E-02 0. -1.
    10030    2    1    2    0    0  0.00000000000E+00  0.00000000000E+00 -0.14567176334E+04  0.31665274426E+04  0.28115600262E+04 0.  0.
        3    1    3    3  502    0 -0.99170975614E+03 -0.95508121041E+03 -0.40871509548E+03  0.14362159999E+04  0.10100000352E+00 0. -1.
       -3    1    3    3    0  502  0.99170975614E+03  0.95508121041E+03 -0.10480025379E+04  0.17303114427E+04  0.10100000352E+00 0.  1.
</event>
<event>
 5   0  0.3167616E-06  0.2832233E+04  0.7818609E-02  0.8293330E-01
        2   -1    0    0  501    0  0.00000000000E+00  0.00000000000E+00  0.23440093644E+04  0.23440093644E+04  0.25500000920E-02 0. -1.
       -2   -1    0    0    0  501  0.00000000000E+00  0.00000000000E+00 -0.85553695941E+03  0.85553695941E+03  0.25500000920E-02 0.  1.
    10030    2    1    2    0    0  0.00000000000E+00  0.00000000000E+00  0.14884724049E+04  0.31995463238E+04  0.28322334963E+04 0.  0.
        3    1    3    3  502    0  0.11621094895E+04 -0.77014288557E+03  0.46347216164E+03  0.14691579169E+04  0.10100000352E+00 0. -1.
       -3    1    3    3    0  502 -0.11621094895E+04  0.77014288557E+03  0.10250002433E+04  0.17303884069E+04  0.10100000352E+00 0.  1.
</event>
<event>
 5   0  0.3226364E-06  0.2802956E+04  0.7818609E-02  0.8302351E-01
        2   -1    0    0  501    0  0.00000000000E+00  0.00000000000E+00  0.32353267068E+04  0.32353267068E+04  0.25500000920E-02 0. -1.
       -2   -1    0    0    0  501  0.00000000000E+00  0.00000000000E+00 -0.60709202787E+03  0.60709202788E+03  0.25500000920E-02 0.  1.
    10030    2    1    2    0    0  0.00000000000E+00  0.00000000000E+00  0.26282346789E+04  0.38424187346E+04  0.28029563331E+04 0.  0.
        5    1    3    3  502    0  0.13869593591E+04  0.45679148621E+02  0.15826634399E+04  0.21048963163E+04  0.46999998093E+01 0. -1.
       -5    1    3    3    0  502 -0.13869593591E+04 -0.45679148621E+02  0.10455712390E+04  0.17375224183E+04  0.46999998093E+01 0.  1.
</event>
<event>
 5   0  0.1263513E-06  0.2724403E+04  0.7818609E-02  0.8327130E-01
       -1   -1    0    0    0  501  0.00000000000E+00  0.00000000000E+00  0.94924882948E+03  0.94924882950E+03  0.50400001928E-02 0. -1.
        1   -1    0    0  501    0  0.00000000000E+00  0.00000000000E+00 -0.19548013786E+04  0.19548013786E+04  0.50400001928E-02 0.  1.
    10030    2    1    2    0    0  0.00000000000E+00  0.00000000000E+00 -0.10055525491E+04  0.29040502081E+04  0.27244029955E+04 0.  0.
        3    1    3    3  502    0  0.11213935551E+04  0.69955614921E+03 -0.85419812624E+03  0.15737079654E+04  0.10100000352E+00 0.  1.
       -3    1    3    3    0  502 -0.11213935551E+04 -0.69955614921E+03 -0.15135442287E+03  0.13303422427E+04  0.10100000352E+00 0. -1.
</event>
<event>
 5   0  0.1220265E-06  0.2815547E+04  0.7818609E-02  0.8298458E-01
        1   -1    0    0  501    0  0.00000000000E+00  0.00000000000E+00  0.18941174582E+04  0.18941174582E+04  0.50400001928E-02 0.  1.
       -1   -1    0    0    0  501  0.00000000000E+00  0.00000000000E+00 -0.10463059955E+04  0.10463059955E+04  0.50400001928E-02 0. -1.
    10030    2    1    2    0    0  0.00000000000E+00  0.00000000000E+00  0.84781146271E+03  0.29404234537E+04  0.28155471601E+04 0.  0.
        4    1    3    3  502    0  0.13337976656E+03  0.75424915272E+03  0.16574547656E+04  0.18258805710E+04  0.12699999809E+01 0.  1.
       -4    1    3    3    0  502 -0.13337976656E+03 -0.75424915272E+03 -0.80964330294E+03  0.11145428827E+04  0.12699999809E+01 0. -1.
</event>
<event>
 5   0  0.3212679E-06  0.2813116E+04  0.7818609E-02  0.8299208E-01
       -2   -1    0    0    0  501  0.00000000000E+00  0.00000000000E+00  0.14946198120E+04  0.14946198120E+04  0.25500000920E-02 0. -1.
        2   -1    0    0  501    0  0.00000000000E+00  0.00000000000E+00 -0.13236851620E+04  0.13236851621E+04  0.25500000920E-02 0.  1.
    10030    2    1    2    0    0  0.00000000000E+00  0.00000000000E+00  0.17093464994E+03  0.28183049740E+04  0.28131164697E+04 0.  0.
        4    1    3    3  502    0  0.27999927370E+03 -0.40860211008E+03  0.14043486446E+04  0.14891447230E+04  0.12699999809E+01 0. -1.
       -4    1    3    3    0  502 -0.27999927370E+03  0.40860211008E+03 -0.12334139947E+04  0.13291602510E+04  0.12699999809E+01 0.  1.
</event>
<event>
 5   0  0.1263513E-06  0.2795149E+04  0.7818609E-02  0.8304776E-01
        1   -1    0    0  501    0  0.00000000000E+00  0.00000000000E+00  0.15866666739E+04  0.15866666739E+04  0.50400001928E-02 0.  1.
       -1   -1    0    0    0  501  0.00000000000E+00  0.00000000000E+00 -0.12310173867E+04  0.12310173867E+04  0.50400001928E-02 0. -1.
    10030    2    1    2    0    0  0.00000000000E+00  0.00000000000E+00  0.35564928722E+03  0.28176840605E+04  0.27951488421E+04 0.  0.
        3    1    3    3  502    0  0.50806120632E+03 -0.50776157971E+03  0.13863505612E+04  0.15613826885E+04  0.10100000352E+00 0.  1.
       -3    1    3    3    0  502 -0.50806120632E+03  0.50776157971E+03 -0.10307012739E+04  0.12563013721E+04  0.10100000352E+00 0. -1.
</event>
<event>
 5   0  0.1220265E-06  0.2795449E+04  0.7818609E-02  0.8304683E-01
        1   -1    0    0  501    0  0.00000000000E+00  0.00000000000E+00  0.16611953438E+04  0.16611953438E+04  0.50400001928E-02 0.  1.
       -1   -1    0    0    0  501  0.00000000000E+00  0.00000000000E+00 -0.11760406851E+04  0.11760406851E+04  0.50400001928E-02 0. -1.
    10030    2    1    2    0    0  0.00000000000E+00  0.00000000000E+00  0.48515465863E+03  0.28372360289E+04  0.27954486654E+04 0.  0.
        4    1    3    3  502    0 -0.72760781822E+03 -0.59193329013E+03 -0.80917244383E+03  0.12387735119E+04  0.12699999809E+01 0. -1.
       -4    1    3    3    0  502  0.72760781822E+03  0.59193329013E+03  0.12943271025E+04  0.15984625170E+04  0.12699999809E+01 0.  1.
</event>
<event>
 5   0  0.1243055E-06  0.2803657E+04  0.7818609E-02  0.8302134E-01
       -1   -1    0    0    0  501  0.00000000000E+00  0.00000000000E+00  0.31806118742E+04  0.31806118742E+04  0.50400001928E-02 0. -1.
        1   -1    0    0  501    0  0.00000000000E+00  0.00000000000E+00 -0.61784422785E+03  0.61784422787E+03  0.50400001928E-02 0.  1.
    10030    2    1    2    0    0  0.00000000000E+00  0.00000000000E+00  0.25627676463E+04  0.37984561020E+04  0.28036566748E+04 0.  0.
        5    1    3    3  502    0  0.86789518838E+03  0.82080244227E+03  0.22752563395E+04  0.25697805758E+04  0.46999998093E+01 0. -1.
       -5    1    3    3    0  502 -0.86789518838E+03 -0.82080244227E+03  0.28751130681E+03  0.12286755262E+04  0.46999998093E+01 0.  1.
</event>
<event>
 5   0  0.1263513E-06  0.2815862E+04  0.7818609E-02  0.8298361E-01
        1   -1    0    0  501    0  0.00000000000E+00  0.00000000000E+00  0.17342635050E+04  0.17342635050E+04  0.50400001928E-02 0. -1.
       -1   -1    0    0    0  501  0.00000000000E+00  0.00000000000E+00 -0.11430040548E+04  0.11430040548E+04  0.50400001928E-02 0.  1.
    10030    2    1    2    0    0  0.00000000000E+00  0.00000000000E+00  0.59125945024E+03  0.28772675599E+04  0.28158623677E+04 0.  0.
        3    1    3    3  502    0  0.81398120505E+03 -0.10934782285E+04  0.65545981448E+03  0.15125764830E+04  0.10100000352E+00 0. -1.
       -3    1    3    3    0  502 -0.81398120505E+03  0.10934782285E+04 -0.64200364238E+02  0.13646910769E+04  0.10100000352E+00 0.  1.
</event>
<event>
 5   0  0.1243055E-06  0.2801544E+04  0.7818609E-02  0.8302789E-01
       -1   -1    0    0    0  501  0.00000000000E+00  0.00000000000E+00  0.11035812292E+04  0.11035812292E+04  0.50400001928E-02 0. -1.
        1   -1    0    0  501    0  0.00000000000E+00  0.00000000000E+00 -0.17779954646E+04  0.17779954646E+04  0.50400001928E-02 0.  1.
    10030    2    1    2    0    0  0.00000000000E+00  0.00000000000E+00 -0.67441423540E+03  0.28815766938E+04  0.28015441601E+04 0.  0.
        5    1    3    3  502    0 -0.90555028038E+03  0.95223177770E+03 -0.83621986753E+03  0.15575790271E+04  0.46999998093E+01 0.  1.
       -5    1    3    3    0  502  0.90555028038E+03 -0.95223177770E+03  0.16180563213E+03  0.13239976667E+04  0.46999998093E+01 0. -1.
</event>
<event>
 5   0  0.1246044E-06  0.2781698E+04  0.7818609E-02  0.8308973E-01
        1   -1    0    0  501    0  0.00000000000E+00  0.00000000000E+00  0.15263752836E+04  0.15263752836E+04  0.50400001928E-02 0. -1.
       -1   -1    0    0    0  501  0.00000000000E+00  0.00000000000E+00 -0.12673564641E+04  0.12673564641E+04  0.50400001928E-02 0.  1.
    10030    2    1    2    0    0  0.00000000000E+00  0.00000000000E+00  0.25901881956E+03  0.27937317477E+04  0.27816984612E+04 0.  0.
        2    1    3    3  502    0 -0.82998320304E+02  0.64708862315E+01  0.15238707634E+04  0.15261430788E+04  0.25500000920E-02 0. -1.
       -2    1    3    3    0  502  0.82998320304E+02 -0.64708862315E+01 -0.12648519438E+04  0.12675886689E+04  0.25500000920E-02 0.  1.
</event>
<event>
 5   0  0.1246044E-06  0.2799231E+04  0.7818609E-02  0.8303507E-01
       -1   -1    0    0    0  501  0.00000000000E+00  0.00000000000E+00  0.11499511294E+04  0.11499511294E+04  0.50400001928E-02 0. -1.
        1   -1    0    0  501    0  0.00000000000E+00  0.00000000000E+00 -0.17034843942E+04  0.17034843942E+04  0.50400001928E-02 0.  1.
    10030    2    1    2    0    0  0.00000000000E+00  0.00000000000E+00 -0.55353326473E+03  0.28534355236E+04  0.27992311823E+04 0.  0.
        2    1    3    3  502    0  0.11214352236E+04 -0.29687187597E+03  0.52145067070E+03  0.12718728998E+04  0.25500000920E-02 0. -1.
       -2    1    3    3    0  502 -0.11214352236E+04  0.29687187597E+03 -0.10749839354E+04  0.15815626237E+04  0.25500000920E-02 0.  1.
</event>
<event>
 5   0  0.3226364E-06  0.2799301E+04  0.7818609E-02  0.8303485E-01
       -2   -1    0    0    0  501  0.00000000000E+00  0.00000000000E+00  0.89904937624E+03  0.89904937624E+03  0.25500000920E-02 0.  1.
        2   -1    0    0  501    0  0.00000000000E+00  0.00000000000E+00 -0.21789927615E+04  0.21789927615E+04  0.25500000920E-02 0. -1.
    10030    2    1    2    0    0  0.00000000000E+00  0.00000000000E+00 -0.12799433853E+04  0.30780421378E+04  0.27993014008E+04 0.  0.
        5    1    3    3  502    0  0.12932965255E+04  0.52616222007E+03 -0.74735581893E+03  0.15836746493E+04  0.46999998093E+01 0. -1.
       -5    1    3    3    0  502 -0.12932965255E+04 -0.52616222007E+03 -0.53258756635E+03  0.14943674885E+04  0.46999998093E+01 0.  1.
</event>
<event>
 5   0  0.1263513E-06  0.2794912E+04  0.7818609E-02  0.8304850E-01
       -1   -1    0    0    0  501  0.00000000000E+00  0.00000000000E+00  0.14305387377E+04  0.14305387377E+04  0.50400001928E-02 0.  1.
        1   -1    0    0  501    0  0.00000000000E+00  0.00000000000E+00 -0.13651382433E+04  0.13651382433E+04  0.50400001928E-02 0. -1.
    10030    2    1    2    0    0  0.00000000000E+00  0.00000000000E+00  0.65400494472E+02  0.27956769810E+04  0.27949119051E+04 0.  0.
        3    1    3    3  502    0  0.98860783388E+03 -0.18188514196E+03  0.10037674534E+04  0.14205550904E+04  0.10100000352E+00 0.  1.
       -3    1    3    3    0  502 -0.98860783388E+03  0.18188514196E+03 -0.93836695898E+03  0.13751218906E+04  0.10100000352E+00 0. -1.
</event>
<event>
 5   0  0.3226364E-06  0.2802782E+04  0.7818609E-02  0.8302405E-01
       -2   -1    0    0    0  501  0.00000000000E+00  0.00000000000E+00  0.20264376611E+04  0.20264376611E+04  0.25500000920E-02 0. -1.
        2   -1    0    0  501    0  0.00000000000E+00  0.00000000000E+00 -0.96913717652E+03  0.96913717653E+03  0.25500000920E-02 0.  1.
    10030    2    1    2    0    0  0.00000000000E+00  0.00000000000E+00  0.10573004846E+04  0.29955748377E+04  0.28027815279E+04 0.  0.
        5    1    3    3  502    0 -0.13792946877E+04 -0.12727013301E+03  0.30136668166E+03  0.14175667494E+04  0.46999998093E+01 0. -1.
       -5    1    3    3    0  502  0.13792946877E+04  0.12727013301E+03  0.75593380294E+03  0.15780080883E+04  0.46999998093E+01 0.  1.
</event>
<event>
 5   0  0.1263513E-06  0.2790920E+04  0.7818609E-02  0.8306093E-01
        1   -1    0    0  501    0  0.00000000000E+00  0.00000000000E+00  0.16138694196E+04  0.16138694196E+04  0.50400001928E-02 0.  1.
       -1   -1    0    0    0  501  0.00000000000E+00  0.00000000000E+00 -0.12066081716E+04  0.12066081716E+04  0.50400001928E-02 0. -1.
    10030    2    1    2    0    0  0.00000000000E+00  0.00000000000E+00  0.40726124793E+03  0.28204775912E+04  0.27909195829E+04 0.  0.
        3    1    3    3  502    0  0.31037292471E+03 -0.17359968866E+03 -0.11600453887E+04  0.12133315780E+04  0.10100000352E+00 0. -1.
       -3    1    3    3    0  502 -0.31037292471E+03  0.17359968866E+03  0.15673066366E+04  0.16071460132E+04  0.10100000352E+00 0.  1.
</event>
<event>
 5   0  0.3212679E-06  0.2800823E+04  0.7818609E-02  0.8303013E-01
        2   -1    0    0  501    0  0.00000000000E+00  0.00000000000E+00  0.17257224626E+04  0.17257224626E+04  0.25500000920E-02 0. -1.
       -2   -1    0    0    0  501  0.00000000000E+00  0.00000000000E+00 -0.11364241156E+04  0.11364241156E+04  0.25500000920E-02 0.  1.
    10030    2    1    2    0    0  0.00000000000E+00  0.00000000000E+00  0.58929834702E+03  0.28621465782E+04  0.28008231814E+04 0.  0.
        4    1    3    3  502    0  0.22426283868E+02  0.17978313323E+03 -0.11243966458E+04  0.11389004975E+04  0.12699999809E+01 0.  1.
       -4    1    3    3    0  502 -0.22426283868E+02 -0.17978313323E+03  0.17136949929E+04  0.17232460807E+04  0.12699999809E+01 0. -1.
</event>
<event>
 5   0  0.1220265E-06  0.2809888E+04  0.7818609E-02  0.8300205E-01
       -1   -1    0    0    0  501  0.00000000000E+00  0.00000000000E+00  0.13140847258E+04  0.13140847258E+04  0.50400001928E-02 0.  1.
        1   -1    0    0  501    0  0.00000000000E+00  0.00000000000E+00 -0.15020856061E+04  0.15020856061E+04  0.50400001928E-02 0. -1.
    10030    2    1    2    0    0  0.00000000000E+00  0.00000000000E+00 -0.18800088036E+03  0.28161703319E+04  0.28098880774E+04 0.  0.
        4    1    3    3  502    0  0.12510554528E+04 -0.56785396673E+03 -0.38837171596E+03  0.14277366971E+04  0.12699999809E+01 0. -1.
       -4    1    3    3    0  502 -0.12510554528E+04  0.56785396673E+03  0.20037083560E+03  0.13884336348E+04  0.12699999809E+01 0.  1.
</event>
<event>
 5   0  0.3212679E-06  0.2797800E+04  0.7818609E-02  0.8303952E-01
        2   -1    0    0  501    0  0.00000000000E+00  0.00000000000E+00  0.84536540261E+03  0.84536540262E+03  0.25500000920E-02 0.  1.
       -2   -1    0    0    0  501  0.00000000000E+00  0.00000000000E+00 -0.23148822661E+04  0.23148822662E+04  0.25500000920E-02 0. -1.
    10030    2    1    2    0    0  0.00000000000E+00  0.00000000000E+00 -0.14695168635E+04  0.31602476688E+04  0.27978001208E+04 0.  0.
        4    1    3    3  502    0 -0.51030322701E+03 -0.13273923626E+03 -0.21983356606E+04  0.22606880320E+04  0.12699999809E+01 0. -1.
       -4    1    3    3    0  502  0.51030322701E+03  0.13273923626E+03  0.72881879705E+03  0.89955963681E+03  0.12699999809E+01 0.  1.
</event>
<event>
 5   0  0.3345919E-06  0.2798065E+04  0.7818609E-02  0.8303869E-01
       -2   -1    0    0    0  501  0.00000000000E+00  0.00000000000E+00  0.13371040097E+04  0.13371040097E+04  0.25500000920E-02 0. -1.
        2   -1    0    0  501    0  0.00000000000E+00  0.00000000000E+00 -0.14638289924E+04  0.14638289924E+04  0.25500000920E-02 0.  1.
    10030    2    1    2    0    0  0.00000000000E+00  0.00000000000E+00 -0.12672498265E+03  0.28009330021E+04  0.27980647707E+04 0.  0.
        2    1    3    3  502    0  0.52135900763E+03 -0.12960161153E+04  0.12995641518E+02  0.13970117654E+04  0.25500000920E-02 0. -1.
       -2    1    3    3    0  502 -0.52135900763E+03  0.12960161153E+04 -0.13972062416E+03  0.14039212367E+04  0.25500000920E-02 0.  1.
</event>
<event>
 5   0  0.1235252E-06  0.2866038E+04  0.7818609E-02  0.8283054E-01
       -1   -1    0    0    0  501  0.00000000000E+00  0.00000000000E+00  0.11567186909E+04  0.11567186909E+04  0.50400001928E-02 0.  1.
        1   -1    0    0  501    0  0.00000000000E+00  0.00000000000E+00 -0.17753181339E+04  0.17753181339E+04  0.50400001928E-02 0. -1.
    10030    2    1    2    0    0  0.00000000000E+00  0.00000000000E+00 -0.61859944297E+03  0.29320368248E+04  0.28660381490E+04 0.  0.
        1    1    3    3  502    0  0.24440766195E+02 -0.10402335210E+03  0.11526372978E+04  0.11575797809E+04  0.50400001928E-02 0.  1.
       -1    1    3    3    0  502 -0.24440766195E+02  0.10402335210E+03 -0.17712367408E+04  0.17744570439E+04  0.50400001928E-02 0. -1.
</event>
<event>
 5   0  0.1235252E-06  0.2784287E+04  0.7818609E-02  0.8308163E-01
        1   -1    0    0  501    0  0.00000000000E+00  0.00000000000E+00  0.26299655549E+04  0.26299655549E+04  0.50400001928E-02 0. -1.
       -1   -1    0    0    0  501  0.00000000000E+00  0.00000000000E+00 -0.73691605857E+03  0.73691605859E+03  0.50400001928E-02 0.  1.
    10030    2    1    2    0    0  0.00000000000E+00  0.00000000000E+00  0.18930494963E+04  0.33668816135E+04  0.27842872344E+04 0.  0.
        1    1    3    3  502    0  0.23147133187E+03  0.11715230137E+04  0.81244636166E+02  0.11969318444E+04  0.50400001928E-02 0.  1.
       -1    1    3    3    0  502 -0.23147133187E+03 -0.11715230137E+04  0.18118048602E+04  0.21699497691E+04  0.50400001928E-02 0. -1.
</event>
<event>
 5   0  0.3226364E-06  0.2796650E+04  0.7818609E-02  0.8304309E-01
        2   -1    0    0  501    0  0.00000000000E+00  0.00000000000E+00  0.20483604330E+04  0.20483604330E+04  0.25500000920E-02 0. -1.
       -2   -1    0    0    0  501  0.00000000000E+00  0.00000000000E+00 -0.95457480075E+03  0.95457480075E+03  0.25500000920E-02 0.  1.
    10030    2    1    2    0    0  0.00000000000E+00  0.00000000000E+00  0.10937856323E+04  0.30029352338E+04  0.27966503194E+04 0.  0.
        5    1    3    3  502    0 -0.10474140967E+04  0.82191751142E+03  0.87972563524E+02  0.13343110385E+04  0.46999998093E+01 0.  1.
       -5    1    3    3    0  502  0.10474140967E+04 -0.82191751142E+03  0.10058130688E+04  0.16686241952E+04  0.46999998093E+01 0. -1.
</event>
<event>
 5   0  0.3167616E-06  0.2804313E+04  0.7818609E-02  0.8301930E-01
       -2   -1    0    0    0  501  0.00000000000E+00  0.00000000000E+00  0.15900558495E+04  0.15900558495E+04  0.25500000920E-02 0.  1.
        2   -1    0    0  501    0  0.00000000000E+00  0.00000000000E+00 -0.12364618947E+04  0.12364618947E+04  0.25500000920E-02 0. -1.
    10030    2    1    2    0    0  0.00000000000E+00  0.00000000000E+00  0.35359395483E+03  0.28265177442E+04  0.28043134407E+04 0.  0.
        3    1    3    3  502    0 -0.68905528581E+03 -0.12110366993E+04  0.33499958822E+03  0.14330498276E+04  0.10100000352E+00 0.  1.
       -3    1    3    3    0  502  0.68905528581E+03  0.12110366993E+04  0.18594366609E+02  0.13934679166E+04  0.10100000352E+00 0. -1.
</event>
<event>
 5   0  0.3226364E-06  0.2763205E+04  0.7818609E-02  0.8314784E-01
       -2   -1    0    0    0  501  0.00000000000E+00  0.00000000000E+00  0.18512454710E+04  0.18512454710E+04  0.25500000920E-02 0. -1.
        2   -1    0    0  501    0  0.00000000000E+00  0.00000000000E+00 -0.10311034798E+04  0.10311034798E+04  0.25500000920E-02 0.  1.
    10030    2    1    2    0    0  0.00000000000E+00  0.00000000000E+00  0.82014199121E+03  0.28823489509E+04  0.27632051297E+04 0.  0.
        5    1    3    3  502    0 -0.10720817454E+04  0.86174786746E+03  0.54541490576E+03  0.14796851575E+04  0.46999998093E+01 0. -1.
       -5    1    3    3    0  502  0.10720817454E+04 -0.86174786746E+03  0.27472708545E+03  0.14026637934E+04  0.46999998093E+01 0.  1.
</event>
<event>
 5   0  0.1246044E-06  0.2849211E+04  0.7818609E-02  0.8288151E-01
       -1   -1    0    0    0  501  0.00000000000E+00  0.00000000000E+00  0.11983886232E+04  0.11983886233E+04  0.50400001928E-02 0. -1.
        1   -1    0    0  501    0  0.00000000000E+00  0.00000000000E+00 -0.16935247797E+04  0.16935247797E+04  0.50400001928E-02 0.  1.
    10030    2    1    2    0    0  0.00000000000E+00  0.00000000000E+00 -0.49513615644E+03  0.28919134029E+04  0.28492109990E+04 0.  0.
        2    1    3    3  502    0  0.76250735165E+03 -0.18862387802E+03  0.95873261278E+03  0.12394210953E+04  0.25500000920E-02 0. -1.
       -2    1    3    3    0  502 -0.76250735165E+03  0.18862387802E+03 -0.14538687692E+04  0.16524923076E+04  0.25500000920E-02 0.  1.
</event>
<event>
 5   0  0.3212679E-06  0.2796300E+04  0.7818609E-02  0.8304418E-01
        2   -1    0    0  501    0  0.00000000000E+00  0.00000000000E+00  0.25112535687E+04  0.25112535687E+04  0.25500000920E-02 0. -1.
       -2   -1    0    0    0  501  0.00000000000E+00  0.00000000000E+00 -0.77842524491E+03  0.77842524491E+03  0.25500000920E-02 0.  1.
    10030    2    1    2    0    0  0.00000000000E+00  0.00000000000E+00  0.17328283237E+04  0.32896788136E+04  0.27962998224E+04 0.  0.
        4    1    3    3  502    0 -0.81453060566E+03  0.96858453567E+02  0.21984330085E+04  0.23464762887E+04  0.12699999809E+01 0. -1.
       -4    1    3    3    0  502  0.81453060566E+03 -0.96858453567E+02 -0.46560468476E+03  0.94320252489E+03  0.12699999809E+01 0.  1.
</event>
<event>
 5   0  0.1263513E-06  0.2799915E+04  0.7818609E-02  0.8303295E-01
       -1   -1    0    0    0  501  0.00000000000E+00  0.00000000000E+00  0.96878641459E+03  0.96878641460E+03  0.50400001928E-02 0.  1.
        1   -1    0    0  501    0  0.00000000000E+00  0.00000000000E+00 -0.20230271267E+04  0.20230271267E+04  0.50400001928E-02 0. -1.
    10030    2    1    2    0    0  0.00000000000E+00  0.00000000000E+00 -0.10542407121E+04  0.29918135413E+04  0.27999151392E+04 0.  0.
        3    1    3    3  502    0  0.50502013379E+03 -0.11775545091E+04  0.75634310178E+02  0.12835110114E+04  0.10100000352E+00 0.  1.
       -3    1    3    3    0  502 -0.50502013379E+03  0.11775545091E+04 -0.11298750223E+04  0.17083025299E+04  0.10100000352E+00 0. -1.
</event>
<event>
 5   0  0.3167616E-06  0.2793907E+04  0.7818609E-02  0.8305163E-01
       -2   -1    0    0    0  501  0.00000000000E+00  0.00000000000E+00  0.10488341135E+04  0.10488341135E+04  0.25500000920E-02 0. -1.
        2   -1    0    0  501    0  0.00000000000E+00  0.00000000000E+00 -0.18606171165E+04  0.18606171165E+04  0.25500000920E-02 0.  1.
    10030    2    1    2    0    0  0.00000000000E+00  0.00000000000E+00 -0.81178300297E+03  0.29094512300E+04  0.27939067300E+04 0.  0.
        3    1    3    3  502    0 -0.55818984850E+03 -0.52209394978E+03 -0.16235748615E+04  0.17944785706E+04  0.10100000352E+00 0.  1.
       -3    1    3    3    0  502  0.55818984850E+03  0.52209394978E+03  0.81179185854E+03  0.11149726594E+04  0.10100000352E+00 0. -1.
</event>
<event>
 5   0  0.1235252E-06  0.2794133E+04  0.7818609E-02  0.8305092E-01
        1   -1    0    0  501    0  0.00000000000E+00  0.00000000000E+00  0.16043285827E+04  0.16043285827E+04  0.50400001928E-02 0.  1.
       -1   -1    0    0    0  501  0.00000000000E+00  0.00000000000E+00 -0.12165805772E+04  0.12165805772E+04  0.50400001928E-02 0. -1.
    10030    2    1    2    0    0  0.00000000000E+00  0.00000000000E+00  0.38774800548E+03  0.28209091599E+04  0.27941331344E+04 0.  0.
        1    1    3    3  502    0  0.28953517065E+03  0.51708517626E+03 -0.10833929884E+04  0.12348878742E+04  0.50400001928E-02 0. -1.
       -1    1    3    3    0  502 -0.28953517065E+03 -0.51708517626E+03  0.14711409939E+04  0.15860212856E+04  0.50400001928E-02 0.  1.
</event>
<event>
 5   0  0.3226364E-06  0.2764864E+04  0.7818609E-02  0.8314260E-01
        2   -1    0    0  501    0  0.00000000000E+00  0.00000000000E+00  0.16702097544E+04  0.16702097544E+04  0.25500000920E-02 0.  1.
       -2   -1    0    0    0  501  0.00000000000E+00  0.00000000000E+00 -0.11442386417E+04  0.11442386417E+04  0.25500000920E-02 0. -1.
    10030    2    1    2    0    0  0.00000000000E+00  0.00000000000E+00  0.52597111268E+03  0.28144483961E+04  0.27648642214E+04 0.  0.
        5    1    3    3  502    0  0.10109477522E+04 -0.45521714905E+03 -0.57757032628E+03  0.12501390252E+04  0.46999998093E+01 0. -1.
       -5    1    3    3    0  502 -0.10109477522E+04  0.45521714905E+03  0.11035414390E+04  0.15643093709E+04  0.46999998093E+01 0.  1.
</event>
<event>
 5   0  0.1220265E-06  0.2787681E+04  0.7818609E-02  0.8307103E-01
       -1   -1    0    0    0  501  0.00000000000E+00  0.00000000000E+00  0.71091312621E+03  0.71091312623E+03  0.50400001928E-02 0. -1.
        1   -1    0    0  501    0  0.00000000000E+00  0.00000000000E+00 -0.27328107517E+04  0.27328107517E+04  0.50400001928E-02 0.  1.
    10030    2    1    2    0    0  0.00000000000E+00  0.00000000000E+00 -0.20218976255E+04  0.34437238780E+04  0.27876807815E+04 0.  0.
        4    1    3    3  502    0  0.13257643208E+04  0.42828163627E+03 -0.95981680689E+03  0.16918410416E+04  0.12699999809E+01 0. -1.
       -4    1    3    3    0  502 -0.13257643208E+04 -0.42828163627E+03 -0.10620808186E+04  0.17518828364E+04  0.12699999809E+01 0.  1.
</event>
<event>
 5   0  0.3345919E-06  0.2790811E+04  0.7818609E-02  0.8306127E-01
        2   -1    0    0  501    0  0.00000000000E+00  0.00000000000E+00  0.17780546336E+04  0.17780546336E+04  0.25500000920E-02 0. -1.
       -2   -1    0    0    0  501  0.00000000000E+00  0.00000000000E+00 -0.10951049121E+04  0.10951049121E+04  0.25500000920E-02 0.  1.
    10030    2    1    2    0    0  0.00000000000E+00  0.00000000000E+00  0.68294972147E+03  0.28731595457E+04  0.27908108953E+04 0.  0.
        2    1    3    3  502    0 -0.58790895724E+03 -0.15885213307E+03  0.16340231064E+04  0.17438183548E+04  0.25500000920E-02 0. -1.
       -2    1    3    3    0  502  0.58790895724E+03  0.15885213307E+03 -0.95107338490E+03  0.11293411910E+04  0.25500000920E-02 0.  1.
</event>
<event>
 5   0  0.3167616E-06  0.2774487E+04  0.7818609E-02  0.8311233E-01
       -2   -1    0    0    0  501  0.00000000000E+00  0.00000000000E+00  0.14403884977E+04  0.14403884977E+04  0.25500000920E-02 0.  1.
        2   -1    0    0  501    0  0.00000000000E+00  0.00000000000E+00 -0.13360593012E+04  0.13360593012E+04  0.25500000920E-02 0. -1.
    10030    2    1    2    0    0  0.00000000000E+00  0.00000000000E+00  0.10432919649E+03  0.27764477989E+04  0.27744869434E+04 0.  0.
        3    1    3    3  502    0  0.85153784204E+03  0.10608682903E+04  0.32417689218E+03  0.13984451700E+04  0.10100000352E+00 0.  1.
       -3    1    3    3    0  502 -0.85153784204E+03 -0.10608682903E+04 -0.21984769569E+03  0.13780026289E+04  0.10100000352E+00 0. -1.
</event>
<event>
 5   0  0.1243055E-06  0.2799407E+04  0.7818609E-02  0.8303452E-01
       -1   -1    0    0    0  501  0.00000000000E+00  0.00000000000E+00  0.10236666445E+04  0.10236666445E+04  0.50400001928E-02 0. -1.
        1   -1    0    0  501    0  0.00000000000E+00  0.00000000000E+00 -0.19138752792E+04  0.19138752793E+04  0.50400001928E-02 0.  1.
    10030    2    1    2    0    0  0.00000000000E+00  0.00000000000E+00 -0.89020863472E+03  0.29375419238E+04  0.27994072838E+04 0.  0.
        5    1    3    3  502    0 -0.10078277163E+03  0.11046370728E+04 -0.13409075436E+04  0.17402400295E+04  0.46999998093E+01 0.  1.
       -5    1    3    3    0  502  0.10078277163E+03 -0.11046370728E+04  0.45069890884E+03  0.11973018943E+04  0.46999998093E+01 0. -1.
</event>
<event>
 5   0  0.1246044E-06  0.2835873E+04  0.7818609E-02  0.8292217E-01
       -1   -1    0    0    0  501  0.00000000000E+00  0.00000000000E+00  0.14082381242E+04  0.14082381243E+04  0.50400001928E-02 0. -1.
        1   -1    0    0  501    0  0.00000000000E+00  0.00000000000E+00 -0.14277019559E+04  0.14277019559E+04  0.50400001928E-02 0.  1.
    10030    2    1    2    0    0  0.00000000000E+00  0.00000000000E+00 -0.19463831696E+02  0.28359400802E+04  0.28358732866E+04 0.  0.
        2    1    3    3  502    0 -0.11265188249E+03  0.70726153200E+03  0.12140758925E+04  0.14095707127E+04  0.25500000920E-02 0. -1.
       -2    1    3    3    0  502  0.11265188249E+03 -0.70726153200E+03 -0.12335397242E+04  0.14263693675E+04  0.25500000920E-02 0.  1.
</event>
<event>
 5   0  0.3162695E-06  0.2812363E+04  0.7818609E-02  0.8299440E-01
       -2   -1    0    0    0  501  0.00000000000E+00  0.00000000000E+00  0.86601810997E+03  0.86601810997E+03  0.25500000920E-02 0.  1.
        2   -1    0    0  501    0  0.00000000000E+00  0.00000000000E+00 -0.22832626425E+04  0.22832626425E+04  0.25500000920E-02 0. -1.
    10030    2    1    2    0    0  0.00000000000E+00  0.00000000000E+00 -0.14172445325E+04  0.31492807524E+04  0.28123632754E+04 0.  0.
        1    1    3    3  502    0 -0.43691106130E+03  0.64361821248E+02  0.78634594404E+03  0.90187230984E+03  0.50400001928E-02 0.  1.
       -1    1    3    3    0  502  0.43691106130E+03 -0.64361821248E+02 -0.22035904765E+04  0.22474084426E+04  0.50400001928E-02 0. -1.
</event>
<event>
 5   0  0.3345919E-06  0.2819776E+04  0.7818609E-02  0.8297155E-01
        2   -1    0    0  501    0  0.00000000000E+00  0.00000000000E+00  0.13796587339E+04  0.13796587339E+04  0.25500000920E-02 0. -1.
       -2   -1    0    0    0  501  0.00000000000E+00  0.00000000000E+00 -0.14407794384E+04  0.14407794384E+04  0.25500000920E-02 0.  1.
    10030    2    1    2    0    0  0.00000000000E+00  0.00000000000E+00 -0.61120704590E+02  0.28204381723E+04  0.28197758321E+04 0.  0.
        2    1    3    3  502    0  0.21772991454E+03  0.17446330585E+03 -0.14128908252E+04  0.14401750743E+04  0.25500000920E-02 0.  1.
       -2    1    3    3    0  502 -0.21772991454E+03 -0.17446330585E+03  0.13517701206E+04  0.13802630980E+04  0.25500000920E-02 0. -1.
</event>
<event>
 5   0  0.1246044E-06  0.2799976E+04  0.7818609E-02  0.8303276E-01
        1   -1    0    0  501    0  0.00000000000E+00  0.00000000000E+00  0.11285134595E+04  0.11285134595E+04  0.50400001928E-02 0. -1.
       -1   -1    0    0    0  501  0.00000000000E+00  0.00000000000E+00 -0.17367678380E+04  0.17367678381E+04  0.50400001928E-02 0.  1.
    10030    2    1    2    0    0  0.00000000000E+00  0.00000000000E+00 -0.60825437860E+03  0.28652812975E+04  0.27999756293E+04 0.  0.
        2    1    3    3  502    0 -0.85836720592E+03  0.36302063692E+03  0.76493391506E+03  0.12056957068E+04  0.25500000920E-02 0. -1.
       -2    1    3    3    0  502  0.85836720592E+03 -0.36302063692E+03 -0.13731882937E+04  0.16595855907E+04  0.25500000920E-02 0.  1.
</event>
<event>
 5   0  0.3212679E-06  0.2835982E+04  0.7818609E-02  0.8292184E-01
       -2   -1    0    0    0  501  0.00000000000E+00  0.00000000000E+00  0.18597777471E+04  0.18597777471E+04  0.25500000920E-02 0. -1.
        2   -1    0    0  501    0  0.00000000000E+00  0.00000000000E+00 -0.10811494939E+04  0.10811494939E+04  0.25500000920E-02 0.  1.
    10030    2    1    2    0    0  0.00000000000E+00  0.00000000000E+00  0.77862825320E+03  0.29409272410E+04  0.28359815021E+04 0.  0.
        4    1    3    3  502    0  0.97739389605E+03 -0.10271558887E+04  0.40866224492E+03  0.14755861517E+04  0.12699999809E+01 0.  1.
       -4    1    3    3    0  502 -0.97739389605E+03  0.10271558887E+04  0.36996600828E+03  0.14653410893E+04  0.12699999809E+01 0. -1.
</event>
<event>
 5   0  0.3226364E-06  0.2805859E+04  0.7818609E-02  0.8301452E-01
        2   -1    0    0  501    0  0.00000000000E+00  0.00000000000E+00  0.13359349418E+04  0.13359349418E+04  0.25500000920E-02 0. -1.
       -2   -1    0    0    0  501  0.00000000000E+00  0.00000000000E+00 -0.14732835216E+04  0.14732835216E+04  0.25500000920E-02 0.  1.
    10030    2    1    2    0    0  0.00000000000E+00  0.00000000000E+00 -0.13734857977E+03  0.28092184633E+04  0.28058588244E+04 0.  0.
        5    1    3    3  502    0 -0.72406080673E+03  0.72342438468E+03 -0.10292927467E+04  0.14515758818E+04  0.46999998093E+01 0.  1.
       -5    1    3    3    0  502  0.72406080673E+03 -0.72342438468E+03  0.89194416696E+03  0.13576425815E+04  0.46999998093E+01 0. -1.
</event>
<event>
 5   0  0.3212679E-06  0.2791595E+04  0.7818609E-02  0.8305883E-01
       -2   -1    0    0    0  501  0.00000000000E+00  0.00000000000E+00  0.92563727672E+03  0.92563727672E+03  0.25500000920E-02 0.  1.
        2   -1    0    0  501    0  0.00000000000E+00  0.00000000000E+00 -0.21047662905E+04  0.21047662905E+04  0.25500000920E-02 0. -1.
    10030    2    1    2    0    0  0.00000000000E+00  0.00000000000E+00 -0.11791290138E+04  0.30304035672E+04  0.27915946248E+04 0.  0.
        4    1    3    3  502    0 -0.13023485094E+04 -0.50182527439E+03 -0.60862436386E+03  0.15226179676E+04  0.12699999809E+01 0.  1.
       -4    1    3    3    0  502  0.13023485094E+04  0.50182527439E+03 -0.57050464994E+03  0.15077855997E+04  0.12699999809E+01 0. -1.
</event>
<event>
 5   0  0.3345919E-06  0.2819882E+04  0.7818609E-02  0.8297122E-01
       -2   -1    0    0    0  501  0.00000000000E+00  0.00000000000E+00  0.12908379292E+04  0.12908379292E+04  0.25500000920E-02 0.  1.
        2   -1    0    0  501    0  0.00000000000E+00  0.00000000000E+00 -0.15400333248E+04  0.15400333248E+04  0.25500000920E-02 0. -1.
    10030    2    1    2    0    0  0.00000000000E+00  0.00000000000E+00 -0.24919539558E+03  0.28308712540E+04  0.28198818612E+04 0.  0.
        2    1    3    3  502    0  0.25824979025E+03  0.13741788994E+04  0.57417530877E+02  0.13994132251E+04  0.25500000920E-02 0.  1.
       -2    1    3    3    0  502 -0.25824979025E+03 -0.13741788994E+04 -0.30661292646E+03  0.14314580289E+04  0.25500000920E-02 0. -1.
</event>
<event>
 5   0  0.3226364E-06  0.2789185E+04  0.7818609E-02  0.8306634E-01
        2   -1    0    0  501    0  0.00000000000E+00  0.00000000000E+00  0.13850051490E+04  0.13850051490E+04  0.25500000920E-02 0. -1.
       -2   -1    0    0    0  501  0.00000000000E+00  0.00000000000E+00 -0.14042458355E+04  0.14042458355E+04  0.25500000920E-02 0.  1.
    10030    2    1    2    0    0  0.00000000000E+00  0.00000000000E+00 -0.19240686462E+02  0.27892509846E+04  0.27891846211E+04 0.  0.
        5    1    3    3  502    0  0.10658613315E+04 -0.22789949096E+03  0.86038142901E+03  0.13886240849E+04  0.46999998093E+01 0. -1.
       -5    1    3    3    0  502 -0.10658613315E+04  0.22789949096E+03 -0.87962211547E+03  0.14006268996E+04  0.46999998093E+01 0.  1.
</event>
<event>
 5   0  0.1235252E-06  0.2848250E+04  0.7818609E-02  0.8288443E-01
        1   -1    0    0  501    0  0.00000000000E+00  0.00000000000E+00  0.14474183004E+04  0.14474183004E+04  0.50400001928E-02 0.  1.
       -1   -1    0    0    0  501  0.00000000000E+00  0.00000000000E+00 -0.14012069110E+04  0.14012069110E+04  0.50400001928E-02 0. -1.
    10030    2    1    2    0    0  0.00000000000E+00  0.00000000000E+00  0.46211389430E+02  0.28486252114E+04  0.28482503581E+04 0.  0.
        1    1    3    3  502    0 -0.12578826039E+04 -0.46373831380E+03 -0.45738511036E+03  0.14165179166E+04  0.50400001928E-02 0. -1.
       -1    1    3    3    0  502  0.12578826039E+04  0.46373831380E+03  0.50359649979E+03  0.14321072947E+04  0.50400001928E-02 0.  1.
</event>
<event>
 5   0  0.3167616E-06  0.2735995E+04  0.7818609E-02  0.8323419E-01
        2   -1    0    0  501    0  0.00000000000E+00  0.00000000000E+00  0.27492160371E+04  0.27492160371E+04  0.25500000920E-02 0.  1.
       -2   -1    0    0    0  501  0.00000000000E+00  0.00000000000E+00 -0.68070959420E+03  0.68070959421E+03  0.25500000920E-02 0. -1.
    10030    2    1    2    0    0  0.00000000000E+00  0.00000000000E+00  0.20685064429E+04  0.34299256313E+04  0.27359954189E+04 0.  0.
        3    1    3    3  502    0  0.95985141342E+03  0.93751090734E+03  0.13687076862E+04  0.19166643362E+04  0.10100000352E+00 0. -1.
       -3    1    3    3    0  502 -0.95985141342E+03 -0.93751090734E+03  0.69979875673E+03  0.15132612951E+04  0.10100000352E+00 0.  1.
</event>
<event>
 5   0  0.1235252E-06  0.2813192E+04  0.7818609E-02  0.8299185E-01
        1   -1    0    0  501    0  0.00000000000E+00  0.00000000000E+00  0.13137869283E+04  0.13137869283E+04  0.50400001928E-02 0.  1.
       -1   -1    0    0    0  501  0.00000000000E+00  0.00000000000E+00 -0.15059609900E+04  0.15059609900E+04  0.50400001928E-02 0. -1.
    10030    2    1    2    0    0  0.00000000000E+00  0.00000000000E+00 -0.19217406164E+03  0.28197479183E+04  0.28131916843E+04 0.  0.
        1    1    3    3  502    0 -0.77112863783E+03 -0.14877375360E+03 -0.12657422818E+04  0.14895893829E+04  0.50400001928E-02 0. -1.
       -1    1    3    3    0  502  0.77112863783E+03  0.14877375360E+03  0.10735682202E+04  0.13301585354E+04  0.50400001928E-02 0.  1.
</event>
<event>
 5   0  0.3345919E-06  0.2804635E+04  0.7818609E-02  0.8301831E-01
        2   -1    0    0  501    0  0.00000000000E+00  0.00000000000E+00  0.11290546976E+04  0.11290546976E+04  0.25500000920E-02 0.  1.
       -2   -1    0    0    0  501  0.00000000000E+00  0.00000000000E+00 -0.17417179307E+04  0.17417179307E+04  0.25500000920E-02 0. -1.
    10030    2    1    2    0    0  0.00000000000E+00  0.00000000000E+00 -0.61266323306E+03  0.28707726283E+04  0.28046353143E+04 0.  0.
        2    1    3    3  502    0  0.40370872430E+02  0.53047065726E+03 -0.16344126017E+04  0.17188174651E+04  0.25500000920E-02 0. -1.
       -2    1    3    3    0  502 -0.40370872430E+02 -0.53047065726E+03  0.10217493687E+04  0.11519551632E+04  0.25500000920E-02 0.  1.
</event>
<event>
 5   0  0.3226364E-06  0.2799228E+04  0.7818609E-02  0.8303508E-01
       -2   -1    0    0    0  501  0.00000000000E+00  0.00000000000E+00  0.18016918845E+04  0.18016918845E+04  0.25500000920E-02 0. -1.
        2   -1    0    0  501    0  0.00000000000E+00  0.00000000000E+00 -0.10872663423E+04  0.10872663423E+04  0.25500000920E-02 0.  1.
    10030    2    1    2    0    0  0.00000000000E+00  0.00000000000E+00  0.71442554226E+03  0.28889582268E+04  0.27992277115E+04 0.  0.
        5    1    3    3  502    0 -0.60110834419E+03 -0.11989654542E+04  0.77009616649E+03  0.15465832009E+04  0.46999998093E+01 0. -1.
       -5    1    3    3    0  502  0.60110834419E+03  0.11989654542E+04 -0.55670624237E+02  0.13423750259E+04  0.46999998093E+01 0.  1.
</event>
<event>
 5   0  0.1263513E-06  0.2796829E+04  0.7818609E-02  0.8304253E-01
       -1   -1    0    0    0  501  0.00000000000E+00  0.00000000000E+00  0.12083410402E+04  0.12083410402E+04  0.50400001928E-02 0.  1.
        1   -1    0    0  501    0  0.00000000000E+00  0.00000000000E+00 -0.16183870005E+04  0.16183870005E+04  0.50400001928E-02 0. -1.
    10030    2    1    2    0    0  0.00000000000E+00  0.00000000000E+00 -0.41004596038E+03  0.28267280407E+04  0.27968292273E+04 0.  0.
        3    1    3    3  502    0  0.11804476043E+03 -0.75217571311E+03 -0.13905331590E+04  0.15853344586E+04  0.10100000352E+00 0. -1.
       -3    1    3    3    0  502 -0.11804476043E+03  0.75217571311E+03  0.98048719866E+03  0.12413935822E+04  0.10100000352E+00 0.  1.
</event>
<event>
 5   0  0.1235252E-06  0.2803640E+04  0.7818609E-02  0.8302139E-01
        1   -1    0    0  501    0  0.00000000000E+00  0.00000000000E+00  0.22011734253E+04  0.22011734253E+04  0.50400001928E-02 0. -1.
       -1   -1    0    0    0  501  0.00000000000E+00  0.00000000000E+00 -0.89275102522E+03  0.89275102523E+03  0.50400001928E-02 0.  1.
    10030    2    1    2    0    0  0.00000000000E+00  0.00000000000E+00  0.13084224001E+04  0.30939244505E+04  0.28036403708E+04 0.  0.
        1    1    3    3  502    0  0.93194285602E+02 -0.75464487803E+02 -0.88708050885E+03  0.89514908981E+03  0.50400001928E-02 0.  1.
       -1    1    3    3    0  502 -0.93194285602E+02  0.75464487803E+02  0.21955029089E+04  0.21987753607E+04  0.50400001928E-02 0. -1.
</event>
<event>
 5   0  0.1243055E-06  0.2774233E+04  0.7818609E-02  0.8311313E-01
        1   -1    0    0  501    0  0.00000000000E+00  0.00000000000E+00  0.11711415395E+04  0.11711415395E+04  0.50400001928E-02 0.  1.
       -1   -1    0    0    0  501  0.00000000000E+00  0.00000000000E+00 -0.16429206148E+04  0.16429206148E+04  0.50400001928E-02 0. -1.
    10030    2    1    2    0    0  0.00000000000E+00  0.00000000000E+00 -0.47177907532E+03  0.28140621543E+04  0.27742332837E+04 0.  0.
        5    1    3    3  502    0 -0.40837266198E+03 -0.13248189778E+04 -0.28299909624E+03  0.14149290207E+04  0.46999998093E+01 0. -1.
       -5    1    3    3    0  502  0.40837266198E+03  0.13248189778E+04 -0.18877997908E+03  0.13991331336E+04  0.46999998093E+01 0.  1.
</event>
<event>
 5   0  0.1263513E-06  0.2803181E+04  0.7818609E-02  0.8302281E-01
       -1   -1    0    0    0  501  0.00000000000E+00  0.00000000000E+00  0.14423286538E+04  0.14423286538E+04  0.50400001928E-02 0. -1.
        1   -1    0    0  501    0  0.00000000000E+00  0.00000000000E+00 -0.13620030447E+04  0.13620030447E+04  0.50400001928E-02 0.  1.
    10030    2    1    2    0    0  0.00000000000E+00  0.00000000000E+00  0.80325609057E+02  0.28043316985E+04  0.28031810630E+04 0.  0.
        3    1    3    3  502    0 -0.13532675086E+03  0.82467955726E+03 -0.10854862882E+04  0.13699234262E+04  0.10100000352E+00 0.  1.
       -3    1    3    3    0  502  0.13532675086E+03 -0.82467955726E+03  0.11658118972E+04  0.14344082723E+04  0.10100000352E+00 0. -1.
</event>
<event>
 5   0  0.3226364E-06  0.2810771E+04  0.7818609E-02  0.8299932E-01
        2   -1    0    0  501    0  0.00000000000E+00  0.00000000000E+00  0.82387062148E+03  0.82387062149E+03  0.25500000920E-02 0. -1.
       -2   -1    0    0    0  501  0.00000000000E+00  0.00000000000E+00 -0.23973521450E+04  0.23973521450E+04  0.25500000920E-02 0.  1.
    10030    2    1    2    0    0  0.00000000000E+00  0.00000000000E+00 -0.15734815235E+04  0.32212227665E+04  0.28107707140E+04 0.  0.
        5    1    3    3  502    0  0.91466093898E+01  0.18767804957E+03  0.80940110457E+03  0.83093859510E+03  0.46999998093E+01 0. -1.
       -5    1    3    3    0  502 -0.91466093898E+01 -0.18767804957E+03 -0.23828826281E+04  0.23902841714E+04  0.46999998093E+01 0.  1.
</event>
<event>
 5   0  0.3226364E-06  0.2790886E+04  0.7818609E-02  0.8306103E-01
       -2   -1    0    0    0  501  0.00000000000E+00  0.00000000000E+00  0.10191034567E+04  0.10191034567E+04  0.25500000920E-02 0. -1.
        2   -1    0    0  501    0  0.00000000000E+00  0.00000000000E+00 -0.19107591475E+04  0.19107591475E+04  0.25500000920E-02 0.  1.
    10030    2    1    2    0    0  0.00000000000E+00  0.00000000000E+00 -0.89165569076E+03  0.29298626041E+04  0.27908860615E+04 0.  0.
        5    1    3    3  502    0 -0.11199600434E+04  0.70362234805E+03  0.21118380148E+02  0.13228238672E+04  0.46999998093E+01 0.  1.
       -5    1    3    3    0  502  0.11199600434E+04 -0.70362234805E+03 -0.91277407091E+03  0.16070387370E+04  0.46999998093E+01 0. -1.
</event>
<event>
 5   0  0.1235252E-06  0.2769511E+04  0.7818609E-02  0.8312797E-01
        1   -1    0    0  501    0  0.00000000000E+00  0.00000000000E+00  0.19803412148E+04  0.19803412148E+04  0.50400001928E-02 0.  1.
       -1   -1    0    0    0  501  0.00000000000E+00  0.00000000000E+00 -0.96829179254E+03  0.96829179256E+03  0.50400001928E-02 0. -1.
    10030    2    1    2    0    0  0.00000000000E+00  0.00000000000E+00  0.10120494223E+04  0.29486330074E+04  0.27695112527E+04 0.  0.
        1    1    3    3  502    0  0.35094116417E+03 -0.12288903951E+02 -0.92010012919E+03  0.98483245562E+03  0.50400001928E-02 0. -1.
       -1    1    3    3    0  502 -0.35094116417E+03  0.12288903951E+02  0.19321495515E+04  0.19638005518E+04  0.50400001928E-02 0.  1.
</event>
<event>
 5   0  0.1065675E-06  0.2784188E+04  0.7818609E-02  0.8308194E-01
        3   -1    0    0  501    0  0.00000000000E+00  0.00000000000E+00  0.12083890020E+04  0.12083890062E+04  0.10100000352E+00 0.  1.
       -3   -1    0    0    0  501  0.00000000000E+00  0.00000000000E+00 -0.16037267961E+04  0.16037267993E+04  0.10100000352E+00 0. -1.
    10030    2    1    2    0    0  0.00000000000E+00  0.00000000000E+00 -0.39533779411E+03  0.28121158055E+04  0.27841880921E+04 0.  0.
        2    1    3    3  502    0  0.64705798461E+02  0.11141732637E+04 -0.10380952304E+04  0.15242081909E+04  0.25500000920E-02 0. -1.
       -2    1    3    3    0  502 -0.64705798461E+02 -0.11141732637E+04  0.64275743632E+03  0.12879076146E+04  0.25500000920E-02 0.  1.
</event>
<event>
 5   0  0.3167616E-06  0.2797808E+04  0.7818609E-02  0.8303949E-01
       -2   -1    0    0    0  501  0.00000000000E+00  0.00000000000E+00  0.15770523318E+04  0.15770523318E+04  0.25500000920E-02 0. -1.
        2   -1    0    0  501    0  0.00000000000E+00  0.00000000000E+00 -0.12408800455E+04  0.12408800455E+04  0.25500000920E-02 0.  1.
    10030    2    1    2    0    0  0.00000000000E+00  0.00000000000E+00  0.33617228630E+03  0.28179323773E+04  0.27978082631E+04 0.  0.
        3    1    3    3  502    0  0.63287863722E+03  0.61735505379E+03  0.12599826265E+04  0.15392267088E+04  0.10100000352E+00 0. -1.
       -3    1    3    3    0  502 -0.63287863722E+03 -0.61735505379E+03 -0.92381034017E+03  0.12787056685E+04  0.10100000352E+00 0.  1.
</event>
<event>
 5   0  0.3226364E-06  0.2798091E+04  0.7818609E-02  0.8303861E-01
       -2   -1    0    0    0  501  0.00000000000E+00  0.00000000000E+00  0.19056462658E+04  0.19056462658E+04  0.25500000920E-02 0.  1.
        2   -1    0    0  501    0  0.00000000000E+00  0.00000000000E+00 -0.10271205526E+04  0.10271205526E+04  0.25500000920E-02 0. -1.
    10030    2    1    2    0    0  0.00000000000E+00  0.00000000000E+00  0.87852571319E+03  0.29327668185E+04  0.27980910962E+04 0.  0.
        5    1    3    3  502    0  0.82355904465E+03 -0.43181449554E+03  0.15348449129E+04  0.17945707719E+04  0.46999998093E+01 0.  1.
       -5    1    3    3    0  502 -0.82355904465E+03  0.43181449554E+03 -0.65631919971E+03  0.11381960466E+04  0.46999998093E+01 0. -1.
</event>
<event>
 5   0  0.3212679E-06  0.2811319E+04  0.7818609E-02  0.8299763E-01
       -2   -1    0    0    0  501  0.00000000000E+00  0.00000000000E+00  0.12927247982E+04  0.12927247982E+04  0.25500000920E-02 0.  1.
        2   -1    0    0  501    0  0.00000000000E+00  0.00000000000E+00 -0.15284605803E+04  0.15284605803E+04  0.25500000920E-02 0. -1.
    10030    2    1    2    0    0  0.00000000000E+00  0.00000000000E+00 -0.23573578207E+03  0.28211853785E+04  0.28113191887E+04 0.  0.
        4    1    3    3  502    0  0.12677105399E+04  0.29542357155E+02 -0.72655615803E+03  0.14614541483E+04  0.12699999809E+01 0. -1.
       -4    1    3    3    0  502 -0.12677105399E+04 -0.29542357155E+02  0.49082037596E+03  0.13597312302E+04  0.12699999809E+01 0.  1.
</event>
<event>
 5   0  0.1263513E-06  0.2786542E+04  0.7818609E-02  0.8307459E-01
       -1   -1    0    0    0  501  0.00000000000E+00  0.00000000000E+00  0.13264590548E+04  0.13264590548E+04  0.50400001928E-02 0. -1.
        1   -1    0    0  501    0  0.00000000000E+00  0.00000000000E+00 -0.14634476905E+04  0.14634476905E+04  0.50400001928E-02 0.  1.
    10030    2    1    2    0    0  0.00000000000E+00  0.00000000000E+00 -0.13698863574E+03  0.27899067453E+04  0.27865415413E+04 0.  0.
        3    1    3    3  502    0 -0.16793618235E+03 -0.84986544044E+03  0.10240290638E+04  0.13413088242E+04  0.10100000352E+00 0. -1.
       -3    1    3    3    0  502  0.16793618235E+03  0.84986544044E+03 -0.11610176995E+04  0.14485979211E+04  0.10100000352E+00 0.  1.
</event>
<event>
 5   0  0.1220265E-06  0.2799484E+04  0.7818609E-02  0.8303428E-01
       -1   -1    0    0    0  501  0.00000000000E+00  0.00000000000E+00  0.86436531575E+03  0.86436531577E+03  0.50400001928E-02 0. -1.
        1   -1    0    0  501    0  0.00000000000E+00  0.00000000000E+00 -0.22667246690E+04  0.22667246690E+04  0.50400001928E-02 0.  1.
    10030    2    1    2    0    0  0.00000000000E+00  0.00000000000E+00 -0.14023593532E+04  0.31310899847E+04  0.27994843698E+04 0.  0.
        4    1    3    3  502    0 -0.67201711368E+03 -0.96904543059E+03  0.14221094511E+03  0.11878053769E+04  0.12699999809E+01 0. -1.
       -4    1    3    3    0  502  0.67201711368E+03  0.96904543059E+03 -0.15445702983E+04  0.19432846078E+04  0.12699999809E+01 0.  1.
</event>
<event>
 5   0  0.1220265E-06  0.2757755E+04  0.7818609E-02  0.8316505E-01
        1   -1    0    0  501    0  0.00000000000E+00  0.00000000000E+00  0.18345158648E+04  0.18345158648E+04  0.50400001928E-02 0. -1.
       -1   -1    0    0    0  501  0.00000000000E+00  0.00000000000E+00 -0.10364058962E+04  0.10364058962E+04  0.50400001928E-02 0.  1.
    10030    2    1    2    0    0  0.00000000000E+00  0.00000000000E+00  0.79810996863E+03  0.28709217610E+04  0.27577549267E+04 0.  0.
        4    1    3    3  502    0  0.10509334640E+04 -0.51708231127E+03  0.11565587598E+04  0.16460452729E+04  0.12699999809E+01 0. -1.
       -4    1    3    3    0  502 -0.10509334640E+04  0.51708231127E+03 -0.35844879119E+03  0.12248764882E+04  0.12699999809E+01 0.  1.
</event>
<event>
 5   0  0.1220265E-06  0.2795426E+04  0.7818609E-02  0.8304690E-01
       -1   -1    0    0    0  501  0.00000000000E+00  0.00000000000E+00  0.29727525108E+04  0.29727525108E+04  0.50400001928E-02 0.  1.
        1   -1    0    0  501    0  0.00000000000E+00  0.00000000000E+00 -0.65716936098E+03  0.65716936100E+03  0.50400001928E-02 0. -1.
    10030    2    1    2    0    0  0.00000000000E+00  0.00000000000E+00  0.23155831498E+04  0.36299218718E+04  0.27954261699E+04 0.  0.
        4    1    3    3  502    0  0.18297720516E+03  0.13747145617E+04  0.13837473237E+04  0.19591015932E+04  0.12699999809E+01 0. -1.
       -4    1    3    3    0  502 -0.18297720516E+03 -0.13747145617E+04  0.93183582609E+03  0.16708202786E+04  0.12699999809E+01 0.  1.
</event>
<event>
 5   0  0.1235252E-06  0.2796448E+04  0.7818609E-02  0.8304372E-01
       -1   -1    0    0    0  501  0.00000000000E+00  0.00000000000E+00  0.17314117001E+04  0.17314117001E+04  0.50400001928E-02 0. -1.
        1   -1    0    0  501    0  0.00000000000E+00  0.00000000000E+00 -0.11291541388E+04  0.11291541388E+04  0.50400001928E-02 0.  1.
    10030    2    1    2    0    0  0.00000000000E+00  0.00000000000E+00  0.60225756135E+03  0.28605658390E+04  0.27964482382E+04 0.  0.
        1    1    3    3  502    0 -0.49519664496E+03  0.25486133327E+03 -0.10107967786E+04  0.11540728504E+04  0.50400001928E-02 0.  1.
       -1    1    3    3    0  502  0.49519664496E+03 -0.25486133327E+03  0.16130543399E+04  0.17064929886E+04  0.50400001928E-02 0. -1.
</event>
<event>
 5   0  0.1243055E-06  0.2702843E+04  0.7818609E-02  0.8334083E-01
       -1   -1    0    0    0  501  0.00000000000E+00  0.00000000000E+00  0.24932416949E+04  0.24932416949E+04  0.50400001928E-02 0.  1.
        1   -1    0    0  501    0  0.00000000000E+00  0.00000000000E+00 -0.73251645628E+03  0.73251645629E+03  0.50400001928E-02 0. -1.
    10030    2    1    2    0    0  0.00000000000E+00  0.00000000000E+00  0.17607252386E+04  0.32257581512E+04  0.27028433702E+04 0.  0.
        5    1    3    3  502    0  0.13035048934E+04 -0.20525481218E+03  0.12284462992E+04  0.18028746337E+04  0.46999998093E+01 0.  1.
       -5    1    3    3    0  502 -0.13035048934E+04  0.20525481218E+03  0.53227893940E+03  0.14228835175E+04  0.46999998093E+01 0. -1.
</event>
<event>
 5   0  0.3212679E-06  0.2801688E+04  0.7818609E-02  0.8302744E-01
        2   -1    0    0  501    0  0.00000000000E+00  0.00000000000E+00  0.15872898109E+04  0.15872898109E+04  0.25500000920E-02 0.  1.
       -2   -1    0    0    0  501  0.00000000000E+00  0.00000000000E+00 -0.12362984690E+04  0.12362984690E+04  0.25500000920E-02 0. -1.
    10030    2    1    2    0    0  0.00000000000E+00  0.00000000000E+00  0.35099134194E+03  0.28235882799E+04  0.28016880363E+04 0.  0.
        4    1    3    3  502    0 -0.20624792958E+03  0.12650457114E+04  0.74514265832E+03  0.14826051580E+04  0.12699999809E+01 0.  1.
       -4    1    3    3    0  502  0.20624792958E+03 -0.12650457114E+04 -0.39415131638E+03  0.13409831220E+04  0.12699999809E+01 0. -1.
</event>
<event>
 5   0  0.1243055E-06  0.2807192E+04  0.7818609E-02  0.8301039E-01
        1   -1    0    0  501    0  0.00000000000E+00  0.00000000000E+00  0.14626270158E+04  0.14626270158E+04  0.50400001928E-02 0.  1.
       -1   -1    0    0    0  501  0.00000000000E+00  0.00000000000E+00 -0.13469477474E+04  0.13469477474E+04  0.50400001928E-02 0. -1.
    10030    2    1    2    0    0  0.00000000000E+00  0.00000000000E+00  0.11567926844E+03  0.28095747632E+04  0.28071923085E+04 0.  0.
        5    1    3    3  502    0 -0.77480809247E+03 -0.13700451095E+03  0.12211351020E+04  0.14526840137E+04  0.46999998093E+01 0.  1.
       -5    1    3    3    0  502  0.77480809247E+03  0.13700451095E+03 -0.11054558336E+04  0.13568907495E+04  0.46999998093E+01 0. -1.
</event>
<event>
 5   0  0.3212679E-06  0.2813541E+04  0.7818609E-02  0.8299077E-01
       -2   -1    0    0    0  501  0.00000000000E+00  0.00000000000E+00  0.22257844969E+04  0.22257844969E+04  0.25500000920E-02 0.  1.
        2   -1    0    0  501    0  0.00000000000E+00  0.00000000000E+00 -0.88912636642E+03  0.88912636642E+03  0.25500000920E-02 0. -1.
    10030    2    1    2    0    0  0.00000000000E+00  0.00000000000E+00  0.13366581304E+04  0.31149108633E+04  0.28135413145E+04 0.  0.
        4    1    3    3  502    0  0.12127054198E+04 -0.56135606154E+03  0.11549897235E+04  0.17662893130E+04  0.12699999809E+01 0.  1.
       -4    1    3    3    0  502 -0.12127054198E+04  0.56135606154E+03  0.18166840694E+03  0.13486215503E+04  0.12699999809E+01 0. -1.
</event>
<event>
 5   0  0.1235252E-06  0.2800147E+04  0.7818609E-02  0.8303223E-01
       -1   -1    0    0    0  501  0.00000000000E+00  0.00000000000E+00  0.10242521200E+04  0.10242521200E+04  0.50400001928E-02 0. -1.
        1   -1    0    0  501    0  0.00000000000E+00  0.00000000000E+00 -0.19137921996E+04  0.19137921997E+04  0.50400001928E-02 0.  1.
    10030    2    1    2    0    0  0.00000000000E+00  0.00000000000E+00 -0.88954007967E+03  0.29380443196E+04  0.28001469374E+04 0.  0.
        1    1    3    3  502    0  0.72043455013E+03  0.53987163159E+03  0.68028368480E+03  0.11283940852E+04  0.50400001928E-02 0. -1.
       -1    1    3    3    0  502 -0.72043455013E+03 -0.53987163159E+03 -0.15698237645E+04  0.18096502345E+04  0.50400001928E-02 0.  1.
</event>
<event>
 5   0  0.3162695E-06  0.2801122E+04  0.7818609E-02  0.8302920E-01
        2   -1    0    0  501    0  0.00000000000E+00  0.00000000000E+00  0.21189998894E+04  0.21189998894E+04  0.25500000920E-02 0.  1.
       -2   -1    0    0    0  501  0.00000000000E+00  0.00000000000E+00 -0.92570589938E+03  0.92570589939E+03  0.25500000920E-02 0. -1.
    10030    2    1    2    0    0  0.00000000000E+00  0.00000000000E+00  0.11932939900E+04  0.30447057888E+04  0.28011217028E+04 0.  0.
        1    1    3    3  502    0  0.13658826115E+04 -0.28517351901E+03  0.46525767204E+03  0.14708582344E+04  0.50400001928E-02 0. -1.
       -1    1    3    3    0  502 -0.13658826115E+04  0.28517351901E+03  0.72803631798E+03  0.15738475544E+04  0.50400001928E-02 0.  1.
</event>
<event>
 5   0  0.1263513E-06  0.2820491E+04  0.7818609E-02  0.8296935E-01
        1   -1    0    0  501    0  0.00000000000E+00  0.00000000000E+00  0.20965594011E+04  0.20965594011E+04  0.50400001928E-02 0. -1.
       -1   -1    0    0    0  501  0.00000000000E+00  0.00000000000E+00 -0.94859847537E+03  0.94859847538E+03  0.50400001928E-02 0.  1.
    10030    2    1    2    0    0  0.00000000000E+00  0.00000000000E+00  0.11479609258E+04  0.30451578765E+04  0.28204914830E+04 0.  0.
        3    1    3    3  502    0 -0.58374583947E+03  0.31339048989E+03  0.19180622142E+04  0.20292696893E+04  0.10100000352E+00 0. -1.
       -3    1    3    3    0  502  0.58374583947E+03 -0.31339048989E+03 -0.77010128843E+03  0.10158881872E+04  0.10100000352E+00 0.  1.
</event>
<event>
 5   0  0.3345919E-06  0.2801702E+04  0.7818609E-02  0.8302740E-01
       -2   -1    0    0    0  501  0.00000000000E+00  0.00000000000E+00  0.68282914755E+03  0.68282914756E+03  0.25500000920E-02 0.  1.
        2   -1    0    0  501    0  0.00000000000E+00  0.00000000000E+00 -0.28739007822E+04  0.28739007822E+04  0.25500000920E-02 0. -1.
    10030    2    1    2    0    0  0.00000000000E+00  0.00000000000E+00 -0.21910716347E+04  0.35567299298E+04  0.28017017838E+04 0.  0.
        2    1    3    3  502    0  0.52976756864E+03 -0.12964678809E+04 -0.11336327256E+04  0.18018340100E+04  0.25500000920E-02 0. -1.
       -2    1    3    3    0  502 -0.52976756864E+03  0.12964678809E+04 -0.10574389090E+04  0.17548959198E+04  0.25500000920E-02 0.  1.
</event>
<event>
 5   0  0.1235252E-06  0.2810479E+04  0.7818609E-02  0.8300022E-01
        1   -1    0    0  501    0  0.00000000000E+00  0.00000000000E+00  0.30407989196E+04  0.30407989196E+04  0.50400001928E-02 0. -1.
       -1   -1    0    0    0  501  0.00000000000E+00  0.00000000000E+00 -0.64940112807E+03  0.64940112809E+03  0.50400001928E-02 0.  1.
    10030    2    1    2    0    0  0.00000000000E+00  0.00000000000E+00  0.23913977916E+04  0.36902000477E+04  0.28104791397E+04 0.  0.
        1    1    3    3  502    0  0.84109631159E+01  0.12254754674E+04  0.20985693609E+04  0.24301963353E+04  0.50400001928E-02 0. -1.
       -1    1    3    3    0  502 -0.84109631159E+01 -0.12254754674E+04  0.29282843066E+03  0.12600037124E+04  0.50400001928E-02 0.  1.
</event>
<event>
 5   0  0.1243055E-06  0.2787938E+04  0.7818609E-02  0.8307023E-01
        1   -1    0    0  501    0  0.00000000000E+00  0.00000000000E+00  0.12925114723E+04  0.12925114723E+04  0.50400001928E-02 0.  1.
       -1   -1    0    0    0  501  0.00000000000E+00  0.00000000000E+00 -0.15033904013E+04  0.15033904013E+04  0.50400001928E-02 0. -1.
    10030    2    1    2    0    0  0.00000000000E+00  0.00000000000E+00 -0.21087892901E+03  0.27959018736E+04  0.27879378336E+04 0.  0.
        5    1    3    3  502    0 -0.74682779911E+03  0.23186851513E+02  0.10747135054E+04  0.13089387305E+04  0.46999998093E+01 0.  1.
       -5    1    3    3    0  502  0.74682779911E+03 -0.23186851513E+02 -0.12855924344E+04  0.14869631431E+04  0.46999998093E+01 0. -1.
</event>
<event>
 5   0  0.1235252E-06  0.2785873E+04  0.7818609E-02  0.8307668E-01
       -1   -1    0    0    0  501  0.00000000000E+00  0.00000000000E+00  0.76477829926E+03  0.76477829928E+03  0.50400001928E-02 0.  1.
        1   -1    0    0  501    0  0.00000000000E+00  0.00000000000E+00 -0.25370391148E+04  0.25370391148E+04  0.50400001928E-02 0. -1.
    10030    2    1    2    0    0  0.00000000000E+00  0.00000000000E+00 -0.17722608155E+04  0.33018174140E+04  0.27858732630E+04 0.  0.
        1    1    3    3  502    0 -0.44573117202E+02  0.12300028331E+03 -0.25297413591E+04  0.25331220216E+04  0.50400001928E-02 0. -1.
       -1    1    3    3    0  502  0.44573117202E+02 -0.12300028331E+03  0.75748054357E+03  0.76869539246E+03  0.50400001928E-02 0.  1.
</event>
<event>
 5   0  0.3226364E-06  0.2795864E+04  0.7818609E-02  0.8304553E-01
       -2   -1    0    0    0  501  0.00000000000E+00  0.00000000000E+00  0.11506823747E+04  0.11506823747E+04  0.25500000920E-02 0. -1.
        2   -1    0    0  501    0  0.00000000000E+00  0.00000000000E+00 -0.16983091249E+04  0.16983091249E+04  0.25500000920E-02 0.  1.
    10030    2    1    2    0    0  0.00000000000E+00  0.00000000000E+00 -0.54762675024E+03  0.28489914996E+04  0.27958643578E+04 0.  0.
        5    1    3    3  502    0 -0.43538118231E+03  0.60017774546E+03  0.93378882802E+03  0.11923731653E+04  0.46999998093E+01 0. -1.
       -5    1    3    3    0  502  0.43538118231E+03 -0.60017774546E+03 -0.14814155783E+04  0.16566183343E+04  0.46999998093E+01 0.  1.
</event>
<event>
 5   0  0.3167616E-06  0.2798526E+04  0.7818609E-02  0.8303726E-01
       -2   -1    0    0    0  501  0.00000000000E+00  0.00000000000E+00  0.10075979418E+04  0.10075979418E+04  0.25500000920E-02 0. -1.
        2   -1    0    0  501    0  0.00000000000E+00  0.00000000000E+00 -0.19431726159E+04  0.19431726159E+04  0.25500000920E-02 0.  1.
    10030    2    1    2    0    0  0.00000000000E+00  0.00000000000E+00 -0.93557467412E+03  0.29507705577E+04  0.27985258464E+04 0.  0.
        3    1    3    3  502    0  0.84628272221E+03 -0.90711003117E+03  0.21464251253E+03  0.12590132934E+04  0.10100000352E+00 0. -1.
       -3    1    3    3    0  502 -0.84628272221E+03  0.90711003117E+03 -0.11502171867E+04  0.16917572643E+04  0.10100000352E+00 0.  1.
</event>
<event>
 5   0  0.3162695E-06  0.2806641E+04  0.7818609E-02  0.8301210E-01
        2   -1    0    0  501    0  0.00000000000E+00  0.00000000000E+00  0.12178088953E+04  0.12178088953E+04  0.25500000920E-02 0.  1.
       -2   -1    0    0    0  501  0.00000000000E+00  0.00000000000E+00 -0.16170915157E+04  0.16170915157E+04  0.25500000920E-02 0. -1.
    10030    2    1    2    0    0  0.00000000000E+00  0.00000000000E+00 -0.39928262046E+03  0.28349004110E+04  0.28066410047E+04 0.  0.
        1    1    3    3  502    0 -0.92829447438E+03 -0.13554404581E+03 -0.12537997164E+04  0.15659235449E+04  0.50400001928E-02 0. -1.
       -1    1    3    3    0  502  0.92829447438E+03  0.13554404581E+03  0.85451709594E+03  0.12689768661E+04  0.50400001928E-02 0.  1.
</event>
<event>
 5   0  0.1246044E-06  0.2803026E+04  0.7818609E-02  0.8302330E-01
       -1   -1    0    0    0  501  0.00000000000E+00  0.00000000000E+00  0.19291414519E+04  0.19291414519E+04  0.50400001928E-02 0. -1.
        1   -1    0    0  501    0  0.00000000000E+00  0.00000000000E+00 -0.10181930666E+04  0.10181930666E+04  0.50400001928E-02 0.  1.
    10030    2    1    2    0    0  0.00000000000E+00  0.00000000000E+00  0.91094838531E+03  0.29473345185E+04  0.28030258299E+04 0.  0.
        2    1    3    3  502    0 -0.66257413332E+03  0.12349276132E+04  0.44106623318E+03  0.14692141144E+04  0.25500000920E-02 0.  1.
       -2    1    3    3    0  502  0.66257413332E+03 -0.12349276132E+04  0.46988215214E+03  0.14781204041E+04  0.25500000920E-02 0. -1.
</event>
<event>
 5   0  0.1235252E-06  0.2807388E+04  0.7818609E-02  0.8300978E-01
        1   -1    0    0  501    0  0.00000000000E+00  0.00000000000E+00  0.72382452342E+03  0.72382452344E+03  0.50400001928E-02 0.  1.
       -1   -1    0    0    0  501  0.00000000000E+00  0.00000000000E+00 -0.27221465856E+04  0.27221465856E+04  0.50400001928E-02 0. -1.
    10030    2    1    2    0    0  0.00000000000E+00  0.00000000000E+00 -0.19983220622E+04  0.34459711090E+04  0.28073877217E+04 0.  0.
        1    1    3    3  502    0 -0.12883034652E+04  0.55613553034E+03 -0.10441591221E+04  0.17490799921E+04  0.50400001928E-02 0. -1.
       -1    1    3    3    0  502  0.12883034652E+04 -0.55613553034E+03 -0.95416294004E+03  0.16968911169E+04  0.50400001928E-02 0.  1.
</event>
<event>
 5   0  0.3226364E-06  0.2786675E+04  0.7818609E-02  0.8307417E-01
        2   -1    0    0  501    0  0.00000000000E+00  0.00000000000E+00  0.13350419307E+04  0.13350419307E+04  0.25500000920E-02 0. -1.
       -2   -1    0    0    0  501  0.00000000000E+00  0.00000000000E+00 -0.14541788294E+04  0.14541788294E+04  0.25500000920E-02 0.  1.
    10030    2    1    2    0    0  0.00000000000E+00  0.00000000000E+00 -0.11913689876E+03  0.27892207601E+04  0.27866752319E+04 0.  0.
        5    1    3    3  502    0 -0.46078533790E+03 -0.10456061925E+04 -0.85763748700E+03  0.14286985639E+04  0.46999998093E+01 0.  1.
       -5    1    3    3    0  502  0.46078533790E+03  0.10456061925E+04  0.73850058824E+03  0.13605221962E+04  0.46999998093E+01 0. -1.
</event>
<event>
 5   0  0.1243055E-06  0.2802318E+04  0.7818609E-02  0.8302549E-01
       -1   -1    0    0    0  501  0.00000000000E+00  0.00000000000E+00  0.16253593743E+04  0.16253593743E+04  0.50400001928E-02 0. -1.
        1   -1    0    0  501    0  0.00000000000E+00  0.00000000000E+00 -0.12078847288E+04  0.12078847289E+04  0.50400001928E-02 0.  1.
    10030    2    1    2    0    0  0.00000000000E+00  0.00000000000E+00  0.41747464547E+03  0.28332441032E+04  0.28023181598E+04 0.  0.
        5    1    3    3  502    0  0.18158885968E+03 -0.12039976787E+04  0.90967014374E+03  0.15199035446E+04  0.46999998093E+01 0. -1.
       -5    1    3    3    0  502 -0.18158885968E+03  0.12039976787E+04 -0.49219549827E+03  0.13133405586E+04  0.46999998093E+01 0.  1.
</event>
<event>
 5   0  0.1220265E-06  0.2786547E+04  0.7818609E-02  0.8307457E-01
        1   -1    0    0  501    0  0.00000000000E+00  0.00000000000E+00  0.12251704154E+04  0.12251704154E+04  0.50400001928E-02 0. -1.
       -1   -1    0    0    0  501  0.00000000000E+00  0.00000000000E+00 -0.15844421376E+04  0.15844421377E+04  0.50400001928E-02 0.  1.
    10030    2    1    2    0    0  0.00000000000E+00  0.00000000000E+00 -0.35927172224E+03  0.28096125531E+04  0.27865474207E+04 0.  0.
        4    1    3    3  502    0  0.51694542300E+03 -0.23728367687E+03 -0.14620416992E+04  0.15687905076E+04  0.12699999809E+01 0.  1.
       -4    1    3    3    0  502 -0.51694542300E+03  0.23728367687E+03  0.11027699769E+04  0.12408220455E+04  0.12699999809E+01 0. -1.
</event>
<event>
 5   0  0.3226364E-06  0.2800406E+04  0.7818609E-02  0.8303142E-01
        2   -1    0    0  501    0  0.00000000000E+00  0.00000000000E+00  0.15505321343E+04  0.15505321343E+04  0.25500000920E-02 0.  1.
       -2   -1    0    0    0  501  0.00000000000E+00  0.00000000000E+00 -0.12644486169E+04  0.12644486169E+04  0.25500000920E-02 0. -1.
    10030    2    1    2    0    0  0.00000000000E+00  0.00000000000E+00  0.28608351742E+03  0.28149807513E+04  0.28004058368E+04 0.  0.
        5    1    3    3  502    0  0.56913868142E+03  0.52995274364E+03 -0.10273968688E+04  0.12885399354E+04  0.46999998093E+01 0. -1.
       -5    1    3    3    0  502 -0.56913868142E+03 -0.52995274364E+03  0.13134803862E+04  0.15264408158E+04  0.46999998093E+01 0.  1.
</event>
<event>
 5   0  0.1065675E-06  0.2793642E+04  0.7818609E-02  0.8305245E-01
        3   -1    0    0  501    0  0.00000000000E+00  0.00000000000E+00  0.14446155261E+04  0.14446155296E+04  0.10100000352E+00 0.  1.
       -3   -1    0    0    0  501  0.00000000000E+00  0.00000000000E+00 -0.13506076514E+04  0.13506076551E+04  0.10100000352E+00 0. -1.
    10030    2    1    2    0    0  0.00000000000E+00  0.00000000000E+00  0.94007874740E+02  0.27952231848E+04  0.27936419191E+04 0.  0.
        3    1    3    3  502    0 -0.32954401467E+03  0.35995568173E+03 -0.12625307547E+04  0.13535698236E+04  0.10100000352E+00 0. -1.
       -3    1    3    3    0  502  0.32954401467E+03 -0.35995568173E+03  0.13565386295E+04  0.14416533612E+04  0.10100000352E+00 0.  1.
</event>
<event>
 5   0  0.3226364E-06  0.2790921E+04  0.7818609E-02  0.8306092E-01
       -2   -1    0    0    0  501  0.00000000000E+00  0.00000000000E+00  0.85763662868E+03  0.85763662869E+03  0.25500000920E-02 0. -1.
        2   -1    0    0  501    0  0.00000000000E+00  0.00000000000E+00 -0.22705543101E+04  0.22705543101E+04  0.25500000920E-02 0.  1.
    10030    2    1    2    0    0  0.00000000000E+00  0.00000000000E+00 -0.14129176814E+04  0.31281909388E+04  0.27909213846E+04 0.  0.
        5    1    3    3  502    0  0.90653140810E+03  0.37496836018E+03  0.40588504227E+03  0.10616803768E+04  0.46999998093E+01 0. -1.
       -5    1    3    3    0  502 -0.90653140810E+03 -0.37496836018E+03 -0.18188027237E+04  0.20665105620E+04  0.46999998093E+01 0.  1.
</event>
<event>
 5   0  0.3212679E-06  0.2803108E+04  0.7818609E-02  0.8302304E-01
        2   -1    0    0  501    0  0.00000000000E+00  0.00000000000E+00  0.13700531241E+04  0.13700531241E+04  0.25500000920E-02 0. -1.
       -2   -1    0    0    0  501  0.00000000000E+00  0.00000000000E+00 -0.14337793355E+04  0.14337793355E+04  0.25500000920E-02 0.  1.
    10030    2    1    2    0    0  0.00000000000E+00  0.00000000000E+00 -0.63726211417E+02  0.28038324597E+04  0.28031081734E+04 0.  0.
        4    1    3    3  502    0 -0.38861535350E+03 -0.69218097064E+02 -0.13770299851E+04  0.14324895220E+04  0.12699999809E+01 0.  1.
       -4    1    3    3    0  502  0.38861535350E+03  0.69218097064E+02  0.13133037737E+04  0.13713429377E+04  0.12699999809E+01 0. -1.
</event>
<event>
 5   0  0.3162695E-06  0.2817293E+04  0.7818609E-02  0.8297920E-01
       -2   -1    0    0    0  501  0.00000000000E+00  0.00000000000E+00  0.19666759886E+04  0.19666759886E+04  0.25500000920E-02 0. -1.
        2   -1    0    0  501    0  0.00000000000E+00  0.00000000000E+00 -0.10089535001E+04  0.10089535001E+04  0.25500000920E-02 0.  1.
    10030    2    1    2    0    0  0.00000000000E+00  0.00000000000E+00  0.95772248851E+03  0.29756294888E+04  0.28172927589E+04 0.  0.
        1    1    3    3  502    0  0.96908577823E+02 -0.84856189071E+03  0.16620127791E+04  0.18686184824E+04  0.50400001928E-02 0. -1.
       -1    1    3    3    0  502 -0.96908577823E+02  0.84856189071E+03 -0.70429029059E+03  0.11070110064E+04  0.50400001928E-02 0.  1.
</event>
<event>
 5   0  0.3162695E-06  0.2790362E+04  0.7818609E-02  0.8306267E-01
        2   -1    0    0  501    0  0.00000000000E+00  0.00000000000E+00  0.15448797512E+04  0.15448797512E+04  0.25500000920E-02 0. -1.
       -2   -1    0    0    0  501  0.00000000000E+00  0.00000000000E+00 -0.12599877540E+04  0.12599877540E+04  0.25500000920E-02 0.  1.
    10030    2    1    2    0    0  0.00000000000E+00  0.00000000000E+00  0.28489199713E+03  0.28048675052E+04  0.27903616740E+04 0.  0.
        1    1    3    3  502    0 -0.91786400413E+03 -0.28228865439E+02 -0.91337542066E+03  0.12951933670E+04  0.50400001928E-02 0.  1.
       -1    1    3    3    0  502  0.91786400413E+03  0.28228865439E+02  0.11982674178E+04  0.15096741382E+04  0.50400001928E-02 0. -1.
</event>
<event>
 5   0  0.1246044E-06  0.2823069E+04  0.7818609E-02  0.8296142E-01
        1   -1    0    0  501    0  0.00000000000E+00  0.00000000000E+00  0.19800680772E+04  0.19800680772E+04  0.50400001928E-02 0. -1.
       -1   -1    0    0    0  501  0.00000000000E+00  0.00000000000E+00 -0.10062433079E+04  0.10062433080E+04  0.50400001928E-02 0.  1.
    10030    2    1    2    0    0  0.00000000000E+00  0.00000000000E+00  0.97382476927E+03  0.29863113852E+04  0.28230694303E+04 0.  0.
        2    1    3    3  502    0  0.57682444068E+03  0.68968209296E+03  0.16379702665E+04  0.18685112840E+04  0.25500000920E-02 0. -1.
       -2    1    3    3    0  502 -0.57682444068E+03 -0.68968209296E+03 -0.66414549718E+03  0.11178001012E+04  0.25500000920E-02 0.  1.
</event>
<event>
 5   0  0.3162695E-06  0.2825020E+04  0.7818609E-02  0.8295543E-01
       -2   -1    0    0    0  501  0.00000000000E+00  0.00000000000E+00  0.14339704524E+04  0.14339704524E+04  0.25500000920E-02 0. -1.
        2   -1    0    0  501    0  0.00000000000E+00  0.00000000000E+00 -0.13913707002E+04  0.13913707002E+04  0.25500000920E-02 0.  1.
    10030    2    1    2    0    0  0.00000000000E+00  0.00000000000E+00  0.42599752161E+02  0.28253411526E+04  0.28250199804E+04 0.  0.
        1    1    3    3  502    0 -0.76614342932E+03  0.75853375815E+03  0.93400170806E+03  0.14264320549E+04  0.50400001928E-02 0. -1.
       -1    1    3    3    0  502  0.76614342932E+03 -0.75853375815E+03 -0.89140195589E+03  0.13989090977E+04  0.50400001928E-02 0.  1.
</event>
<event>
 5   0  0.1243055E-06  0.2805905E+04  0.7818609E-02  0.8301438E-01
        1   -1    0    0  501    0  0.00000000000E+00  0.00000000000E+00  0.13621701789E+04  0.13621701789E+04  0.50400001928E-02 0. -1.
       -1   -1    0    0    0  501  0.00000000000E+00  0.00000000000E+00 -0.14449553931E+04  0.14449553931E+04  0.50400001928E-02 0.  1.
    10030    2    1    2    0    0  0.00000000000E+00  0.00000000000E+00 -0.82785214220E+02  0.28071255720E+04  0.28059045930E+04 0.  0.
        5    1    3    3  502    0  0.59869917255E+03  0.10272098897E+04  0.70368122431E+03  0.13815897409E+04  0.46999998093E+01 0. -1.
       -5    1    3    3    0  502 -0.59869917255E+03 -0.10272098897E+04 -0.78646643853E+03  0.14255358311E+04  0.46999998093E+01 0.  1.
</event>
<event>
 5   0  0.1263513E-06  0.2767938E+04  0.7818609E-02  0.8313292E-01
        1   -1    0    0  501    0  0.00000000000E+00  0.00000000000E+00  0.27790361091E+04  0.27790361091E+04  0.50400001928E-02 0.  1.
       -1   -1    0    0    0  501  0.00000000000E+00  0.00000000000E+00 -0.68922102852E+03  0.68922102854E+03  0.50400001928E-02 0. -1.
    10030    2    1    2    0    0  0.00000000000E+00  0.00000000000E+00  0.20898150806E+04  0.34682571377E+04  0.27679379512E+04 0.  0.
        3    1    3    3  502    0  0.34460984303E+03  0.15969194585E+03 -0.62263925983E+03  0.72934019468E+03  0.10100000352E+00 0. -1.
       -3    1    3    3    0  502 -0.34460984303E+03 -0.15969194585E+03  0.27124543404E+04  0.27389169430E+04  0.10100000352E+00 0.  1.
</event>
<event>
 5   0  0.3212679E-06  0.2802364E+04  0.7818609E-02  0.8302535E-01
        2   -1    0    0  501    0  0.00000000000E+00  0.00000000000E+00  0.11682118374E+04  0.11682118374E+04  0.25500000920E-02 0. -1.
       -2   -1    0    0    0  501  0.00000000000E+00  0.00000000000E+00 -0.16806116905E+04  0.16806116905E+04  0.25500000920E-02 0.  1.
    10030    2    1    2    0    0  0.00000000000E+00  0.00000000000E+00 -0.51239985307E+03  0.28488235279E+04  0.28023636244E+04 0.  0.
        4    1    3    3  502    0  0.39891701469E+03  0.13238869197E+04 -0.25507083425E+02  0.13829185027E+04  0.12699999809E+01 0. -1.
       -4    1    3    3    0  502 -0.39891701469E+03 -0.13238869197E+04 -0.48689276964E+03  0.14659050252E+04  0.12699999809E+01 0.  1.
</event>
<event>
 5   0  0.1235252E-06  0.2799677E+04  0.7818609E-02  0.8303369E-01
       -1   -1    0    0    0  501  0.00000000000E+00  0.00000000000E+00  0.88567052713E+03  0.88567052714E+03  0.50400001928E-02 0.  1.
        1   -1    0    0  501    0  0.00000000000E+00  0.00000000000E+00 -0.22125018697E+04  0.22125018697E+04  0.50400001928E-02 0. -1.
    10030    2    1    2    0    0  0.00000000000E+00  0.00000000000E+00 -0.13268313426E+04  0.30981723969E+04  0.27996769080E+04 0.  0.
        1    1    3    3  502    0  0.11216944638E+04  0.70986330526E+03 -0.17169452873E+03  0.13385004272E+04  0.50400001928E-02 0.  1.
       -1    1    3    3    0  502 -0.11216944638E+04 -0.70986330526E+03 -0.11551368139E+04  0.17596719697E+04  0.50400001928E-02 0. -1.
</event>
<event>
 5   0  0.3167616E-06  0.2807578E+04  0.7818609E-02  0.8300919E-01
        2   -1    0    0  501    0  0.00000000000E+00  0.00000000000E+00  0.17098633313E+04  0.17098633313E+04  0.25500000920E-02 0. -1.
       -2   -1    0    0    0  501  0.00000000000E+00  0.00000000000E+00 -0.11525037854E+04  0.11525037854E+04  0.25500000920E-02 0.  1.
    10030    2    1    2    0    0  0.00000000000E+00  0.00000000000E+00  0.55735954587E+03  0.28623671167E+04  0.28075782888E+04 0.  0.
        3    1    3    3  502    0 -0.14637537179E+03 -0.40041569623E+03 -0.10849054920E+04  0.11656665115E+04  0.10100000352E+00 0.  1.
       -3    1    3    3    0  502  0.14637537179E+03  0.40041569623E+03  0.16422650378E+04  0.16967006053E+04  0.10100000352E+00 0. -1.
</event>
<event>
 5   0  0.3167616E-06  0.2808659E+04  0.7818609E-02  0.8300585E-01
       -2   -1    0    0    0  501  0.00000000000E+00  0.00000000000E+00  0.13791614754E+04  0.13791614754E+04  0.25500000920E-02 0.  1.
        2   -1    0    0  501    0  0.00000000000E+00  0.00000000000E+00 -0.14299571760E+04  0.14299571760E+04  0.25500000920E-02 0. -1.
    10030    2    1    2    0    0  0.00000000000E+00  0.00000000000E+00 -0.50795700655E+02  0.28091186514E+04  0.28086593589E+04 0.  0.
        3    1    3    3  502    0 -0.47563524151E+03 -0.89003246150E+03 -0.10021614494E+04  0.14222215883E+04  0.10100000352E+00 0. -1.
       -3    1    3    3    0  502  0.47563524151E+03  0.89003246150E+03  0.95136574871E+03  0.13868970630E+04  0.10100000352E+00 0.  1.
</event>
<event>
 5   0  0.3167616E-06  0.2815865E+04  0.7818609E-02  0.8298360E-01
        2   -1    0    0  501    0  0.00000000000E+00  0.00000000000E+00  0.17618299347E+04  0.17618299347E+04  0.25500000920E-02 0.  1.
       -2   -1    0    0    0  501  0.00000000000E+00  0.00000000000E+00 -0.11251219440E+04  0.11251219440E+04  0.25500000920E-02 0. -1.
    10030    2    1    2    0    0  0.00000000000E+00  0.00000000000E+00  0.63670799075E+03  0.28869518787E+04  0.28158647134E+04 0.  0.
        3    1    3    3  502    0 -0.25832989379E+03 -0.86410035973E+03  0.14267904948E+04  0.16879380593E+04  0.10100000352E+00 0.  1.
       -3    1    3    3    0  502  0.25832989379E+03  0.86410035973E+03 -0.79008250404E+03  0.11990138194E+04  0.10100000352E+00 0. -1.
</event>
<event>
 5   0  0.1246044E-06  0.2798898E+04  0.7818609E-02  0.8303610E-01
        1   -1    0    0  501    0  0.00000000000E+00  0.00000000000E+00  0.18504489308E+04  0.18504489308E+04  0.50400001928E-02 0. -1.
       -1   -1    0    0    0  501  0.00000000000E+00  0.00000000000E+00 -0.10583692067E+04  0.10583692067E+04  0.50400001928E-02 0.  1.
    10030    2    1    2    0    0  0.00000000000E+00  0.00000000000E+00  0.79207972414E+03  0.29088181375E+04  0.27988984740E+04 0.  0.
        2    1    3    3  502    0  0.75642760043E+03  0.11733827788E+04  0.29502008358E+03  0.14269010863E+04  0.25500000920E-02 0. -1.
       -2    1    3    3    0  502 -0.75642760043E+03 -0.11733827788E+04  0.49705964056E+03  0.14819170512E+04  0.25500000920E-02 0.  1.
</event>
<event>
 5   0  0.3226364E-06  0.2799985E+04  0.7818609E-02  0.8303273E-01
       -2   -1    0    0    0  501  0.00000000000E+00  0.00000000000E+00  0.22966008845E+04  0.22966008845E+04  0.25500000920E-02 0.  1.
        2   -1    0    0  501    0  0.00000000000E+00  0.00000000000E+00 -0.85342589257E+03  0.85342589258E+03  0.25500000920E-02 0. -1.
    10030    2    1    2    0    0  0.00000000000E+00  0.00000000000E+00  0.14431749919E+04  0.31500267770E+04  0.27999847569E+04 0.  0.
        5    1    3    3  502    0 -0.71386968744E+03  0.76858580384E+03 -0.32148012930E+03  0.10971351931E+04  0.46999998093E+01 0. -1.
       -5    1    3    3    0  502  0.71386968744E+03 -0.76858580384E+03  0.17646551212E+04  0.20528915839E+04  0.46999998093E+01 0.  1.
</event>
<event>
 5   0  0.3226364E-06  0.2811796E+04  0.7818609E-02  0.8299616E-01
        2   -1    0    0  501    0  0.00000000000E+00  0.00000000000E+00  0.18296414371E+04  0.18296414371E+04  0.25500000920E-02 0.  1.
       -2   -1    0    0    0  501  0.00000000000E+00  0.00000000000E+00 -0.10802928088E+04  0.10802928088E+04  0.25500000920E-02 0. -1.
    10030    2    1    2    0    0  0.00000000000E+00  0.00000000000E+00  0.74934862834E+03  0.29099342459E+04  0.28117955026E+04 0.  0.
        5    1    3    3  502    0  0.43309536538E+03  0.10191639723E+04  0.12710812826E+04  0.16858044119E+04  0.46999998093E+01 0.  1.
       -5    1    3    3    0  502 -0.43309536538E+03 -0.10191639723E+04 -0.52173265430E+03  0.12241298340E+04  0.46999998093E+01 0. -1.
</event>
<event>
 5   0  0.3212679E-06  0.2799499E+04  0.7818609E-02  0.8303424E-01
       -2   -1    0    0    0  501  0.00000000000E+00  0.00000000000E+00  0.10135650987E+04  0.10135650987E+04  0.25500000920E-02 0.  1.
        2   -1    0    0  501    0  0.00000000000E+00  0.00000000000E+00 -0.19330762802E+04  0.19330762802E+04  0.25500000920E-02 0. -1.
    10030    2    1    2    0    0  0.00000000000E+00  0.00000000000E+00 -0.91951118145E+03  0.29466413789E+04  0.27994989914E+04 0.  0.
        4    1    3    3  502    0 -0.46897352617E+03  0.77078524789E+03 -0.15861676783E+04  0.18248220689E+04  0.12699999809E+01 0. -1.
       -4    1    3    3    0  502  0.46897352617E+03 -0.77078524789E+03  0.66665649682E+03  0.11218193100E+04  0.12699999809E+01 0.  1.
</event>
<event>
 5   0  0.3212679E-06  0.2799473E+04  0.7818609E-02  0.8303432E-01
       -2   -1    0    0    0  501  0.00000000000E+00  0.00000000000E+00  0.84258635596E+03  0.84258635597E+03  0.25500000920E-02 0. -1.
        2   -1    0    0  501    0  0.00000000000E+00  0.00000000000E+00 -0.23252951148E+04  0.23252951148E+04  0.25500000920E-02 0.  1.
    10030    2    1    2    0    0  0.00000000000E+00  0.00000000000E+00 -0.14827087588E+04  0.31678814707E+04  0.27994727627E+04 0.  0.
        4    1    3    3  502    0  0.12235056733E+04 -0.48828929476E+02 -0.15087672336E+04  0.19431239217E+04  0.12699999809E+01 0.  1.
       -4    1    3    3    0  502 -0.12235056733E+04  0.48828929476E+02  0.26058474776E+02  0.12247575491E+04  0.12699999809E+01 0. -1.
</event>
<event>
 5   0  0.1220265E-06  0.2805327E+04  0.7818609E-02  0.8301616E-01
        1   -1    0    0  501    0  0.00000000000E+00  0.00000000000E+00  0.11300859807E+04  0.11300859807E+04  0.50400001928E-02 0. -1.
       -1   -1    0    0    0  501  0.00000000000E+00  0.00000000000E+00 -0.17409870602E+04  0.17409870602E+04  0.50400001928E-02 0.  1.
    10030    2    1    2    0    0  0.00000000000E+00  0.00000000000E+00 -0.61090107950E+03  0.28710730410E+04  0.28053271249E+04 0.  0.
        4    1    3    3  502    0 -0.51786242571E+03  0.10558365220E+03  0.10242816925E+04  0.11525988019E+04  0.12699999809E+01 0. -1.
       -4    1    3    3    0  502  0.51786242571E+03 -0.10558365220E+03 -0.16351827720E+04  0.17184742391E+04  0.12699999809E+01 0.  1.
</event>
<event>
 5   0  0.3167616E-06  0.2825201E+04  0.7818609E-02  0.8295487E-01
        2   -1    0    0  501    0  0.00000000000E+00  0.00000000000E+00  0.24897203551E+04  0.24897203551E+04  0.25500000920E-02 0.  1.
       -2   -1    0    0    0  501  0.00000000000E+00  0.00000000000E+00 -0.80147186653E+03  0.80147186654E+03  0.25500000920E-02 0. -1.
    10030    2    1    2    0    0  0.00000000000E+00  0.00000000000E+00  0.16882484886E+04  0.32911922217E+04  0.28252014584E+04 0.  0.
        3    1    3    3  502    0 -0.40800005106E+03 -0.74633478339E+03  0.21579590145E+04  0.23195402064E+04  0.10100000352E+00 0.  1.
       -3    1    3    3    0  502  0.40800005106E+03  0.74633478339E+03 -0.46971052587E+03  0.97165201532E+03  0.10100000352E+00 0. -1.
</event>
<event>
 5   0  0.1220265E-06  0.2796487E+04  0.7818609E-02  0.8304360E-01
       -1   -1    0    0    0  501  0.00000000000E+00  0.00000000000E+00  0.92549455408E+03  0.92549455410E+03  0.50400001928E-02 0.  1.
        1   -1    0    0  501    0  0.00000000000E+00  0.00000000000E+00 -0.21124762421E+04  0.21124762422E+04  0.50400001928E-02 0. -1.
    10030    2    1    2    0    0  0.00000000000E+00  0.00000000000E+00 -0.11869816881E+04  0.30379707962E+04  0.27964872664E+04 0.  0.
        4    1    3    3  502    0 -0.57456206001E+03  0.42220158919E+03 -0.19001465684E+04  0.20295157888E+04  0.12699999809E+01 0. -1.
       -4    1    3    3    0  502  0.57456206001E+03 -0.42220158919E+03  0.71316488029E+03  0.10084550075E+04  0.12699999809E+01 0.  1.
</event>
<event>
 5   0  0.3162695E-06  0.2800658E+04  0.7818609E-02  0.8303064E-01
        2   -1    0    0  501    0  0.00000000000E+00  0.00000000000E+00  0.12489751009E+04  0.12489751009E+04  0.25500000920E-02 0. -1.
       -2   -1    0    0    0  501  0.00000000000E+00  0.00000000000E+00 -0.15700242564E+04  0.15700242564E+04  0.25500000920E-02 0.  1.
    10030    2    1    2    0    0  0.00000000000E+00  0.00000000000E+00 -0.32104915552E+03  0.28189993573E+04  0.28006579256E+04 0.  0.
        1    1    3    3  502    0 -0.79808458850E+03  0.88857769383E+03  0.57529774690E+03  0.13256986181E+04  0.50400001928E-02 0. -1.
       -1    1    3    3    0  502  0.79808458850E+03 -0.88857769383E+03 -0.89634690242E+03  0.14933007393E+04  0.50400001928E-02 0.  1.
</event>
<event>
 5   0  0.3345919E-06  0.2802567E+04  0.7818609E-02  0.8302472E-01
        2   -1    0    0  501    0  0.00000000000E+00  0.00000000000E+00  0.27255779565E+04  0.27255779565E+04  0.25500000920E-02 0. -1.
       -2   -1    0    0    0  501  0.00000000000E+00  0.00000000000E+00 -0.72043266468E+03  0.72043266469E+03  0.25500000920E-02 0.  1.
    10030    2    1    2    0    0  0.00000000000E+00  0.00000000000E+00  0.20051452918E+04  0.34460106212E+04  0.28025669591E+04 0.  0.
        2    1    3    3  502    0 -0.22700193010E+03 -0.33499067793E+02 -0.69717527131E+03  0.73396554602E+03  0.25500000920E-02 0.  1.
       -2    1    3    3    0  502  0.22700193010E+03  0.33499067793E+02  0.27023205631E+04  0.27120450752E+04  0.25500000920E-02 0. -1.
</event>
<event>
 5   0  0.1235252E-06  0.2796118E+04  0.7818609E-02  0.8304475E-01
       -1   -1    0    0    0  501  0.00000000000E+00  0.00000000000E+00  0.90613060423E+03  0.90613060424E+03  0.50400001928E-02 0.  1.
        1   -1    0    0  501    0  0.00000000000E+00  0.00000000000E+00 -0.21570500503E+04  0.21570500503E+04  0.50400001928E-02 0. -1.
    10030    2    1    2    0    0  0.00000000000E+00  0.00000000000E+00 -0.12509194460E+04  0.30631806545E+04  0.27961180701E+04 0.  0.
        1    1    3    3  502    0 -0.52146552137E+02 -0.53615964700E+03 -0.20387900969E+04  0.21087559103E+04  0.50400001928E-02 0. -1.
       -1    1    3    3    0  502  0.52146552137E+02  0.53615964700E+03  0.78787065083E+03  0.95442474425E+03  0.50400001928E-02 0.  1.
</event>
<event>
 5   0  0.1246044E-06  0.2796220E+04  0.7818609E-02  0.8304443E-01
        1   -1    0    0  501    0  0.00000000000E+00  0.00000000000E+00  0.17263065466E+04  0.17263065466E+04  0.50400001928E-02 0. -1.
       -1   -1    0    0    0  501  0.00000000000E+00  0.00000000000E+00 -0.11323087854E+04  0.11323087855E+04  0.50400001928E-02 0.  1.
    10030    2    1    2    0    0  0.00000000000E+00  0.00000000000E+00  0.59399776119E+03  0.28586153321E+04  0.27962203555E+04 0.  0.
        2    1    3    3  502    0  0.64541222037E+03  0.34537980981E+03 -0.92074319163E+03  0.11762704503E+04  0.25500000920E-02 0.  1.
       -2    1    3    3    0  502 -0.64541222037E+03 -0.34537980981E+03  0.15147409528E+04  0.16823448818E+04  0.25500000920E-02 0. -1.
</event>
<event>
 5   0  0.3212679E-06  0.2802154E+04  0.7818609E-02  0.8302600E-01
       -2   -1    0    0    0  501  0.00000000000E+00  0.00000000000E+00  0.12169185625E+04  0.12169185625E+04  0.25500000920E-02 0.  1.
        2   -1    0    0  501    0  0.00000000000E+00  0.00000000000E+00 -0.16131047659E+04  0.16131047659E+04  0.25500000920E-02 0. -1.
    10030    2    1    2    0    0  0.00000000000E+00  0.00000000000E+00 -0.39618620347E+03  0.28300233284E+04  0.28021542662E+04 0.  0.
        4    1    3    3  502    0 -0.10451054743E+03 -0.11908016952E+04 -0.93617221668E+03  0.15183382903E+04  0.12699999809E+01 0. -1.
       -4    1    3    3    0  502  0.10451054743E+03  0.11908016952E+04  0.53998601321E+03  0.13116850381E+04  0.12699999809E+01 0.  1.
</event>
<event>
 5   0  0.3212679E-06  0.2800801E+04  0.7818609E-02  0.8303020E-01
        2   -1    0    0  501    0  0.00000000000E+00  0.00000000000E+00  0.62462201940E+03  0.62462201940E+03  0.25500000920E-02 0. -1.
       -2   -1    0    0    0  501  0.00000000000E+00  0.00000000000E+00 -0.31396940023E+04  0.31396940023E+04  0.25500000920E-02 0.  1.
    10030    2    1    2    0    0  0.00000000000E+00  0.00000000000E+00 -0.25150719829E+04  0.37643160217E+04  0.28008013196E+04 0.  0.
        4    1    3    3  502    0 -0.25720749429E+03  0.85462073072E+03  0.19287121546E+03  0.91308992282E+03  0.12699999809E+01 0. -1.
       -4    1    3    3    0  502  0.25720749429E+03 -0.85462073072E+03 -0.27079431984E+04  0.28512260989E+04  0.12699999809E+01 0.  1.
</event>
<event>
 5   0  0.1220265E-06  0.2827095E+04  0.7818609E-02  0.8294905E-01
       -1   -1    0    0    0  501  0.00000000000E+00  0.00000000000E+00  0.13796014845E+04  0.13796014845E+04  0.50400001928E-02 0.  1.
        1   -1    0    0  501    0  0.00000000000E+00  0.00000000000E+00 -0.14483287679E+04  0.14483287679E+04  0.50400001928E-02 0. -1.
    10030    2    1    2    0    0  0.00000000000E+00  0.00000000000E+00 -0.68727283424E+02  0.28279302524E+04  0.28270949883E+04 0.  0.
        4    1    3    3  502    0 -0.39448883601E+03  0.10273812732E+04 -0.92174533999E+03  0.14355311933E+04  0.12699999809E+01 0.  1.
       -4    1    3    3    0  502  0.39448883601E+03 -0.10273812732E+04  0.85301805656E+03  0.13923990591E+04  0.12699999809E+01 0. -1.
</event>
<event>
 5   0  0.1246044E-06  0.2803425E+04  0.7818609E-02  0.8302206E-01
        1   -1    0    0  501    0  0.00000000000E+00  0.00000000000E+00  0.12393676405E+04  0.12393676405E+04  0.50400001928E-02 0.  1.
       -1   -1    0    0    0  501  0.00000000000E+00  0.00000000000E+00 -0.15853225548E+04  0.15853225548E+04  0.50400001928E-02 0. -1.
    10030    2    1    2    0    0  0.00000000000E+00  0.00000000000E+00 -0.34595491431E+03  0.28246901954E+04  0.28034246730E+04 0.  0.
        2    1    3    3  502    0  0.66271136001E+03  0.93353847991E+03 -0.98788748245E+03  0.15121514865E+04  0.25500000920E-02 0. -1.
       -2    1    3    3    0  502 -0.66271136001E+03 -0.93353847991E+03  0.64193256814E+03  0.13125387088E+04  0.25500000920E-02 0.  1.
</event>
<event>
 5   0  0.3226364E-06  0.2801955E+04  0.7818609E-02  0.8302662E-01
        2   -1    0    0  501    0  0.00000000000E+00  0.00000000000E+00  0.13214797200E+04  0.13214797200E+04  0.25500000920E-02 0.  1.
       -2   -1    0    0    0  501  0.00000000000E+00  0.00000000000E+00 -0.14852572443E+04  0.14852572443E+04  0.25500000920E-02 0. -1.
    10030    2    1    2    0    0  0.00000000000E+00  0.00000000000E+00 -0.16377752431E+03  0.28067369642E+04  0.28019545515E+04 0.  0.
        5    1    3    3  502    0  0.13405236257E+03  0.32573845199E+03 -0.14401676168E+04  0.14826261935E+04  0.46999998093E+01 0. -1.
       -5    1    3    3    0  502 -0.13405236257E+03 -0.32573845199E+03  0.12763900925E+04  0.13241107708E+04  0.46999998093E+01 0.  1.
</event>
<event>
 5   0  0.3226364E-06  0.2826362E+04  0.7818609E-02  0.8295130E-01
       -2   -1    0    0    0  501  0.00000000000E+00  0.00000000000E+00  0.15831805659E+04  0.15831805659E+04  0.25500000920E-02 0.  1.
        2   -1    0    0  501    0  0.00000000000E+00  0.00000000000E+00 -0.12614357977E+04  0.12614357977E+04  0.25500000920E-02 0. -1.
    10030    2    1    2    0    0  0.00000000000E+00  0.00000000000E+00  0.32174476823E+03  0.28446163636E+04  0.28263620717E+04 0.  0.
        5    1    3    3  502    0 -0.22727789996E+03  0.13750063597E+04  0.39639405122E+03  0.14489472271E+04  0.46999998093E+01 0. -1.
       -5    1    3    3    0  502  0.22727789996E+03 -0.13750063597E+04 -0.74649282989E+02  0.13956691365E+04  0.46999998093E+01 0.  1.
</event>
<event>
 5   0  0.1243055E-06  0.2799677E+04  0.7818609E-02  0.8303369E-01
       -1   -1    0    0    0  501  0.00000000000E+00  0.00000000000E+00  0.13486019340E+04  0.13486019340E+04  0.50400001928E-02 0.  1.
        1   -1    0    0  501    0  0.00000000000E+00  0.00000000000E+00 -0.14530214659E+04  0.14530214659E+04  0.50400001928E-02 0. -1.
    10030    2    1    2    0    0  0.00000000000E+00  0.00000000000E+00 -0.10441953188E+03  0.28016233999E+04  0.27996768092E+04 0.  0.
        5    1    3    3  502    0 -0.82415314152E+03  0.10778764837E+04  0.29223785965E+03  0.13879737647E+04  0.46999998093E+01 0.  1.
       -5    1    3    3    0  502  0.82415314152E+03 -0.10778764837E+04 -0.39665739153E+03  0.14136496352E+04  0.46999998093E+01 0. -1.
</event>
<event>
 5   0  0.3345919E-06  0.2795049E+04  0.7818609E-02  0.8304807E-01
        2   -1    0    0  501    0  0.00000000000E+00  0.00000000000E+00  0.18690913128E+04  0.18690913128E+04  0.25500000920E-02 0. -1.
       -2   -1    0    0    0  501  0.00000000000E+00  0.00000000000E+00 -0.10449323999E+04  0.10449323999E+04  0.25500000920E-02 0.  1.
    10030    2    1    2    0    0  0.00000000000E+00  0.00000000000E+00  0.82415891298E+03  0.29140237127E+04  0.27950485299E+04 0.  0.
        2    1    3    3  502    0 -0.10893421223E+04 -0.76101804902E+03  0.86323414360E+03  0.15846097049E+04  0.25500000920E-02 0.  1.
       -2    1    3    3    0  502  0.10893421223E+04  0.76101804902E+03 -0.39075230627E+02  0.13294140077E+04  0.25500000920E-02 0. -1.
</event>
<event>
 5   0  0.1220265E-06  0.2825186E+04  0.7818609E-02  0.8295491E-01
        1   -1    0    0  501    0  0.00000000000E+00  0.00000000000E+00  0.12864552997E+04  0.12864552997E+04  0.50400001928E-02 0.  1.
       -1   -1    0    0    0  501  0.00000000000E+00  0.00000000000E+00 -0.15510986682E+04  0.15510986682E+04  0.50400001928E-02 0. -1.
    10030    2    1    2    0    0  0.00000000000E+00  0.00000000000E+00 -0.26464336848E+03  0.28375539679E+04  0.28251860838E+04 0.  0.
        4    1    3    3  502    0 -0.65887871563E+03  0.12465373671E+04 -0.45683293475E+02  0.14106966881E+04  0.12699999809E+01 0.  1.
       -4    1    3    3    0  502  0.65887871563E+03 -0.12465373671E+04 -0.21896007500E+03  0.14268572798E+04  0.12699999809E+01 0. -1.
</event>
<event>
 5   0  0.3167616E-06  0.2742159E+04  0.7818609E-02  0.8321454E-01
       -2   -1    0    0    0  501  0.00000000000E+00  0.00000000000E+00  0.10087868244E+04  0.10087868244E+04  0.25500000920E-02 0.  1.
        2   -1    0    0  501    0  0.00000000000E+00  0.00000000000E+00 -0.18634854037E+04  0.18634854037E+04  0.25500000920E-02 0. -1.
    10030    2    1    2    0    0  0.00000000000E+00  0.00000000000E+00 -0.85469857927E+03  0.28722722281E+04  0.27421593847E+04 0.  0.
        3    1    3    3  502    0  0.84821038296E+03  0.57792713842E+03 -0.13795483869E+04  0.17194808498E+04  0.10100000352E+00 0. -1.
       -3    1    3    3    0  502 -0.84821038296E+03 -0.57792713842E+03  0.52484980759E+03  0.11527913783E+04  0.10100000352E+00 0.  1.
</event>
<event>
 5   0  0.1065675E-06  0.2799452E+04  0.7818609E-02  0.8303439E-01
        4   -1    0    0  501    0  0.00000000000E+00  0.00000000000E+00  0.15498088583E+04  0.15498093787E+04  0.12699999809E+01 0.  1.
       -4   -1    0    0    0  501  0.00000000000E+00  0.00000000000E+00 -0.12641760771E+04  0.12641767150E+04  0.12699999809E+01 0. -1.
    10030    2    1    2    0    0  0.00000000000E+00  0.00000000000E+00  0.28563278124E+03  0.28139860937E+04  0.27994520267E+04 0.  0.
        5    1    3    3  502    0  0.68388032334E+03 -0.88386171879E+03 -0.70435632633E+03  0.13210010443E+04  0.46999998093E+01 0. -1.
       -5    1    3    3    0  502 -0.68388032334E+03  0.88386171879E+03  0.98998910757E+03  0.14929850494E+04  0.46999998093E+01 0.  1.
</event>
<event>
 5   0  0.3345919E-06  0.2799315E+04  0.7818609E-02  0.8303481E-01
        2   -1    0    0  501    0  0.00000000000E+00  0.00000000000E+00  0.13710462412E+04  0.13710462412E+04  0.25500000920E-02 0.  1.
       -2   -1    0    0    0  501  0.00000000000E+00  0.00000000000E+00 -0.14288660926E+04  0.14288660926E+04  0.25500000920E-02 0. -1.
    10030    2    1    2    0    0  0.00000000000E+00  0.00000000000E+00 -0.57819851433E+02  0.27999123338E+04  0.27993152630E+04 0.  0.
        2    1    3    3  502    0  0.12593105982E+04  0.72248686747E+02 -0.63563507907E+03  0.14124854014E+04  0.25500000920E-02 0. -1.
       -2    1    3    3    0  502 -0.12593105982E+04 -0.72248686747E+02  0.57781522764E+03  0.13874269324E+04  0.25500000920E-02 0.  1.
</event>
<event>
 5   0  0.1263513E-06  0.2813390E+04  0.7818609E-02  0.8299123E-01
       -1   -1    0    0    0  501  0.00000000000E+00  0.00000000000E+00  0.14183478452E+04  0.14183478452E+04  0.50400001928E-02 0. -1.
        1   -1    0    0  501    0  0.00000000000E+00  0.00000000000E+00 -0.13951378814E+04  0.13951378814E+04  0.50400001928E-02 0.  1.
    10030    2    1    2    0    0  0.00000000000E+00  0.00000000000E+00  0.23209963806E+02  0.28134857266E+04  0.28133899893E+04 0.  0.
        3    1    3    3  502    0  0.44372301791E+03 -0.42286952483E+03  0.12777768309E+04  0.14171881990E+04  0.10100000352E+00 0. -1.
       -3    1    3    3    0  502 -0.44372301791E+03  0.42286952483E+03 -0.12545668671E+04  0.13962975277E+04  0.10100000352E+00 0.  1.
</event>
<event>
 5   0  0.3345919E-06  0.2800855E+04  0.7818609E-02  0.8303003E-01
       -2   -1    0    0    0  501  0.00000000000E+00  0.00000000000E+00  0.13814215000E+04  0.13814215000E+04  0.25500000920E-02 0. -1.
        2   -1    0    0  501    0  0.00000000000E+00  0.00000000000E+00 -0.14196953693E+04  0.14196953693E+04  0.25500000920E-02 0.  1.
    10030    2    1    2    0    0  0.00000000000E+00  0.00000000000E+00 -0.38273869221E+02  0.28011168693E+04  0.28008553741E+04 0.  0.
        2    1    3    3  502    0  0.58000942271E+03 -0.99619588311E+03  0.77616088732E+03  0.13896916532E+04  0.25500000920E-02 0. -1.
       -2    1    3    3    0  502 -0.58000942271E+03  0.99619588311E+03 -0.81443475654E+03  0.14114252161E+04  0.25500000920E-02 0.  1.
</event>
<event>
 5   0  0.1243055E-06  0.2806300E+04  0.7818609E-02  0.8301315E-01
       -1   -1    0    0    0  501  0.00000000000E+00  0.00000000000E+00  0.15695795227E+04  0.15695795227E+04  0.50400001928E-02 0.  1.
        1   -1    0    0  501    0  0.00000000000E+00  0.00000000000E+00 -0.12543675050E+04  0.12543675050E+04  0.50400001928E-02 0. -1.
    10030    2    1    2    0    0  0.00000000000E+00  0.00000000000E+00  0.31521201776E+03  0.28239470277E+04  0.28062997344E+04 0.  0.
        5    1    3    3  502    0 -0.85639067368E+03  0.55969724135E+03  0.11239266753E+04  0.15198352705E+04  0.46999998093E+01 0.  1.
       -5    1    3    3    0  502  0.85639067368E+03 -0.55969724135E+03 -0.80871465755E+03  0.13041117572E+04  0.46999998093E+01 0. -1.
</event>
<event>
 5   0  0.1220265E-06  0.2792669E+04  0.7818609E-02  0.8305548E-01
        1   -1    0    0  501    0  0.00000000000E+00  0.00000000000E+00  0.98959576936E+03  0.98959576938E+03  0.50400001928E-02 0. -1.
       -1   -1    0    0    0  501  0.00000000000E+00  0.00000000000E+00 -0.19702495926E+04  0.19702495926E+04  0.50400001928E-02 0.  1.
    10030    2    1    2    0    0  0.00000000000E+00  0.00000000000E+00 -0.98065382323E+03  0.29598453620E+04  0.27926694480E+04 0.  0.
        4    1    3    3  502    0  0.35710943094E+03  0.50951241029E+03 -0.18152053712E+04  0.19188804534E+04  0.12699999809E+01 0.  1.
       -4    1    3    3    0  502 -0.35710943094E+03 -0.50951241029E+03  0.83455154793E+03  0.10409649086E+04  0.12699999809E+01 0. -1.
</event>
<event>
 5   0  0.3167616E-06  0.2802839E+04  0.7818609E-02  0.8302388E-01
        2   -1    0    0  501    0  0.00000000000E+00  0.00000000000E+00  0.19994785890E+04  0.19994785890E+04  0.25500000920E-02 0. -1.
       -2   -1    0    0    0  501  0.00000000000E+00  0.00000000000E+00 -0.98224421995E+03  0.98224421995E+03  0.25500000920E-02 0.  1.
    10030    2    1    2    0    0  0.00000000000E+00  0.00000000000E+00  0.10172343691E+04  0.29817228090E+04  0.28028387660E+04 0.  0.
        3    1    3    3  502    0  0.10931912875E+03  0.71570807003E+03 -0.76787559004E+03  0.10553774895E+04  0.10100000352E+00 0.  1.
       -3    1    3    3    0  502 -0.10931912875E+03 -0.71570807003E+03  0.17851099591E+04  0.19263453194E+04  0.10100000352E+00 0. -1.
</event>
<event>
 5   0  0.1263513E-06  0.2797447E+04  0.7818609E-02  0.8304061E-01
       -1   -1    0    0    0  501  0.00000000000E+00  0.00000000000E+00  0.14791792859E+04  0.14791792859E+04  0.50400001928E-02 0.  1.
        1   -1    0    0  501    0  0.00000000000E+00  0.00000000000E+00 -0.13226438933E+04  0.13226438933E+04  0.50400001928E-02 0. -1.
    10030    2    1    2    0    0  0.00000000000E+00  0.00000000000E+00  0.15653539263E+03  0.28018231793E+04  0.27974470145E+04 0.  0.
        3    1    3    3  502    0 -0.11714376299E+04  0.36256898610E+03  0.75215383519E+03  0.14385610145E+04  0.10100000352E+00 0. -1.
       -3    1    3    3    0  502  0.11714376299E+04 -0.36256898610E+03 -0.59561844256E+03  0.13632621647E+04  0.10100000352E+00 0.  1.
</event>
<event>
 5   0  0.1246044E-06  0.2734215E+04  0.7818609E-02  0.8323988E-01
       -1   -1    0    0    0  501  0.00000000000E+00  0.00000000000E+00  0.12357953636E+04  0.12357953636E+04  0.50400001928E-02 0.  1.
        1   -1    0    0  501    0  0.00000000000E+00  0.00000000000E+00 -0.15123727987E+04  0.15123727987E+04  0.50400001928E-02 0. -1.
    10030    2    1    2    0    0  0.00000000000E+00  0.00000000000E+00 -0.27657743508E+03  0.27481681622E+04  0.27342152751E+04 0.  0.
        2    1    3    3  502    0 -0.83826634968E+03 -0.61891042527E+03 -0.10278149868E+04  0.14636065846E+04  0.25500000920E-02 0. -1.
       -2    1    3    3    0  502  0.83826634968E+03  0.61891042527E+03  0.75123755172E+03  0.12845615776E+04  0.25500000920E-02 0.  1.
</event>
<event>
 5   0  0.1246044E-06  0.2774699E+04  0.7818609E-02  0.8311167E-01
       -1   -1    0    0    0  501  0.00000000000E+00  0.00000000000E+00  0.74615670885E+03  0.74615670887E+03  0.50400001928E-02 0. -1.
        1   -1    0    0  501    0  0.00000000000E+00  0.00000000000E+00 -0.25795368653E+04  0.25795368653E+04  0.50400001928E-02 0.  1.
    10030    2    1    2    0    0  0.00000000000E+00  0.00000000000E+00 -0.18333801564E+04  0.33256935742E+04  0.27746990740E+04 0.  0.
        2    1    3    3  502    0 -0.92312565719E+03 -0.77225568738E+03 -0.17437948788E+04  0.21188110829E+04  0.25500000920E-02 0.  1.
       -2    1    3    3    0  502  0.92312565719E+03  0.77225568738E+03 -0.89585277583E+02  0.12068824912E+04  0.25500000920E-02 0. -1.
</event>
<event>
 5   0  0.3212679E-06  0.2948546E+04  0.7818609E-02  0.8258578E-01
        2   -1    0    0  501    0  0.00000000000E+00  0.00000000000E+00  0.15370076436E+04  0.15370076436E+04  0.25500000920E-02 0.  1.
       -2   -1    0    0    0  501  0.00000000000E+00  0.00000000000E+00 -0.14140987931E+04  0.14140987931E+04  0.25500000920E-02 0. -1.
    10030    2    1    2    0    0  0.00000000000E+00  0.00000000000E+00  0.12290885050E+03  0.29511064367E+04  0.29485458475E+04 0.  0.
        4    1    3    3  502    0  0.12704825743E+04 -0.74753218104E+03  0.38009575265E+02  0.14745767779E+04  0.12699999809E+01 0.  1.
       -4    1    3    3    0  502 -0.12704825743E+04  0.74753218104E+03  0.84899275233E+02  0.14765296587E+04  0.12699999809E+01 0. -1.
</event>
<event>
 5   0  0.1235252E-06  0.2842500E+04  0.7818609E-02  0.8290194E-01
        1   -1    0    0  501    0  0.00000000000E+00  0.00000000000E+00  0.18085861238E+04  0.18085861238E+04  0.50400001928E-02 0.  1.
       -1   -1    0    0    0  501  0.00000000000E+00  0.00000000000E+00 -0.11168678179E+04  0.11168678179E+04  0.50400001928E-02 0. -1.
    10030    2    1    2    0    0  0.00000000000E+00  0.00000000000E+00  0.69171830593E+03  0.29254539417E+04  0.28425000528E+04 0.  0.
        1    1    3    3  502    0  0.13004478190E+04  0.19660209956E+03  0.90022011105E+03  0.15938046191E+04  0.50400001928E-02 0.  1.
       -1    1    3    3    0  502 -0.13004478190E+04 -0.19660209956E+03 -0.20850180512E+03  0.13316493226E+04  0.50400001928E-02 0. -1.
</event>
<event>
 5   0  0.1235252E-06  0.2810414E+04  0.7818609E-02  0.8300042E-01
        1   -1    0    0  501    0  0.00000000000E+00  0.00000000000E+00  0.16398099922E+04  0.16398099922E+04  0.50400001928E-02 0. -1.
       -1   -1    0    0    0  501  0.00000000000E+00  0.00000000000E+00 -0.12041682754E+04  0.12041682754E+04  0.50400001928E-02 0.  1.
    10030    2    1    2    0    0  0.00000000000E+00  0.00000000000E+00  0.43564171680E+03  0.28439782675E+04  0.28104143255E+04 0.  0.
        1    1    3    3  502    0 -0.15008588123E+03 -0.36813859198E+03 -0.11460719630E+04  0.12130674915E+04  0.50400001928E-02 0.  1.
       -1    1    3    3    0  502  0.15008588123E+03  0.36813859198E+03  0.15817136798E+04  0.16309107760E+04  0.50400001928E-02 0. -1.
</event>
<event>
 5   0  0.3226364E-06  0.2772595E+04  0.7818609E-02  0.8311827E-01
       -2   -1    0    0    0  501  0.00000000000E+00  0.00000000000E+00  0.10964693598E+04  0.10964693598E+04  0.25500000920E-02 0. -1.
        2   -1    0    0  501    0  0.00000000000E+00  0.00000000000E+00 -0.17527360429E+04  0.17527360429E+04  0.25500000920E-02 0.  1.
    10030    2    1    2    0    0  0.00000000000E+00  0.00000000000E+00 -0.65626668308E+03  0.28492054027E+04  0.27725954388E+04 0.  0.
        5    1    3    3  502    0 -0.36852114511E+03 -0.98923452457E+03  0.59525284805E+03  0.12119161778E+04  0.46999998093E+01 0. -1.
       -5    1    3    3    0  502  0.36852114511E+03  0.98923452457E+03 -0.12515195311E+04  0.16372892248E+04  0.46999998093E+01 0.  1.
</event>
<event>
 5   0  0.3162695E-06  0.2793423E+04  0.7818609E-02  0.8305313E-01
        2   -1    0    0  501    0  0.00000000000E+00  0.00000000000E+00  0.10023905977E+04  0.10023905977E+04  0.25500000920E-02 0.  1.
       -2   -1    0    0    0  501  0.00000000000E+00  0.00000000000E+00 -0.19461504585E+04  0.19461504585E+04  0.25500000920E-02 0. -1.
    10030    2    1    2    0    0  0.00000000000E+00  0.00000000000E+00 -0.94375986084E+03  0.29485410562E+04  0.27934229335E+04 0.  0.
        1    1    3    3  502    0  0.63197003889E+03 -0.12360898199E+04 -0.63368527091E+03  0.15260606788E+04  0.50400001928E-02 0. -1.
       -1    1    3    3    0  502 -0.63197003889E+03  0.12360898199E+04 -0.31007458994E+03  0.14224803774E+04  0.50400001928E-02 0.  1.
</event>
<event>
 5   0  0.3162695E-06  0.2731454E+04  0.7818609E-02  0.8324871E-01
        2   -1    0    0  501    0  0.00000000000E+00  0.00000000000E+00  0.13190939359E+04  0.13190939359E+04  0.25500000920E-02 0.  1.
       -2   -1    0    0    0  501  0.00000000000E+00  0.00000000000E+00 -0.14140086786E+04  0.14140086786E+04  0.25500000920E-02 0. -1.
    10030    2    1    2    0    0  0.00000000000E+00  0.00000000000E+00 -0.94914742725E+02  0.27331026144E+04  0.27314540254E+04 0.  0.
        1    1    3    3  502    0  0.71617925949E+03 -0.10105667795E+04 -0.62317610847E+03  0.13865447738E+04  0.50400001928E-02 0. -1.
       -1    1    3    3    0  502 -0.71617925949E+03  0.10105667795E+04  0.52826136575E+03  0.13465578406E+04  0.50400001928E-02 0.  1.
</event>
<event>
 5   0  0.1263513E-06  0.2798385E+04  0.7818609E-02  0.8303770E-01
       -1   -1    0    0    0  501  0.00000000000E+00  0.00000000000E+00  0.18505426937E+04  0.18505426937E+04  0.50400001928E-02 0.  1.
        1   -1    0    0  501    0  0.00000000000E+00  0.00000000000E+00 -0.10579275746E+04  0.10579275746E+04  0.50400001928E-02 0. -1.
    10030    2    1    2    0    0  0.00000000000E+00  0.00000000000E+00  0.79261511909E+03  0.29084702683E+04  0.27983853513E+04 0.  0.
        3    1    3    3  502    0  0.13878215800E+04  0.25500491246E+02  0.21319176596E+03  0.14043324935E+04  0.10100000352E+00 0. -1.
       -3    1    3    3    0  502 -0.13878215800E+04 -0.25500491246E+02  0.57942335312E+03  0.15041377747E+04  0.10100000352E+00 0.  1.
</event>
<event>
 5   0  0.3226364E-06  0.2751227E+04  0.7818609E-02  0.8318572E-01
       -2   -1    0    0    0  501  0.00000000000E+00  0.00000000000E+00  0.10883011386E+04  0.10883011386E+04  0.25500000920E-02 0. -1.
        2   -1    0    0  501    0  0.00000000000E+00  0.00000000000E+00 -0.17387769112E+04  0.17387769112E+04  0.25500000920E-02 0.  1.
    10030    2    1    2    0    0  0.00000000000E+00  0.00000000000E+00 -0.65047577257E+03  0.28270780498E+04  0.27512272841E+04 0.  0.
        5    1    3    3  502    0  0.11868009818E+04  0.42517248491E+03 -0.89088924117E+03  0.15436884214E+04  0.46999998093E+01 0.  1.
       -5    1    3    3    0  502 -0.11868009818E+04 -0.42517248491E+03  0.24041346860E+03  0.12833896284E+04  0.46999998093E+01 0. -1.
</event>
<event>
 5   0  0.3345919E-06  0.2803613E+04  0.7818609E-02  0.8302148E-01
        2   -1    0    0  501    0  0.00000000000E+00  0.00000000000E+00  0.15295122190E+04  0.15295122190E+04  0.25500000920E-02 0.  1.
       -2   -1    0    0    0  501  0.00000000000E+00  0.00000000000E+00 -0.12847633814E+04  0.12847633814E+04  0.25500000920E-02 0. -1.
    10030    2    1    2    0    0  0.00000000000E+00  0.00000000000E+00  0.24474883755E+03  0.28142756004E+04  0.28036128766E+04 0.  0.
        2    1    3    3  502    0  0.50700845559E+03 -0.72245301469E+03  0.12155826427E+04  0.15022107355E+04  0.25500000920E-02 0.  1.
       -2    1    3    3    0  502 -0.50700845559E+03  0.72245301469E+03 -0.97083380519E+03  0.13120648649E+04  0.25500000920E-02 0. -1.
</event>
<event>
 5   0  0.1243055E-06  0.2819173E+04  0.7818609E-02  0.8297341E-01
       -1   -1    0    0    0  501  0.00000000000E+00  0.00000000000E+00  0.13298308650E+04  0.13298308650E+04  0.50400001928E-02 0.  1.
        1   -1    0    0  501    0  0.00000000000E+00  0.00000000000E+00 -0.14941253730E+04  0.14941253730E+04  0.50400001928E-02 0. -1.
    10030    2    1    2    0    0  0.00000000000E+00  0.00000000000E+00 -0.16429450798E+03  0.28239562380E+04  0.28191729548E+04 0.  0.
        5    1    3    3  502    0 -0.39994145084E+03 -0.12319075752E+04  0.47500011334E+03  0.13795639295E+04  0.46999998093E+01 0. -1.
       -5    1    3    3    0  502  0.39994145084E+03  0.12319075752E+04 -0.63929462132E+03  0.14443923085E+04  0.46999998093E+01 0.  1.
</event>
<event>
 5   0  0.3162695E-06  0.2798693E+04  0.7818609E-02  0.8303674E-01
       -2   -1    0    0    0  501  0.00000000000E+00  0.00000000000E+00  0.30089770258E+04  0.30089770258E+04  0.25500000920E-02 0.  1.
        2   -1    0    0  501    0  0.00000000000E+00  0.00000000000E+00 -0.65077634386E+03  0.65077634386E+03  0.25500000920E-02 0. -1.
    10030    2    1    2    0    0  0.00000000000E+00  0.00000000000E+00  0.23582006819E+04  0.36597533696E+04  0.27986933148E+04 0.  0.
        1    1    3    3  502    0 -0.12071837310E+04  0.25665581168E+03  0.31662977420E+03  0.12741346789E+04  0.50400001928E-02 0. -1.
       -1    1    3    3    0  502  0.12071837310E+04 -0.25665581168E+03  0.20415709077E+04  0.23856186907E+04  0.50400001928E-02 0.  1.
</event>
<event>
 5   0  0.3212679E-06  0.2788686E+04  0.7818609E-02  0.8306789E-01
        2   -1    0    0  501    0  0.00000000000E+00  0.00000000000E+00  0.17984041527E+04  0.17984041527E+04  0.25500000920E-02 0. -1.
       -2   -1    0    0    0  501  0.00000000000E+00  0.00000000000E+00 -0.10810655367E+04  0.10810655367E+04  0.25500000920E-02 0.  1.
    10030    2    1    2    0    0  0.00000000000E+00  0.00000000000E+00  0.71733861598E+03  0.28794696895E+04  0.27886862503E+04 0.  0.
        4    1    3    3  502    0 -0.75138244073E+03 -0.58536778894E+03  0.14101320360E+04  0.17016771117E+04  0.12699999809E+01 0. -1.
       -4    1    3    3    0  502  0.75138244073E+03  0.58536778894E+03 -0.69279342002E+03  0.11777925778E+04  0.12699999809E+01 0.  1.
</event>
<event>
 5   0  0.3162695E-06  0.2796082E+04  0.7818609E-02  0.8304486E-01
        2   -1    0    0  501    0  0.00000000000E+00  0.00000000000E+00  0.23871768239E+04  0.23871768239E+04  0.25500000920E-02 0. -1.
       -2   -1    0    0    0  501  0.00000000000E+00  0.00000000000E+00 -0.81875716345E+03  0.81875716345E+03  0.25500000920E-02 0.  1.
    10030    2    1    2    0    0  0.00000000000E+00  0.00000000000E+00  0.15684196605E+04  0.32059339874E+04  0.27960816333E+04 0.  0.
        1    1    3    3  502    0  0.83778570702E+03  0.37988861268E+03 -0.42287251482E+03  0.10124334115E+04  0.50400001928E-02 0.  1.
       -1    1    3    3    0  502 -0.83778570702E+03 -0.37988861268E+03  0.19912921753E+04  0.21935005759E+04  0.50400001928E-02 0. -1.
</event>
<event>
 5   0  0.3345919E-06  0.2795994E+04  0.7818609E-02  0.8304513E-01
       -2   -1    0    0    0  501  0.00000000000E+00  0.00000000000E+00  0.71092219501E+03  0.71092219501E+03  0.25500000920E-02 0.  1.
        2   -1    0    0  501    0  0.00000000000E+00  0.00000000000E+00 -0.27490987155E+04  0.27490987155E+04  0.25500000920E-02 0. -1.
    10030    2    1    2    0    0  0.00000000000E+00  0.00000000000E+00 -0.20381765205E+04  0.34600209105E+04  0.27959937719E+04 0.  0.
        2    1    3    3  502    0 -0.22432237994E+02  0.98026021683E+02 -0.27446172567E+04  0.27464588459E+04  0.25500000920E-02 0. -1.
       -2    1    3    3    0  502  0.22432237994E+02 -0.98026021683E+02  0.70644073624E+03  0.71356206462E+03  0.25500000920E-02 0.  1.
</event>
<event>
 5   0  0.1246044E-06  0.2807138E+04  0.7818609E-02  0.8301056E-01
       -1   -1    0    0    0  501  0.00000000000E+00  0.00000000000E+00  0.15804238559E+04  0.15804238559E+04  0.50400001928E-02 0.  1.
        1   -1    0    0  501    0  0.00000000000E+00  0.00000000000E+00 -0.12465050460E+04  0.12465050460E+04  0.50400001928E-02 0. -1.
    10030    2    1    2    0    0  0.00000000000E+00  0.00000000000E+00  0.33391880995E+03  0.28269289019E+04  0.28071382660E+04 0.  0.
        2    1    3    3  502    0  0.79527218193E+03  0.98183509273E+03  0.78245432733E+03  0.14861671397E+04  0.25500000920E-02 0.  1.
       -2    1    3    3    0  502 -0.79527218193E+03 -0.98183509273E+03 -0.44853551738E+03  0.13407617622E+04  0.25500000920E-02 0. -1.
</event>
<event>
 5   0  0.1246044E-06  0.2787725E+04  0.7818609E-02  0.8307090E-01
       -1   -1    0    0    0  501  0.00000000000E+00  0.00000000000E+00  0.11998352056E+04  0.11998352056E+04  0.50400001928E-02 0. -1.
        1   -1    0    0  501    0  0.00000000000E+00  0.00000000000E+00 -0.16192658298E+04  0.16192658298E+04  0.50400001928E-02 0.  1.
    10030    2    1    2    0    0  0.00000000000E+00  0.00000000000E+00 -0.41943062416E+03  0.28191010354E+04  0.27877246276E+04 0.  0.
        2    1    3    3  502    0  0.67365526363E+03  0.95503393005E+03 -0.97783731810E+03  0.15238330100E+04  0.25500000920E-02 0.  1.
       -2    1    3    3    0  502 -0.67365526363E+03 -0.95503393005E+03  0.55840669394E+03  0.12952680254E+04  0.25500000920E-02 0. -1.
</event>
<event>
 5   0  0.3162695E-06  0.2795979E+04  0.7818609E-02  0.8304518E-01
       -2   -1    0    0    0  501  0.00000000000E+00  0.00000000000E+00  0.12887670984E+04  0.12887670984E+04  0.25500000920E-02 0.  1.
        2   -1    0    0  501    0  0.00000000000E+00  0.00000000000E+00 -0.15164683182E+04  0.15164683182E+04  0.25500000920E-02 0. -1.
    10030    2    1    2    0    0  0.00000000000E+00  0.00000000000E+00 -0.22770121982E+03  0.28052354165E+04  0.27959788799E+04 0.  0.
        1    1    3    3  502    0  0.79358710640E+03 -0.22510663113E+03 -0.12462683710E+04  0.14945361633E+04  0.50400001928E-02 0. -1.
       -1    1    3    3    0  502 -0.79358710640E+03  0.22510663113E+03  0.10185671512E+04  0.13106992532E+04  0.50400001928E-02 0.  1.
</event>
<event>
 5   0  0.1263513E-06  0.2842071E+04  0.7818609E-02  0.8290325E-01
        1   -1    0    0  501    0  0.00000000000E+00  0.00000000000E+00  0.97399483736E+03  0.97399483738E+03  0.50400001928E-02 0.  1.
       -1   -1    0    0    0  501  0.00000000000E+00  0.00000000000E+00 -0.20732566916E+04  0.20732566916E+04  0.50400001928E-02 0. -1.
    10030    2    1    2    0    0  0.00000000000E+00  0.00000000000E+00 -0.10992618542E+04  0.30472515289E+04  0.28420705932E+04 0.  0.
        3    1    3    3  502    0  0.10583449788E+03  0.71735295851E+02 -0.20670771581E+04  0.20710274941E+04  0.10100000352E+00 0. -1.
       -3    1    3    3    0  502 -0.10583449788E+03 -0.71735295851E+02  0.96781530388E+03  0.97622403486E+03  0.10100000352E+00 0.  1.
</event>
<event>
 5   0  0.1243055E-06  0.2794517E+04  0.7818609E-02  0.8304973E-01
       -1   -1    0    0    0  501  0.00000000000E+00  0.00000000000E+00  0.10921451510E+04  0.10921451510E+04  0.50400001928E-02 0. -1.
        1   -1    0    0  501    0  0.00000000000E+00  0.00000000000E+00 -0.17876112587E+04  0.17876112587E+04  0.50400001928E-02 0.  1.
    10030    2    1    2    0    0  0.00000000000E+00  0.00000000000E+00 -0.69546610772E+03  0.28797564098E+04  0.27945167512E+04 0.  0.
        5    1    3    3  502    0  0.24743588641E+03 -0.78229677994E+03  0.81773567463E+03  0.11584155098E+04  0.46999998093E+01 0. -1.
       -5    1    3    3    0  502 -0.24743588641E+03  0.78229677994E+03 -0.15132017823E+04  0.17213409000E+04  0.46999998093E+01 0.  1.
</event>
<event>
 5   0  0.3167616E-06  0.2799909E+04  0.7818609E-02  0.8303296E-01
        2   -1    0    0  501    0  0.00000000000E+00  0.00000000000E+00  0.10246583165E+04  0.10246583165E+04  0.25500000920E-02 0. -1.
       -2   -1    0    0    0  501  0.00000000000E+00  0.00000000000E+00 -0.19127089558E+04  0.19127089558E+04  0.25500000920E-02 0.  1.
    10030    2    1    2    0    0  0.00000000000E+00  0.00000000000E+00 -0.88805063927E+03  0.29373672723E+04  0.27999093832E+04 0.  0.
        3    1    3    3  502    0 -0.36588150582E+03  0.52616454357E+03  0.86172960888E+03  0.10739163525E+04  0.10100000352E+00 0. -1.
       -3    1    3    3    0  502  0.36588150582E+03 -0.52616454357E+03 -0.17497802482E+04  0.18634509197E+04  0.10100000352E+00 0.  1.
</event>
<event>
 5   0  0.1220265E-06  0.2799164E+04  0.7818609E-02  0.8303528E-01
        1   -1    0    0  501    0  0.00000000000E+00  0.00000000000E+00  0.14559333212E+04  0.14559333212E+04  0.50400001928E-02 0.  1.
       -1   -1    0    0    0  501  0.00000000000E+00  0.00000000000E+00 -0.13454118994E+04  0.13454118994E+04  0.50400001928E-02 0. -1.
    10030    2    1    2    0    0  0.00000000000E+00  0.00000000000E+00  0.11052142188E+03  0.28013452206E+04  0.27991641717E+04 0.  0.
        4    1    3    3  502    0  0.29322332623E+03  0.86700799796E+03 -0.10044059539E+04  0.13588656007E+04  0.12699999809E+01 0. -1.
       -4    1    3    3    0  502 -0.29322332623E+03 -0.86700799796E+03  0.11149273758E+04  0.14424796199E+04  0.12699999809E+01 0.  1.
</event>
<event>
 5   0  0.3345919E-06  0.2809858E+04  0.7818609E-02  0.8300214E-01
        2   -1    0    0  501    0  0.00000000000E+00  0.00000000000E+00  0.16449508260E+04  0.16449508260E+04  0.25500000920E-02 0. -1.
       -2   -1    0    0    0  501  0.00000000000E+00  0.00000000000E+00 -0.11999295272E+04  0.11999295272E+04  0.25500000920E-02 0.  1.
    10030    2    1    2    0    0  0.00000000000E+00  0.00000000000E+00  0.44502129880E+03  0.28448803531E+04  0.28098576952E+04 0.  0.
        2    1    3    3  502    0  0.16683319866E+03  0.11319699559E+04 -0.60290278973E+03  0.12933217199E+04  0.25500000920E-02 0.  1.
       -2    1    3    3    0  502 -0.16683319866E+03 -0.11319699559E+04  0.10479240885E+04  0.15515586333E+04  0.25500000920E-02 0. -1.
</event>
<event>
 5   0  0.1235252E-06  0.2801066E+04  0.7818609E-02  0.8302938E-01
       -1   -1    0    0    0  501  0.00000000000E+00  0.00000000000E+00  0.12924062099E+04  0.12924062099E+04  0.50400001928E-02 0. -1.
        1   -1    0    0  501    0  0.00000000000E+00  0.00000000000E+00 -0.15177058679E+04  0.15177058679E+04  0.50400001928E-02 0.  1.
    10030    2    1    2    0    0  0.00000000000E+00  0.00000000000E+00 -0.22529965804E+03  0.28101120778E+04  0.28010658603E+04 0.  0.
        1    1    3    3  502    0 -0.45001306998E+03  0.43346467225E+03 -0.13701287954E+04  0.15058739327E+04  0.50400001928E-02 0.  1.
       -1    1    3    3    0  502  0.45001306998E+03 -0.43346467225E+03  0.11448291374E+04  0.13042381451E+04  0.50400001928E-02 0. -1.
</event>
<event>
 5   0  0.1235252E-06  0.2802768E+04  0.7818609E-02  0.8302410E-01
       -1   -1    0    0    0  501  0.00000000000E+00  0.00000000000E+00  0.15404238982E+04  0.15404238982E+04  0.50400001928E-02 0. -1.
        1   -1    0    0  501    0  0.00000000000E+00  0.00000000000E+00 -0.12748938535E+04  0.12748938535E+04  0.50400001928E-02 0.  1.
    10030    2    1    2    0    0  0.00000000000E+00  0.00000000000E+00  0.26553004469E+03  0.28153177518E+04  0.28027678889E+04 0.  0.
        1    1    3    3  502    0 -0.12607305041E+04 -0.39585270874E+03  0.60147650571E+03  0.14518659573E+04  0.50400001928E-02 0. -1.
       -1    1    3    3    0  502  0.12607305041E+04  0.39585270874E+03 -0.33594646102E+03  0.13634517945E+04  0.50400001928E-02 0.  1.
</event>
<event>
 5   0  0.3226364E-06  0.2848425E+04  0.7818609E-02  0.8288390E-01
        2   -1    0    0  501    0  0.00000000000E+00  0.00000000000E+00  0.15580721782E+04  0.15580721782E+04  0.25500000920E-02 0. -1.
       -2   -1    0    0    0  501  0.00000000000E+00  0.00000000000E+00 -0.13018531965E+04  0.13018531965E+04  0.25500000920E-02 0.  1.
    10030    2    1    2    0    0  0.00000000000E+00  0.00000000000E+00  0.25621898177E+03  0.28599253747E+04  0.28484250003E+04 0.  0.
        5    1    3    3  502    0 -0.10963551870E+04  0.58778380848E+03  0.82436052880E+03  0.14923393961E+04  0.46999998093E+01 0. -1.
       -5    1    3    3    0  502  0.10963551870E+04 -0.58778380848E+03 -0.56814154703E+03  0.13675859787E+04  0.46999998093E+01 0.  1.
</event>
<event>
 5   0  0.1263513E-06  0.2782032E+04  0.7818609E-02  0.8308869E-01
        1   -1    0    0  501    0  0.00000000000E+00  0.00000000000E+00  0.11486637559E+04  0.11486637559E+04  0.50400001928E-02 0. -1.
       -1   -1    0    0    0  501  0.00000000000E+00  0.00000000000E+00 -0.16845008827E+04  0.16845008827E+04  0.50400001928E-02 0.  1.
    10030    2    1    2    0    0  0.00000000000E+00  0.00000000000E+00 -0.53583712681E+03  0.28331646385E+04  0.27820317113E+04 0.  0.
        3    1    3    3  502    0 -0.73597820877E+03 -0.10328952454E+03  0.92952988942E+03  0.11901085981E+04  0.10100000352E+00 0. -1.
       -3    1    3    3    0  502  0.73597820877E+03  0.10328952454E+03 -0.14653670162E+04  0.16430560405E+04  0.10100000352E+00 0.  1.
</event>
<event>
 5   0  0.1243055E-06  0.2787622E+04  0.7818609E-02  0.8307122E-01
       -1   -1    0    0    0  501  0.00000000000E+00  0.00000000000E+00  0.11319706826E+04  0.11319706826E+04  0.50400001928E-02 0. -1.
        1   -1    0    0  501    0  0.00000000000E+00  0.00000000000E+00 -0.17162187441E+04  0.17162187441E+04  0.50400001928E-02 0.  1.
    10030    2    1    2    0    0  0.00000000000E+00  0.00000000000E+00 -0.58424806150E+03  0.28481894266E+04  0.27876221431E+04 0.  0.
        5    1    3    3  502    0  0.11816553545E+04 -0.38806032048E+03  0.35066097898E+03  0.12922404580E+04  0.46999998093E+01 0. -1.
       -5    1    3    3    0  502 -0.11816553545E+04  0.38806032048E+03 -0.93490904049E+03  0.15559489686E+04  0.46999998093E+01 0.  1.
</event>
<event>
 5   0  0.3345919E-06  0.2800794E+04  0.7818609E-02  0.8303022E-01
        2   -1    0    0  501    0  0.00000000000E+00  0.00000000000E+00  0.27536989719E+04  0.27536989719E+04  0.25500000920E-02 0.  1.
       -2   -1    0    0    0  501  0.00000000000E+00  0.00000000000E+00 -0.71217344795E+03  0.71217344795E+03  0.25500000920E-02 0. -1.
    10030    2    1    2    0    0  0.00000000000E+00  0.00000000000E+00  0.20415255240E+04  0.34658724199E+04  0.28007936671E+04 0.  0.
        2    1    3    3  502    0  0.59689806443E+03 -0.10023215257E+04  0.62089518626E+02  0.11682426326E+04  0.25500000920E-02 0. -1.
       -2    1    3    3    0  502 -0.59689806443E+03  0.10023215257E+04  0.19794360053E+04  0.22976297873E+04  0.25500000920E-02 0.  1.
</event>
<event>
 5   0  0.3212679E-06  0.2802230E+04  0.7818609E-02  0.8302576E-01
        2   -1    0    0  501    0  0.00000000000E+00  0.00000000000E+00  0.13655086766E+04  0.13655086766E+04  0.25500000920E-02 0. -1.
       -2   -1    0    0    0  501  0.00000000000E+00  0.00000000000E+00 -0.14376501514E+04  0.14376501514E+04  0.25500000920E-02 0.  1.
    10030    2    1    2    0    0  0.00000000000E+00  0.00000000000E+00 -0.72141474826E+02  0.28031588280E+04  0.28022303657E+04 0.  0.
        4    1    3    3  502    0 -0.40902740255E+03  0.11832806459E+04 -0.66529873648E+03  0.14177730864E+04  0.12699999809E+01 0.  1.
       -4    1    3    3    0  502  0.40902740255E+03 -0.11832806459E+04  0.59315726165E+03  0.13853857416E+04  0.12699999809E+01 0. -1.
</event>
<event>
 5   0  0.1263513E-06  0.2799992E+04  0.7818609E-02  0.8303271E-01
       -1   -1    0    0    0  501  0.00000000000E+00  0.00000000000E+00  0.15125533973E+04  0.15125533973E+04  0.50400001928E-02 0.  1.
        1   -1    0    0  501    0  0.00000000000E+00  0.00000000000E+00 -0.12958143912E+04  0.12958143912E+04  0.50400001928E-02 0. -1.
    10030    2    1    2    0    0  0.00000000000E+00  0.00000000000E+00  0.21673900612E+03  0.28083677885E+04  0.27999917569E+04 0.  0.
        3    1    3    3  502    0 -0.96795728082E+02 -0.78051924578E+03 -0.10532871838E+04  0.13145317067E+04  0.10100000352E+00 0. -1.
       -3    1    3    3    0  502  0.96795728082E+02  0.78051924578E+03  0.12700261900E+04  0.14938360818E+04  0.10100000352E+00 0.  1.
</event>
<event>
 5   0  0.3345919E-06  0.2796044E+04  0.7818609E-02  0.8304498E-01
        2   -1    0    0  501    0  0.00000000000E+00  0.00000000000E+00  0.12838263225E+04  0.12838263225E+04  0.25500000920E-02 0.  1.
       -2   -1    0    0    0  501  0.00000000000E+00  0.00000000000E+00 -0.15223750694E+04  0.15223750694E+04  0.25500000920E-02 0. -1.
    10030    2    1    2    0    0  0.00000000000E+00  0.00000000000E+00 -0.23854874690E+03  0.28062013918E+04  0.27960437670E+04 0.  0.
        2    1    3    3  502    0  0.89825375054E+03  0.91948780433E+03  0.43240204346E+03  0.13562039485E+04  0.25500000920E-02 0.  1.
       -2    1    3    3    0  502 -0.89825375054E+03 -0.91948780433E+03 -0.67095079037E+03  0.14499974434E+04  0.25500000920E-02 0. -1.
</event>
<event>
 5   0  0.3212679E-06  0.2771928E+04  0.7818609E-02  0.8312037E-01
       -2   -1    0    0    0  501  0.00000000000E+00  0.00000000000E+00  0.18197647523E+04  0.18197647523E+04  0.25500000920E-02 0.  1.
        2   -1    0    0  501    0  0.00000000000E+00  0.00000000000E+00 -0.10555739221E+04  0.10555739221E+04  0.25500000920E-02 0. -1.
    10030    2    1    2    0    0  0.00000000000E+00  0.00000000000E+00  0.76419083019E+03  0.28753386744E+04  0.27719280054E+04 0.  0.
        4    1    3    3  502    0 -0.12063985931E+03 -0.24738482285E+03  0.17911307480E+04  0.18121545728E+04  0.12699999809E+01 0.  1.
       -4    1    3    3    0  502  0.12063985931E+03  0.24738482285E+03 -0.10269399178E+04  0.10631841016E+04  0.12699999809E+01 0. -1.
</event>
<event>
 5   0  0.3167616E-06  0.2788819E+04  0.7818609E-02  0.8306748E-01
       -2   -1    0    0    0  501  0.00000000000E+00  0.00000000000E+00  0.20102893947E+04  0.20102893947E+04  0.25500000920E-02 0. -1.
        2   -1    0    0  501    0  0.00000000000E+00  0.00000000000E+00 -0.96721261458E+03  0.96721261458E+03  0.25500000920E-02 0.  1.
    10030    2    1    2    0    0  0.00000000000E+00  0.00000000000E+00  0.10430767801E+04  0.29775020093E+04  0.27888185753E+04 0.  0.
        3    1    3    3  502    0  0.86341848792E+02 -0.53088871018E+03 -0.85200135991E+03  0.10075733546E+04  0.10100000352E+00 0.  1.
       -3    1    3    3    0  502 -0.86341848792E+02  0.53088871018E+03  0.18950781400E+04  0.19699286546E+04  0.10100000352E+00 0. -1.
</event>
<event>
 5   0  0.1243055E-06  0.2797973E+04  0.7818609E-02  0.8303898E-01
       -1   -1    0    0    0  501  0.00000000000E+00  0.00000000000E+00  0.12785633855E+04  0.12785633855E+04  0.50400001928E-02 0.  1.
        1   -1    0    0  501    0  0.00000000000E+00  0.00000000000E+00 -0.15307516644E+04  0.15307516644E+04  0.50400001928E-02 0. -1.
    10030    2    1    2    0    0  0.00000000000E+00  0.00000000000E+00 -0.25218827891E+03  0.28093150498E+04  0.27979728593E+04 0.  0.
        5    1    3    3  502    0 -0.69949420748E+03  0.21631706061E+03  0.10708186355E+04  0.12972123408E+04  0.46999998093E+01 0.  1.
       -5    1    3    3    0  502  0.69949420748E+03 -0.21631706061E+03 -0.13230069144E+04  0.15121027090E+04  0.46999998093E+01 0. -1.
</event>
<event>
 5   0  0.3345919E-06  0.2794576E+04  0.7818609E-02  0.8304954E-01
        2   -1    0    0  501    0  0.00000000000E+00  0.00000000000E+00  0.10123926877E+04  0.10123926877E+04  0.25500000920E-02 0.  1.
       -2   -1    0    0    0  501  0.00000000000E+00  0.00000000000E+00 -0.19285149690E+04  0.19285149690E+04  0.25500000920E-02 0. -1.
    10030    2    1    2    0    0  0.00000000000E+00  0.00000000000E+00 -0.91612228127E+03  0.29409076567E+04  0.27945764994E+04 0.  0.
        2    1    3    3  502    0 -0.52940760554E+03  0.12170305020E+04  0.18330908085E+01  0.13271921549E+04  0.25500000920E-02 0. -1.
       -2    1    3    3    0  502  0.52940760554E+03 -0.12170305020E+04 -0.91795537208E+03  0.16137155018E+04  0.25500000920E-02 0.  1.
</event>
<event>
 5   0  0.1065675E-06  0.2820432E+04  0.7818609E-02  0.8296953E-01
        3   -1    0    0  501    0  0.00000000000E+00  0.00000000000E+00  0.22444210497E+04  0.22444210520E+04  0.10100000352E+00 0.  1.
       -3   -1    0    0    0  501  0.00000000000E+00  0.00000000000E+00 -0.88606782562E+03  0.88606783138E+03  0.10100000352E+00 0. -1.
    10030    2    1    2    0    0  0.00000000000E+00  0.00000000000E+00  0.13583532241E+04  0.31304888834E+04  0.28204320888E+04 0.  0.
        5    1    3    3  502    0  0.12369327213E+04 -0.46644616562E+03  0.12241891452E+04  0.18017313162E+04  0.46999998093E+01 0.  1.
       -5    1    3    3    0  502 -0.12369327213E+04  0.46644616562E+03  0.13416407886E+03  0.13287575672E+04  0.46999998093E+01 0. -1.
</event>
<event>
 5   0  0.1220265E-06  0.2808377E+04  0.7818609E-02  0.8300672E-01
        1   -1    0    0  501    0  0.00000000000E+00  0.00000000000E+00  0.18871266549E+04  0.18871266549E+04  0.50400001928E-02 0. -1.
       -1   -1    0    0    0  501  0.00000000000E+00  0.00000000000E+00 -0.10448399593E+04  0.10448399593E+04  0.50400001928E-02 0.  1.
    10030    2    1    2    0    0  0.00000000000E+00  0.00000000000E+00  0.84228669559E+03  0.29319666143E+04  0.28083769956E+04 0.  0.
        4    1    3    3  502    0 -0.92055289501E+02 -0.13798780436E+04  0.16711220522E+03  0.13930059920E+04  0.12699999809E+01 0.  1.
       -4    1    3    3    0  502  0.92055289501E+02  0.13798780436E+04  0.67517449037E+03  0.15389606223E+04  0.12699999809E+01 0. -1.
</event>
<event>
 5   0  0.3345919E-06  0.2803175E+04  0.7818609E-02  0.8302283E-01
        2   -1    0    0  501    0  0.00000000000E+00  0.00000000000E+00  0.26764398040E+04  0.26764398040E+04  0.25500000920E-02 0.  1.
       -2   -1    0    0    0  501  0.00000000000E+00  0.00000000000E+00 -0.73397782561E+03  0.73397782561E+03  0.25500000920E-02 0. -1.
    10030    2    1    2    0    0  0.00000000000E+00  0.00000000000E+00  0.19424619784E+04  0.34104176296E+04  0.28031749626E+04 0.  0.
        2    1    3    3  502    0  0.63161562415E+03  0.97996811086E+03  0.24783213862E+02  0.11661432170E+04  0.25500000920E-02 0. -1.
       -2    1    3    3    0  502 -0.63161562415E+03 -0.97996811086E+03  0.19176787646E+04  0.22442744126E+04  0.25500000920E-02 0.  1.
</event>
<event>
 5   0  0.1243055E-06  0.2796647E+04  0.7818609E-02  0.8304310E-01
       -1   -1    0    0    0  501  0.00000000000E+00  0.00000000000E+00  0.94300293510E+03  0.94300293511E+03  0.50400001928E-02 0.  1.
        1   -1    0    0  501    0  0.00000000000E+00  0.00000000000E+00 -0.20734914450E+04  0.20734914450E+04  0.50400001928E-02 0. -1.
    10030    2    1    2    0    0  0.00000000000E+00  0.00000000000E+00 -0.11304885099E+04  0.30164943802E+04  0.27966469342E+04 0.  0.
        5    1    3    3  502    0  0.13721461628E+04 -0.62970476243E+02 -0.28287043305E+03  0.14024222420E+04  0.46999998093E+01 0. -1.
       -5    1    3    3    0  502 -0.13721461628E+04  0.62970476243E+02 -0.84761807688E+03  0.16140721382E+04  0.46999998093E+01 0.  1.
</event>
<event>
 5   0  0.1243055E-06  0.2812111E+04  0.7818609E-02  0.8299518E-01
        1   -1    0    0  501    0  0.00000000000E+00  0.00000000000E+00  0.80796040038E+03  0.80796040039E+03  0.50400001928E-02 0. -1.
       -1   -1    0    0    0  501  0.00000000000E+00  0.00000000000E+00 -0.24468924714E+04  0.24468924714E+04  0.50400001928E-02 0.  1.
    10030    2    1    2    0    0  0.00000000000E+00  0.00000000000E+00 -0.16389320711E+04  0.32548528718E+04  0.28121111080E+04 0.  0.
        5    1    3    3  502    0  0.15909995247E+03  0.34320937145E+03  0.74794365428E+03  0.83818092766E+03  0.46999998093E+01 0. -1.
       -5    1    3    3    0  502 -0.15909995247E+03 -0.34320937145E+03 -0.23868757253E+04  0.24166719442E+04  0.46999998093E+01 0.  1.
</event>
<event>
 5   0  0.1263513E-06  0.2802618E+04  0.7818609E-02  0.8302456E-01
        1   -1    0    0  501    0  0.00000000000E+00  0.00000000000E+00  0.12160464095E+04  0.12160464095E+04  0.50400001928E-02 0.  1.
       -1   -1    0    0    0  501  0.00000000000E+00  0.00000000000E+00 -0.16147962582E+04  0.16147962582E+04  0.50400001928E-02 0. -1.
    10030    2    1    2    0    0  0.00000000000E+00  0.00000000000E+00 -0.39874984868E+03  0.28308426677E+04  0.28026181987E+04 0.  0.
        3    1    3    3  502    0  0.35386995801E+03 -0.24259529003E+03 -0.15468224652E+04  0.16052215333E+04  0.10100000352E+00 0. -1.
       -3    1    3    3    0  502 -0.35386995801E+03  0.24259529003E+03  0.11480726166E+04  0.12256211344E+04  0.10100000352E+00 0.  1.
</event>
<event>
 5   0  0.1246044E-06  0.2789020E+04  0.7818609E-02  0.8306685E-01
       -1   -1    0    0    0  501  0.00000000000E+00  0.00000000000E+00  0.13768024916E+04  0.13768024916E+04  0.50400001928E-02 0.  1.
        1   -1    0    0  501    0  0.00000000000E+00  0.00000000000E+00 -0.14124450190E+04  0.14124450190E+04  0.50400001928E-02 0. -1.
    10030    2    1    2    0    0  0.00000000000E+00  0.00000000000E+00 -0.35642527440E+02  0.27892475106E+04  0.27890197714E+04 0.  0.
        2    1    3    3  502    0  0.12309383335E+04 -0.58328122495E+03 -0.31656233236E+03  0.13984412318E+04  0.25500000920E-02 0.  1.
       -2    1    3    3    0  502 -0.12309383335E+04  0.58328122495E+03  0.28091980492E+03  0.13908062788E+04  0.25500000920E-02 0. -1.
</event>
<event>
 5   0  0.3226364E-06  0.2805409E+04  0.7818609E-02  0.8301591E-01
        2   -1    0    0  501    0  0.00000000000E+00  0.00000000000E+00  0.19093945080E+04  0.19093945080E+04  0.25500000920E-02 0. -1.
       -2   -1    0    0    0  501  0.00000000000E+00  0.00000000000E+00 -0.10304731532E+04  0.10304731532E+04  0.25500000920E-02 0.  1.
    10030    2    1    2    0    0  0.00000000000E+00  0.00000000000E+00  0.87892135476E+03  0.29398676612E+04  0.28054089038E+04 0.  0.
        5    1    3    3  502    0 -0.39388549827E+03  0.12659965133E+04 -0.40376950649E+02  0.13264785508E+04  0.46999998093E+01 0.  1.
       -5    1    3    3    0  502  0.39388549827E+03 -0.12659965133E+04  0.91929830541E+03  0.16133891105E+04  0.46999998093E+01 0. -1.
</event>
<event>
 5   0  0.1220265E-06  0.2800819E+04  0.7818609E-02  0.8303014E-01
       -1   -1    0    0    0  501  0.00000000000E+00  0.00000000000E+00  0.21005790393E+04  0.21005790393E+04  0.50400001928E-02 0.  1.
        1   -1    0    0  501    0  0.00000000000E+00  0.00000000000E+00 -0.93362199000E+03  0.93362199002E+03  0.50400001928E-02 0. -1.
    10030    2    1    2    0    0  0.00000000000E+00  0.00000000000E+00  0.11669570493E+04  0.30342010293E+04  0.28008190108E+04 0.  0.
        4    1    3    3  502    0 -0.30110247751E+03 -0.79369881222E+03 -0.62311782562E+03  0.10530422328E+04  0.12699999809E+01 0. -1.
       -4    1    3    3    0  502  0.30110247751E+03  0.79369881222E+03  0.17900748749E+04  0.19811587965E+04  0.12699999809E+01 0.  1.
</event>
<event>
 5   0  0.1243055E-06  0.2813186E+04  0.7818609E-02  0.8299186E-01
       -1   -1    0    0    0  501  0.00000000000E+00  0.00000000000E+00  0.12771040586E+04  0.12771040586E+04  0.50400001928E-02 0. -1.
        1   -1    0    0  501    0  0.00000000000E+00  0.00000000000E+00 -0.15492115525E+04  0.15492115525E+04  0.50400001928E-02 0.  1.
    10030    2    1    2    0    0  0.00000000000E+00  0.00000000000E+00 -0.27210749387E+03  0.28263156111E+04  0.28131863509E+04 0.  0.
        5    1    3    3  502    0  0.47981120303E+03  0.11684341673E+04 -0.75783233200E+03  0.14730204096E+04  0.46999998093E+01 0.  1.
       -5    1    3    3    0  502 -0.47981120303E+03 -0.11684341673E+04  0.48572483813E+03  0.13532952014E+04  0.46999998093E+01 0. -1.
</event>
<event>
 5   0  0.3345919E-06  0.2798687E+04  0.7818609E-02  0.8303676E-01
        2   -1    0    0  501    0  0.00000000000E+00  0.00000000000E+00  0.14027191812E+04  0.14027191812E+04  0.25500000920E-02 0.  1.
       -2   -1    0    0    0  501  0.00000000000E+00  0.00000000000E+00 -0.13959755390E+04  0.13959755390E+04  0.25500000920E-02 0. -1.
    10030    2    1    2    0    0  0.00000000000E+00  0.00000000000E+00  0.67436421839E+01  0.27986947201E+04  0.27986865955E+04 0.  0.
        2    1    3    3  502    0 -0.99954634765E+03  0.92999335649E+03 -0.30351849736E+03  0.13986078873E+04  0.25500000920E-02 0. -1.
       -2    1    3    3    0  502  0.99954634765E+03 -0.92999335649E+03  0.31026213955E+03  0.14000868328E+04  0.25500000920E-02 0.  1.
</event>
<event>
 5   0  0.1246044E-06  0.2806614E+04  0.7818609E-02  0.8301218E-01
       -1   -1    0    0    0  501  0.00000000000E+00  0.00000000000E+00  0.13362804573E+04  0.13362804573E+04  0.50400001928E-02 0. -1.
        1   -1    0    0  501    0  0.00000000000E+00  0.00000000000E+00 -0.14736953324E+04  0.14736953324E+04  0.50400001928E-02 0.  1.
    10030    2    1    2    0    0  0.00000000000E+00  0.00000000000E+00 -0.13741487511E+03  0.28099757898E+04  0.28066138123E+04 0.  0.
        2    1    3    3  502    0 -0.42133919967E+03 -0.44333551745E+03 -0.13332315215E+04  0.14668262992E+04  0.25500000920E-02 0.  1.
       -2    1    3    3    0  502  0.42133919967E+03  0.44333551745E+03  0.11958166464E+04  0.13431494905E+04  0.25500000920E-02 0. -1.
</event>
<event>
 5   0  0.3226364E-06  0.2765392E+04  0.7818609E-02  0.8314094E-01
        2   -1    0    0  501    0  0.00000000000E+00  0.00000000000E+00  0.17889268320E+04  0.17889268320E+04  0.25500000920E-02 0.  1.
       -2   -1    0    0    0  501  0.00000000000E+00  0.00000000000E+00 -0.10687126122E+04  0.10687126122E+04  0.25500000920E-02 0. -1.
    10030    2    1    2    0    0  0.00000000000E+00  0.00000000000E+00  0.72021421987E+03  0.28576394442E+04  0.27653923177E+04 0.  0.
        5    1    3    3  502    0  0.94395496538E+03  0.14664592223E+02 -0.68381974102E+03  0.11657176138E+04  0.46999998093E+01 0. -1.
       -5    1    3    3    0  502 -0.94395496538E+03 -0.14664592223E+02  0.14040339609E+04  0.16919218304E+04  0.46999998093E+01 0.  1.
</event>
<event>
 5   0  0.1235252E-06  0.2801624E+04  0.7818609E-02  0.8302764E-01
        1   -1    0    0  501    0  0.00000000000E+00  0.00000000000E+00  0.12233053803E+04  0.12233053803E+04  0.50400001928E-02 0.  1.
       -1   -1    0    0    0  501  0.00000000000E+00  0.00000000000E+00 -0.16040752052E+04  0.16040752052E+04  0.50400001928E-02 0. -1.
    10030    2    1    2    0    0  0.00000000000E+00  0.00000000000E+00 -0.38076982488E+03  0.28273805856E+04  0.28016236928E+04 0.  0.
        1    1    3    3  502    0  0.43195280198E+03 -0.52408396294E+03  0.10460426140E+04  0.12471777634E+04  0.50400001928E-02 0.  1.
       -1    1    3    3    0  502 -0.43195280198E+03  0.52408396294E+03 -0.14268124389E+04  0.15802028221E+04  0.50400001928E-02 0. -1.
</event>
<event>
 5   0  0.3167616E-06  0.2814591E+04  0.7818609E-02  0.8298753E-01
       -2   -1    0    0    0  501  0.00000000000E+00  0.00000000000E+00  0.12687894236E+04  0.12687894236E+04  0.25500000920E-02 0. -1.
        2   -1    0    0  501    0  0.00000000000E+00  0.00000000000E+00 -0.15609210957E+04  0.15609210957E+04  0.25500000920E-02 0.  1.
    10030    2    1    2    0    0  0.00000000000E+00  0.00000000000E+00 -0.29213167214E+03  0.28297105193E+04  0.28145906824E+04 0.  0.
        3    1    3    3  502    0 -0.12185040955E+04  0.59101889206E+03 -0.53077611936E+03  0.14545717104E+04  0.10100000352E+00 0.  1.
       -3    1    3    3    0  502  0.12185040955E+04 -0.59101889206E+03  0.23864444722E+03  0.13751388090E+04  0.10100000352E+00 0. -1.
</event>
<event>
 5   0  0.3226364E-06  0.2793092E+04  0.7818609E-02  0.8305416E-01
        2   -1    0    0  501    0  0.00000000000E+00  0.00000000000E+00  0.13975442173E+04  0.13975442173E+04  0.25500000920E-02 0.  1.
       -2   -1    0    0    0  501  0.00000000000E+00  0.00000000000E+00 -0.13955489605E+04  0.13955489605E+04  0.25500000920E-02 0. -1.
    10030    2    1    2    0    0  0.00000000000E+00  0.00000000000E+00  0.19952567903E+01  0.27930931777E+04  0.27930924651E+04 0.  0.
        5    1    3    3  502    0  0.11190647784E+04 -0.39211676779E+03 -0.73674082761E+03  0.13960195826E+04  0.46999998093E+01 0. -1.
       -5    1    3    3    0  502 -0.11190647784E+04  0.39211676779E+03  0.73873608440E+03  0.13970735952E+04  0.46999998093E+01 0.  1.
</event>
<event>
 5   0  0.1235252E-06  0.2787108E+04  0.7818609E-02  0.8307282E-01
       -1   -1    0    0    0  501  0.00000000000E+00  0.00000000000E+00  0.13530591397E+04  0.13530591398E+04  0.50400001928E-02 0. -1.
        1   -1    0    0  501    0  0.00000000000E+00  0.00000000000E+00 -0.14352607445E+04  0.14352607445E+04  0.50400001928E-02 0.  1.
    10030    2    1    2    0    0  0.00000000000E+00  0.00000000000E+00 -0.82201604738E+02  0.27883198842E+04  0.27871079407E+04 0.  0.
        1    1    3    3  502    0 -0.22123502279E+03  0.13503870663E+04 -0.30484871622E+03  0.14019354136E+04  0.50400001928E-02 0.  1.
       -1    1    3    3    0  502  0.22123502279E+03 -0.13503870663E+04  0.22264711148E+03  0.13863844706E+04  0.50400001928E-02 0. -1.
</event>
<event>
 5   0  0.3345919E-06  0.2791192E+04  0.7818609E-02  0.8306008E-01
        2   -1    0    0  501    0  0.00000000000E+00  0.00000000000E+00  0.11848428418E+04  0.11848428418E+04  0.25500000920E-02 0. -1.
       -2   -1    0    0    0  501  0.00000000000E+00  0.00000000000E+00 -0.16438371167E+04  0.16438371167E+04  0.25500000920E-02 0.  1.
    10030    2    1    2    0    0  0.00000000000E+00  0.00000000000E+00 -0.45899427493E+03  0.28286799584E+04  0.27911923192E+04 0.  0.
        2    1    3    3  502    0 -0.77819267574E+03 -0.96893432356E+03  0.41406811792E+03  0.13099121994E+04  0.25500000920E-02 0. -1.
       -2    1    3    3    0  502  0.77819267574E+03  0.96893432356E+03 -0.87306239285E+03  0.15187677590E+04  0.25500000920E-02 0.  1.
</event>
<event>
 5   0  0.3226364E-06  0.2808495E+04  0.7818609E-02  0.8300636E-01
        2   -1    0    0  501    0  0.00000000000E+00  0.00000000000E+00  0.60058427615E+03  0.60058427616E+03  0.25500000920E-02 0. -1.
       -2   -1    0    0    0  501  0.00000000000E+00  0.00000000000E+00 -0.32833209930E+04  0.32833209930E+04  0.25500000920E-02 0.  1.
    10030    2    1    2    0    0  0.00000000000E+00  0.00000000000E+00 -0.26827367168E+04  0.38839052692E+04  0.28084949435E+04 0.  0.
        5    1    3    3  502    0  0.72964777584E+03 -0.87427371406E+03 -0.24776725943E+04  0.27268340578E+04  0.46999998093E+01 0.  1.
       -5    1    3    3    0  502 -0.72964777584E+03  0.87427371406E+03 -0.20506412251E+03  0.11570712114E+04  0.46999998093E+01 0. -1.
</event>
<event>
 5   0  0.1220265E-06  0.2805270E+04  0.7818609E-02  0.8301634E-01
       -1   -1    0    0    0  501  0.00000000000E+00  0.00000000000E+00  0.88455988256E+03  0.88455988257E+03  0.50400001928E-02 0. -1.
        1   -1    0    0  501    0  0.00000000000E+00  0.00000000000E+00 -0.22241395245E+04  0.22241395245E+04  0.50400001928E-02 0.  1.
    10030    2    1    2    0    0  0.00000000000E+00  0.00000000000E+00 -0.13395796419E+04  0.31086994070E+04  0.28052697529E+04 0.  0.
        4    1    3    3  502    0 -0.50085057681E+03 -0.44370418528E+03 -0.20358727728E+04  0.21430128941E+04  0.12699999809E+01 0.  1.
       -4    1    3    3    0  502  0.50085057681E+03  0.44370418528E+03  0.69629313087E+03  0.96568651297E+03  0.12699999809E+01 0. -1.
</event>
<event>
 5   0  0.3226364E-06  0.2819585E+04  0.7818609E-02  0.8297214E-01
       -2   -1    0    0    0  501  0.00000000000E+00  0.00000000000E+00  0.78764981536E+03  0.78764981537E+03  0.25500000920E-02 0.  1.
        2   -1    0    0  501    0  0.00000000000E+00  0.00000000000E+00 -0.25233478039E+04  0.25233478039E+04  0.25500000920E-02 0. -1.
    10030    2    1    2    0    0  0.00000000000E+00  0.00000000000E+00 -0.17356979885E+04  0.33109976193E+04  0.28195846728E+04 0.  0.
        5    1    3    3  502    0 -0.97545274179E+03 -0.64899953300E+02  0.32494558460E+03  0.10302095798E+04  0.46999998093E+01 0.  1.
       -5    1    3    3    0  502  0.97545274179E+03  0.64899953300E+02 -0.20606435731E+04  0.22807880394E+04  0.46999998093E+01 0. -1.
</event>
<event>
 5   0  0.1220265E-06  0.2789912E+04  0.7818609E-02  0.8306407E-01
       -1   -1    0    0    0  501  0.00000000000E+00  0.00000000000E+00  0.85063236028E+03  0.85063236029E+03  0.50400001928E-02 0. -1.
        1   -1    0    0  501    0  0.00000000000E+00  0.00000000000E+00 -0.22875946460E+04  0.22875946460E+04  0.50400001928E-02 0.  1.
    10030    2    1    2    0    0  0.00000000000E+00  0.00000000000E+00 -0.14369622857E+04  0.31382270063E+04  0.27899118503E+04 0.  0.
        4    1    3    3  502    0  0.12151689643E+04 -0.63333177369E+03 -0.10121411998E+04  0.17035774619E+04  0.12699999809E+01 0.  1.
       -4    1    3    3    0  502 -0.12151689643E+04  0.63333177369E+03 -0.42482108590E+03  0.14346495444E+04  0.12699999809E+01 0. -1.
</event>
<event>
 5   0  0.1243055E-06  0.2796065E+04  0.7818609E-02  0.8304491E-01
       -1   -1    0    0    0  501  0.00000000000E+00  0.00000000000E+00  0.17550719538E+04  0.17550719538E+04  0.50400001928E-02 0. -1.
        1   -1    0    0  501    0  0.00000000000E+00  0.00000000000E+00 -0.11136265972E+04  0.11136265972E+04  0.50400001928E-02 0.  1.
    10030    2    1    2    0    0  0.00000000000E+00  0.00000000000E+00  0.64144535666E+03  0.28686985510E+04  0.27960649547E+04 0.  0.
        5    1    3    3  502    0 -0.10507261177E+04 -0.92094163657E+03  0.37007468539E+03  0.14453844593E+04  0.46999998093E+01 0. -1.
       -5    1    3    3    0  502  0.10507261177E+04  0.92094163657E+03  0.27137067127E+03  0.14233140917E+04  0.46999998093E+01 0.  1.
</event>
<event>
 5   0  0.1243055E-06  0.2795404E+04  0.7818609E-02  0.8304697E-01
        1   -1    0    0  501    0  0.00000000000E+00  0.00000000000E+00  0.14165027056E+04  0.14165027056E+04  0.50400001928E-02 0.  1.
       -1   -1    0    0    0  501  0.00000000000E+00  0.00000000000E+00 -0.13791506334E+04  0.13791506334E+04  0.50400001928E-02 0. -1.
    10030    2    1    2    0    0  0.00000000000E+00  0.00000000000E+00  0.37352072154E+02  0.27956533390E+04  0.27954038017E+04 0.  0.
        5    1    3    3  502    0  0.13761132495E+04 -0.87629369853E+02  0.24713007606E+03  0.14008789907E+04  0.46999998093E+01 0.  1.
       -5    1    3    3    0  502 -0.13761132495E+04  0.87629369853E+02 -0.20977800391E+03  0.13947743484E+04  0.46999998093E+01 0. -1.
</event>
<event>
 5   0  0.3167616E-06  0.2800299E+04  0.7818609E-02  0.8303176E-01
       -2   -1    0    0    0  501  0.00000000000E+00  0.00000000000E+00  0.12057596060E+04  0.12057596060E+04  0.25500000920E-02 0. -1.
        2   -1    0    0  501    0  0.00000000000E+00  0.00000000000E+00 -0.16258780433E+04  0.16258780433E+04  0.25500000920E-02 0.  1.
    10030    2    1    2    0    0  0.00000000000E+00  0.00000000000E+00 -0.42011843722E+03  0.28316376493E+04  0.28002986047E+04 0.  0.
        3    1    3    3  502    0  0.43011937425E+03  0.10106949851E+04  0.66793849021E+03  0.12855539140E+04  0.10100000352E+00 0. -1.
       -3    1    3    3    0  502 -0.43011937425E+03 -0.10106949851E+04 -0.10880569274E+04  0.15460837353E+04  0.10100000352E+00 0.  1.
</event>
<event>
 5   0  0.1243055E-06  0.2788163E+04  0.7818609E-02  0.8306953E-01
        1   -1    0    0  501    0  0.00000000000E+00  0.00000000000E+00  0.17137966945E+04  0.17137966946E+04  0.50400001928E-02 0. -1.
       -1   -1    0    0    0  501  0.00000000000E+00  0.00000000000E+00 -0.11340107180E+04  0.11340107180E+04  0.50400001928E-02 0.  1.
    10030    2    1    2    0    0  0.00000000000E+00  0.00000000000E+00  0.57978597655E+03  0.28478074126E+04  0.27881634243E+04 0.  0.
        5    1    3    3  502    0 -0.11134682435E+04 -0.54182621836E+03  0.94394638885E+03  0.15570626369E+04  0.46999998093E+01 0. -1.
       -5    1    3    3    0  502  0.11134682435E+04  0.54182621836E+03 -0.36416041230E+03  0.12907447757E+04  0.46999998093E+01 0.  1.
</event>
<event>
 5   0  0.1243055E-06  0.2799066E+04  0.7818609E-02  0.8303558E-01
        1   -1    0    0  501    0  0.00000000000E+00  0.00000000000E+00  0.26381302837E+04  0.26381302837E+04  0.50400001928E-02 0. -1.
       -1   -1    0    0    0  501  0.00000000000E+00  0.00000000000E+00 -0.74245505064E+03  0.74245505065E+03  0.50400001928E-02 0.  1.
    10030    2    1    2    0    0  0.00000000000E+00  0.00000000000E+00  0.18956752330E+04  0.33805853343E+04  0.27990663825E+04 0.  0.
        5    1    3    3  502    0 -0.54261902931E+03 -0.12323744677E+04  0.14085114251E+04  0.19486171415E+04  0.46999998093E+01 0. -1.
       -5    1    3    3    0  502  0.54261902931E+03  0.12323744677E+04  0.48716380791E+03  0.14319681928E+04  0.46999998093E+01 0.  1.
</event>
<event>
 5   0  0.3167616E-06  0.2800343E+04  0.7818609E-02  0.8303162E-01
       -2   -1    0    0    0  501  0.00000000000E+00  0.00000000000E+00  0.99083620300E+03  0.99083620300E+03  0.25500000920E-02 0. -1.
        2   -1    0    0  501    0  0.00000000000E+00  0.00000000000E+00 -0.19786124406E+04  0.19786124406E+04  0.25500000920E-02 0.  1.
    10030    2    1    2    0    0  0.00000000000E+00  0.00000000000E+00 -0.98777623763E+03  0.29694486436E+04  0.28003434346E+04 0.  0.
        3    1    3    3  502    0 -0.63657205218E+03  0.43166414330E+03 -0.17345516575E+04  0.18974265132E+04  0.10100000352E+00 0.  1.
       -3    1    3    3    0  502  0.63657205218E+03 -0.43166414330E+03  0.74677541987E+03  0.10720221304E+04  0.10100000352E+00 0. -1.
</event>
<event>
 5   0  0.3162695E-06  0.2803199E+04  0.7818609E-02  0.8302276E-01
       -2   -1    0    0    0  501  0.00000000000E+00  0.00000000000E+00  0.10327391924E+04  0.10327391924E+04  0.25500000920E-02 0. -1.
        2   -1    0    0  501    0  0.00000000000E+00  0.00000000000E+00 -0.19022046910E+04  0.19022046910E+04  0.25500000920E-02 0.  1.
    10030    2    1    2    0    0  0.00000000000E+00  0.00000000000E+00 -0.86946549860E+03  0.29349438834E+04  0.28031991270E+04 0.  0.
        1    1    3    3  502    0 -0.32492706540E+02  0.13841495630E+03  0.10251695398E+04  0.10349816720E+04  0.50400001928E-02 0. -1.
       -1    1    3    3    0  502  0.32492706540E+02 -0.13841495630E+03 -0.18946350384E+04  0.18999622114E+04  0.50400001928E-02 0.  1.
</event>
<event>
 5   0  0.3212679E-06  0.2804391E+04  0.7818609E-02  0.8301906E-01
       -2   -1    0    0    0  501  0.00000000000E+00  0.00000000000E+00  0.97688878054E+03  0.97688878054E+03  0.25500000920E-02 0.  1.
        2   -1    0    0  501    0  0.00000000000E+00  0.00000000000E+00 -0.20126680350E+04  0.20126680350E+04  0.25500000920E-02 0. -1.
    10030    2    1    2    0    0  0.00000000000E+00  0.00000000000E+00 -0.10357792545E+04  0.29895568155E+04  0.28043914294E+04 0.  0.
        4    1    3    3  502    0  0.11877335055E+04  0.68758550626E+03 -0.21138787754E+03  0.13885860276E+04  0.12699999809E+01 0.  1.
       -4    1    3    3    0  502 -0.11877335055E+04 -0.68758550626E+03 -0.82439137691E+03  0.16009707879E+04  0.12699999809E+01 0. -1.
</event>
<event>
 5   0  0.1246044E-06  0.2801779E+04  0.7818609E-02  0.8302716E-01
        1   -1    0    0  501    0  0.00000000000E+00  0.00000000000E+00  0.15112524125E+04  0.15112524125E+04  0.50400001928E-02 0.  1.
       -1   -1    0    0    0  501  0.00000000000E+00  0.00000000000E+00 -0.12985865028E+04  0.12985865029E+04  0.50400001928E-02 0. -1.
    10030    2    1    2    0    0  0.00000000000E+00  0.00000000000E+00  0.21266590962E+03  0.28098389153E+04  0.28017794240E+04 0.  0.
        2    1    3    3  502    0 -0.13794400728E+04  0.13420582084E+03  0.31094402886E+03  0.14204056836E+04  0.25500000920E-02 0.  1.
       -2    1    3    3    0  502  0.13794400728E+04 -0.13420582084E+03 -0.98278119237E+02  0.13894332318E+04  0.25500000920E-02 0. -1.
</event>
<event>
 5   0  0.3226364E-06  0.2815856E+04  0.7818609E-02  0.8298363E-01
       -2   -1    0    0    0  501  0.00000000000E+00  0.00000000000E+00  0.10651909051E+04  0.10651909051E+04  0.25500000920E-02 0. -1.
        2   -1    0    0  501    0  0.00000000000E+00  0.00000000000E+00 -0.18609445390E+04  0.18609445390E+04  0.25500000920E-02 0.  1.
    10030    2    1    2    0    0  0.00000000000E+00  0.00000000000E+00 -0.79575363390E+03  0.29261354441E+04  0.28158559607E+04 0.  0.
        5    1    3    3  502    0  0.85721719964E+03  0.13749854694E+02  0.76265497167E+03  0.11474646320E+04  0.46999998093E+01 0. -1.
       -5    1    3    3    0  502 -0.85721719964E+03 -0.13749854694E+02 -0.15584086056E+04  0.17786708121E+04  0.46999998093E+01 0.  1.
</event>
<event>
 5   0  0.1220265E-06  0.2803273E+04  0.7818609E-02  0.8302253E-01
        1   -1    0    0  501    0  0.00000000000E+00  0.00000000000E+00  0.13503544955E+04  0.13503544955E+04  0.50400001928E-02 0.  1.
       -1   -1    0    0    0  501  0.00000000000E+00  0.00000000000E+00 -0.14548659311E+04  0.14548659311E+04  0.50400001928E-02 0. -1.
    10030    2    1    2    0    0  0.00000000000E+00  0.00000000000E+00 -0.10451143564E+03  0.28052204266E+04  0.28032729088E+04 0.  0.
        4    1    3    3  502    0 -0.45231653397E+03  0.56447518640E+03 -0.12536565931E+04  0.14473696657E+04  0.12699999809E+01 0. -1.
       -4    1    3    3    0  502  0.45231653397E+03 -0.56447518640E+03  0.11491451574E+04  0.13578507608E+04  0.12699999809E+01 0.  1.
</event>
<event>
 5   0  0.3162695E-06  0.2801699E+04  0.7818609E-02  0.8302741E-01
        2   -1    0    0  501    0  0.00000000000E+00  0.00000000000E+00  0.17271723936E+04  0.17271723936E+04  0.25500000920E-02 0. -1.
       -2   -1    0    0    0  501  0.00000000000E+00  0.00000000000E+00 -0.11361805318E+04  0.11361805318E+04  0.25500000920E-02 0.  1.
    10030    2    1    2    0    0  0.00000000000E+00  0.00000000000E+00  0.59099186189E+03  0.28633529254E+04  0.28016992334E+04 0.  0.
        1    1    3    3  502    0 -0.47266117775E+03 -0.89463765747E+03  0.12856262900E+04  0.16360379227E+04  0.50400001928E-02 0. -1.
       -1    1    3    3    0  502  0.47266117775E+03  0.89463765747E+03 -0.69463442808E+03  0.12273150027E+04  0.50400001928E-02 0.  1.
</event>
<event>
 5   0  0.3226364E-06  0.2792231E+04  0.7818609E-02  0.8305685E-01
        2   -1    0    0  501    0  0.00000000000E+00  0.00000000000E+00  0.15455321071E+04  0.15455321071E+04  0.25500000920E-02 0.  1.
       -2   -1    0    0    0  501  0.00000000000E+00  0.00000000000E+00 -0.12611435274E+04  0.12611435274E+04  0.25500000920E-02 0. -1.
    10030    2    1    2    0    0  0.00000000000E+00  0.00000000000E+00  0.28438857971E+03  0.28066756346E+04  0.27922305158E+04 0.  0.
        5    1    3    3  502    0 -0.36164579210E+03 -0.35749514152E+03 -0.11647340896E+04  0.12709122883E+04  0.46999998093E+01 0. -1.
       -5    1    3    3    0  502  0.36164579210E+03  0.35749514152E+03  0.14491226693E+04  0.15357633463E+04  0.46999998093E+01 0.  1.
</event>
<event>
 5   0  0.3345919E-06  0.2805005E+04  0.7818609E-02  0.8301716E-01
        2   -1    0    0  501    0  0.00000000000E+00  0.00000000000E+00  0.16503068628E+04  0.16503068628E+04  0.25500000920E-02 0.  1.
       -2   -1    0    0    0  501  0.00000000000E+00  0.00000000000E+00 -0.11919079306E+04  0.11919079306E+04  0.25500000920E-02 0. -1.
    10030    2    1    2    0    0  0.00000000000E+00  0.00000000000E+00  0.45839893229E+03  0.28422147934E+04  0.28050054101E+04 0.  0.
        2    1    3    3  502    0  0.95873050290E+02  0.58758463378E+03 -0.10575144803E+04  0.12135832150E+04  0.25500000920E-02 0. -1.
       -2    1    3    3    0  502 -0.95873050290E+02 -0.58758463378E+03  0.15159134126E+04  0.16286315784E+04  0.25500000920E-02 0.  1.
</event>
<event>
 5   0  0.1235252E-06  0.2797680E+04  0.7818609E-02  0.8303989E-01
        1   -1    0    0  501    0  0.00000000000E+00  0.00000000000E+00  0.14719645414E+04  0.14719645414E+04  0.50400001928E-02 0.  1.
       -1   -1    0    0    0  501  0.00000000000E+00  0.00000000000E+00 -0.13293477996E+04  0.13293477996E+04  0.50400001928E-02 0. -1.
    10030    2    1    2    0    0  0.00000000000E+00  0.00000000000E+00  0.14261674180E+03  0.28013123411E+04  0.27976796273E+04 0.  0.
        1    1    3    3  502    0  0.11602080622E+04 -0.34616280666E+03  0.77281881627E+03  0.14363705508E+04  0.50400001928E-02 0.  1.
       -1    1    3    3    0  502 -0.11602080622E+04  0.34616280666E+03 -0.63020207446E+03  0.13649417903E+04  0.50400001928E-02 0. -1.
</event>
<event>
 5   0  0.1220265E-06  0.2810366E+04  0.7818609E-02  0.8300057E-01
       -1   -1    0    0    0  501  0.00000000000E+00  0.00000000000E+00  0.14032558992E+04  0.14032558992E+04  0.50400001928E-02 0. -1.
        1   -1    0    0  501    0  0.00000000000E+00  0.00000000000E+00 -0.14071123798E+04  0.14071123798E+04  0.50400001928E-02 0.  1.
    10030    2    1    2    0    0  0.00000000000E+00  0.00000000000E+00 -0.38564805844E+01  0.28103682790E+04  0.28103656330E+04 0.  0.
        4    1    3    3  502    0 -0.18380505578E+03 -0.28974990551E+03  0.13607167337E+04  0.14033142729E+04  0.12699999809E+01 0. -1.
       -4    1    3    3    0  502  0.18380505578E+03  0.28974990551E+03 -0.13645732142E+04  0.14070540061E+04  0.12699999809E+01 0.  1.
</event>
<event>
 5   0  0.3345919E-06  0.2797818E+04  0.7818609E-02  0.8303946E-01
       -2   -1    0    0    0  501  0.00000000000E+00  0.00000000000E+00  0.11203872520E+04  0.11203872521E+04  0.25500000920E-02 0.  1.
        2   -1    0    0  501    0  0.00000000000E+00  0.00000000000E+00 -0.17466692698E+04  0.17466692698E+04  0.25500000920E-02 0. -1.
    10030    2    1    2    0    0  0.00000000000E+00  0.00000000000E+00 -0.62628201775E+03  0.28670565219E+04  0.27978177092E+04 0.  0.
        2    1    3    3  502    0 -0.12369131965E+04  0.41599381543E+03 -0.82953733573E+03  0.15463302692E+04  0.25500000920E-02 0. -1.
       -2    1    3    3    0  502  0.12369131965E+04 -0.41599381543E+03  0.20325531798E+03  0.13207262526E+04  0.25500000920E-02 0.  1.
</event>
<event>
 5   0  0.3226364E-06  0.2801200E+04  0.7818609E-02  0.8302896E-01
        2   -1    0    0  501    0  0.00000000000E+00  0.00000000000E+00  0.19809339679E+04  0.19809339679E+04  0.25500000920E-02 0.  1.
       -2   -1    0    0    0  501  0.00000000000E+00  0.00000000000E+00 -0.99028042512E+03  0.99028042512E+03  0.25500000920E-02 0. -1.
    10030    2    1    2    0    0  0.00000000000E+00  0.00000000000E+00  0.99065354275E+03  0.29712143930E+04  0.28011998371E+04 0.  0.
        5    1    3    3  502    0  0.22757032854E+03 -0.14322303212E+03  0.19532911240E+04  0.19717173724E+04  0.46999998093E+01 0.  1.
       -5    1    3    3    0  502 -0.22757032854E+03  0.14322303212E+03 -0.96263758126E+03  0.99949702062E+03  0.46999998093E+01 0. -1.
</event>
<event>
 5   0  0.1235252E-06  0.2803774E+04  0.7818609E-02  0.8302098E-01
       -1   -1    0    0    0  501  0.00000000000E+00  0.00000000000E+00  0.11142581966E+04  0.11142581966E+04  0.50400001928E-02 0.  1.
        1   -1    0    0  501    0  0.00000000000E+00  0.00000000000E+00 -0.17637632674E+04  0.17637632674E+04  0.50400001928E-02 0. -1.
    10030    2    1    2    0    0  0.00000000000E+00  0.00000000000E+00 -0.64950507076E+03  0.28780214640E+04  0.28037743686E+04 0.  0.
        1    1    3    3  502    0  0.12514909445E+04 -0.61309857163E+03 -0.16851066124E+03  0.14037504357E+04  0.50400001928E-02 0. -1.
       -1    1    3    3    0  502 -0.12514909445E+04  0.61309857163E+03 -0.48099440952E+03  0.14742710283E+04  0.50400001928E-02 0.  1.
</event>
<event>
 5   0  0.1246044E-06  0.2812731E+04  0.7818609E-02  0.8299327E-01
        1   -1    0    0  501    0  0.00000000000E+00  0.00000000000E+00  0.23437198513E+04  0.23437198513E+04  0.50400001928E-02 0.  1.
       -1   -1    0    0    0  501  0.00000000000E+00  0.00000000000E+00 -0.84389919009E+03  0.84389919010E+03  0.50400001928E-02 0. -1.
    10030    2    1    2    0    0  0.00000000000E+00  0.00000000000E+00  0.14998206613E+04  0.31876190415E+04  0.28127305483E+04 0.  0.
        2    1    3    3  502    0  0.20344809823E+03  0.79936603248E+03 -0.54098086796E+03  0.98642662274E+03  0.25500000920E-02 0. -1.
       -2    1    3    3    0  502 -0.20344809823E+03 -0.79936603248E+03  0.20408015292E+04  0.22011924187E+04  0.25500000920E-02 0.  1.
</event>
<event>
 5   0  0.3212679E-06  0.2795424E+04  0.7818609E-02  0.8304690E-01
        2   -1    0    0  501    0  0.00000000000E+00  0.00000000000E+00  0.62098080854E+03  0.62098080855E+03  0.25500000920E-02 0.  1.
       -2   -1    0    0    0  501  0.00000000000E+00  0.00000000000E+00 -0.31459892884E+04  0.31459892884E+04  0.25500000920E-02 0. -1.
    10030    2    1    2    0    0  0.00000000000E+00  0.00000000000E+00 -0.25250084799E+04  0.37669700970E+04  0.27954240981E+04 0.  0.
        4    1    3    3  502    0  0.18582658657E+03  0.70270434294E+03 -0.28712722154E+04  0.29618458200E+04  0.12699999809E+01 0. -1.
       -4    1    3    3    0  502 -0.18582658657E+03 -0.70270434294E+03  0.34626373553E+03  0.80512427693E+03  0.12699999809E+01 0.  1.
</event>
<event>
 5   0  0.1065675E-06  0.2815213E+04  0.7818609E-02  0.8298561E-01
       -3   -1    0    0    0  501  0.00000000000E+00  0.00000000000E+00  0.24756641752E+04  0.24756641773E+04  0.10100000352E+00 0. -1.
        3   -1    0    0  501    0  0.00000000000E+00  0.00000000000E+00 -0.80033326832E+03  0.80033327470E+03  0.10100000352E+00 0.  1.
    10030    2    1    2    0    0  0.00000000000E+00  0.00000000000E+00  0.16753309069E+04  0.32759974520E+04  0.28152132526E+04 0.  0.
        3    1    3    3  502    0 -0.27357213727E+03 -0.34858784941E+03  0.23923830477E+04  0.24330745694E+04  0.10100000352E+00 0. -1.
       -3    1    3    3    0  502  0.27357213727E+03  0.34858784941E+03 -0.71705214084E+03  0.84292288256E+03  0.10100000352E+00 0.  1.
</event>
<event>
 5   0  0.3212679E-06  0.2794180E+04  0.7818609E-02  0.8305077E-01
       -2   -1    0    0    0  501  0.00000000000E+00  0.00000000000E+00  0.11920103878E+04  0.11920103878E+04  0.25500000920E-02 0. -1.
        2   -1    0    0  501    0  0.00000000000E+00  0.00000000000E+00 -0.16374527961E+04  0.16374527961E+04  0.25500000920E-02 0.  1.
    10030    2    1    2    0    0  0.00000000000E+00  0.00000000000E+00 -0.44544240835E+03  0.28294631839E+04  0.27941801964E+04 0.  0.
        4    1    3    3  502    0 -0.73759910053E+03  0.44295012041E+03 -0.13373483294E+04  0.15902073479E+04  0.12699999809E+01 0.  1.
       -4    1    3    3    0  502  0.73759910053E+03 -0.44295012041E+03  0.89190592101E+03  0.12392558360E+04  0.12699999809E+01 0. -1.
</event>
<event>
 5   0  0.3212679E-06  0.2800680E+04  0.7818609E-02  0.8303057E-01
        2   -1    0    0  501    0  0.00000000000E+00  0.00000000000E+00  0.21567342177E+04  0.21567342177E+04  0.25500000920E-02 0. -1.
       -2   -1    0    0    0  501  0.00000000000E+00  0.00000000000E+00 -0.90922299735E+03  0.90922299735E+03  0.25500000920E-02 0.  1.
    10030    2    1    2    0    0  0.00000000000E+00  0.00000000000E+00  0.12475112204E+04  0.30659572151E+04  0.28006801673E+04 0.  0.
        4    1    3    3  502    0  0.54669211361E+03 -0.12642499071E+04  0.34735127082E+03  0.14205120953E+04  0.12699999809E+01 0.  1.
       -4    1    3    3    0  502 -0.54669211361E+03  0.12642499071E+04  0.90015994957E+03  0.16454451198E+04  0.12699999809E+01 0. -1.
</event>
<event>
 5   0  0.3167616E-06  0.2805176E+04  0.7818609E-02  0.8301663E-01
        2   -1    0    0  501    0  0.00000000000E+00  0.00000000000E+00  0.14330612041E+04  0.14330612041E+04  0.25500000920E-02 0. -1.
       -2   -1    0    0    0  501  0.00000000000E+00  0.00000000000E+00 -0.13727631233E+04  0.13727631233E+04  0.25500000920E-02 0.  1.
    10030    2    1    2    0    0  0.00000000000E+00  0.00000000000E+00  0.60298080786E+02  0.28058243274E+04  0.28051763399E+04 0.  0.
        3    1    3    3  502    0  0.89959351748E+03 -0.42484684909E+03  0.10190584747E+04  0.14241641503E+04  0.10100000352E+00 0. -1.
       -3    1    3    3    0  502 -0.89959351748E+03  0.42484684909E+03 -0.95876039395E+03  0.13816601771E+04  0.10100000352E+00 0.  1.
</event>
<event>
 5   0  0.1246044E-06  0.2816777E+04  0.7818609E-02  0.8298079E-01
        1   -1    0    0  501    0  0.00000000000E+00  0.00000000000E+00  0.67347774079E+03  0.67347774081E+03  0.50400001928E-02 0.  1.
       -1   -1    0    0    0  501  0.00000000000E+00  0.00000000000E+00 -0.29452466439E+04  0.29452466439E+04  0.50400001928E-02 0. -1.
    10030    2    1    2    0    0  0.00000000000E+00  0.00000000000E+00 -0.22717689032E+04  0.36187243847E+04  0.28167769211E+04 0.  0.
        2    1    3    3  502    0  0.51572029219E+03  0.75064988374E+03  0.24426993148E+03  0.94292654389E+03  0.25500000920E-02 0.  1.
       -2    1    3    3    0  502 -0.51572029219E+03 -0.75064988374E+03 -0.25160388346E+04  0.26757978409E+04  0.25500000920E-02 0. -1.
</event>
<event>
 5   0  0.1235252E-06  0.2786180E+04  0.7818609E-02  0.8307572E-01
       -1   -1    0    0    0  501  0.00000000000E+00  0.00000000000E+00  0.83639668339E+03  0.83639668341E+03  0.50400001928E-02 0. -1.
        1   -1    0    0  501    0  0.00000000000E+00  0.00000000000E+00 -0.23203105059E+04  0.23203105059E+04  0.50400001928E-02 0.  1.
    10030    2    1    2    0    0  0.00000000000E+00  0.00000000000E+00 -0.14839138225E+04  0.31567071894E+04  0.27861801892E+04 0.  0.
        1    1    3    3  502    0 -0.12825682253E+04  0.51624666924E+03 -0.93558886041E+03  0.16693766477E+04  0.50400001928E-02 0.  1.
       -1    1    3    3    0  502  0.12825682253E+04 -0.51624666924E+03 -0.54832496213E+03  0.14873305417E+04  0.50400001928E-02 0. -1.
</event>
<event>
 5   0  0.1065675E-06  0.2760706E+04  0.7818609E-02  0.8315573E-01
        3   -1    0    0  501    0  0.00000000000E+00  0.00000000000E+00  0.94551435822E+03  0.94551436361E+03  0.10100000352E+00 0.  1.
       -3   -1    0    0    0  501  0.00000000000E+00  0.00000000000E+00 -0.20151717562E+04  0.20151717587E+04  0.10100000352E+00 0. -1.
    10030    2    1    2    0    0  0.00000000000E+00  0.00000000000E+00 -0.10696573980E+04  0.29606861224E+04  0.27607055921E+04 0.  0.
        4    1    3    3  502    0 -0.76695520436E+03 -0.53634295704E+03 -0.16229641370E+04  0.18734722458E+04  0.12699999809E+01 0. -1.
       -4    1    3    3    0  502  0.76695520436E+03  0.53634295704E+03  0.55330673897E+03  0.10872138765E+04  0.12699999809E+01 0.  1.
</event>
<event>
 5   0  0.3162695E-06  0.2780706E+04  0.7818609E-02  0.8309283E-01
       -2   -1    0    0    0  501  0.00000000000E+00  0.00000000000E+00  0.15673381154E+04  0.15673381154E+04  0.25500000920E-02 0.  1.
        2   -1    0    0  501    0  0.00000000000E+00  0.00000000000E+00 -0.12333532595E+04  0.12333532595E+04  0.25500000920E-02 0. -1.
    10030    2    1    2    0    0  0.00000000000E+00  0.00000000000E+00  0.33398485593E+03  0.28006913750E+04  0.27807060783E+04 0.  0.
        1    1    3    3  502    0  0.11047734840E+04  0.20947305392E+03  0.99059697905E+03  0.14985612388E+04  0.50400001928E-02 0.  1.
       -1    1    3    3    0  502 -0.11047734840E+04 -0.20947305392E+03 -0.65661212312E+03  0.13021301362E+04  0.50400001928E-02 0. -1.
</event>
<event>
 5   0  0.3226364E-06  0.2794488E+04  0.7818609E-02  0.8304982E-01
        2   -1    0    0  501    0  0.00000000000E+00  0.00000000000E+00  0.17480150044E+04  0.17480150044E+04  0.25500000920E-02 0. -1.
       -2   -1    0    0    0  501  0.00000000000E+00  0.00000000000E+00 -0.11168611834E+04  0.11168611834E+04  0.25500000920E-02 0.  1.
    10030    2    1    2    0    0  0.00000000000E+00  0.00000000000E+00  0.63115382102E+03  0.28648761878E+04  0.27944875068E+04 0.  0.
        5    1    3    3  502    0 -0.37216512341E+03 -0.24694856484E+02  0.16960269971E+04  0.17365616545E+04  0.46999998093E+01 0. -1.
       -5    1    3    3    0  502  0.37216512341E+03  0.24694856484E+02 -0.10648731761E+04  0.11283145333E+04  0.46999998093E+01 0.  1.
</event>
<event>
 5   0  0.3212679E-06  0.2791358E+04  0.7818609E-02  0.8305957E-01
        2   -1    0    0  501    0  0.00000000000E+00  0.00000000000E+00  0.15696028789E+04  0.15696028789E+04  0.25500000920E-02 0. -1.
       -2   -1    0    0    0  501  0.00000000000E+00  0.00000000000E+00 -0.12410268378E+04  0.12410268378E+04  0.25500000920E-02 0.  1.
    10030    2    1    2    0    0  0.00000000000E+00  0.00000000000E+00  0.32857604110E+03  0.28106297167E+04  0.27913575890E+04 0.  0.
        4    1    3    3  502    0 -0.69459522705E+03 -0.68442169597E+03  0.11696918844E+04  0.15228513732E+04  0.12699999809E+01 0. -1.
       -4    1    3    3    0  502  0.69459522705E+03  0.68442169597E+03 -0.84111584332E+03  0.12877783436E+04  0.12699999809E+01 0.  1.
</event>
<event>
 5   0  0.1243055E-06  0.2812269E+04  0.7818609E-02  0.8299469E-01
        1   -1    0    0  501    0  0.00000000000E+00  0.00000000000E+00  0.14042381418E+04  0.14042381418E+04  0.50400001928E-02 0.  1.
       -1   -1    0    0    0  501  0.00000000000E+00  0.00000000000E+00 -0.14080332951E+04  0.14080332951E+04  0.50400001928E-02 0. -1.
    10030    2    1    2    0    0  0.00000000000E+00  0.00000000000E+00 -0.37951532751E+01  0.28122714369E+04  0.28122688761E+04 0.  0.
        5    1    3    3  502    0  0.39047636645E+03 -0.35771583899E+03 -0.13044959966E+04  0.14078935718E+04  0.46999998093E+01 0. -1.
       -5    1    3    3    0  502 -0.39047636645E+03  0.35771583899E+03  0.13007008433E+04  0.14043778651E+04  0.46999998093E+01 0.  1.
</event>
<event>
 5   0  0.1263513E-06  0.2791138E+04  0.7818609E-02  0.8306025E-01
       -1   -1    0    0    0  501  0.00000000000E+00  0.00000000000E+00  0.14195940193E+04  0.14195940193E+04  0.50400001928E-02 0. -1.
        1   -1    0    0  501    0  0.00000000000E+00  0.00000000000E+00 -0.13719509920E+04  0.13719509920E+04  0.50400001928E-02 0.  1.
    10030    2    1    2    0    0  0.00000000000E+00  0.00000000000E+00  0.47643027323E+02  0.27915450113E+04  0.27911384222E+04 0.  0.
        3    1    3    3  502    0 -0.12424587760E+04 -0.63239306571E+03 -0.39343154854E+02  0.13946944804E+04  0.10100000352E+00 0.  1.
       -3    1    3    3    0  502  0.12424587760E+04  0.63239306571E+03  0.86986182177E+02  0.13968505309E+04  0.10100000352E+00 0. -1.
</event>
<event>
 5   0  0.1246044E-06  0.2835300E+04  0.7818609E-02  0.8292392E-01
        1   -1    0    0  501    0  0.00000000000E+00  0.00000000000E+00  0.20388927303E+04  0.20388927303E+04  0.50400001928E-02 0.  1.
       -1   -1    0    0    0  501  0.00000000000E+00  0.00000000000E+00 -0.98569774517E+03  0.98569774518E+03  0.50400001928E-02 0. -1.
    10030    2    1    2    0    0  0.00000000000E+00  0.00000000000E+00  0.10531949851E+04  0.30245904754E+04  0.28353003135E+04 0.  0.
        2    1    3    3  502    0 -0.57126700655E+02  0.14160972639E+04  0.49062615976E+03  0.14997696322E+04  0.25500000920E-02 0. -1.
       -2    1    3    3    0  502  0.57126700655E+02 -0.14160972639E+04  0.56256882533E+03  0.15248208433E+04  0.25500000920E-02 0.  1.
</event>
<event>
 5   0  0.1246044E-06  0.2805982E+04  0.7818609E-02  0.8301414E-01
        1   -1    0    0  501    0  0.00000000000E+00  0.00000000000E+00  0.14201912367E+04  0.14201912367E+04  0.50400001928E-02 0. -1.
       -1   -1    0    0    0  501  0.00000000000E+00  0.00000000000E+00 -0.13859987110E+04  0.13859987110E+04  0.50400001928E-02 0.  1.
    10030    2    1    2    0    0  0.00000000000E+00  0.00000000000E+00  0.34192525735E+02  0.28061899477E+04  0.28059816274E+04 0.  0.
        2    1    3    3  502    0  0.89120623753E+03  0.10574320118E+04 -0.21950575984E+03  0.14002120540E+04  0.25500000920E-02 0.  1.
       -2    1    3    3    0  502 -0.89120623753E+03 -0.10574320118E+04  0.25369828558E+03  0.14059778937E+04  0.25500000920E-02 0. -1.
</event>
<event>
 5   0  0.1243055E-06  0.2799530E+04  0.7818609E-02  0.8303414E-01
        1   -1    0    0  501    0  0.00000000000E+00  0.00000000000E+00  0.11913048626E+04  0.11913048626E+04  0.50400001928E-02 0. -1.
       -1   -1    0    0    0  501  0.00000000000E+00  0.00000000000E+00 -0.16447026268E+04  0.16447026268E+04  0.50400001928E-02 0.  1.
    10030    2    1    2    0    0  0.00000000000E+00  0.00000000000E+00 -0.45339776424E+03  0.28360074894E+04  0.27995301297E+04 0.  0.
        5    1    3    3  502    0  0.57973430721E+03  0.12032351275E+04  0.19763064687E+03  0.13501653978E+04  0.46999998093E+01 0. -1.
       -5    1    3    3    0  502 -0.57973430721E+03 -0.12032351275E+04 -0.65102841110E+03  0.14858420915E+04  0.46999998093E+01 0.  1.
</event>
<event>
 5   0  0.3162695E-06  0.2803470E+04  0.7818609E-02  0.8302192E-01
        2   -1    0    0  501    0  0.00000000000E+00  0.00000000000E+00  0.14964151845E+04  0.14964151845E+04  0.25500000920E-02 0. -1.
       -2   -1    0    0    0  501  0.00000000000E+00  0.00000000000E+00 -0.13130457291E+04  0.13130457291E+04  0.25500000920E-02 0.  1.
    10030    2    1    2    0    0  0.00000000000E+00  0.00000000000E+00  0.18336945545E+03  0.28094609136E+04  0.28034703972E+04 0.  0.
        1    1    3    3  502    0 -0.17428196651E+02  0.73947795612E+03  0.12849137602E+04  0.14826107921E+04  0.50400001928E-02 0. -1.
       -1    1    3    3    0  502  0.17428196651E+02 -0.73947795612E+03 -0.11015443047E+04  0.13268501215E+04  0.50400001928E-02 0.  1.
</event>
<event>
 5   0  0.1220265E-06  0.2828628E+04  0.7818609E-02  0.8294435E-01
        1   -1    0    0  501    0  0.00000000000E+00  0.00000000000E+00  0.14982897047E+04  0.14982897047E+04  0.50400001928E-02 0. -1.
       -1   -1    0    0    0  501  0.00000000000E+00  0.00000000000E+00 -0.13350447739E+04  0.13350447739E+04  0.50400001928E-02 0.  1.
    10030    2    1    2    0    0  0.00000000000E+00  0.00000000000E+00  0.16324493079E+03  0.28333344786E+04  0.28286278229E+04 0.  0.
        4    1    3    3  502    0 -0.94217194749E+03 -0.87871331858E+03 -0.50283548243E+03  0.13829932068E+04  0.12699999809E+01 0.  1.
       -4    1    3    3    0  502  0.94217194749E+03  0.87871331858E+03  0.66608041321E+03  0.14503412718E+04  0.12699999809E+01 0. -1.
</event>
<event>
 5   0  0.1235252E-06  0.2793398E+04  0.7818609E-02  0.8305321E-01
       -1   -1    0    0    0  501  0.00000000000E+00  0.00000000000E+00  0.14064039694E+04  0.14064039694E+04  0.50400001928E-02 0. -1.
        1   -1    0    0  501    0  0.00000000000E+00  0.00000000000E+00 -0.13870612365E+04  0.13870612365E+04  0.50400001928E-02 0.  1.
    10030    2    1    2    0    0  0.00000000000E+00  0.00000000000E+00  0.19342732916E+02  0.27934652060E+04  0.27933982379E+04 0.  0.
        1    1    3    3  502    0  0.39154801664E+03 -0.51412761100E+03 -0.12285551434E+04  0.13881587770E+04  0.50400001928E-02 0.  1.
       -1    1    3    3    0  502 -0.39154801664E+03  0.51412761100E+03  0.12478978763E+04  0.14053064290E+04  0.50400001928E-02 0. -1.
</event>
<event>
 5   0  0.3212679E-06  0.2794799E+04  0.7818609E-02  0.8304885E-01
        2   -1    0    0  501    0  0.00000000000E+00  0.00000000000E+00  0.12578456456E+04  0.12578456456E+04  0.25500000920E-02 0.  1.
       -2   -1    0    0    0  501  0.00000000000E+00  0.00000000000E+00 -0.15524361291E+04  0.15524361291E+04  0.25500000920E-02 0. -1.
    10030    2    1    2    0    0  0.00000000000E+00  0.00000000000E+00 -0.29459048352E+03  0.28102817746E+04  0.27947987584E+04 0.  0.
        4    1    3    3  502    0  0.52789103255E+02  0.13024803012E+04 -0.65355418213E+03  0.14582099665E+04  0.12699999809E+01 0. -1.
       -4    1    3    3    0  502 -0.52789103255E+02 -0.13024803012E+04  0.35896369862E+03  0.13520718081E+04  0.12699999809E+01 0.  1.
</event>
<event>
 5   0  0.1243055E-06  0.2795072E+04  0.7818609E-02  0.8304800E-01
        1   -1    0    0  501    0  0.00000000000E+00  0.00000000000E+00  0.20667479713E+04  0.20667479713E+04  0.50400001928E-02 0.  1.
       -1   -1    0    0    0  501  0.00000000000E+00  0.00000000000E+00 -0.94501457478E+03  0.94501457480E+03  0.50400001928E-02 0. -1.
    10030    2    1    2    0    0  0.00000000000E+00  0.00000000000E+00  0.11217333965E+04  0.30117625461E+04  0.27950720601E+04 0.  0.
        5    1    3    3  502    0  0.78772898370E+03 -0.11535418617E+04  0.60794714386E+03  0.15234164231E+04  0.46999998093E+01 0. -1.
       -5    1    3    3    0  502 -0.78772898370E+03  0.11535418617E+04  0.51378625262E+03  0.14883461230E+04  0.46999998093E+01 0.  1.
</event>
<event>
 5   0  0.1065675E-06  0.2827436E+04  0.7818609E-02  0.8294801E-01
        3   -1    0    0  501    0  0.00000000000E+00  0.00000000000E+00  0.15030183631E+04  0.15030183665E+04  0.10100000352E+00 0. -1.
       -3   -1    0    0    0  501  0.00000000000E+00  0.00000000000E+00 -0.13297232379E+04  0.13297232417E+04  0.10100000352E+00 0.  1.
    10030    2    1    2    0    0  0.00000000000E+00  0.00000000000E+00  0.17329512517E+03  0.28327416082E+04  0.28274359088E+04 0.  0.
        2    1    3    3  502    0  0.89178950375E+03  0.12800537162E+03  0.11781526158E+04  0.14831444570E+04  0.25500000920E-02 0. -1.
       -2    1    3    3    0  502 -0.89178950375E+03 -0.12800537162E+03 -0.10048574906E+04  0.13495971512E+04  0.25500000920E-02 0.  1.
</event>
<event>
 5   0  0.1220265E-06  0.2804364E+04  0.7818609E-02  0.8301915E-01
        1   -1    0    0  501    0  0.00000000000E+00  0.00000000000E+00  0.15567345105E+04  0.15567345105E+04  0.50400001928E-02 0. -1.
       -1   -1    0    0    0  501  0.00000000000E+00  0.00000000000E+00 -0.12629734540E+04  0.12629734540E+04  0.50400001928E-02 0.  1.
    10030    2    1    2    0    0  0.00000000000E+00  0.00000000000E+00  0.29376105653E+03  0.28197079645E+04  0.28043640004E+04 0.  0.
        4    1    3    3  502    0  0.13847793566E+02  0.11252399340E+03  0.15521179358E+04  0.15562535494E+04  0.12699999809E+01 0. -1.
       -4    1    3    3    0  502 -0.13847793566E+02 -0.11252399340E+03 -0.12583568793E+04  0.12634544151E+04  0.12699999809E+01 0.  1.
</event>
<event>
 5   0  0.3162695E-06  0.2801240E+04  0.7818609E-02  0.8302883E-01
       -2   -1    0    0    0  501  0.00000000000E+00  0.00000000000E+00  0.23658302103E+04  0.23658302103E+04  0.25500000920E-02 0. -1.
        2   -1    0    0  501    0  0.00000000000E+00  0.00000000000E+00 -0.82919597715E+03  0.82919597715E+03  0.25500000920E-02 0.  1.
    10030    2    1    2    0    0  0.00000000000E+00  0.00000000000E+00  0.15366342332E+04  0.31950261875E+04  0.28012403631E+04 0.  0.
        1    1    3    3  502    0 -0.15219433465E+03 -0.38056458599E+03 -0.75926414562E+03  0.86282939360E+03  0.50400001928E-02 0.  1.
       -1    1    3    3    0  502  0.15219433465E+03  0.38056458599E+03  0.22958983788E+04  0.23321967939E+04  0.50400001928E-02 0. -1.
</event>
<event>
 5   0  0.1220265E-06  0.2797691E+04  0.7818609E-02  0.8303986E-01
       -1   -1    0    0    0  501  0.00000000000E+00  0.00000000000E+00  0.26558641835E+04  0.26558641835E+04  0.50400001928E-02 0.  1.
        1   -1    0    0  501    0  0.00000000000E+00  0.00000000000E+00 -0.73677278575E+03  0.73677278577E+03  0.50400001928E-02 0. -1.
    10030    2    1    2    0    0  0.00000000000E+00  0.00000000000E+00  0.19190913978E+04  0.33926369693E+04  0.27976908000E+04 0.  0.
        4    1    3    3  502    0 -0.58843928890E+03  0.16803694125E+03 -0.56583385803E+03  0.83346672288E+03  0.12699999809E+01 0. -1.
       -4    1    3    3    0  502  0.58843928890E+03 -0.16803694125E+03  0.24849252558E+04  0.25591702464E+04  0.12699999809E+01 0.  1.
</event>
<event>
 5   0  0.3162695E-06  0.2757326E+04  0.7818609E-02  0.8316641E-01
       -2   -1    0    0    0  501  0.00000000000E+00  0.00000000000E+00  0.10946797098E+04  0.10946797098E+04  0.25500000920E-02 0. -1.
        2   -1    0    0  501    0  0.00000000000E+00  0.00000000000E+00 -0.17363181836E+04  0.17363181836E+04  0.25500000920E-02 0.  1.
    10030    2    1    2    0    0  0.00000000000E+00  0.00000000000E+00 -0.64163847381E+03  0.28309978934E+04  0.27573264481E+04 0.  0.
        1    1    3    3  502    0 -0.78736939112E+03  0.22216750531E+03  0.81851597806E+03  0.11572715173E+04  0.50400001928E-02 0. -1.
       -1    1    3    3    0  502  0.78736939112E+03 -0.22216750531E+03 -0.14601544519E+04  0.16737263760E+04  0.50400001928E-02 0.  1.
</event>
<event>
 5   0  0.3167616E-06  0.2804943E+04  0.7818609E-02  0.8301735E-01
        2   -1    0    0  501    0  0.00000000000E+00  0.00000000000E+00  0.20236307273E+04  0.20236307273E+04  0.25500000920E-02 0.  1.
       -2   -1    0    0    0  501  0.00000000000E+00  0.00000000000E+00 -0.97197884014E+03  0.97197884014E+03  0.25500000920E-02 0. -1.
    10030    2    1    2    0    0  0.00000000000E+00  0.00000000000E+00  0.10516518872E+04  0.29956095674E+04  0.28049429564E+04 0.  0.
        3    1    3    3  502    0  0.14627185981E+03 -0.10275584734E+04 -0.48150420471E+03  0.11441670257E+04  0.10100000352E+00 0. -1.
       -3    1    3    3    0  502 -0.14627185981E+03  0.10275584734E+04  0.15331560919E+04  0.18514425418E+04  0.10100000352E+00 0.  1.
</event>
<event>
 5   0  0.3167616E-06  0.2802433E+04  0.7818609E-02  0.8302513E-01
        2   -1    0    0  501    0  0.00000000000E+00  0.00000000000E+00  0.15024591523E+04  0.15024591523E+04  0.25500000920E-02 0.  1.
       -2   -1    0    0    0  501  0.00000000000E+00  0.00000000000E+00 -0.13067958510E+04  0.13067958510E+04  0.25500000920E-02 0. -1.
    10030    2    1    2    0    0  0.00000000000E+00  0.00000000000E+00  0.19566330127E+03  0.28092550032E+04  0.28024327906E+04 0.  0.
        3    1    3    3  502    0 -0.43916065721E+03  0.12503638958E+04  0.55406091931E+03  0.14364036575E+04  0.10100000352E+00 0.  1.
       -3    1    3    3    0  502  0.43916065721E+03 -0.12503638958E+04 -0.35839761803E+03  0.13728513458E+04  0.10100000352E+00 0. -1.
</event>
<event>
 5   0  0.1235252E-06  0.2804581E+04  0.7818609E-02  0.8301847E-01
       -1   -1    0    0    0  501  0.00000000000E+00  0.00000000000E+00  0.16509320441E+04  0.16509320441E+04  0.50400001928E-02 0.  1.
        1   -1    0    0  501    0  0.00000000000E+00  0.00000000000E+00 -0.11910962635E+04  0.11910962635E+04  0.50400001928E-02 0. -1.
    10030    2    1    2    0    0  0.00000000000E+00  0.00000000000E+00  0.45983578061E+03  0.28420283077E+04  0.28045812444E+04 0.  0.
        1    1    3    3  502    0  0.29939354717E+03  0.11933680929E+04 -0.45186182709E+03  0.13107032510E+04  0.50400001928E-02 0. -1.
       -1    1    3    3    0  502 -0.29939354717E+03 -0.11933680929E+04  0.91169760770E+03  0.15313250567E+04  0.50400001928E-02 0.  1.
</event>
<event>
 5   0  0.1243055E-06  0.2791621E+04  0.7818609E-02  0.8305874E-01
        1   -1    0    0  501    0  0.00000000000E+00  0.00000000000E+00  0.15150050843E+04  0.15150050843E+04  0.50400001928E-02 0.  1.
       -1   -1    0    0    0  501  0.00000000000E+00  0.00000000000E+00 -0.12859936058E+04  0.12859936058E+04  0.50400001928E-02 0. -1.
    10030    2    1    2    0    0  0.00000000000E+00  0.00000000000E+00  0.22901147854E+03  0.28009986901E+04  0.27916209278E+04 0.  0.
        5    1    3    3  502    0  0.10481813045E+04 -0.51185774383E+03  0.88361995110E+03  0.14633826243E+04  0.46999998093E+01 0.  1.
       -5    1    3    3    0  502 -0.10481813045E+04  0.51185774383E+03 -0.65460847257E+03  0.13376160658E+04  0.46999998093E+01 0. -1.
</event>
<event>
 5   0  0.3167616E-06  0.2787611E+04  0.7818609E-02  0.8307125E-01
       -2   -1    0    0    0  501  0.00000000000E+00  0.00000000000E+00  0.11303355457E+04  0.11303355457E+04  0.25500000920E-02 0.  1.
        2   -1    0    0  501    0  0.00000000000E+00  0.00000000000E+00 -0.17186877377E+04  0.17186877377E+04  0.25500000920E-02 0. -1.
    10030    2    1    2    0    0  0.00000000000E+00  0.00000000000E+00 -0.58835219204E+03  0.28490232834E+04  0.27876110503E+04 0.  0.
        3    1    3    3  502    0 -0.11178253965E+04  0.34285567462E+03  0.48122794865E+03  0.12643828453E+04  0.10100000352E+00 0.  1.
       -3    1    3    3    0  502  0.11178253965E+04 -0.34285567462E+03 -0.10695801407E+04  0.15846404382E+04  0.10100000352E+00 0. -1.
</event>
<event>
 5   0  0.1243055E-06  0.2811612E+04  0.7818609E-02  0.8299672E-01
       -1   -1    0    0    0  501  0.00000000000E+00  0.00000000000E+00  0.14772905129E+04  0.14772905129E+04  0.50400001928E-02 0. -1.
        1   -1    0    0  501    0  0.00000000000E+00  0.00000000000E+00 -0.13377800940E+04  0.13377800940E+04  0.50400001928E-02 0.  1.
    10030    2    1    2    0    0  0.00000000000E+00  0.00000000000E+00  0.13951041884E+03  0.28150706069E+04  0.28116115246E+04 0.  0.
        5    1    3    3  502    0  0.12636715129E+04 -0.29284620057E+02  0.68577183072E+03  0.14380641068E+04  0.46999998093E+01 0.  1.
       -5    1    3    3    0  502 -0.12636715129E+04  0.29284620057E+02 -0.54626141188E+03  0.13770065002E+04  0.46999998093E+01 0. -1.
</event>
<event>
 5   0  0.3345919E-06  0.2810172E+04  0.7818609E-02  0.8300117E-01
        2   -1    0    0  501    0  0.00000000000E+00  0.00000000000E+00  0.19379850356E+04  0.19379850356E+04  0.25500000920E-02 0. -1.
       -2   -1    0    0    0  501  0.00000000000E+00  0.00000000000E+00 -0.10187216124E+04  0.10187216124E+04  0.25500000920E-02 0.  1.
    10030    2    1    2    0    0  0.00000000000E+00  0.00000000000E+00  0.91926342328E+03  0.29567066480E+04  0.28101724077E+04 0.  0.
        2    1    3    3  502    0  0.44306408984E+03  0.92269259432E+03 -0.55316289597E+03  0.11634674902E+04  0.25500000920E-02 0.  1.
       -2    1    3    3    0  502 -0.44306408984E+03 -0.92269259432E+03  0.14724263192E+04  0.17932391578E+04  0.25500000920E-02 0. -1.
</event>
<event>
 5   0  0.1263513E-06  0.2798970E+04  0.7818609E-02  0.8303588E-01
       -1   -1    0    0    0  501  0.00000000000E+00  0.00000000000E+00  0.16072548703E+04  0.16072548703E+04  0.50400001928E-02 0. -1.
        1   -1    0    0  501    0  0.00000000000E+00  0.00000000000E+00 -0.12185732761E+04  0.12185732761E+04  0.50400001928E-02 0.  1.
    10030    2    1    2    0    0  0.00000000000E+00  0.00000000000E+00  0.38868159417E+03  0.28258281464E+04  0.27989696910E+04 0.  0.
        3    1    3    3  502    0 -0.97318297639E+03 -0.82592319303E+03  0.77371476199E+03  0.14926046930E+04  0.10100000352E+00 0. -1.
       -3    1    3    3    0  502  0.97318297639E+03  0.82592319303E+03 -0.38503316782E+03  0.13332234535E+04  0.10100000352E+00 0.  1.
</event>
<event>
 5   0  0.1235252E-06  0.2788526E+04  0.7818609E-02  0.8306839E-01
        1   -1    0    0  501    0  0.00000000000E+00  0.00000000000E+00  0.15241117701E+04  0.15241117701E+04  0.50400001928E-02 0.  1.
       -1   -1    0    0    0  501  0.00000000000E+00  0.00000000000E+00 -0.12754769178E+04  0.12754769178E+04  0.50400001928E-02 0. -1.
    10030    2    1    2    0    0  0.00000000000E+00  0.00000000000E+00  0.24863485233E+03  0.27995886879E+04  0.27885260500E+04 0.  0.
        1    1    3    3  502    0 -0.62926393387E+03  0.11568373461E+04  0.58409016420E+03  0.14406273160E+04  0.50400001928E-02 0.  1.
       -1    1    3    3    0  502  0.62926393387E+03 -0.11568373461E+04 -0.33545531187E+03  0.13589613718E+04  0.50400001928E-02 0. -1.
</event>
<event>
 5   0  0.1220265E-06  0.2807984E+04  0.7818609E-02  0.8300794E-01
       -1   -1    0    0    0  501  0.00000000000E+00  0.00000000000E+00  0.15401013869E+04  0.15401013869E+04  0.50400001928E-02 0.  1.
        1   -1    0    0  501    0  0.00000000000E+00  0.00000000000E+00 -0.12799110852E+04  0.12799110852E+04  0.50400001928E-02 0. -1.
    10030    2    1    2    0    0  0.00000000000E+00  0.00000000000E+00  0.26019030163E+03  0.28200124721E+04  0.28079835024E+04 0.  0.
        4    1    3    3  502    0 -0.45595692963E+03 -0.13193760644E+04 -0.20685630868E+02  0.13960943483E+04  0.12699999809E+01 0.  1.
       -4    1    3    3    0  502  0.45595692963E+03  0.13193760644E+04  0.28087593249E+03  0.14239181238E+04  0.12699999809E+01 0. -1.
</event>
<event>
 5   0  0.3212679E-06  0.2602549E+04  0.7818609E-02  0.8367336E-01
       -2   -1    0    0    0  501  0.00000000000E+00  0.00000000000E+00  0.15417516413E+04  0.15417516413E+04  0.25500000920E-02 0. -1.
        2   -1    0    0  501    0  0.00000000000E+00  0.00000000000E+00 -0.10983061395E+04  0.10983061395E+04  0.25500000920E-02 0.  1.
    10030    2    1    2    0    0  0.00000000000E+00  0.00000000000E+00  0.44344550179E+03  0.26400577808E+04  0.26025489760E+04 0.  0.
        4    1    3    3  502    0 -0.57565109674E+02  0.10806266344E+04  0.95480396183E+03  0.14431631520E+04  0.12699999809E+01 0. -1.
       -4    1    3    3    0  502  0.57565109674E+02 -0.10806266344E+04 -0.51135846004E+03  0.11968946288E+04  0.12699999809E+01 0.  1.
</event>
<event>
 5   0  0.1263513E-06  0.2798871E+04  0.7818609E-02  0.8303619E-01
        1   -1    0    0  501    0  0.00000000000E+00  0.00000000000E+00  0.21991603684E+04  0.21991603684E+04  0.50400001928E-02 0. -1.
       -1   -1    0    0    0  501  0.00000000000E+00  0.00000000000E+00 -0.89053080251E+03  0.89053080253E+03  0.50400001928E-02 0.  1.
    10030    2    1    2    0    0  0.00000000000E+00  0.00000000000E+00  0.13086295659E+04  0.30896911710E+04  0.27988712352E+04 0.  0.
        3    1    3    3  502    0  0.99033367141E+03 -0.32529984285E+03 -0.37642815104E+03  0.11082774615E+04  0.10100000352E+00 0.  1.
       -3    1    3    3    0  502 -0.99033367141E+03  0.32529984285E+03  0.16850577169E+04  0.19814137095E+04  0.10100000352E+00 0. -1.
</event>
<event>
 5   0  0.1243055E-06  0.2819638E+04  0.7818609E-02  0.8297198E-01
       -1   -1    0    0    0  501  0.00000000000E+00  0.00000000000E+00  0.11699054514E+04  0.11699054514E+04  0.50400001928E-02 0. -1.
        1   -1    0    0  501    0  0.00000000000E+00  0.00000000000E+00 -0.16989312448E+04  0.16989312448E+04  0.50400001928E-02 0.  1.
    10030    2    1    2    0    0  0.00000000000E+00  0.00000000000E+00 -0.52902579337E+03  0.28688366962E+04  0.28196375121E+04 0.  0.
        5    1    3    3  502    0  0.90855417612E+03  0.71164842511E+03  0.55933960055E+03  0.12824964135E+04  0.46999998093E+01 0. -1.
       -5    1    3    3    0  502 -0.90855417612E+03 -0.71164842511E+03 -0.10883653939E+04  0.15863402827E+04  0.46999998093E+01 0.  1.
</event>
<event>
 5   0  0.1220265E-06  0.2804726E+04  0.7818609E-02  0.8301803E-01
        1   -1    0    0  501    0  0.00000000000E+00  0.00000000000E+00  0.21010915037E+04  0.21010915037E+04  0.50400001928E-02 0.  1.
       -1   -1    0    0    0  501  0.00000000000E+00  0.00000000000E+00 -0.93599999855E+03  0.93599999856E+03  0.50400001928E-02 0. -1.
    10030    2    1    2    0    0  0.00000000000E+00  0.00000000000E+00  0.11650915051E+04  0.30370915022E+04  0.28047257580E+04 0.  0.
        4    1    3    3  502    0  0.47500529830E+03 -0.10500345015E+04 -0.28266095996E+03  0.11866344504E+04  0.12699999809E+01 0. -1.
       -4    1    3    3    0  502 -0.47500529830E+03  0.10500345015E+04  0.14477524651E+04  0.18504570518E+04  0.12699999809E+01 0.  1.
</event>
<event>
 5   0  0.3345919E-06  0.2791143E+04  0.7818609E-02  0.8306023E-01
       -2   -1    0    0    0  501  0.00000000000E+00  0.00000000000E+00  0.72022916359E+03  0.72022916360E+03  0.25500000920E-02 0.  1.
        2   -1    0    0  501    0  0.00000000000E+00  0.00000000000E+00 -0.27041660923E+04  0.27041660923E+04  0.25500000920E-02 0. -1.
    10030    2    1    2    0    0  0.00000000000E+00  0.00000000000E+00 -0.19839369287E+04  0.34243952559E+04  0.27911426211E+04 0.  0.
        2    1    3    3  502    0 -0.93724394566E+03  0.45707851356E+03 -0.21299096815E+04  0.23714683706E+04  0.25500000920E-02 0. -1.
       -2    1    3    3    0  502  0.93724394566E+03 -0.45707851356E+03  0.14597275282E+03  0.10529268853E+04  0.25500000920E-02 0.  1.
</event>
<event>
 5   0  0.3212679E-06  0.2806997E+04  0.7818609E-02  0.8301099E-01
       -2   -1    0    0    0  501  0.00000000000E+00  0.00000000000E+00  0.10551755430E+04  0.10551755430E+04  0.25500000920E-02 0.  1.
        2   -1    0    0  501    0  0.00000000000E+00  0.00000000000E+00 -0.18668063509E+04  0.18668063509E+04  0.25500000920E-02 0. -1.
    10030    2    1    2    0    0  0.00000000000E+00  0.00000000000E+00 -0.81163080787E+03  0.29219818939E+04  0.28069972604E+04 0.  0.
        4    1    3    3  502    0 -0.84952702665E+03 -0.18803440162E+02 -0.15686034236E+04  0.17839753507E+04  0.12699999809E+01 0. -1.
       -4    1    3    3    0  502  0.84952702665E+03  0.18803440162E+02  0.75697261576E+03  0.11380065432E+04  0.12699999809E+01 0.  1.
</event>
<event>
 5   0  0.3212679E-06  0.2808742E+04  0.7818609E-02  0.8300559E-01
       -2   -1    0    0    0  501  0.00000000000E+00  0.00000000000E+00  0.13604078779E+04  0.13604078779E+04  0.25500000920E-02 0.  1.
        2   -1    0    0  501    0  0.00000000000E+00  0.00000000000E+00 -0.14497548750E+04  0.14497548750E+04  0.25500000920E-02 0. -1.
    10030    2    1    2    0    0  0.00000000000E+00  0.00000000000E+00 -0.89346997144E+02  0.28101627529E+04  0.28087420337E+04 0.  0.
        4    1    3    3  502    0  0.75273404485E+03  0.82866248061E+03  0.80367419590E+03  0.13781088038E+04  0.12699999809E+01 0.  1.
       -4    1    3    3    0  502 -0.75273404485E+03 -0.82866248061E+03 -0.89302119304E+03  0.14320539491E+04  0.12699999809E+01 0. -1.
</event>
<event>
 5   0  0.1220265E-06  0.2782573E+04  0.7818609E-02  0.8308699E-01
       -1   -1    0    0    0  501  0.00000000000E+00  0.00000000000E+00  0.83175326805E+03  0.83175326807E+03  0.50400001928E-02 0. -1.
        1   -1    0    0  501    0  0.00000000000E+00  0.00000000000E+00 -0.23272269781E+04  0.23272269781E+04  0.50400001928E-02 0.  1.
    10030    2    1    2    0    0  0.00000000000E+00  0.00000000000E+00 -0.14954737100E+04  0.31589802461E+04  0.27825733734E+04 0.  0.
        4    1    3    3  502    0 -0.70133370944E+03  0.11612732587E+04 -0.39735756604E+03  0.14136191855E+04  0.12699999809E+01 0. -1.
       -4    1    3    3    0  502  0.70133370944E+03 -0.11612732587E+04 -0.10981161440E+04  0.17453610606E+04  0.12699999809E+01 0.  1.
</event>
<event>
 5   0  0.3345919E-06  0.2815232E+04  0.7818609E-02  0.8298555E-01
        2   -1    0    0  501    0  0.00000000000E+00  0.00000000000E+00  0.12787545887E+04  0.12787545887E+04  0.25500000920E-02 0. -1.
       -2   -1    0    0    0  501  0.00000000000E+00  0.00000000000E+00 -0.15494627237E+04  0.15494627237E+04  0.25500000920E-02 0.  1.
    10030    2    1    2    0    0  0.00000000000E+00  0.00000000000E+00 -0.27070813498E+03  0.28282173124E+04  0.28152318327E+04 0.  0.
        2    1    3    3  502    0  0.88433096556E+03 -0.54070145858E+02  0.96350003044E+03  0.13089297712E+04  0.25500000920E-02 0. -1.
       -2    1    3    3    0  502 -0.88433096556E+03  0.54070145858E+02 -0.12342081654E+04  0.15192875412E+04  0.25500000920E-02 0.  1.
</event>
<event>
 5   0  0.3212679E-06  0.2794154E+04  0.7818609E-02  0.8305086E-01
        2   -1    0    0  501    0  0.00000000000E+00  0.00000000000E+00  0.16931007560E+04  0.16931007560E+04  0.25500000920E-02 0. -1.
       -2   -1    0    0    0  501  0.00000000000E+00  0.00000000000E+00 -0.11528100649E+04  0.11528100649E+04  0.25500000920E-02 0.  1.
    10030    2    1    2    0    0  0.00000000000E+00  0.00000000000E+00  0.54029069114E+03  0.28459108209E+04  0.27941536052E+04 0.  0.
        4    1    3    3  502    0  0.16095352413E+03  0.77069954440E+03  0.14456193785E+04  0.16461168929E+04  0.12699999809E+01 0. -1.
       -4    1    3    3    0  502 -0.16095352413E+03 -0.77069954440E+03 -0.90532868734E+03  0.11997939280E+04  0.12699999809E+01 0.  1.
</event>
<event>
 5   0  0.3226364E-06  0.2800644E+04  0.7818609E-02  0.8303069E-01
       -2   -1    0    0    0  501  0.00000000000E+00  0.00000000000E+00  0.11919474357E+04  0.11919474357E+04  0.25500000920E-02 0. -1.
        2   -1    0    0  501    0  0.00000000000E+00  0.00000000000E+00 -0.16451240975E+04  0.16451240975E+04  0.25500000920E-02 0.  1.
    10030    2    1    2    0    0  0.00000000000E+00  0.00000000000E+00 -0.45317666181E+03  0.28370715331E+04  0.28006438184E+04 0.  0.
        5    1    3    3  502    0 -0.13459211123E+04  0.36218116036E+03 -0.36325240827E+03  0.14403656604E+04  0.46999998093E+01 0.  1.
       -5    1    3    3    0  502  0.13459211123E+04 -0.36218116036E+03 -0.89924253540E+02  0.13967058727E+04  0.46999998093E+01 0. -1.
</event>
<event>
 5   0  0.1246044E-06  0.2792691E+04  0.7818609E-02  0.8305541E-01
       -1   -1    0    0    0  501  0.00000000000E+00  0.00000000000E+00  0.92816580961E+03  0.92816580963E+03  0.50400001928E-02 0. -1.
        1   -1    0    0  501    0  0.00000000000E+00  0.00000000000E+00 -0.21006811115E+04  0.21006811115E+04  0.50400001928E-02 0.  1.
    10030    2    1    2    0    0  0.00000000000E+00  0.00000000000E+00 -0.11725153019E+04  0.30288469211E+04  0.27926907345E+04 0.  0.
        2    1    3    3  502    0 -0.55850479108E+03 -0.42352961373E+03  0.72353950132E+03  0.10073799409E+04  0.25500000920E-02 0. -1.
       -2    1    3    3    0  502  0.55850479108E+03  0.42352961373E+03 -0.18960548032E+04  0.20214669802E+04  0.25500000920E-02 0.  1.
</event>
<event>
 5   0  0.3226364E-06  0.2803326E+04  0.7818609E-02  0.8302237E-01
       -2   -1    0    0    0  501  0.00000000000E+00  0.00000000000E+00  0.88194054770E+03  0.88194054770E+03  0.25500000920E-02 0.  1.
        2   -1    0    0  501    0  0.00000000000E+00  0.00000000000E+00 -0.22276542864E+04  0.22276542864E+04  0.25500000920E-02 0. -1.
    10030    2    1    2    0    0  0.00000000000E+00  0.00000000000E+00 -0.13457137387E+04  0.31095948341E+04  0.28033256260E+04 0.  0.
        5    1    3    3  502    0 -0.43157535861E+03 -0.50426399083E+03  0.69656284535E+03  0.96216492875E+03  0.46999998093E+01 0.  1.
       -5    1    3    3    0  502  0.43157535861E+03  0.50426399083E+03 -0.20422765840E+04  0.21474299053E+04  0.46999998093E+01 0. -1.
</event>
<event>
 5   0  0.1065675E-06  0.2773631E+04  0.7818609E-02  0.8311502E-01
        3   -1    0    0  501    0  0.00000000000E+00  0.00000000000E+00  0.13139166716E+04  0.13139166754E+04  0.10100000352E+00 0. -1.
       -3   -1    0    0    0  501  0.00000000000E+00  0.00000000000E+00 -0.14637584380E+04  0.14637584415E+04  0.10100000352E+00 0.  1.
    10030    2    1    2    0    0  0.00000000000E+00  0.00000000000E+00 -0.14984176647E+03  0.27776751169E+04  0.27736305631E+04 0.  0.
        4    1    3    3  502    0 -0.81600842702E+02  0.11526599864E+04 -0.84283188031E+03  0.14302625400E+04  0.12699999809E+01 0.  1.
       -4    1    3    3    0  502  0.81600842702E+02 -0.11526599864E+04  0.69299011384E+03  0.13474125770E+04  0.12699999809E+01 0. -1.
</event>
<event>
 5   0  0.1246044E-06  0.2800921E+04  0.7818609E-02  0.8302982E-01
        1   -1    0    0  501    0  0.00000000000E+00  0.00000000000E+00  0.19905993574E+04  0.19905993574E+04  0.50400001928E-02 0. -1.
       -1   -1    0    0    0  501  0.00000000000E+00  0.00000000000E+00 -0.98527589485E+03  0.98527589486E+03  0.50400001928E-02 0.  1.
    10030    2    1    2    0    0  0.00000000000E+00  0.00000000000E+00  0.10053234625E+04  0.29758752522E+04  0.28009209651E+04 0.  0.
        2    1    3    3  502    0  0.93997947481E+03 -0.54679726491E+03  0.14402461041E+04  0.18046765645E+04  0.25500000920E-02 0. -1.
       -2    1    3    3    0  502 -0.93997947481E+03  0.54679726491E+03 -0.43492264161E+03  0.11711986877E+04  0.25500000920E-02 0.  1.
</event>
<event>
 5   0  0.3162695E-06  0.2807384E+04  0.7818609E-02  0.8300980E-01
       -2   -1    0    0    0  501  0.00000000000E+00  0.00000000000E+00  0.15813398230E+04  0.15813398230E+04  0.25500000920E-02 0.  1.
        2   -1    0    0  501    0  0.00000000000E+00  0.00000000000E+00 -0.12460012770E+04  0.12460012770E+04  0.25500000920E-02 0. -1.
    10030    2    1    2    0    0  0.00000000000E+00  0.00000000000E+00  0.33533854598E+03  0.28273411000E+04  0.28073841482E+04 0.  0.
        1    1    3    3  502    0  0.77642812314E+02 -0.65429491421E+03 -0.10805855128E+04  0.12656205164E+04  0.50400001928E-02 0. -1.
       -1    1    3    3    0  502 -0.77642812314E+02  0.65429491421E+03  0.14159240588E+04  0.15617205836E+04  0.50400001928E-02 0.  1.
</event>
<event>
 5   0  0.1220265E-06  0.2792594E+04  0.7818609E-02  0.8305571E-01
        1   -1    0    0  501    0  0.00000000000E+00  0.00000000000E+00  0.20076164957E+04  0.20076164957E+04  0.50400001928E-02 0.  1.
       -1   -1    0    0    0  501  0.00000000000E+00  0.00000000000E+00 -0.97112404100E+03  0.97112404102E+03  0.50400001928E-02 0. -1.
    10030    2    1    2    0    0  0.00000000000E+00  0.00000000000E+00  0.10364924547E+04  0.29787405367E+04  0.27925935215E+04 0.  0.
        4    1    3    3  502    0 -0.41956016293E+03  0.57583510192E+03 -0.76264287420E+03  0.10436678405E+04  0.12699999809E+01 0. -1.
       -4    1    3    3    0  502  0.41956016293E+03 -0.57583510192E+03  0.17991353289E+04  0.19350726962E+04  0.12699999809E+01 0.  1.
</event>
<event>
 5   0  0.3167616E-06  0.2804705E+04  0.7818609E-02  0.8301809E-01
        2   -1    0    0  501    0  0.00000000000E+00  0.00000000000E+00  0.11942630799E+04  0.11942630799E+04  0.25500000920E-02 0.  1.
       -2   -1    0    0    0  501  0.00000000000E+00  0.00000000000E+00 -0.16466990457E+04  0.16466990457E+04  0.25500000920E-02 0. -1.
    10030    2    1    2    0    0  0.00000000000E+00  0.00000000000E+00 -0.45243596585E+03  0.28409621256E+04  0.28047045291E+04 0.  0.
        3    1    3    3  502    0  0.10938288702E+04 -0.17395565284E+03 -0.10974943783E+04  0.15592357382E+04  0.10100000352E+00 0. -1.
       -3    1    3    3    0  502 -0.10938288702E+04  0.17395565284E+03  0.64505841245E+03  0.12817263874E+04  0.10100000352E+00 0.  1.
</event>
<event>
 5   0  0.1243055E-06  0.2794079E+04  0.7818609E-02  0.8305109E-01
       -1   -1    0    0    0  501  0.00000000000E+00  0.00000000000E+00  0.12711293832E+04  0.12711293832E+04  0.50400001928E-02 0. -1.
        1   -1    0    0  501    0  0.00000000000E+00  0.00000000000E+00 -0.15354217568E+04  0.15354217568E+04  0.50400001928E-02 0.  1.
    10030    2    1    2    0    0  0.00000000000E+00  0.00000000000E+00 -0.26429237358E+03  0.28065511400E+04  0.27940792478E+04 0.  0.
        5    1    3    3  502    0  0.10192790577E+04 -0.57969911817E+03 -0.89495468917E+03  0.14751090979E+04  0.46999998093E+01 0.  1.
       -5    1    3    3    0  502 -0.10192790577E+04  0.57969911817E+03  0.63066231559E+03  0.13314420421E+04  0.46999998093E+01 0. -1.
</event>
<event>
 5   0  0.1263513E-06  0.2790750E+04  0.7818609E-02  0.8306146E-01
        1   -1    0    0  501    0  0.00000000000E+00  0.00000000000E+00  0.14450551040E+04  0.14450551040E+04  0.50400001928E-02 0.  1.
       -1   -1    0    0    0  501  0.00000000000E+00  0.00000000000E+00 -0.13474031724E+04  0.13474031724E+04  0.50400001928E-02 0. -1.
    10030    2    1    2    0    0  0.00000000000E+00  0.00000000000E+00  0.97651931617E+02  0.27924582764E+04  0.27907503159E+04 0.  0.
        3    1    3    3  502    0  0.54906020477E+03  0.15446462945E+03  0.13230830198E+04  0.14407897548E+04  0.10100000352E+00 0.  1.
       -3    1    3    3    0  502 -0.54906020477E+03 -0.15446462945E+03 -0.12254310882E+04  0.13516685216E+04  0.10100000352E+00 0. -1.
</event>
<event>
 5   0  0.3345919E-06  0.2801452E+04  0.7818609E-02  0.8302818E-01
       -2   -1    0    0    0  501  0.00000000000E+00  0.00000000000E+00  0.97743944278E+03  0.97743944279E+03  0.25500000920E-02 0. -1.
        2   -1    0    0  501    0  0.00000000000E+00  0.00000000000E+00 -0.20073197569E+04  0.20073197569E+04  0.25500000920E-02 0.  1.
    10030    2    1    2    0    0  0.00000000000E+00  0.00000000000E+00 -0.10298803141E+04  0.29847591997E+04  0.28014521268E+04 0.  0.
        2    1    3    3  502    0 -0.21030895361E+03 -0.11324950374E+04  0.33424302425E+03  0.11993720294E+04  0.25500000920E-02 0. -1.
       -2    1    3    3    0  502  0.21030895361E+03  0.11324950374E+04 -0.13641233384E+04  0.17853871703E+04  0.25500000920E-02 0.  1.
</event>
<event>
 5   0  0.3226364E-06  0.2802136E+04  0.7818609E-02  0.8302606E-01
       -2   -1    0    0    0  501  0.00000000000E+00  0.00000000000E+00  0.14537715752E+04  0.14537715752E+04  0.25500000920E-02 0.  1.
        2   -1    0    0  501    0  0.00000000000E+00  0.00000000000E+00 -0.13502751074E+04  0.13502751074E+04  0.25500000920E-02 0. -1.
    10030    2    1    2    0    0  0.00000000000E+00  0.00000000000E+00  0.10349646786E+03  0.28040466826E+04  0.28021360208E+04 0.  0.
        5    1    3    3  502    0 -0.35131503650E+03 -0.12532212196E+04  0.57073835212E+03  0.14211791009E+04  0.46999998093E+01 0.  1.
       -5    1    3    3    0  502  0.35131503650E+03  0.12532212196E+04 -0.46724188426E+03  0.13828675817E+04  0.46999998093E+01 0. -1.
</event>
<event>
 5   0  0.1220265E-06  0.2805979E+04  0.7818609E-02  0.8301414E-01
        1   -1    0    0  501    0  0.00000000000E+00  0.00000000000E+00  0.18242211112E+04  0.18242211112E+04  0.50400001928E-02 0. -1.
       -1   -1    0    0    0  501  0.00000000000E+00  0.00000000000E+00 -0.10790248040E+04  0.10790248040E+04  0.50400001928E-02 0.  1.
    10030    2    1    2    0    0  0.00000000000E+00  0.00000000000E+00  0.74519630719E+03  0.29032459152E+04  0.28059792066E+04 0.  0.
        4    1    3    3  502    0  0.25171336756E+03 -0.12231906925E+04 -0.28895859138E+03  0.12818165899E+04  0.12699999809E+01 0.  1.
       -4    1    3    3    0  502 -0.25171336756E+03  0.12231906925E+04  0.10341548986E+04  0.16214293253E+04  0.12699999809E+01 0. -1.
</event>
<event>
 5   0  0.3212679E-06  0.2796657E+04  0.7818609E-02  0.8304307E-01
        2   -1    0    0  501    0  0.00000000000E+00  0.00000000000E+00  0.13391831630E+04  0.13391831630E+04  0.25500000920E-02 0. -1.
       -2   -1    0    0    0  501  0.00000000000E+00  0.00000000000E+00 -0.14600861871E+04  0.14600861871E+04  0.25500000920E-02 0.  1.
    10030    2    1    2    0    0  0.00000000000E+00  0.00000000000E+00 -0.12090302414E+03  0.27992693501E+04  0.27966571747E+04 0.  0.
        4    1    3    3  502    0  0.12372895778E+04  0.59249057198E+03  0.21070860858E+03  0.13879230194E+04  0.12699999809E+01 0.  1.
       -4    1    3    3    0  502 -0.12372895778E+04 -0.59249057198E+03 -0.33161163271E+03  0.14113463307E+04  0.12699999809E+01 0. -1.
</event>
<event>
 5   0  0.1243055E-06  0.2800378E+04  0.7818609E-02  0.8303151E-01
       -1   -1    0    0    0  501  0.00000000000E+00  0.00000000000E+00  0.11605561424E+04  0.11605561424E+04  0.50400001928E-02 0.  1.
        1   -1    0    0  501    0  0.00000000000E+00  0.00000000000E+00 -0.16893014638E+04  0.16893014638E+04  0.50400001928E-02 0. -1.
    10030    2    1    2    0    0  0.00000000000E+00  0.00000000000E+00 -0.52874532140E+03  0.28498576063E+04  0.28003779675E+04 0.  0.
        5    1    3    3  502    0  0.62310881014E+02  0.10594643170E+04 -0.11938335954E+04  0.15973753561E+04  0.46999998093E+01 0. -1.
       -5    1    3    3    0  502 -0.62310881014E+02 -0.10594643170E+04  0.66508827399E+03  0.12524822502E+04  0.46999998093E+01 0.  1.
</event>
<event>
 5   0  0.3345919E-06  0.2801273E+04  0.7818609E-02  0.8302873E-01
        2   -1    0    0  501    0  0.00000000000E+00  0.00000000000E+00  0.23548919856E+04  0.23548919856E+04  0.25500000920E-02 0. -1.
       -2   -1    0    0    0  501  0.00000000000E+00  0.00000000000E+00 -0.83306711655E+03  0.83306711655E+03  0.25500000920E-02 0.  1.
    10030    2    1    2    0    0  0.00000000000E+00  0.00000000000E+00  0.15218248691E+04  0.31879591022E+04  0.28012733364E+04 0.  0.
        2    1    3    3  502    0 -0.79981190798E+03 -0.99100119692E+03  0.14244982674E+04  0.19107531956E+04  0.25500000920E-02 0. -1.
       -2    1    3    3    0  502  0.79981190798E+03  0.99100119692E+03  0.97326601623E+02  0.12772059066E+04  0.25500000920E-02 0.  1.
</event>
<event>
 5   0  0.3167616E-06  0.2802648E+04  0.7818609E-02  0.8302447E-01
       -2   -1    0    0    0  501  0.00000000000E+00  0.00000000000E+00  0.11635535587E+04  0.11635535587E+04  0.25500000920E-02 0.  1.
        2   -1    0    0  501    0  0.00000000000E+00  0.00000000000E+00 -0.16876828377E+04  0.16876828377E+04  0.25500000920E-02 0. -1.
    10030    2    1    2    0    0  0.00000000000E+00  0.00000000000E+00 -0.52412927902E+03  0.28512363965E+04  0.28026482989E+04 0.  0.
        3    1    3    3  502    0  0.71632135317E+02  0.91265319423E+03  0.81729167216E+03  0.12272052409E+04  0.10100000352E+00 0.  1.
       -3    1    3    3    0  502 -0.71632135317E+02 -0.91265319423E+03 -0.13414209512E+04  0.16240311556E+04  0.10100000352E+00 0. -1.
</event>
<event>
 5   0  0.1246044E-06  0.2815370E+04  0.7818609E-02  0.8298512E-01
       -1   -1    0    0    0  501  0.00000000000E+00  0.00000000000E+00  0.10387493119E+04  0.10387493119E+04  0.50400001928E-02 0. -1.
        1   -1    0    0  501    0  0.00000000000E+00  0.00000000000E+00 -0.19076564492E+04  0.19076564492E+04  0.50400001928E-02 0.  1.
    10030    2    1    2    0    0  0.00000000000E+00  0.00000000000E+00 -0.86890713735E+03  0.29464057611E+04  0.28153698328E+04 0.  0.
        2    1    3    3  502    0 -0.64029960093E+03 -0.45309655499E+03 -0.16577441192E+04  0.18339562786E+04  0.25500000920E-02 0.  1.
       -2    1    3    3    0  502  0.64029960093E+03  0.45309655499E+03  0.78883698186E+03  0.11124494825E+04  0.25500000920E-02 0. -1.
</event>
<event>
 5   0  0.1243055E-06  0.2773501E+04  0.7818609E-02  0.8311543E-01
       -1   -1    0    0    0  501  0.00000000000E+00  0.00000000000E+00  0.33128688817E+04  0.33128688817E+04  0.50400001928E-02 0. -1.
        1   -1    0    0  501    0  0.00000000000E+00  0.00000000000E+00 -0.58048687856E+03  0.58048687858E+03  0.50400001928E-02 0.  1.
    10030    2    1    2    0    0  0.00000000000E+00  0.00000000000E+00  0.27323820032E+04  0.38933557603E+04  0.27735009762E+04 0.  0.
        5    1    3    3  502    0  0.63776595260E+03 -0.12092116573E+04  0.10396325309E+04  0.17174970544E+04  0.46999998093E+01 0.  1.
       -5    1    3    3    0  502 -0.63776595260E+03  0.12092116573E+04  0.16927494723E+04  0.21758587060E+04  0.46999998093E+01 0. -1.
</event>
<event>
 5   0  0.3167616E-06  0.2791564E+04  0.7818609E-02  0.8305892E-01
       -2   -1    0    0    0  501  0.00000000000E+00  0.00000000000E+00  0.74969580093E+03  0.74969580093E+03  0.25500000920E-02 0.  1.
        2   -1    0    0  501    0  0.00000000000E+00  0.00000000000E+00 -0.25986635601E+04  0.25986635601E+04  0.25500000920E-02 0. -1.
    10030    2    1    2    0    0  0.00000000000E+00  0.00000000000E+00 -0.18489677591E+04  0.33483593610E+04  0.27915638334E+04 0.  0.
        3    1    3    3  502    0 -0.33507016426E+02  0.14829812160E+03 -0.25887020313E+04  0.25931627928E+04  0.10100000352E+00 0. -1.
       -3    1    3    3    0  502  0.33507016426E+02 -0.14829812160E+03  0.73973427215E+03  0.75519656819E+03  0.10100000352E+00 0.  1.
</event>
<event>
 5   0  0.3167616E-06  0.2804701E+04  0.7818609E-02  0.8301810E-01
        2   -1    0    0  501    0  0.00000000000E+00  0.00000000000E+00  0.61844948108E+03  0.61844948108E+03  0.25500000920E-02 0. -1.
       -2   -1    0    0    0  501  0.00000000000E+00  0.00000000000E+00 -0.31798672084E+04  0.31798672084E+04  0.25500000920E-02 0.  1.
    10030    2    1    2    0    0  0.00000000000E+00  0.00000000000E+00 -0.25614177273E+04  0.37983166895E+04  0.28047012140E+04 0.  0.
        3    1    3    3  502    0  0.36602828572E+03  0.38701326707E+03 -0.30375190953E+04  0.30838739013E+04  0.10100000352E+00 0.  1.
       -3    1    3    3    0  502 -0.36602828572E+03 -0.38701326707E+03  0.47610136794E+03  0.71444278819E+03  0.10100000352E+00 0. -1.
</event>
<event>
 5   0  0.3345919E-06  0.2797816E+04  0.7818609E-02  0.8303947E-01
        2   -1    0    0  501    0  0.00000000000E+00  0.00000000000E+00  0.12836304105E+04  0.12836304105E+04  0.25500000920E-02 0.  1.
       -2   -1    0    0    0  501  0.00000000000E+00  0.00000000000E+00 -0.15245384576E+04  0.15245384576E+04  0.25500000920E-02 0. -1.
    10030    2    1    2    0    0  0.00000000000E+00  0.00000000000E+00 -0.24090804714E+03  0.28081688682E+04  0.27978162386E+04 0.  0.
        2    1    3    3  502    0 -0.76989040794E+03  0.64063091295E+03  0.85978901640E+03  0.13199910453E+04  0.25500000920E-02 0.  1.
       -2    1    3    3    0  502  0.76989040794E+03 -0.64063091295E+03 -0.11006970635E+04  0.14881778229E+04  0.25500000920E-02 0. -1.
</event>
<event>
 5   0  0.1235252E-06  0.2796126E+04  0.7818609E-02  0.8304472E-01
        1   -1    0    0  501    0  0.00000000000E+00  0.00000000000E+00  0.18256028997E+04  0.18256028997E+04  0.50400001928E-02 0.  1.
       -1   -1    0    0    0  501  0.00000000000E+00  0.00000000000E+00 -0.10706490021E+04  0.10706490021E+04  0.50400001928E-02 0. -1.
    10030    2    1    2    0    0  0.00000000000E+00  0.00000000000E+00  0.75495389755E+03  0.28962519018E+04  0.27961258361E+04 0.  0.
        1    1    3    3  502    0 -0.19548579045E+02  0.45454431817E+03 -0.99182445048E+03  0.10911958691E+04  0.50400001928E-02 0. -1.
       -1    1    3    3    0  502  0.19548579045E+02 -0.45454431817E+03  0.17467783480E+04  0.18050560327E+04  0.50400001928E-02 0.  1.
</event>
<event>
 5   0  0.3212679E-06  0.2806342E+04  0.7818609E-02  0.8301302E-01
        2   -1    0    0  501    0  0.00000000000E+00  0.00000000000E+00  0.12024533188E+04  0.12024533188E+04  0.25500000920E-02 0. -1.
       -2   -1    0    0    0  501  0.00000000000E+00  0.00000000000E+00 -0.16373935975E+04  0.16373935975E+04  0.25500000920E-02 0.  1.
    10030    2    1    2    0    0  0.00000000000E+00  0.00000000000E+00 -0.43494027877E+03  0.28398469163E+04  0.28063423637E+04 0.  0.
        4    1    3    3  502    0 -0.36218882419E+02 -0.12241030501E+04  0.47565086247E+03  0.13137676509E+04  0.12699999809E+01 0. -1.
       -4    1    3    3    0  502  0.36218882419E+02  0.12241030501E+04 -0.91059114124E+03  0.15260792654E+04  0.12699999809E+01 0.  1.
</event>
<event>
 5   0  0.3167616E-06  0.2795873E+04  0.7818609E-02  0.8304551E-01
        2   -1    0    0  501    0  0.00000000000E+00  0.00000000000E+00  0.12916533441E+04  0.12916533441E+04  0.25500000920E-02 0.  1.
       -2   -1    0    0    0  501  0.00000000000E+00  0.00000000000E+00 -0.15129651880E+04  0.15129651880E+04  0.25500000920E-02 0. -1.
    10030    2    1    2    0    0  0.00000000000E+00  0.00000000000E+00 -0.22131184385E+03  0.28046185321E+04  0.27958730619E+04 0.  0.
        3    1    3    3  502    0  0.17783979700E+03  0.25860581492E+03  0.12558542695E+04  0.12944782414E+04  0.10100000352E+00 0.  1.
       -3    1    3    3    0  502 -0.17783979700E+03 -0.25860581492E+03 -0.14771661134E+04  0.15101402907E+04  0.10100000352E+00 0. -1.
</event>
<event>
 5   0  0.1246044E-06  0.2777008E+04  0.7818609E-02  0.8310442E-01
        1   -1    0    0  501    0  0.00000000000E+00  0.00000000000E+00  0.23718036251E+04  0.23718036251E+04  0.50400001928E-02 0. -1.
       -1   -1    0    0    0  501  0.00000000000E+00  0.00000000000E+00 -0.81285973822E+03  0.81285973823E+03  0.50400001928E-02 0.  1.
    10030    2    1    2    0    0  0.00000000000E+00  0.00000000000E+00  0.15589438869E+04  0.31846633634E+04  0.27770082275E+04 0.  0.
        2    1    3    3  502    0 -0.52750023195E+03  0.46907039559E+03 -0.59173426272E+03  0.92110421149E+03  0.25500000920E-02 0.  1.
       -2    1    3    3    0  502  0.52750023195E+03 -0.46907039559E+03  0.21506781496E+04  0.22635591519E+04  0.25500000920E-02 0. -1.
</event>
<event>
 5   0  0.1235252E-06  0.2791837E+04  0.7818609E-02  0.8305807E-01
        1   -1    0    0  501    0  0.00000000000E+00  0.00000000000E+00  0.12462096192E+04  0.12462096193E+04  0.50400001928E-02 0.  1.
       -1   -1    0    0    0  501  0.00000000000E+00  0.00000000000E+00 -0.15636119051E+04  0.15636119051E+04  0.50400001928E-02 0. -1.
    10030    2    1    2    0    0  0.00000000000E+00  0.00000000000E+00 -0.31740228582E+03  0.28098215243E+04  0.27918368125E+04 0.  0.
        1    1    3    3  502    0  0.16920510791E+03  0.71517769057E+03  0.10357375052E+04  0.12699849123E+04  0.50400001928E-02 0.  1.
       -1    1    3    3    0  502 -0.16920510791E+03 -0.71517769057E+03 -0.13531397911E+04  0.15398366120E+04  0.50400001928E-02 0. -1.
</event>
<event>
 5   0  0.3162695E-06  0.2739171E+04  0.7818609E-02  0.8322406E-01
       -2   -1    0    0    0  501  0.00000000000E+00  0.00000000000E+00  0.11346323760E+04  0.11346323760E+04  0.25500000920E-02 0.  1.
        2   -1    0    0  501    0  0.00000000000E+00  0.00000000000E+00 -0.16531918633E+04  0.16531918633E+04  0.25500000920E-02 0. -1.
    10030    2    1    2    0    0  0.00000000000E+00  0.00000000000E+00 -0.51855948732E+03  0.27878242393E+04  0.27391714162E+04 0.  0.
        1    1    3    3  502    0  0.95554241426E+03  0.38709448953E+03 -0.11768819997E+04  0.15645940977E+04  0.50400001928E-02 0. -1.
       -1    1    3    3    0  502 -0.95554241426E+03 -0.38709448953E+03  0.65832251233E+03  0.12232301417E+04  0.50400001928E-02 0.  1.
</event>
<event>
 5   0  0.1243055E-06  0.2807628E+04  0.7818609E-02  0.8300904E-01
       -1   -1    0    0    0  501  0.00000000000E+00  0.00000000000E+00  0.11745545668E+04  0.11745545668E+04  0.50400001928E-02 0.  1.
        1   -1    0    0  501    0  0.00000000000E+00  0.00000000000E+00 -0.16778222560E+04  0.16778222560E+04  0.50400001928E-02 0. -1.
    10030    2    1    2    0    0  0.00000000000E+00  0.00000000000E+00 -0.50326768924E+03  0.28523768228E+04  0.28076280331E+04 0.  0.
        5    1    3    3  502    0  0.31067041441E+03 -0.57298932177E+03 -0.15147678743E+04  0.16490532654E+04  0.46999998093E+01 0. -1.
       -5    1    3    3    0  502 -0.31067041441E+03  0.57298932177E+03  0.10115001851E+04  0.12033235573E+04  0.46999998093E+01 0.  1.
</event>
<event>
 5   0  0.1235252E-06  0.2803815E+04  0.7818609E-02  0.8302085E-01
        1   -1    0    0  501    0  0.00000000000E+00  0.00000000000E+00  0.92903968397E+03  0.92903968399E+03  0.50400001928E-02 0.  1.
       -1   -1    0    0    0  501  0.00000000000E+00  0.00000000000E+00 -0.21154586355E+04  0.21154586355E+04  0.50400001928E-02 0. -1.
    10030    2    1    2    0    0  0.00000000000E+00  0.00000000000E+00 -0.11864189515E+04  0.30444983195E+04  0.28038152737E+04 0.  0.
        1    1    3    3  502    0 -0.12394785421E+04  0.11852002081E+03 -0.12927061680E+04  0.17948379560E+04  0.50400001928E-02 0. -1.
       -1    1    3    3    0  502  0.12394785421E+04 -0.11852002081E+03  0.10628721651E+03  0.12496603634E+04  0.50400001928E-02 0.  1.
</event>
<event>
 5   0  0.3167616E-06  0.2792429E+04  0.7818609E-02  0.8305623E-01
       -2   -1    0    0    0  501  0.00000000000E+00  0.00000000000E+00  0.17425392454E+04  0.17425392454E+04  0.25500000920E-02 0. -1.
        2   -1    0    0  501    0  0.00000000000E+00  0.00000000000E+00 -0.11187210058E+04  0.11187210058E+04  0.25500000920E-02 0.  1.
    10030    2    1    2    0    0  0.00000000000E+00  0.00000000000E+00  0.62381823952E+03  0.28612602512E+04  0.27924292344E+04 0.  0.
        3    1    3    3  502    0  0.87635210145E+03 -0.47092248999E+02  0.14245877849E+04  0.16732187701E+04  0.10100000352E+00 0. -1.
       -3    1    3    3    0  502 -0.87635210145E+03  0.47092248999E+02 -0.80076954540E+03  0.11880414810E+04  0.10100000352E+00 0.  1.
</event>
<event>
 5   0  0.1235252E-06  0.2805382E+04  0.7818609E-02  0.8301599E-01
       -1   -1    0    0    0  501  0.00000000000E+00  0.00000000000E+00  0.19618469715E+04  0.19618469715E+04  0.50400001928E-02 0. -1.
        1   -1    0    0  501    0  0.00000000000E+00  0.00000000000E+00 -0.10029032374E+04  0.10029032374E+04  0.50400001928E-02 0.  1.
    10030    2    1    2    0    0  0.00000000000E+00  0.00000000000E+00  0.95894373403E+03  0.29647502089E+04  0.28053824545E+04 0.  0.
        1    1    3    3  502    0 -0.75734621508E+03 -0.61970084037E+03 -0.58257546918E+03  0.11388575848E+04  0.50400001928E-02 0.  1.
       -1    1    3    3    0  502  0.75734621508E+03  0.61970084037E+03  0.15415192032E+04  0.18258926242E+04  0.50400001928E-02 0. -1.
</event>
<event>
 5   0  0.1235252E-06  0.2789407E+04  0.7818609E-02  0.8306565E-01
        1   -1    0    0  501    0  0.00000000000E+00  0.00000000000E+00  0.23846816570E+04  0.23846816570E+04  0.50400001928E-02 0. -1.
       -1   -1    0    0    0  501  0.00000000000E+00  0.00000000000E+00 -0.81570565222E+03  0.81570565224E+03  0.50400001928E-02 0.  1.
    10030    2    1    2    0    0  0.00000000000E+00  0.00000000000E+00  0.15689760048E+04  0.32003873092E+04  0.27894073251E+04 0.  0.
        1    1    3    3  502    0 -0.99978291200E+03 -0.11717200334E+03  0.18920702698E+04  0.21431810599E+04  0.50400001928E-02 0. -1.
       -1    1    3    3    0  502  0.99978291200E+03  0.11717200334E+03 -0.32309426506E+03  0.10572062493E+04  0.50400001928E-02 0.  1.
</event>
<event>
 5   0  0.1246044E-06  0.2791875E+04  0.7818609E-02  0.8305795E-01
        1   -1    0    0  501    0  0.00000000000E+00  0.00000000000E+00  0.14341643793E+04  0.14341643793E+04  0.50400001928E-02 0. -1.
       -1   -1    0    0    0  501  0.00000000000E+00  0.00000000000E+00 -0.13587294726E+04  0.13587294726E+04  0.50400001928E-02 0.  1.
    10030    2    1    2    0    0  0.00000000000E+00  0.00000000000E+00  0.75434906723E+02  0.27928938519E+04  0.27918749332E+04 0.  0.
        2    1    3    3  502    0  0.11486268056E+04  0.69863676063E+03 -0.33819162493E+03  0.13862937774E+04  0.25500000920E-02 0.  1.
       -2    1    3    3    0  502 -0.11486268056E+04 -0.69863676063E+03  0.41362653165E+03  0.14066000745E+04  0.25500000920E-02 0. -1.
</event>
<event>
 5   0  0.3162695E-06  0.2760843E+04  0.7818609E-02  0.8315529E-01
        2   -1    0    0  501    0  0.00000000000E+00  0.00000000000E+00  0.10001607261E+04  0.10001607261E+04  0.25500000920E-02 0.  1.
       -2   -1    0    0    0  501  0.00000000000E+00  0.00000000000E+00 -0.19052577232E+04  0.19052577232E+04  0.25500000920E-02 0. -1.
    10030    2    1    2    0    0  0.00000000000E+00  0.00000000000E+00 -0.90509699710E+03  0.29054184493E+04  0.27608433117E+04 0.  0.
        1    1    3    3  502    0  0.11047773558E+04 -0.82415383164E+03 -0.53270402572E+03  0.14776793032E+04  0.50400001928E-02 0. -1.
       -1    1    3    3    0  502 -0.11047773558E+04  0.82415383164E+03 -0.37239297137E+03  0.14277391461E+04  0.50400001928E-02 0.  1.
</event>
<event>
 5   0  0.3167616E-06  0.2770458E+04  0.7818609E-02  0.8312499E-01
       -2   -1    0    0    0  501  0.00000000000E+00  0.00000000000E+00  0.80547787329E+03  0.80547787329E+03  0.25500000920E-02 0. -1.
        2   -1    0    0  501    0  0.00000000000E+00  0.00000000000E+00 -0.23822624356E+04  0.23822624356E+04  0.25500000920E-02 0.  1.
    10030    2    1    2    0    0  0.00000000000E+00  0.00000000000E+00 -0.15767845623E+04  0.31877403089E+04  0.27704582150E+04 0.  0.
        3    1    3    3  502    0 -0.77913822861E+03 -0.10668210368E+04 -0.30885050633E+03  0.13566695063E+04  0.10100000352E+00 0. -1.
       -3    1    3    3    0  502  0.77913822861E+03  0.10668210368E+04 -0.12679340560E+04  0.18310708026E+04  0.10100000352E+00 0.  1.
</event>
<event>
 5   0  0.3345919E-06  0.2796938E+04  0.7818609E-02  0.8304220E-01
        2   -1    0    0  501    0  0.00000000000E+00  0.00000000000E+00  0.16305140980E+04  0.16305140980E+04  0.25500000920E-02 0.  1.
       -2   -1    0    0    0  501  0.00000000000E+00  0.00000000000E+00 -0.11994468959E+04  0.11994468959E+04  0.25500000920E-02 0. -1.
    10030    2    1    2    0    0  0.00000000000E+00  0.00000000000E+00  0.43106720211E+03  0.28299609938E+04  0.27969376635E+04 0.  0.
        2    1    3    3  502    0  0.73236447735E+03 -0.21183117246E+03 -0.97069297295E+03  0.12342913032E+04  0.25500000920E-02 0. -1.
       -2    1    3    3    0  502 -0.73236447735E+03  0.21183117246E+03  0.14017601751E+04  0.15956696907E+04  0.25500000920E-02 0.  1.
</event>
<event>
 5   0  0.3162695E-06  0.2797385E+04  0.7818609E-02  0.8304081E-01
        2   -1    0    0  501    0  0.00000000000E+00  0.00000000000E+00  0.10420642304E+04  0.10420642304E+04  0.25500000920E-02 0.  1.
       -2   -1    0    0    0  501  0.00000000000E+00  0.00000000000E+00 -0.18773709639E+04  0.18773709639E+04  0.25500000920E-02 0. -1.
    10030    2    1    2    0    0  0.00000000000E+00  0.00000000000E+00 -0.83530673345E+03  0.29194351943E+04  0.27973852997E+04 0.  0.
        1    1    3    3  502    0 -0.34772082584E+03  0.45953733816E+03 -0.17477215246E+04  0.18402757580E+04  0.50400001928E-02 0. -1.
       -1    1    3    3    0  502  0.34772082584E+03 -0.45953733816E+03  0.91241479115E+03  0.10791594363E+04  0.50400001928E-02 0.  1.
</event>
<event>
 5   0  0.3167616E-06  0.2799769E+04  0.7818609E-02  0.8303340E-01
       -2   -1    0    0    0  501  0.00000000000E+00  0.00000000000E+00  0.13721901753E+04  0.13721901753E+04  0.25500000920E-02 0.  1.
        2   -1    0    0  501    0  0.00000000000E+00  0.00000000000E+00 -0.14281374631E+04  0.14281374631E+04  0.25500000920E-02 0. -1.
    10030    2    1    2    0    0  0.00000000000E+00  0.00000000000E+00 -0.55947287761E+02  0.28003276384E+04  0.27997687018E+04 0.  0.
        3    1    3    3  502    0  0.12259869547E+04  0.28052370811E+03 -0.64286350203E+03  0.14124486031E+04  0.10100000352E+00 0. -1.
       -3    1    3    3    0  502 -0.12259869547E+04 -0.28052370811E+03  0.58691621427E+03  0.13878790353E+04  0.10100000352E+00 0.  1.
</event>
<event>
 5   0  0.1235252E-06  0.2810709E+04  0.7818609E-02  0.8299951E-01
        1   -1    0    0  501    0  0.00000000000E+00  0.00000000000E+00  0.64187938768E+03  0.64187938770E+03  0.50400001928E-02 0.  1.
       -1   -1    0    0    0  501  0.00000000000E+00  0.00000000000E+00 -0.30769360898E+04  0.30769360898E+04  0.50400001928E-02 0. -1.
    10030    2    1    2    0    0  0.00000000000E+00  0.00000000000E+00 -0.24350567021E+04  0.37188154775E+04  0.28107094146E+04 0.  0.
        1    1    3    3  502    0 -0.75755655662E+03 -0.29260562404E+02  0.34812334587E+03  0.83422897394E+03  0.50400001928E-02 0.  1.
       -1    1    3    3    0  502  0.75755655662E+03  0.29260562404E+02 -0.27831800480E+04  0.28845865036E+04  0.50400001928E-02 0. -1.
</event>
<event>
 5   0  0.1065675E-06  0.2803751E+04  0.7818609E-02  0.8302105E-01
       -3   -1    0    0    0  501  0.00000000000E+00  0.00000000000E+00  0.17669220118E+04  0.17669220147E+04  0.10100000352E+00 0. -1.
        3   -1    0    0  501    0  0.00000000000E+00  0.00000000000E+00 -0.11122480734E+04  0.11122480780E+04  0.10100000352E+00 0.  1.
    10030    2    1    2    0    0  0.00000000000E+00  0.00000000000E+00  0.65467393841E+03  0.28791700926E+04  0.28037514969E+04 0.  0.
        5    1    3    3  502    0  0.83605337042E+03 -0.13056838448E+03 -0.82040383950E+03  0.11786084554E+04  0.46999998093E+01 0.  1.
       -5    1    3    3    0  502 -0.83605337042E+03  0.13056838448E+03  0.14750777779E+04  0.17005616373E+04  0.46999998093E+01 0. -1.
</event>
<event>
 5   0  0.3212679E-06  0.2808065E+04  0.7818609E-02  0.8300769E-01
       -2   -1    0    0    0  501  0.00000000000E+00  0.00000000000E+00  0.13613647870E+04  0.13613647870E+04  0.25500000920E-02 0.  1.
        2   -1    0    0  501    0  0.00000000000E+00  0.00000000000E+00 -0.14480379931E+04  0.14480379931E+04  0.25500000920E-02 0. -1.
    10030    2    1    2    0    0  0.00000000000E+00  0.00000000000E+00 -0.86673206109E+02  0.28094027801E+04  0.28080654793E+04 0.  0.
        4    1    3    3  502    0 -0.27644835602E+02 -0.12342509729E+04 -0.71236024596E+03  0.14253415149E+04  0.12699999809E+01 0. -1.
       -4    1    3    3    0  502  0.27644835602E+02  0.12342509729E+04  0.62568703985E+03  0.13840612652E+04  0.12699999809E+01 0.  1.
</event>
<event>
 5   0  0.3345919E-06  0.2799054E+04  0.7818609E-02  0.8303562E-01
        2   -1    0    0  501    0  0.00000000000E+00  0.00000000000E+00  0.17717073179E+04  0.17717073180E+04  0.25500000920E-02 0. -1.
       -2   -1    0    0    0  501  0.00000000000E+00  0.00000000000E+00 -0.11055298751E+04  0.11055298752E+04  0.25500000920E-02 0.  1.
    10030    2    1    2    0    0  0.00000000000E+00  0.00000000000E+00  0.66617744280E+03  0.28772371931E+04  0.27990536758E+04 0.  0.
        2    1    3    3  502    0 -0.33644576065E+03  0.13430240132E+04  0.12301268969E+03  0.13899789106E+04  0.25500000920E-02 0. -1.
       -2    1    3    3    0  502  0.33644576065E+03 -0.13430240132E+04  0.54316475311E+03  0.14872582825E+04  0.25500000920E-02 0.  1.
</event>
<event>
 5   0  0.1246044E-06  0.2795536E+04  0.7818609E-02  0.8304656E-01
       -1   -1    0    0    0  501  0.00000000000E+00  0.00000000000E+00  0.15061142758E+04  0.15061142758E+04  0.50400001928E-02 0.  1.
        1   -1    0    0  501    0  0.00000000000E+00  0.00000000000E+00 -0.12972159228E+04  0.12972159228E+04  0.50400001928E-02 0. -1.
    10030    2    1    2    0    0  0.00000000000E+00  0.00000000000E+00  0.20889835297E+03  0.28033301986E+04  0.27955360274E+04 0.  0.
        2    1    3    3  502    0  0.89293147749E+03 -0.29482997131E+02 -0.97351747945E+03  0.13213372595E+04  0.25500000920E-02 0. -1.
       -2    1    3    3    0  502 -0.89293147749E+03  0.29482997131E+02  0.11824158324E+04  0.14819929390E+04  0.25500000920E-02 0.  1.
</event>
<event>
 5   0  0.1246044E-06  0.2782961E+04  0.7818609E-02  0.8308578E-01
       -1   -1    0    0    0  501  0.00000000000E+00  0.00000000000E+00  0.11209363019E+04  0.11209363019E+04  0.50400001928E-02 0. -1.
        1   -1    0    0  501    0  0.00000000000E+00  0.00000000000E+00 -0.17273224236E+04  0.17273224236E+04  0.50400001928E-02 0.  1.
    10030    2    1    2    0    0  0.00000000000E+00  0.00000000000E+00 -0.60638612171E+03  0.28482587256E+04  0.27829613075E+04 0.  0.
        2    1    3    3  502    0  0.51912620426E+03  0.76196269925E+02  0.10158127047E+04  0.11433168146E+04  0.25500000920E-02 0. -1.
       -2    1    3    3    0  502 -0.51912620426E+03 -0.76196269925E+02 -0.16221988264E+04  0.17049419110E+04  0.25500000920E-02 0.  1.
</event>
<event>
 5   0  0.3162695E-06  0.2813209E+04  0.7818609E-02  0.8299179E-01
        2   -1    0    0  501    0  0.00000000000E+00  0.00000000000E+00  0.18525571962E+04  0.18525571962E+04  0.25500000920E-02 0. -1.
       -2   -1    0    0    0  501  0.00000000000E+00  0.00000000000E+00 -0.10680030114E+04  0.10680030114E+04  0.25500000920E-02 0.  1.
    10030    2    1    2    0    0  0.00000000000E+00  0.00000000000E+00  0.78455418488E+03  0.29205602076E+04  0.28132093163E+04 0.  0.
        1    1    3    3  502    0 -0.77331504836E+03  0.96600216813E+03 -0.30209593534E+03  0.12737497034E+04  0.50400001928E-02 0.  1.
       -1    1    3    3    0  502  0.77331504836E+03 -0.96600216813E+03  0.10866501202E+04  0.16468105042E+04  0.50400001928E-02 0. -1.
</event>
<event>
 5   0  0.1235252E-06  0.2807995E+04  0.7818609E-02  0.8300790E-01
       -1   -1    0    0    0  501  0.00000000000E+00  0.00000000000E+00  0.15849707410E+04  0.15849707410E+04  0.50400001928E-02 0. -1.
        1   -1    0    0  501    0  0.00000000000E+00  0.00000000000E+00 -0.12436882538E+04  0.12436882538E+04  0.50400001928E-02 0.  1.
    10030    2    1    2    0    0  0.00000000000E+00  0.00000000000E+00  0.34128248716E+03  0.28286589948E+04  0.28079953655E+04 0.  0.
        1    1    3    3  502    0  0.10649841468E+04  0.65415399161E+03 -0.47367544569E+03  0.13365916002E+04  0.50400001928E-02 0.  1.
       -1    1    3    3    0  502 -0.10649841468E+04 -0.65415399161E+03  0.81495793285E+03  0.14920673946E+04  0.50400001928E-02 0. -1.
</event>
<event>
 5   0  0.1243055E-06  0.2796300E+04  0.7818609E-02  0.8304418E-01
        1   -1    0    0  501    0  0.00000000000E+00  0.00000000000E+00  0.14944665179E+04  0.14944665179E+04  0.50400001928E-02 0. -1.
       -1   -1    0    0    0  501  0.00000000000E+00  0.00000000000E+00 -0.13080405776E+04  0.13080405776E+04  0.50400001928E-02 0.  1.
    10030    2    1    2    0    0  0.00000000000E+00  0.00000000000E+00  0.18642594031E+03  0.28025070956E+04  0.27962995886E+04 0.  0.
        5    1    3    3  502    0  0.10178960127E+04 -0.10880961335E+03 -0.86118717160E+03  0.13377657714E+04  0.46999998093E+01 0.  1.
       -5    1    3    3    0  502 -0.10178960127E+04  0.10880961335E+03  0.10476131119E+04  0.14647413242E+04  0.46999998093E+01 0. -1.
</event>
<event>
 5   0  0.1235252E-06  0.2799052E+04  0.7818609E-02  0.8303563E-01
       -1   -1    0    0    0  501  0.00000000000E+00  0.00000000000E+00  0.16786612806E+04  0.16786612806E+04  0.50400001928E-02 0. -1.
        1   -1    0    0  501    0  0.00000000000E+00  0.00000000000E+00 -0.11668067567E+04  0.11668067567E+04  0.50400001928E-02 0.  1.
    10030    2    1    2    0    0  0.00000000000E+00  0.00000000000E+00  0.51185452387E+03  0.28454680373E+04  0.27990522142E+04 0.  0.
        1    1    3    3  502    0  0.48465740527E+03 -0.90151575199E+03  0.12262445909E+04  0.15972787009E+04  0.50400001928E-02 0. -1.
       -1    1    3    3    0  502 -0.48465740527E+03  0.90151575199E+03 -0.71439006705E+03  0.12481893364E+04  0.50400001928E-02 0.  1.
</event>
<event>
 5   0  0.1263513E-06  0.2797338E+04  0.7818609E-02  0.8304095E-01
       -1   -1    0    0    0  501  0.00000000000E+00  0.00000000000E+00  0.10081032442E+04  0.10081032442E+04  0.50400001928E-02 0. -1.
        1   -1    0    0  501    0  0.00000000000E+00  0.00000000000E+00 -0.19405507492E+04  0.19405507492E+04  0.50400001928E-02 0.  1.
    10030    2    1    2    0    0  0.00000000000E+00  0.00000000000E+00 -0.93244750496E+03  0.29486539934E+04  0.27973383820E+04 0.  0.
        3    1    3    3  502    0 -0.73242808246E+03 -0.52299589194E+02 -0.17210321803E+04  0.18711327902E+04  0.10100000352E+00 0.  1.
       -3    1    3    3    0  502  0.73242808246E+03  0.52299589194E+02  0.78858467530E+03  0.10775212032E+04  0.10100000352E+00 0. -1.
</event>
<event>
 5   0  0.3167616E-06  0.2801121E+04  0.7818609E-02  0.8302920E-01
        2   -1    0    0  501    0  0.00000000000E+00  0.00000000000E+00  0.12969546005E+04  0.12969546005E+04  0.25500000920E-02 0.  1.
       -2   -1    0    0    0  501  0.00000000000E+00  0.00000000000E+00 -0.15124426294E+04  0.15124426294E+04  0.25500000920E-02 0. -1.
    10030    2    1    2    0    0  0.00000000000E+00  0.00000000000E+00 -0.21548802884E+03  0.28093972299E+04  0.28011207944E+04 0.  0.
        3    1    3    3  502    0 -0.42871542522E+02  0.46327209513E+03 -0.14326735062E+04  0.15063241314E+04  0.10100000352E+00 0. -1.
       -3    1    3    3    0  502  0.42871542522E+02 -0.46327209513E+03  0.12171854774E+04  0.13030730984E+04  0.10100000352E+00 0.  1.
</event>
<event>
 5   0  0.3162695E-06  0.2795799E+04  0.7818609E-02  0.8304574E-01
       -2   -1    0    0    0  501  0.00000000000E+00  0.00000000000E+00  0.97939934419E+03  0.97939934420E+03  0.25500000920E-02 0.  1.
        2   -1    0    0  501    0  0.00000000000E+00  0.00000000000E+00 -0.19952261360E+04  0.19952261360E+04  0.25500000920E-02 0. -1.
    10030    2    1    2    0    0  0.00000000000E+00  0.00000000000E+00 -0.10158267918E+04  0.29746254802E+04  0.27957991124E+04 0.  0.
        1    1    3    3  502    0 -0.14553019379E+03  0.17296542150E+03  0.95982554555E+03  0.98608374505E+03  0.50400001928E-02 0.  1.
       -1    1    3    3    0  502  0.14553019379E+03 -0.17296542150E+03 -0.19756523374E+04  0.19885417352E+04  0.50400001928E-02 0. -1.
</event>
<event>
 5   0  0.3212679E-06  0.2803451E+04  0.7818609E-02  0.8302198E-01
        2   -1    0    0  501    0  0.00000000000E+00  0.00000000000E+00  0.11129279300E+04  0.11129279300E+04  0.25500000920E-02 0. -1.
       -2   -1    0    0    0  501  0.00000000000E+00  0.00000000000E+00 -0.17654637799E+04  0.17654637799E+04  0.25500000920E-02 0.  1.
    10030    2    1    2    0    0  0.00000000000E+00  0.00000000000E+00 -0.65253584989E+03  0.28783917099E+04  0.28034506952E+04 0.  0.
        4    1    3    3  502    0  0.81951705545E+03  0.11318132717E+04 -0.43978030593E+03  0.14649292872E+04  0.12699999809E+01 0.  1.
       -4    1    3    3    0  502 -0.81951705545E+03 -0.11318132717E+04 -0.21275554396E+03  0.14134624227E+04  0.12699999809E+01 0. -1.
</event>
<event>
 5   0  0.1246044E-06  0.2796811E+04  0.7818609E-02  0.8304259E-01
       -1   -1    0    0    0  501  0.00000000000E+00  0.00000000000E+00  0.11245319473E+04  0.11245319473E+04  0.50400001928E-02 0. -1.
        1   -1    0    0  501    0  0.00000000000E+00  0.00000000000E+00 -0.17389800035E+04  0.17389800036E+04  0.50400001928E-02 0.  1.
    10030    2    1    2    0    0  0.00000000000E+00  0.00000000000E+00 -0.61444805624E+03  0.28635119509E+04  0.27968114486E+04 0.  0.
        2    1    3    3  502    0  0.12917571248E+02  0.12802157950E+04  0.26870271053E+03  0.13081744884E+04  0.25500000920E-02 0. -1.
       -2    1    3    3    0  502 -0.12917571248E+02 -0.12802157950E+04 -0.88315076676E+03  0.15553374625E+04  0.25500000920E-02 0.  1.
</event>
<event>
 5   0  0.3226364E-06  0.2794870E+04  0.7818609E-02  0.8304863E-01
       -2   -1    0    0    0  501  0.00000000000E+00  0.00000000000E+00  0.84096946430E+03  0.84096946430E+03  0.25500000920E-02 0. -1.
        2   -1    0    0  501    0  0.00000000000E+00  0.00000000000E+00 -0.23221107780E+04  0.23221107780E+04  0.25500000920E-02 0.  1.
    10030    2    1    2    0    0  0.00000000000E+00  0.00000000000E+00 -0.14811413137E+04  0.31630802423E+04  0.27948697695E+04 0.  0.
        5    1    3    3  502    0 -0.50794837796E+03  0.16053689245E+03  0.72153652691E+03  0.89689503186E+03  0.46999998093E+01 0. -1.
       -5    1    3    3    0  502  0.50794837796E+03 -0.16053689245E+03 -0.22026778407E+04  0.22661852105E+04  0.46999998093E+01 0.  1.
</event>
<event>
 5   0  0.3226364E-06  0.2798192E+04  0.7818609E-02  0.8303830E-01
       -2   -1    0    0    0  501  0.00000000000E+00  0.00000000000E+00  0.11081507281E+04  0.11081507281E+04  0.25500000920E-02 0. -1.
        2   -1    0    0  501    0  0.00000000000E+00  0.00000000000E+00 -0.17664290396E+04  0.17664290396E+04  0.25500000920E-02 0.  1.
    10030    2    1    2    0    0  0.00000000000E+00  0.00000000000E+00 -0.65827831152E+03  0.28745797677E+04  0.27981920065E+04 0.  0.
        5    1    3    3  502    0 -0.36073841927E+03 -0.10600593601E+04 -0.11908400075E+04  0.16346192424E+04  0.46999998093E+01 0.  1.
       -5    1    3    3    0  502  0.36073841927E+03  0.10600593601E+04  0.53256169602E+03  0.12399605253E+04  0.46999998093E+01 0. -1.
</event>
<event>
 5   0  0.3167616E-06  0.2802472E+04  0.7818609E-02  0.8302501E-01
       -2   -1    0    0    0  501  0.00000000000E+00  0.00000000000E+00  0.16992958804E+04  0.16992958804E+04  0.25500000920E-02 0.  1.
        2   -1    0    0  501    0  0.00000000000E+00  0.00000000000E+00 -0.11554561720E+04  0.11554561720E+04  0.25500000920E-02 0. -1.
    10030    2    1    2    0    0  0.00000000000E+00  0.00000000000E+00  0.54383970842E+03  0.28547520524E+04  0.28024717040E+04 0.  0.
        3    1    3    3  502    0  0.98282998019E+03  0.66157387215E+03  0.10340938614E+04  0.15725726955E+04  0.10100000352E+00 0.  1.
       -3    1    3    3    0  502 -0.98282998019E+03 -0.66157387215E+03 -0.49025415303E+03  0.12821793568E+04  0.10100000352E+00 0. -1.
</event>
<event>
 5   0  0.3226364E-06  0.2842593E+04  0.7818609E-02  0.8290166E-01
       -2   -1    0    0    0  501  0.00000000000E+00  0.00000000000E+00  0.83620554219E+03  0.83620554220E+03  0.25500000920E-02 0. -1.
        2   -1    0    0  501    0  0.00000000000E+00  0.00000000000E+00 -0.24157736605E+04  0.24157736605E+04  0.25500000920E-02 0.  1.
    10030    2    1    2    0    0  0.00000000000E+00  0.00000000000E+00 -0.15795681183E+04  0.32519792027E+04  0.28425927064E+04 0.  0.
        5    1    3    3  502    0 -0.75170753657E+03 -0.61549955818E+03  0.39699807970E+03  0.10495396572E+04  0.46999998093E+01 0. -1.
       -5    1    3    3    0  502  0.75170753657E+03  0.61549955818E+03 -0.19765661980E+04  0.22024395455E+04  0.46999998093E+01 0.  1.
</event>
<event>
 5   0  0.3345919E-06  0.2911558E+04  0.7818609E-02  0.8269447E-01
        2   -1    0    0  501    0  0.00000000000E+00  0.00000000000E+00  0.17900922004E+04  0.17900922004E+04  0.25500000920E-02 0.  1.
       -2   -1    0    0    0  501  0.00000000000E+00  0.00000000000E+00 -0.11839010441E+04  0.11839010441E+04  0.25500000920E-02 0. -1.
    10030    2    1    2    0    0  0.00000000000E+00  0.00000000000E+00  0.60619115623E+03  0.29739932445E+04  0.29115576759E+04 0.  0.
        2    1    3    3  502    0 -0.27792527323E+02  0.10343905770E+03  0.17860620650E+04  0.17892707350E+04  0.25500000920E-02 0.  1.
       -2    1    3    3    0  502  0.27792527323E+02 -0.10343905770E+03 -0.11798709087E+04  0.11847225095E+04  0.25500000920E-02 0. -1.
</event>
<event>
 5   0  0.3226364E-06  0.2798402E+04  0.7818609E-02  0.8303765E-01
       -2   -1    0    0    0  501  0.00000000000E+00  0.00000000000E+00  0.12435126070E+04  0.12435126070E+04  0.25500000920E-02 0. -1.
        2   -1    0    0  501    0  0.00000000000E+00  0.00000000000E+00 -0.15743819669E+04  0.15743819669E+04  0.25500000920E-02 0.  1.
    10030    2    1    2    0    0  0.00000000000E+00  0.00000000000E+00 -0.33086935985E+03  0.28178945739E+04  0.27984022756E+04 0.  0.
        5    1    3    3  502    0  0.51365956442E+03 -0.10333811377E+04 -0.96215951741E+03  0.15024965061E+04  0.46999998093E+01 0.  1.
       -5    1    3    3    0  502 -0.51365956442E+03  0.10333811377E+04  0.63129015756E+03  0.13153980678E+04  0.46999998093E+01 0. -1.
</event>
<event>
 5   0  0.3345919E-06  0.2791310E+04  0.7818609E-02  0.8305971E-01
       -2   -1    0    0    0  501  0.00000000000E+00  0.00000000000E+00  0.11760075828E+04  0.11760075828E+04  0.25500000920E-02 0. -1.
        2   -1    0    0  501    0  0.00000000000E+00  0.00000000000E+00 -0.16563265175E+04  0.16563265175E+04  0.25500000920E-02 0.  1.
    10030    2    1    2    0    0  0.00000000000E+00  0.00000000000E+00 -0.48031893473E+03  0.28323341003E+04  0.27913097601E+04 0.  0.
        2    1    3    3  502    0 -0.35262608068E+03  0.99032820024E+03 -0.11716699499E+04  0.15741364516E+04  0.25500000920E-02 0.  1.
       -2    1    3    3    0  502  0.35262608068E+03 -0.99032820024E+03  0.69135101512E+03  0.12581976487E+04  0.25500000920E-02 0. -1.
</event>
<event>
 5   0  0.3212679E-06  0.2805124E+04  0.7818609E-02  0.8301679E-01
        2   -1    0    0  501    0  0.00000000000E+00  0.00000000000E+00  0.14971308555E+04  0.14971308555E+04  0.25500000920E-02 0. -1.
       -2   -1    0    0    0  501  0.00000000000E+00  0.00000000000E+00 -0.13139671375E+04  0.13139671375E+04  0.25500000920E-02 0.  1.
    10030    2    1    2    0    0  0.00000000000E+00  0.00000000000E+00  0.18316371800E+03  0.28110979929E+04  0.28051244140E+04 0.  0.
        4    1    3    3  502    0  0.76897006726E+03 -0.14082508908E+03  0.12585497324E+04  0.14815855398E+04  0.12699999809E+01 0. -1.
       -4    1    3    3    0  502 -0.76897006726E+03  0.14082508908E+03 -0.10753860144E+04  0.13295124531E+04  0.12699999809E+01 0.  1.
</event>
<event>
 5   0  0.3162695E-06  0.2768566E+04  0.7818609E-02  0.8313094E-01
       -2   -1    0    0    0  501  0.00000000000E+00  0.00000000000E+00  0.21970707863E+04  0.21970707863E+04  0.25500000920E-02 0. -1.
        2   -1    0    0  501    0  0.00000000000E+00  0.00000000000E+00 -0.87217907183E+03  0.87217907184E+03  0.25500000920E-02 0.  1.
    10030    2    1    2    0    0  0.00000000000E+00  0.00000000000E+00  0.13248917145E+04  0.30692498581E+04  0.27685658086E+04 0.  0.
        1    1    3    3  502    0 -0.86143293631E+03 -0.51904834435E+03 -0.39204882625E+03  0.10794351160E+04  0.50400001928E-02 0.  1.
       -1    1    3    3    0  502  0.86143293631E+03  0.51904834435E+03  0.17169405407E+04  0.19898147421E+04  0.50400001928E-02 0. -1.
</event>
<event>
 5   0  0.1235252E-06  0.2827446E+04  0.7818609E-02  0.8294798E-01
       -1   -1    0    0    0  501  0.00000000000E+00  0.00000000000E+00  0.11972271059E+04  0.11972271059E+04  0.50400001928E-02 0. -1.
        1   -1    0    0  501    0  0.00000000000E+00  0.00000000000E+00 -0.16693682521E+04  0.16693682521E+04  0.50400001928E-02 0.  1.
    10030    2    1    2    0    0  0.00000000000E+00  0.00000000000E+00 -0.47214114619E+03  0.28665953580E+04  0.28274461418E+04 0.  0.
        1    1    3    3  502    0  0.41571704629E+02 -0.13247457759E+04  0.26260709048E+03  0.13511632253E+04  0.50400001928E-02 0. -1.
       -1    1    3    3    0  502 -0.41571704629E+02  0.13247457759E+04 -0.73474823667E+03  0.15154321327E+04  0.50400001928E-02 0.  1.
</event>
<event>
 5   0  0.1243055E-06  0.2799194E+04  0.7818609E-02  0.8303519E-01
        1   -1    0    0  501    0  0.00000000000E+00  0.00000000000E+00  0.18569385439E+04  0.18569385439E+04  0.50400001928E-02 0.  1.
       -1   -1    0    0    0  501  0.00000000000E+00  0.00000000000E+00 -0.10548929810E+04  0.10548929810E+04  0.50400001928E-02 0. -1.
    10030    2    1    2    0    0  0.00000000000E+00  0.00000000000E+00  0.80204556286E+03  0.29118315249E+04  0.27991937669E+04 0.  0.
        5    1    3    3  502    0  0.57702224864E+03 -0.11341850289E+03 -0.92013481608E+03  0.10920112646E+04  0.46999998093E+01 0. -1.
       -5    1    3    3    0  502 -0.57702224864E+03  0.11341850289E+03  0.17221803789E+04  0.18198202603E+04  0.46999998093E+01 0.  1.
</event>
<event>
 5   0  0.1246044E-06  0.2773248E+04  0.7818609E-02  0.8311622E-01
       -1   -1    0    0    0  501  0.00000000000E+00  0.00000000000E+00  0.92470707209E+03  0.92470707210E+03  0.50400001928E-02 0.  1.
        1   -1    0    0  501    0  0.00000000000E+00  0.00000000000E+00 -0.20792814569E+04  0.20792814569E+04  0.50400001928E-02 0. -1.
    10030    2    1    2    0    0  0.00000000000E+00  0.00000000000E+00 -0.11545743848E+04  0.30039885290E+04  0.27732481087E+04 0.  0.
        2    1    3    3  502    0  0.10719524645E+03  0.11405918326E+04  0.26891890040E+03  0.11767573771E+04  0.25500000920E-02 0.  1.
       -2    1    3    3    0  502 -0.10719524645E+03 -0.11405918326E+04 -0.14234932852E+04  0.18272311519E+04  0.25500000920E-02 0. -1.
</event>
<event>
 5   0  0.1065675E-06  0.2797234E+04  0.7818609E-02  0.8304128E-01
        3   -1    0    0  501    0  0.00000000000E+00  0.00000000000E+00  0.25608326945E+04  0.25608326965E+04  0.10100000352E+00 0.  1.
       -3   -1    0    0    0  501  0.00000000000E+00  0.00000000000E+00 -0.76386461128E+03  0.76386461796E+03  0.10100000352E+00 0. -1.
    10030    2    1    2    0    0  0.00000000000E+00  0.00000000000E+00  0.17969680832E+04  0.33246973145E+04  0.27972339803E+04 0.  0.
        2    1    3    3  502    0 -0.38809205000E+03  0.32645401751E+03 -0.65073408820E+03  0.82501061713E+03  0.25500000920E-02 0. -1.
       -2    1    3    3    0  502  0.38809205000E+03 -0.32645401751E+03  0.24477021714E+04  0.24996866973E+04  0.25500000920E-02 0.  1.
</event>
<event>
 5   0  0.3162695E-06  0.2792920E+04  0.7818609E-02  0.8305470E-01
       -2   -1    0    0    0  501  0.00000000000E+00  0.00000000000E+00  0.11874450720E+04  0.11874450720E+04  0.25500000920E-02 0.  1.
        2   -1    0    0  501    0  0.00000000000E+00  0.00000000000E+00 -0.16422657866E+04  0.16422657866E+04  0.25500000920E-02 0. -1.
    10030    2    1    2    0    0  0.00000000000E+00  0.00000000000E+00 -0.45482071462E+03  0.28297108586E+04  0.27929199166E+04 0.  0.
        1    1    3    3  502    0 -0.22634683754E+03 -0.30107934166E+03  0.11350035336E+04  0.11958740243E+04  0.50400001928E-02 0.  1.
       -1    1    3    3    0  502  0.22634683754E+03  0.30107934166E+03 -0.15898242482E+04  0.16338368343E+04  0.50400001928E-02 0. -1.
</event>
<event>
 5   0  0.3212679E-06  0.2772986E+04  0.7818609E-02  0.8311705E-01
        2   -1    0    0  501    0  0.00000000000E+00  0.00000000000E+00  0.17325702600E+04  0.17325702600E+04  0.25500000920E-02 0.  1.
       -2   -1    0    0    0  501  0.00000000000E+00  0.00000000000E+00 -0.11095435757E+04  0.11095435757E+04  0.25500000920E-02 0. -1.
    10030    2    1    2    0    0  0.00000000000E+00  0.00000000000E+00  0.62302668433E+03  0.28421138358E+04  0.27729855402E+04 0.  0.
        4    1    3    3  502    0 -0.94292051384E+03  0.43429002062E+03  0.12534749469E+04  0.16275466116E+04  0.12699999809E+01 0.  1.
       -4    1    3    3    0  502  0.94292051384E+03 -0.43429002062E+03 -0.63044826256E+03  0.12145672242E+04  0.12699999809E+01 0. -1.
</event>
<event>
 5   0  0.1220265E-06  0.2782016E+04  0.7818609E-02  0.8308874E-01
       -1   -1    0    0    0  501  0.00000000000E+00  0.00000000000E+00  0.95717647943E+03  0.95717647944E+03  0.50400001928E-02 0. -1.
        1   -1    0    0  501    0  0.00000000000E+00  0.00000000000E+00 -0.20214691771E+04  0.20214691771E+04  0.50400001928E-02 0.  1.
    10030    2    1    2    0    0  0.00000000000E+00  0.00000000000E+00 -0.10642926976E+04  0.29786456565E+04  0.27820156363E+04 0.  0.
        4    1    3    3  502    0  0.27179890664E+03  0.66482923905E+03 -0.18075711150E+04  0.19450417762E+04  0.12699999809E+01 0.  1.
       -4    1    3    3    0  502 -0.27179890664E+03 -0.66482923905E+03  0.74327841733E+03  0.10336038803E+04  0.12699999809E+01 0. -1.
</event>
<event>
 5   0  0.1246044E-06  0.2797521E+04  0.7818609E-02  0.8304039E-01
        1   -1    0    0  501    0  0.00000000000E+00  0.00000000000E+00  0.18132300597E+04  0.18132300598E+04  0.50400001928E-02 0.  1.
       -1   -1    0    0    0  501  0.00000000000E+00  0.00000000000E+00 -0.10790304437E+04  0.10790304437E+04  0.50400001928E-02 0. -1.
    10030    2    1    2    0    0  0.00000000000E+00  0.00000000000E+00  0.73419961608E+03  0.28922605034E+04  0.27975206422E+04 0.  0.
        2    1    3    3  502    0 -0.64736874471E+02  0.45699830961E+03 -0.99803047657E+03  0.10995922654E+04  0.25500000920E-02 0. -1.
       -2    1    3    3    0  502  0.64736874471E+02 -0.45699830961E+03  0.17322300926E+04  0.17926682381E+04  0.25500000920E-02 0.  1.
</event>
<event>
 5   0  0.1246044E-06  0.2792165E+04  0.7818609E-02  0.8305705E-01
        1   -1    0    0  501    0  0.00000000000E+00  0.00000000000E+00  0.10082404733E+04  0.10082404733E+04  0.50400001928E-02 0. -1.
       -1   -1    0    0    0  501  0.00000000000E+00  0.00000000000E+00 -0.19331171712E+04  0.19331171712E+04  0.50400001928E-02 0.  1.
    10030    2    1    2    0    0  0.00000000000E+00  0.00000000000E+00 -0.92487669796E+03  0.29413576445E+04  0.27921654475E+04 0.  0.
        2    1    3    3  502    0 -0.11308650286E+04  0.50706620449E+03 -0.11394890721E+04  0.16835697770E+04  0.25500000920E-02 0.  1.
       -2    1    3    3    0  502  0.11308650286E+04 -0.50706620449E+03  0.21461237414E+03  0.12577878675E+04  0.25500000920E-02 0. -1.
</event>
<event>
 5   0  0.3345919E-06  0.2766939E+04  0.7818609E-02  0.8313607E-01
       -2   -1    0    0    0  501  0.00000000000E+00  0.00000000000E+00  0.13107172041E+04  0.13107172041E+04  0.25500000920E-02 0. -1.
        2   -1    0    0  501    0  0.00000000000E+00  0.00000000000E+00 -0.14602595695E+04  0.14602595695E+04  0.25500000920E-02 0.  1.
    10030    2    1    2    0    0  0.00000000000E+00  0.00000000000E+00 -0.14954236540E+03  0.27709767736E+04  0.27669386261E+04 0.  0.
        2    1    3    3  502    0  0.25693119325E+03 -0.36679510141E+03  0.12361216333E+04  0.13147429319E+04  0.25500000920E-02 0. -1.
       -2    1    3    3    0  502 -0.25693119325E+03  0.36679510141E+03 -0.13856639987E+04  0.14562338418E+04  0.25500000920E-02 0.  1.
</event>
<event>
 5   0  0.1235252E-06  0.2803392E+04  0.7818609E-02  0.8302216E-01
       -1   -1    0    0    0  501  0.00000000000E+00  0.00000000000E+00  0.15951118733E+04  0.15951118734E+04  0.50400001928E-02 0.  1.
        1   -1    0    0  501    0  0.00000000000E+00  0.00000000000E+00 -0.12317330056E+04  0.12317330056E+04  0.50400001928E-02 0. -1.
    10030    2    1    2    0    0  0.00000000000E+00  0.00000000000E+00  0.36337886778E+03  0.28268448789E+04  0.28033921895E+04 0.  0.
        1    1    3    3  502    0 -0.40489662274E+03  0.12646268709E+04  0.63436544461E+03  0.14716120124E+04  0.50400001928E-02 0.  1.
       -1    1    3    3    0  502  0.40489662274E+03 -0.12646268709E+04 -0.27098657683E+03  0.13552328665E+04  0.50400001928E-02 0. -1.
</event>
<event>
 5   0  0.1220265E-06  0.2781542E+04  0.7818609E-02  0.8309022E-01
       -1   -1    0    0    0  501  0.00000000000E+00  0.00000000000E+00  0.89949543176E+03  0.89949543177E+03  0.50400001928E-02 0.  1.
        1   -1    0    0  501    0  0.00000000000E+00  0.00000000000E+00 -0.21503660279E+04  0.21503660279E+04  0.50400001928E-02 0. -1.
    10030    2    1    2    0    0  0.00000000000E+00  0.00000000000E+00 -0.12508705961E+04  0.30498614596E+04  0.27815423194E+04 0.  0.
        4    1    3    3  502    0  0.16534507936E+03  0.13562647020E+04 -0.34067135755E+03  0.14081376083E+04  0.12699999809E+01 0. -1.
       -4    1    3    3    0  502 -0.16534507936E+03 -0.13562647020E+04 -0.91019923856E+03  0.16417238513E+04  0.12699999809E+01 0.  1.
</event>
<event>
 5   0  0.1263513E-06  0.2795755E+04  0.7818609E-02  0.8304587E-01
        1   -1    0    0  501    0  0.00000000000E+00  0.00000000000E+00  0.17324414791E+04  0.17324414791E+04  0.50400001928E-02 0.  1.
       -1   -1    0    0    0  501  0.00000000000E+00  0.00000000000E+00 -0.11279235601E+04  0.11279235601E+04  0.50400001928E-02 0. -1.
    10030    2    1    2    0    0  0.00000000000E+00  0.00000000000E+00  0.60451791905E+03  0.28603650393E+04  0.27957550399E+04 0.  0.
        3    1    3    3  502    0 -0.31949204580E+03 -0.95670064601E+03 -0.68794573897E+03  0.12209097605E+04  0.10100000352E+00 0. -1.
       -3    1    3    3    0  502  0.31949204580E+03  0.95670064601E+03  0.12924636580E+04  0.16394552787E+04  0.10100000352E+00 0.  1.
</event>
<event>
 5   0  0.1220265E-06  0.2800869E+04  0.7818609E-02  0.8302999E-01
       -1   -1    0    0    0  501  0.00000000000E+00  0.00000000000E+00  0.18315316174E+04  0.18315316174E+04  0.50400001928E-02 0. -1.
        1   -1    0    0  501    0  0.00000000000E+00  0.00000000000E+00 -0.10708071562E+04  0.10708071562E+04  0.50400001928E-02 0.  1.
    10030    2    1    2    0    0  0.00000000000E+00  0.00000000000E+00  0.76072446127E+03  0.29023387736E+04  0.28008692670E+04 0.  0.
        4    1    3    3  502    0 -0.14692669230E+03 -0.40439991429E+03 -0.10006184536E+04  0.10892041343E+04  0.12699999809E+01 0.  1.
       -4    1    3    3    0  502  0.14692669230E+03  0.40439991429E+03  0.17613429149E+04  0.18131346393E+04  0.12699999809E+01 0. -1.
</event>
<event>
 5   0  0.3212679E-06  0.2800635E+04  0.7818609E-02  0.8303071E-01
       -2   -1    0    0    0  501  0.00000000000E+00  0.00000000000E+00  0.85769671922E+03  0.85769671923E+03  0.25500000920E-02 0.  1.
        2   -1    0    0  501    0  0.00000000000E+00  0.00000000000E+00 -0.22862265748E+04  0.22862265748E+04  0.25500000920E-02 0. -1.
    10030    2    1    2    0    0  0.00000000000E+00  0.00000000000E+00 -0.14285298556E+04  0.31439232940E+04  0.28006349513E+04 0.  0.
        4    1    3    3  502    0  0.41499715416E+03 -0.83434361406E+03 -0.18876301690E+04  0.21051131020E+04  0.12699999809E+01 0. -1.
       -4    1    3    3    0  502 -0.41499715416E+03  0.83434361406E+03  0.45910031347E+03  0.10388101920E+04  0.12699999809E+01 0.  1.
</event>
<event>
 5   0  0.3345919E-06  0.2805003E+04  0.7818609E-02  0.8301717E-01
       -2   -1    0    0    0  501  0.00000000000E+00  0.00000000000E+00  0.85441467221E+03  0.85441467221E+03  0.25500000920E-02 0. -1.
        2   -1    0    0  501    0  0.00000000000E+00  0.00000000000E+00 -0.23021738185E+04  0.23021738185E+04  0.25500000920E-02 0.  1.
    10030    2    1    2    0    0  0.00000000000E+00  0.00000000000E+00 -0.14477591463E+04  0.31565884907E+04  0.28050034499E+04 0.  0.
        2    1    3    3  502    0 -0.58464251622E+03  0.87066954979E+03  0.32404220593E+03  0.10976682959E+04  0.25500000920E-02 0. -1.
       -2    1    3    3    0  502  0.58464251622E+03 -0.87066954979E+03 -0.17718013522E+04  0.20589201948E+04  0.25500000920E-02 0.  1.
</event>
<event>
 5   0  0.3226364E-06  0.2807419E+04  0.7818609E-02  0.8300969E-01
        2   -1    0    0  501    0  0.00000000000E+00  0.00000000000E+00  0.13192236888E+04  0.13192236888E+04  0.25500000920E-02 0.  1.
       -2   -1    0    0    0  501  0.00000000000E+00  0.00000000000E+00 -0.14936061893E+04  0.14936061893E+04  0.25500000920E-02 0. -1.
    10030    2    1    2    0    0  0.00000000000E+00  0.00000000000E+00 -0.17438250055E+03  0.28128298781E+04  0.28074192182E+04 0.  0.
        5    1    3    3  502    0  0.11147014226E+04 -0.19069594307E+03  0.74594870304E+03  0.13547640982E+04  0.46999998093E+01 0.  1.
       -5    1    3    3    0  502 -0.11147014226E+04  0.19069594307E+03 -0.92033120360E+03  0.14580657799E+04  0.46999998093E+01 0. -1.
</event>
<event>
 5   0  0.3167616E-06  0.2797926E+04  0.7818609E-02  0.8303912E-01
        2   -1    0    0  501    0  0.00000000000E+00  0.00000000000E+00  0.23468275387E+04  0.23468275387E+04  0.25500000920E-02 0.  1.
       -2   -1    0    0    0  501  0.00000000000E+00  0.00000000000E+00 -0.83393331616E+03  0.83393331616E+03  0.25500000920E-02 0. -1.
    10030    2    1    2    0    0  0.00000000000E+00  0.00000000000E+00  0.15128942226E+04  0.31807608549E+04  0.27979261404E+04 0.  0.
        3    1    3    3  502    0 -0.97493790570E+03  0.83816348714E+03  0.13833288765E+04  0.18885499045E+04  0.10100000352E+00 0.  1.
       -3    1    3    3    0  502  0.97493790570E+03 -0.83816348714E+03  0.12956534610E+03  0.12922109504E+04  0.10100000352E+00 0. -1.
</event>
<event>
 5   0  0.3162695E-06  0.2812987E+04  0.7818609E-02  0.8299248E-01
       -2   -1    0    0    0  501  0.00000000000E+00  0.00000000000E+00  0.16858207079E+04  0.16858207079E+04  0.25500000920E-02 0. -1.
        2   -1    0    0  501    0  0.00000000000E+00  0.00000000000E+00 -0.11734482777E+04  0.11734482777E+04  0.25500000920E-02 0.  1.
    10030    2    1    2    0    0  0.00000000000E+00  0.00000000000E+00  0.51237243025E+03  0.28592689856E+04  0.28129866023E+04 0.  0.
        1    1    3    3  502    0  0.58093887886E+03 -0.57921153314E+03 -0.90508529736E+03  0.12215381192E+04  0.50400001928E-02 0.  1.
       -1    1    3    3    0  502 -0.58093887886E+03  0.57921153314E+03  0.14174577276E+04  0.16377308664E+04  0.50400001928E-02 0. -1.
</event>
<event>
 5   0  0.1263513E-06  0.2769086E+04  0.7818609E-02  0.8312931E-01
        1   -1    0    0  501    0  0.00000000000E+00  0.00000000000E+00  0.17979856310E+04  0.17979856310E+04  0.50400001928E-02 0.  1.
       -1   -1    0    0    0  501  0.00000000000E+00  0.00000000000E+00 -0.10661708917E+04  0.10661708917E+04  0.50400001928E-02 0. -1.
    10030    2    1    2    0    0  0.00000000000E+00  0.00000000000E+00  0.73181473925E+03  0.28641565227E+04  0.27690864512E+04 0.  0.
        3    1    3    3  502    0  0.10600073367E+03 -0.11189682520E+04 -0.47032599970E+03  0.12184139940E+04  0.10100000352E+00 0. -1.
       -3    1    3    3    0  502 -0.10600073367E+03  0.11189682520E+04  0.12021407390E+04  0.16457425288E+04  0.10100000352E+00 0.  1.
</event>
<event>
 5   0  0.1263513E-06  0.2792870E+04  0.7818609E-02  0.8305485E-01
       -1   -1    0    0    0  501  0.00000000000E+00  0.00000000000E+00  0.10001462305E+04  0.10001462305E+04  0.50400001928E-02 0. -1.
        1   -1    0    0  501    0  0.00000000000E+00  0.00000000000E+00 -0.19497450679E+04  0.19497450679E+04  0.50400001928E-02 0.  1.
    10030    2    1    2    0    0  0.00000000000E+00  0.00000000000E+00 -0.94959883736E+03  0.29498912984E+04  0.27928696211E+04 0.  0.
        3    1    3    3  502    0 -0.11146576977E+02 -0.65577476375E+03 -0.17769401154E+04  0.18941174649E+04  0.10100000352E+00 0.  1.
       -3    1    3    3    0  502  0.11146576977E+02  0.65577476375E+03  0.82734127805E+03  0.10557738335E+04  0.10100000352E+00 0. -1.
</event>
<event>
 5   0  0.3226364E-06  0.2802850E+04  0.7818609E-02  0.8302384E-01
       -2   -1    0    0    0  501  0.00000000000E+00  0.00000000000E+00  0.15594154362E+04  0.15594154362E+04  0.25500000920E-02 0. -1.
        2   -1    0    0  501    0  0.00000000000E+00  0.00000000000E+00 -0.12594412407E+04  0.12594412407E+04  0.25500000920E-02 0.  1.
    10030    2    1    2    0    0  0.00000000000E+00  0.00000000000E+00  0.29997419558E+03  0.28188566769E+04  0.28028500579E+04 0.  0.
        5    1    3    3  502    0  0.63026829055E+03 -0.59795886388E+03 -0.95591857740E+03  0.12917412038E+04  0.46999998093E+01 0.  1.
       -5    1    3    3    0  502 -0.63026829055E+03  0.59795886388E+03  0.12558927730E+04  0.15271154731E+04  0.46999998093E+01 0. -1.
</event>
<event>
 5   0  0.1220265E-06  0.2787603E+04  0.7818609E-02  0.8307128E-01
       -1   -1    0    0    0  501  0.00000000000E+00  0.00000000000E+00  0.10492269657E+04  0.10492269657E+04  0.50400001928E-02 0. -1.
        1   -1    0    0  501    0  0.00000000000E+00  0.00000000000E+00 -0.18515366835E+04  0.18515366835E+04  0.50400001928E-02 0.  1.
    10030    2    1    2    0    0  0.00000000000E+00  0.00000000000E+00 -0.80230971782E+03  0.29007636492E+04  0.27876027093E+04 0.  0.
        4    1    3    3  502    0 -0.47637737034E+01 -0.10400431742E+04  0.56439565242E+03  0.11833243694E+04  0.12699999809E+01 0. -1.
       -4    1    3    3    0  502  0.47637737034E+01  0.10400431742E+04 -0.13667053702E+04  0.17174392798E+04  0.12699999809E+01 0.  1.
</event>
<event>
 5   0  0.3162695E-06  0.2783023E+04  0.7818609E-02  0.8308558E-01
        2   -1    0    0  501    0  0.00000000000E+00  0.00000000000E+00  0.25495994545E+04  0.25495994545E+04  0.25500000920E-02 0. -1.
       -2   -1    0    0    0  501  0.00000000000E+00  0.00000000000E+00 -0.75945449950E+03  0.75945449951E+03  0.25500000920E-02 0.  1.
    10030    2    1    2    0    0  0.00000000000E+00  0.00000000000E+00  0.17901449550E+04  0.33090539540E+04  0.27830233759E+04 0.  0.
        1    1    3    3  502    0  0.39058834568E+03  0.13133130595E+04  0.60637376540E+03  0.14983456182E+04  0.50400001928E-02 0.  1.
       -1    1    3    3    0  502 -0.39058834568E+03 -0.13133130595E+04  0.11837711896E+04  0.18107083359E+04  0.50400001928E-02 0. -1.
</event>
<event>
 5   0  0.3167616E-06  0.2806694E+04  0.7818609E-02  0.8301193E-01
        2   -1    0    0  501    0  0.00000000000E+00  0.00000000000E+00  0.21281874149E+04  0.21281874149E+04  0.25500000920E-02 0. -1.
       -2   -1    0    0    0  501  0.00000000000E+00  0.00000000000E+00 -0.92538052648E+03  0.92538052649E+03  0.25500000920E-02 0.  1.
    10030    2    1    2    0    0  0.00000000000E+00  0.00000000000E+00  0.12028068884E+04  0.30535679413E+04  0.28066942765E+04 0.  0.
        3    1    3    3  502    0  0.40408928508E+03 -0.17162738884E+03  0.20515506247E+04  0.20980000207E+04  0.10100000352E+00 0. -1.
       -3    1    3    3    0  502 -0.40408928508E+03  0.17162738884E+03 -0.84874373630E+03  0.95556792068E+03  0.10100000352E+00 0.  1.
</event>
<event>
 5   0  0.1263513E-06  0.2798602E+04  0.7818609E-02  0.8303703E-01
       -1   -1    0    0    0  501  0.00000000000E+00  0.00000000000E+00  0.98230623234E+03  0.98230623235E+03  0.50400001928E-02 0.  1.
        1   -1    0    0  501    0  0.00000000000E+00  0.00000000000E+00 -0.19933120789E+04  0.19933120790E+04  0.50400001928E-02 0. -1.
    10030    2    1    2    0    0  0.00000000000E+00  0.00000000000E+00 -0.10110058466E+04  0.29756183113E+04  0.27986017067E+04 0.  0.
        3    1    3    3  502    0  0.11230587104E+04  0.67880666293E+03  0.11026854906E+02  0.13123113024E+04  0.10100000352E+00 0.  1.
       -3    1    3    3    0  502 -0.11230587104E+04 -0.67880666293E+03 -0.10220327015E+04  0.16633070089E+04  0.10100000352E+00 0. -1.
</event>
<event>
 5   0  0.3167616E-06  0.2808644E+04  0.7818609E-02  0.8300590E-01
       -2   -1    0    0    0  501  0.00000000000E+00  0.00000000000E+00  0.94611180442E+03  0.94611180442E+03  0.25500000920E-02 0.  1.
        2   -1    0    0  501    0  0.00000000000E+00  0.00000000000E+00 -0.20844480238E+04  0.20844480238E+04  0.25500000920E-02 0. -1.
    10030    2    1    2    0    0  0.00000000000E+00  0.00000000000E+00 -0.11383362194E+04  0.30305598282E+04  0.28086444282E+04 0.  0.
        3    1    3    3  502    0 -0.22339069239E+03  0.78382607875E+03 -0.18031319602E+04  0.19787803312E+04  0.10100000352E+00 0. -1.
       -3    1    3    3    0  502  0.22339069239E+03 -0.78382607875E+03  0.66479574079E+03  0.10517794970E+04  0.10100000352E+00 0.  1.
</event>
<event>
 5   0  0.3162695E-06  0.2750729E+04  0.7818609E-02  0.8318730E-01
        2   -1    0    0  501    0  0.00000000000E+00  0.00000000000E+00  0.19647266424E+04  0.19647266424E+04  0.25500000920E-02 0. -1.
       -2   -1    0    0    0  501  0.00000000000E+00  0.00000000000E+00 -0.96279410057E+03  0.96279410058E+03  0.25500000920E-02 0.  1.
    10030    2    1    2    0    0  0.00000000000E+00  0.00000000000E+00  0.10019325418E+04  0.29275207430E+04  0.27507287911E+04 0.  0.
        1    1    3    3  502    0 -0.13296475325E+03 -0.52306831629E+03  0.18473203972E+04  0.19245448135E+04  0.50400001928E-02 0. -1.
       -1    1    3    3    0  502  0.13296475325E+03  0.52306831629E+03 -0.84538785538E+03  0.10029759295E+04  0.50400001928E-02 0.  1.
</event>
<event>
 5   0  0.1246044E-06  0.2791509E+04  0.7818609E-02  0.8305909E-01
        1   -1    0    0  501    0  0.00000000000E+00  0.00000000000E+00  0.16305876394E+04  0.16305876394E+04  0.50400001928E-02 0.  1.
       -1   -1    0    0    0  501  0.00000000000E+00  0.00000000000E+00 -0.11947413211E+04  0.11947413211E+04  0.50400001928E-02 0. -1.
    10030    2    1    2    0    0  0.00000000000E+00  0.00000000000E+00  0.43584631832E+03  0.28253289606E+04  0.27915088612E+04 0.  0.
        2    1    3    3  502    0 -0.12877499500E+04 -0.41803200829E+03  0.56126714169E+03  0.14656300686E+04  0.25500000920E-02 0. -1.
       -2    1    3    3    0  502  0.12877499500E+04  0.41803200829E+03 -0.12542082337E+03  0.13596988919E+04  0.25500000920E-02 0.  1.
</event>
<event>
 5   0  0.3212679E-06  0.2798200E+04  0.7818609E-02  0.8303828E-01
        2   -1    0    0  501    0  0.00000000000E+00  0.00000000000E+00  0.10311614008E+04  0.10311614008E+04  0.25500000920E-02 0. -1.
       -2   -1    0    0    0  501  0.00000000000E+00  0.00000000000E+00 -0.18983256668E+04  0.18983256668E+04  0.25500000920E-02 0.  1.
    10030    2    1    2    0    0  0.00000000000E+00  0.00000000000E+00 -0.86716426598E+03  0.29294870676E+04  0.27981995310E+04 0.  0.
        4    1    3    3  502    0 -0.95080171135E+03 -0.51408985809E+03  0.49644830310E+03  0.11894430659E+04  0.12699999809E+01 0. -1.
       -4    1    3    3    0  502  0.95080171135E+03  0.51408985809E+03 -0.13636125691E+04  0.17400440017E+04  0.12699999809E+01 0.  1.
</event>
<event>
 5   0  0.3345919E-06  0.2802644E+04  0.7818609E-02  0.8302448E-01
        2   -1    0    0  501    0  0.00000000000E+00  0.00000000000E+00  0.15885149650E+04  0.15885149650E+04  0.25500000920E-02 0. -1.
       -2   -1    0    0    0  501  0.00000000000E+00  0.00000000000E+00 -0.12361881804E+04  0.12361881804E+04  0.25500000920E-02 0.  1.
    10030    2    1    2    0    0  0.00000000000E+00  0.00000000000E+00  0.35232678467E+03  0.28247031454E+04  0.28026440545E+04 0.  0.
        2    1    3    3  502    0 -0.72539936733E+03 -0.11075119793E+04  0.63903446676E+03  0.14700857377E+04  0.25500000920E-02 0. -1.
       -2    1    3    3    0  502  0.72539936733E+03  0.11075119793E+04 -0.28670768208E+03  0.13546174077E+04  0.25500000920E-02 0.  1.
</event>
<event>
 5   0  0.1263513E-06  0.2805490E+04  0.7818609E-02  0.8301566E-01
        1   -1    0    0  501    0  0.00000000000E+00  0.00000000000E+00  0.20422989576E+04  0.20422989577E+04  0.50400001928E-02 0.  1.
       -1   -1    0    0    0  501  0.00000000000E+00  0.00000000000E+00 -0.96347005929E+03  0.96347005930E+03  0.50400001928E-02 0. -1.
    10030    2    1    2    0    0  0.00000000000E+00  0.00000000000E+00  0.10788288984E+04  0.30057690170E+04  0.28054902586E+04 0.  0.
        3    1    3    3  502    0  0.62088579992E+03  0.59037048104E+02 -0.80674941179E+03  0.10197201446E+04  0.10100000352E+00 0. -1.
       -3    1    3    3    0  502 -0.62088579992E+03 -0.59037048104E+02  0.18855783102E+04  0.19860488724E+04  0.10100000352E+00 0.  1.
</event>
<event>
 5   0  0.1220265E-06  0.2793076E+04  0.7818609E-02  0.8305421E-01
       -1   -1    0    0    0  501  0.00000000000E+00  0.00000000000E+00  0.14149435512E+04  0.14149435512E+04  0.50400001928E-02 0.  1.
        1   -1    0    0  501    0  0.00000000000E+00  0.00000000000E+00 -0.13783717872E+04  0.13783717872E+04  0.50400001928E-02 0. -1.
    10030    2    1    2    0    0  0.00000000000E+00  0.00000000000E+00  0.36571764020E+02  0.27933153384E+04  0.27930759184E+04 0.  0.
        4    1    3    3  502    0  0.13558574227E+04 -0.29182166746E+03  0.18202963980E+03  0.13988015010E+04  0.12699999809E+01 0.  1.
       -4    1    3    3    0  502 -0.13558574227E+04  0.29182166746E+03 -0.14545787578E+03  0.13945138375E+04  0.12699999809E+01 0. -1.
</event>
<event>
 5   0  0.1243055E-06  0.2818756E+04  0.7818609E-02  0.8297469E-01
        1   -1    0    0  501    0  0.00000000000E+00  0.00000000000E+00  0.17679596440E+04  0.17679596440E+04  0.50400001928E-02 0.  1.
       -1   -1    0    0    0  501  0.00000000000E+00  0.00000000000E+00 -0.11235248307E+04  0.11235248307E+04  0.50400001928E-02 0. -1.
    10030    2    1    2    0    0  0.00000000000E+00  0.00000000000E+00  0.64443481333E+03  0.28914844747E+04  0.28187561510E+04 0.  0.
        5    1    3    3  502    0  0.23018524971E+03  0.10309069118E+04  0.12793348831E+04  0.16590582097E+04  0.46999998093E+01 0.  1.
       -5    1    3    3    0  502 -0.23018524971E+03 -0.10309069118E+04 -0.63490006981E+03  0.12324262650E+04  0.46999998093E+01 0. -1.
</event>
<event>
 5   0  0.1220265E-06  0.2802955E+04  0.7818609E-02  0.8302352E-01
        1   -1    0    0  501    0  0.00000000000E+00  0.00000000000E+00  0.25420750026E+04  0.25420750026E+04  0.50400001928E-02 0. -1.
       -1   -1    0    0    0  501  0.00000000000E+00  0.00000000000E+00 -0.77265172183E+03  0.77265172185E+03  0.50400001928E-02 0.  1.
    10030    2    1    2    0    0  0.00000000000E+00  0.00000000000E+00  0.17694232807E+04  0.33147267244E+04  0.28029546038E+04 0.  0.
        4    1    3    3  502    0  0.25990668903E+03 -0.64763552022E+02 -0.74209945871E+03  0.78896072411E+03  0.12699999809E+01 0.  1.
       -4    1    3    3    0  502 -0.25990668903E+03  0.64763552022E+02  0.25115227394E+04  0.25257660003E+04  0.12699999809E+01 0. -1.
</event>
<event>
 5   0  0.1235252E-06  0.2801023E+04  0.7818609E-02  0.8302951E-01
       -1   -1    0    0    0  501  0.00000000000E+00  0.00000000000E+00  0.11101571961E+04  0.11101571961E+04  0.50400001928E-02 0.  1.
        1   -1    0    0  501    0  0.00000000000E+00  0.00000000000E+00 -0.17668058219E+04  0.17668058219E+04  0.50400001928E-02 0. -1.
    10030    2    1    2    0    0  0.00000000000E+00  0.00000000000E+00 -0.65664862582E+03  0.28769630180E+04  0.28010228112E+04 0.  0.
        1    1    3    3  502    0 -0.30389876699E+03 -0.70628925369E+03  0.87398131728E+03  0.11640628477E+04  0.50400001928E-02 0.  1.
       -1    1    3    3    0  502  0.30389876699E+03  0.70628925369E+03 -0.15306299431E+04  0.17129001702E+04  0.50400001928E-02 0. -1.
</event>
<event>
 5   0  0.3226364E-06  0.2781699E+04  0.7818609E-02  0.8308973E-01
        2   -1    0    0  501    0  0.00000000000E+00  0.00000000000E+00  0.20689660960E+04  0.20689660960E+04  0.25500000920E-02 0. -1.
       -2   -1    0    0    0  501  0.00000000000E+00  0.00000000000E+00 -0.93498991369E+03  0.93498991369E+03  0.25500000920E-02 0.  1.
    10030    2    1    2    0    0  0.00000000000E+00  0.00000000000E+00  0.11339761824E+04  0.30039560097E+04  0.27816990718E+04 0.  0.
        5    1    3    3  502    0 -0.48568500682E+03  0.51405995445E+03  0.18602971778E+04  0.19901947750E+04  0.46999998093E+01 0. -1.
       -5    1    3    3    0  502  0.48568500682E+03 -0.51405995445E+03 -0.72632099546E+03  0.10137612347E+04  0.46999998093E+01 0.  1.
</event>
<event>
 5   0  0.1220265E-06  0.2770096E+04  0.7818609E-02  0.8312613E-01
        1   -1    0    0  501    0  0.00000000000E+00  0.00000000000E+00  0.10282858248E+04  0.10282858248E+04  0.50400001928E-02 0.  1.
       -1   -1    0    0    0  501  0.00000000000E+00  0.00000000000E+00 -0.18655888446E+04  0.18655888447E+04  0.50400001928E-02 0. -1.
    10030    2    1    2    0    0  0.00000000000E+00  0.00000000000E+00 -0.83730301982E+03  0.28938746695E+04  0.27700964344E+04 0.  0.
        4    1    3    3  502    0  0.34930886117E+03 -0.51249704453E+03  0.87510695803E+03  0.10726060330E+04  0.12699999809E+01 0.  1.
       -4    1    3    3    0  502 -0.34930886117E+03  0.51249704453E+03 -0.17124099778E+04  0.18212686365E+04  0.12699999809E+01 0. -1.
</event>
<event>
 5   0  0.1065675E-06  0.2800570E+04  0.7818609E-02  0.8303091E-01
       -4   -1    0    0    0  501  0.00000000000E+00  0.00000000000E+00  0.14686407056E+04  0.14686412548E+04  0.12699999809E+01 0.  1.
        4   -1    0    0  501    0  0.00000000000E+00  0.00000000000E+00 -0.13351099325E+04  0.13351105365E+04  0.12699999809E+01 0. -1.
    10030    2    1    2    0    0  0.00000000000E+00  0.00000000000E+00  0.13353077317E+03  0.28037517913E+04  0.28005702347E+04 0.  0.
        5    1    3    3  502    0 -0.53789481885E+03 -0.11757509845E+04 -0.47148384470E+03  0.13762413740E+04  0.46999998093E+01 0. -1.
       -5    1    3    3    0  502  0.53789481885E+03  0.11757509845E+04  0.60501461787E+03  0.14275104173E+04  0.46999998093E+01 0.  1.
</event>
<event>
 5   0  0.3167616E-06  0.2798832E+04  0.7818609E-02  0.8303631E-01
        2   -1    0    0  501    0  0.00000000000E+00  0.00000000000E+00  0.15053171456E+04  0.15053171456E+04  0.25500000920E-02 0. -1.
       -2   -1    0    0    0  501  0.00000000000E+00  0.00000000000E+00 -0.13009647636E+04  0.13009647636E+04  0.25500000920E-02 0.  1.
    10030    2    1    2    0    0  0.00000000000E+00  0.00000000000E+00  0.20435238195E+03  0.28062819092E+04  0.27988315880E+04 0.  0.
        3    1    3    3  502    0 -0.18916897798E+03 -0.10104370075E+03  0.14887419486E+04  0.15041101461E+04  0.10100000352E+00 0. -1.
       -3    1    3    3    0  502  0.18916897798E+03  0.10104370075E+03 -0.12843895667E+04  0.13021717632E+04  0.10100000352E+00 0.  1.
</event>
<event>
 5   0  0.3167616E-06  0.2802908E+04  0.7818609E-02  0.8302366E-01
       -2   -1    0    0    0  501  0.00000000000E+00  0.00000000000E+00  0.17925357384E+04  0.17925357384E+04  0.25500000920E-02 0. -1.
        2   -1    0    0  501    0  0.00000000000E+00  0.00000000000E+00 -0.10956958437E+04  0.10956958437E+04  0.25500000920E-02 0.  1.
    10030    2    1    2    0    0  0.00000000000E+00  0.00000000000E+00  0.69683989472E+03  0.28882315821E+04  0.28029084596E+04 0.  0.
        3    1    3    3  502    0  0.12348205452E+04 -0.35930876523E+03  0.92232039157E+03  0.15825800083E+04  0.10100000352E+00 0. -1.
       -3    1    3    3    0  502 -0.12348205452E+04  0.35930876523E+03 -0.22548049686E+03  0.13056515739E+04  0.10100000352E+00 0.  1.
</event>
<event>
 5   0  0.1243055E-06  0.2792894E+04  0.7818609E-02  0.8305478E-01
       -1   -1    0    0    0  501  0.00000000000E+00  0.00000000000E+00  0.11814823576E+04  0.11814823576E+04  0.50400001928E-02 0. -1.
        1   -1    0    0  501    0  0.00000000000E+00  0.00000000000E+00 -0.16505228394E+04  0.16505228394E+04  0.50400001928E-02 0.  1.
    10030    2    1    2    0    0  0.00000000000E+00  0.00000000000E+00 -0.46904048180E+03  0.28320051970E+04  0.27928935644E+04 0.  0.
        5    1    3    3  502    0 -0.54411742966E+03  0.30663627321E+01 -0.15385973074E+04  0.16319855834E+04  0.46999998093E+01 0.  1.
       -5    1    3    3    0  502  0.54411742966E+03 -0.30663627321E+01  0.10695568256E+04  0.12000196136E+04  0.46999998093E+01 0. -1.
</event>
<event>
 5   0  0.3226364E-06  0.2810534E+04  0.7818609E-02  0.8300005E-01
        2   -1    0    0  501    0  0.00000000000E+00  0.00000000000E+00  0.21171617105E+04  0.21171617105E+04  0.25500000920E-02 0.  1.
       -2   -1    0    0    0  501  0.00000000000E+00  0.00000000000E+00 -0.93274658617E+03  0.93274658617E+03  0.25500000920E-02 0. -1.
    10030    2    1    2    0    0  0.00000000000E+00  0.00000000000E+00  0.11844151243E+04  0.30499082967E+04  0.28105340118E+04 0.  0.
        5    1    3    3  502    0 -0.11798295192E+04 -0.26950415393E+02  0.14200931854E+04  0.18464589800E+04  0.46999998093E+01 0.  1.
       -5    1    3    3    0  502  0.11798295192E+04  0.26950415393E+02 -0.23567806112E+03  0.12034493167E+04  0.46999998093E+01 0. -1.
</event>
<event>
 5   0  0.3167616E-06  0.2797548E+04  0.7818609E-02  0.8304030E-01
       -2   -1    0    0    0  501  0.00000000000E+00  0.00000000000E+00  0.16564742836E+04  0.16564742836E+04  0.25500000920E-02 0.  1.
        2   -1    0    0  501    0  0.00000000000E+00  0.00000000000E+00 -0.11811647207E+04  0.11811647207E+04  0.25500000920E-02 0. -1.
    10030    2    1    2    0    0  0.00000000000E+00  0.00000000000E+00  0.47530956292E+03  0.28376390042E+04  0.27975482012E+04 0.  0.
        3    1    3    3  502    0 -0.61655622832E+03 -0.67459855123E+03 -0.83645589849E+03  0.12389040594E+04  0.10100000352E+00 0. -1.
       -3    1    3    3    0  502  0.61655622832E+03  0.67459855123E+03  0.13117654614E+04  0.15987349449E+04  0.10100000352E+00 0.  1.
</event>
<event>
 5   0  0.1263513E-06  0.2802198E+04  0.7818609E-02  0.8302586E-01
       -1   -1    0    0    0  501  0.00000000000E+00  0.00000000000E+00  0.11454265710E+04  0.11454265710E+04  0.50400001928E-02 0. -1.
        1   -1    0    0  501    0  0.00000000000E+00  0.00000000000E+00 -0.17138399064E+04  0.17138399064E+04  0.50400001928E-02 0.  1.
    10030    2    1    2    0    0  0.00000000000E+00  0.00000000000E+00 -0.56841333541E+03  0.28592664775E+04  0.28021975429E+04 0.  0.
        3    1    3    3  502    0 -0.13291337653E+04  0.44286591514E+03 -0.30332245650E+03  0.14334333984E+04  0.10100000352E+00 0. -1.
       -3    1    3    3    0  502  0.13291337653E+04 -0.44286591514E+03 -0.26509087891E+03  0.14258330790E+04  0.10100000352E+00 0.  1.
</event>
<event>
 5   0  0.1263513E-06  0.2800792E+04  0.7818609E-02  0.8303022E-01
        1   -1    0    0  501    0  0.00000000000E+00  0.00000000000E+00  0.11112561585E+04  0.11112561585E+04  0.50400001928E-02 0. -1.
       -1   -1    0    0    0  501  0.00000000000E+00  0.00000000000E+00 -0.17647682896E+04  0.17647682896E+04  0.50400001928E-02 0.  1.
    10030    2    1    2    0    0  0.00000000000E+00  0.00000000000E+00 -0.65351213110E+03  0.28760244481E+04  0.28007924808E+04 0.  0.
        3    1    3    3  502    0  0.12410634309E+04  0.68112983941E+02 -0.98924598009E+03  0.15885482169E+04  0.10100000352E+00 0.  1.
       -3    1    3    3    0  502 -0.12410634309E+04 -0.68112983941E+02  0.33573384899E+03  0.12874762311E+04  0.10100000352E+00 0. -1.
</event>
<event>
 5   0  0.1220265E-06  0.2794373E+04  0.7818609E-02  0.8305017E-01
        1   -1    0    0  501    0  0.00000000000E+00  0.00000000000E+00  0.68450535504E+03  0.68450535506E+03  0.50400001928E-02 0. -1.
       -1   -1    0    0    0  501  0.00000000000E+00  0.00000000000E+00 -0.28518841888E+04  0.28518841888E+04  0.50400001928E-02 0.  1.
    10030    2    1    2    0    0  0.00000000000E+00  0.00000000000E+00 -0.21673788337E+04  0.35363895438E+04  0.27943729166E+04 0.  0.
        4    1    3    3  502    0  0.56253924638E+03 -0.12051837699E+04 -0.54199994239E+03  0.14362046767E+04  0.12699999809E+01 0. -1.
       -4    1    3    3    0  502 -0.56253924638E+03  0.12051837699E+04 -0.16253788913E+04  0.21001848671E+04  0.12699999809E+01 0.  1.
</event>
<event>
 5   0  0.3162695E-06  0.2806742E+04  0.7818609E-02  0.8301178E-01
       -2   -1    0    0    0  501  0.00000000000E+00  0.00000000000E+00  0.81538952666E+03  0.81538952667E+03  0.25500000920E-02 0.  1.
        2   -1    0    0  501    0  0.00000000000E+00  0.00000000000E+00 -0.24153485888E+04  0.24153485888E+04  0.25500000920E-02 0. -1.
    10030    2    1    2    0    0  0.00000000000E+00  0.00000000000E+00 -0.15999590621E+04  0.32307381155E+04  0.28067418425E+04 0.  0.
        1    1    3    3  502    0 -0.18361817980E+03 -0.10250701314E+03  0.79715027694E+03  0.82442215384E+03  0.50400001928E-02 0.  1.
       -1    1    3    3    0  502  0.18361817980E+03  0.10250701314E+03 -0.23971093391E+04  0.24063159616E+04  0.50400001928E-02 0. -1.
</event>
<event>
 5   0  0.1065675E-06  0.2804705E+04  0.7818609E-02  0.8301809E-01
       -4   -1    0    0    0  501  0.00000000000E+00  0.00000000000E+00  0.10503862927E+04  0.10503870605E+04  0.12699999809E+01 0.  1.
        4   -1    0    0  501    0  0.00000000000E+00  0.00000000000E+00 -0.18722541955E+04  0.18722546262E+04  0.12699999809E+01 0. -1.
    10030    2    1    2    0    0  0.00000000000E+00  0.00000000000E+00 -0.82186790276E+03  0.29226416867E+04  0.28047045440E+04 0.  0.
        1    1    3    3  502    0 -0.11954260045E+04 -0.70640868505E+03 -0.20637522539E+03  0.14037974556E+04  0.50400001928E-02 0.  1.
       -1    1    3    3    0  502  0.11954260045E+04  0.70640868505E+03 -0.61549267736E+03  0.15188442311E+04  0.50400001928E-02 0. -1.
</event>
<event>
 5   0  0.3345919E-06  0.2764320E+04  0.7818609E-02  0.8314432E-01
        2   -1    0    0  501    0  0.00000000000E+00  0.00000000000E+00  0.13080199857E+04  0.13080199857E+04  0.25500000920E-02 0.  1.
       -2   -1    0    0    0  501  0.00000000000E+00  0.00000000000E+00 -0.14605026451E+04  0.14605026451E+04  0.25500000920E-02 0. -1.
    10030    2    1    2    0    0  0.00000000000E+00  0.00000000000E+00 -0.15248265945E+03  0.27685226308E+04  0.27643202773E+04 0.  0.
        2    1    3    3  502    0 -0.11121869796E+04  0.67439388091E+03 -0.54449853014E+03  0.14100516421E+04  0.25500000920E-02 0. -1.
       -2    1    3    3    0  502  0.11121869796E+04 -0.67439388091E+03  0.39201587069E+03  0.13584709886E+04  0.25500000920E-02 0.  1.
</event>
<event>
 5   0  0.3167616E-06  0.2800727E+04  0.7818609E-02  0.8303043E-01
        2   -1    0    0  501    0  0.00000000000E+00  0.00000000000E+00  0.11152230998E+04  0.11152230998E+04  0.25500000920E-02 0.  1.
       -2   -1    0    0    0  501  0.00000000000E+00  0.00000000000E+00 -0.17584090241E+04  0.17584090241E+04  0.25500000920E-02 0. -1.
    10030    2    1    2    0    0  0.00000000000E+00  0.00000000000E+00 -0.64318592432E+03  0.28736321239E+04  0.28007273074E+04 0.  0.
        3    1    3    3  502    0 -0.96537323401E+02 -0.11161789478E+04  0.54042147564E+03  0.12438771161E+04  0.10100000352E+00 0.  1.
       -3    1    3    3    0  502  0.96537323401E+02  0.11161789478E+04 -0.11836074000E+04  0.16297550079E+04  0.10100000352E+00 0. -1.
</event>
<event>
 5   0  0.1220265E-06  0.2816121E+04  0.7818609E-02  0.8298281E-01
        1   -1    0    0  501    0  0.00000000000E+00  0.00000000000E+00  0.15296536574E+04  0.15296536574E+04  0.50400001928E-02 0.  1.
       -1   -1    0    0    0  501  0.00000000000E+00  0.00000000000E+00 -0.12961331189E+04  0.12961331189E+04  0.50400001928E-02 0. -1.
    10030    2    1    2    0    0  0.00000000000E+00  0.00000000000E+00  0.23352053846E+03  0.28257867763E+04  0.28161212799E+04 0.  0.
        4    1    3    3  502    0 -0.89658371089E+02  0.70355634212E+03  0.13373244931E+04  0.15137597441E+04  0.12699999809E+01 0.  1.
       -4    1    3    3    0  502  0.89658371089E+02 -0.70355634212E+03 -0.11038039546E+04  0.13120270322E+04  0.12699999809E+01 0. -1.
</event>
<event>
 5   0  0.1235252E-06  0.2793821E+04  0.7818609E-02  0.8305189E-01
        1   -1    0    0  501    0  0.00000000000E+00  0.00000000000E+00  0.13594281996E+04  0.13594281996E+04  0.50400001928E-02 0.  1.
       -1   -1    0    0    0  501  0.00000000000E+00  0.00000000000E+00 -0.14354264640E+04  0.14354264640E+04  0.50400001928E-02 0. -1.
    10030    2    1    2    0    0  0.00000000000E+00  0.00000000000E+00 -0.75998264351E+02  0.27948546636E+04  0.27938211923E+04 0.  0.
        1    1    3    3  502    0 -0.25243052567E+03  0.10886423539E+04  0.80046117687E+03  0.13746277462E+04  0.50400001928E-02 0.  1.
       -1    1    3    3    0  502  0.25243052567E+03 -0.10886423539E+04 -0.87645944122E+03  0.14202269174E+04  0.50400001928E-02 0. -1.
</event>
<event>
 5   0  0.3167616E-06  0.2798383E+04  0.7818609E-02  0.8303770E-01
        2   -1    0    0  501    0  0.00000000000E+00  0.00000000000E+00  0.17185482101E+04  0.17185482101E+04  0.25500000920E-02 0. -1.
       -2   -1    0    0    0  501  0.00000000000E+00  0.00000000000E+00 -0.11391808673E+04  0.11391808673E+04  0.25500000920E-02 0.  1.
    10030    2    1    2    0    0  0.00000000000E+00  0.00000000000E+00  0.57936734281E+03  0.28577290773E+04  0.27983832764E+04 0.  0.
        3    1    3    3  502    0 -0.95240496507E+02 -0.13886667645E+04  0.43507967286E+03  0.14583416839E+04  0.10100000352E+00 0.  1.
       -3    1    3    3    0  502  0.95240496507E+02  0.13886667645E+04  0.14428766995E+03  0.13993873934E+04  0.10100000352E+00 0. -1.
</event>
<event>
 5   0  0.3226364E-06  0.2803675E+04  0.7818609E-02  0.8302128E-01
        2   -1    0    0  501    0  0.00000000000E+00  0.00000000000E+00  0.24358394264E+04  0.24358394264E+04  0.25500000920E-02 0.  1.
       -2   -1    0    0    0  501  0.00000000000E+00  0.00000000000E+00 -0.80676433897E+03  0.80676433897E+03  0.25500000920E-02 0. -1.
    10030    2    1    2    0    0  0.00000000000E+00  0.00000000000E+00  0.16290750874E+04  0.32426037654E+04  0.28036750059E+04 0.  0.
        5    1    3    3  502    0  0.88801467433E+03 -0.76304829658E+03 -0.77070589295E+02  0.11733604435E+04  0.46999998093E+01 0.  1.
       -5    1    3    3    0  502 -0.88801467433E+03  0.76304829658E+03  0.17061456767E+04  0.20692433218E+04  0.46999998093E+01 0. -1.
</event>
<event>
 5   0  0.1263513E-06  0.2802819E+04  0.7818609E-02  0.8302394E-01
        1   -1    0    0  501    0  0.00000000000E+00  0.00000000000E+00  0.15088080607E+04  0.15088080607E+04  0.50400001928E-02 0.  1.
       -1   -1    0    0    0  501  0.00000000000E+00  0.00000000000E+00 -0.13016558435E+04  0.13016558435E+04  0.50400001928E-02 0. -1.
    10030    2    1    2    0    0  0.00000000000E+00  0.00000000000E+00  0.20715221724E+03  0.28104639042E+04  0.28028191728E+04 0.  0.
        3    1    3    3  502    0  0.61262100479E+03  0.10959770842E+04 -0.52059946262E+03  0.13592255425E+04  0.10100000352E+00 0. -1.
       -3    1    3    3    0  502 -0.61262100479E+03 -0.10959770842E+04  0.72775167986E+03  0.14512383617E+04  0.10100000352E+00 0.  1.
</event>
<event>
 5   0  0.1220265E-06  0.2801775E+04  0.7818609E-02  0.8302717E-01
        1   -1    0    0  501    0  0.00000000000E+00  0.00000000000E+00  0.96261574919E+03  0.96261574920E+03  0.50400001928E-02 0.  1.
       -1   -1    0    0    0  501  0.00000000000E+00  0.00000000000E+00 -0.20387015250E+04  0.20387015251E+04  0.50400001928E-02 0. -1.
    10030    2    1    2    0    0  0.00000000000E+00  0.00000000000E+00 -0.10760857759E+04  0.30013172743E+04  0.28017752914E+04 0.  0.
        4    1    3    3  502    0  0.73586382980E+03 -0.69158132129E+03 -0.15781219341E+04  0.18735663190E+04  0.12699999809E+01 0. -1.
       -4    1    3    3    0  502 -0.73586382980E+03  0.69158132129E+03  0.50203615824E+03  0.11277509552E+04  0.12699999809E+01 0.  1.
</event>
<event>
 5   0  0.1246044E-06  0.2793085E+04  0.7818609E-02  0.8305418E-01
       -1   -1    0    0    0  501  0.00000000000E+00  0.00000000000E+00  0.20433437999E+04  0.20433437999E+04  0.50400001928E-02 0.  1.
        1   -1    0    0  501    0  0.00000000000E+00  0.00000000000E+00 -0.95448009098E+03  0.95448009100E+03  0.50400001928E-02 0. -1.
    10030    2    1    2    0    0  0.00000000000E+00  0.00000000000E+00  0.10888637089E+04  0.29978238909E+04  0.27930850156E+04 0.  0.
        2    1    3    3  502    0 -0.68034901281E+03  0.70195303817E+03 -0.52603192764E+03  0.11101001918E+04  0.25500000920E-02 0. -1.
       -2    1    3    3    0  502  0.68034901281E+03 -0.70195303817E+03  0.16148956366E+04  0.18877236991E+04  0.25500000920E-02 0.  1.
</event>
<event>
 5   0  0.3212679E-06  0.2765226E+04  0.7818609E-02  0.8314146E-01
       -2   -1    0    0    0  501  0.00000000000E+00  0.00000000000E+00  0.18465217586E+04  0.18465217586E+04  0.25500000920E-02 0.  1.
        2   -1    0    0  501    0  0.00000000000E+00  0.00000000000E+00 -0.10352541473E+04  0.10352541473E+04  0.25500000920E-02 0. -1.
    10030    2    1    2    0    0  0.00000000000E+00  0.00000000000E+00  0.81126761129E+03  0.28817759058E+04  0.27652264345E+04 0.  0.
        4    1    3    3  502    0  0.12796310896E+04  0.77975678671E+02  0.94522287335E+03  0.15927912058E+04  0.12699999809E+01 0.  1.
       -4    1    3    3    0  502 -0.12796310896E+04 -0.77975678671E+02 -0.13395526207E+03  0.12889847001E+04  0.12699999809E+01 0. -1.
</event>
<event>
 5   0  0.1243055E-06  0.2790289E+04  0.7818609E-02  0.8306290E-01
        1   -1    0    0  501    0  0.00000000000E+00  0.00000000000E+00  0.15463424769E+04  0.15463424769E+04  0.50400001928E-02 0.  1.
       -1   -1    0    0    0  501  0.00000000000E+00  0.00000000000E+00 -0.12587301947E+04  0.12587301947E+04  0.50400001928E-02 0. -1.
    10030    2    1    2    0    0  0.00000000000E+00  0.00000000000E+00  0.28761228221E+03  0.28050726716E+04  0.27902888502E+04 0.  0.
        5    1    3    3  502    0 -0.64354426614E+03  0.70967954889E+03 -0.87577233957E+03  0.12979959805E+04  0.46999998093E+01 0. -1.
       -5    1    3    3    0  502  0.64354426614E+03 -0.70967954889E+03  0.11633846218E+04  0.15070766911E+04  0.46999998093E+01 0.  1.
</event>
<event>
 5   0  0.3226364E-06  0.2808563E+04  0.7818609E-02  0.8300615E-01
        2   -1    0    0  501    0  0.00000000000E+00  0.00000000000E+00  0.23340663740E+04  0.23340663740E+04  0.25500000920E-02 0.  1.
       -2   -1    0    0    0  501  0.00000000000E+00  0.00000000000E+00 -0.84487999592E+03  0.84487999592E+03  0.25500000920E-02 0. -1.
    10030    2    1    2    0    0  0.00000000000E+00  0.00000000000E+00  0.14891863781E+04  0.31789463700E+04  0.28085626136E+04 0.  0.
        5    1    3    3  502    0 -0.93254989939E+03 -0.22893659882E+03  0.19043788541E+04  0.21327780454E+04  0.46999998093E+01 0.  1.
       -5    1    3    3    0  502  0.93254989939E+03  0.22893659882E+03 -0.41519247598E+03  0.10461683245E+04  0.46999998093E+01 0. -1.
</event>
<event>
 5   0  0.1246044E-06  0.2803647E+04  0.7818609E-02  0.8302137E-01
       -1   -1    0    0    0  501  0.00000000000E+00  0.00000000000E+00  0.15736782404E+04  0.15736782404E+04  0.50400001928E-02 0. -1.
        1   -1    0    0  501    0  0.00000000000E+00  0.00000000000E+00 -0.12487364712E+04  0.12487364712E+04  0.50400001928E-02 0.  1.
    10030    2    1    2    0    0  0.00000000000E+00  0.00000000000E+00  0.32494176920E+03  0.28224147116E+04  0.28036472051E+04 0.  0.
        2    1    3    3  502    0 -0.53760946290E+03  0.78290120868E+03 -0.87552343161E+03  0.12917041134E+04  0.25500000920E-02 0.  1.
       -2    1    3    3    0  502  0.53760946290E+03 -0.78290120868E+03  0.12004652008E+04  0.15307105982E+04  0.25500000920E-02 0. -1.
</event>
<event>
 5   0  0.3162695E-06  0.2803259E+04  0.7818609E-02  0.8302257E-01
       -2   -1    0    0    0  501  0.00000000000E+00  0.00000000000E+00  0.11138637292E+04  0.11138637293E+04  0.25500000920E-02 0.  1.
        2   -1    0    0  501    0  0.00000000000E+00  0.00000000000E+00 -0.17637390132E+04  0.17637390132E+04  0.25500000920E-02 0. -1.
    10030    2    1    2    0    0  0.00000000000E+00  0.00000000000E+00 -0.64987528394E+03  0.28776027424E+04  0.28032587570E+04 0.  0.
        1    1    3    3  502    0 -0.13658159086E+04 -0.29236737015E+03 -0.20508003947E+03  0.14117328352E+04  0.50400001928E-02 0. -1.
       -1    1    3    3    0  502  0.13658159086E+04  0.29236737015E+03 -0.44479524448E+03  0.14658699072E+04  0.50400001928E-02 0.  1.
</event>
<event>
 5   0  0.1243055E-06  0.2803234E+04  0.7818609E-02  0.8302265E-01
       -1   -1    0    0    0  501  0.00000000000E+00  0.00000000000E+00  0.11658735971E+04  0.11658735971E+04  0.50400001928E-02 0. -1.
        1   -1    0    0  501    0  0.00000000000E+00  0.00000000000E+00 -0.16850284210E+04  0.16850284210E+04  0.50400001928E-02 0.  1.
    10030    2    1    2    0    0  0.00000000000E+00  0.00000000000E+00 -0.51915482394E+03  0.28509020181E+04  0.28032339513E+04 0.  0.
        5    1    3    3  502    0  0.10259607422E+04 -0.86709377762E+03  0.14730198571E+03  0.13513574763E+04  0.46999998093E+01 0.  1.
       -5    1    3    3    0  502 -0.10259607422E+04  0.86709377762E+03 -0.66645680965E+03  0.14995445418E+04  0.46999998093E+01 0. -1.
</event>
<event>
 5   0  0.1246044E-06  0.2801229E+04  0.7818609E-02  0.8302887E-01
       -1   -1    0    0    0  501  0.00000000000E+00  0.00000000000E+00  0.91487269252E+03  0.91487269254E+03  0.50400001928E-02 0.  1.
        1   -1    0    0  501    0  0.00000000000E+00  0.00000000000E+00 -0.21442553152E+04  0.21442553152E+04  0.50400001928E-02 0. -1.
    10030    2    1    2    0    0  0.00000000000E+00  0.00000000000E+00 -0.12293826227E+04  0.30591280078E+04  0.28012287545E+04 0.  0.
        2    1    3    3  502    0 -0.61996158247E+03  0.26741848525E+03 -0.19548022190E+04  0.20681191275E+04  0.25500000920E-02 0. -1.
       -2    1    3    3    0  502  0.61996158247E+03 -0.26741848525E+03  0.72541959634E+03  0.99100888026E+03  0.25500000920E-02 0.  1.
</event>
<event>
 5   0  0.3345919E-06  0.2799689E+04  0.7818609E-02  0.8303365E-01
       -2   -1    0    0    0  501  0.00000000000E+00  0.00000000000E+00  0.88262647088E+03  0.88262647088E+03  0.25500000920E-02 0. -1.
        2   -1    0    0  501    0  0.00000000000E+00  0.00000000000E+00 -0.22201521219E+04  0.22201521219E+04  0.25500000920E-02 0.  1.
    10030    2    1    2    0    0  0.00000000000E+00  0.00000000000E+00 -0.13375256510E+04  0.31027785928E+04  0.27996892914E+04 0.  0.
        2    1    3    3  502    0  0.11861607142E+04 -0.17547551324E+03 -0.14693182044E+04  0.18964875115E+04  0.25500000920E-02 0.  1.
       -2    1    3    3    0  502 -0.11861607142E+04  0.17547551324E+03  0.13179255341E+03  0.12062910812E+04  0.25500000920E-02 0. -1.
</event>
<event>
 5   0  0.3345919E-06  0.2793639E+04  0.7818609E-02  0.8305246E-01
        2   -1    0    0  501    0  0.00000000000E+00  0.00000000000E+00  0.15840148293E+04  0.15840148293E+04  0.25500000920E-02 0. -1.
       -2   -1    0    0    0  501  0.00000000000E+00  0.00000000000E+00 -0.12317463706E+04  0.12317463706E+04  0.25500000920E-02 0.  1.
    10030    2    1    2    0    0  0.00000000000E+00  0.00000000000E+00  0.35226845874E+03  0.28157612000E+04  0.27936388579E+04 0.  0.
        2    1    3    3  502    0  0.57896061078E+03  0.88168489327E+03  0.10991044240E+04  0.15233496561E+04  0.25500000920E-02 0. -1.
       -2    1    3    3    0  502 -0.57896061078E+03 -0.88168489327E+03 -0.74683596522E+03  0.12924115439E+04  0.25500000920E-02 0.  1.
</event>
<event>
 5   0  0.3212679E-06  0.2796122E+04  0.7818609E-02  0.8304473E-01
        2   -1    0    0  501    0  0.00000000000E+00  0.00000000000E+00  0.16676765602E+04  0.16676765602E+04  0.25500000920E-02 0. -1.
       -2   -1    0    0    0  501  0.00000000000E+00  0.00000000000E+00 -0.11720344792E+04  0.11720344792E+04  0.25500000920E-02 0.  1.
    10030    2    1    2    0    0  0.00000000000E+00  0.00000000000E+00  0.49564208101E+03  0.28397110394E+04  0.27961219063E+04 0.  0.
        4    1    3    3  502    0  0.70849290401E+03  0.11859009773E+04  0.46623054563E+03  0.14579766314E+04  0.12699999809E+01 0. -1.
       -4    1    3    3    0  502 -0.70849290401E+03 -0.11859009773E+04  0.29411535376E+02  0.13817344081E+04  0.12699999809E+01 0.  1.
</event>
<event>
 5   0  0.3345919E-06  0.2772397E+04  0.7818609E-02  0.8311889E-01
       -2   -1    0    0    0  501  0.00000000000E+00  0.00000000000E+00  0.11618279947E+04  0.11618279947E+04  0.25500000920E-02 0. -1.
        2   -1    0    0  501    0  0.00000000000E+00  0.00000000000E+00 -0.16538994635E+04  0.16538994636E+04  0.25500000920E-02 0.  1.
    10030    2    1    2    0    0  0.00000000000E+00  0.00000000000E+00 -0.49207146883E+03  0.28157274583E+04  0.27723973000E+04 0.  0.
        2    1    3    3  502    0  0.10037568045E+04  0.43561264954E+03  0.61830021608E+03  0.12568139322E+04  0.25500000920E-02 0. -1.
       -2    1    3    3    0  502 -0.10037568045E+04 -0.43561264954E+03 -0.11103716849E+04  0.15589135260E+04  0.25500000920E-02 0.  1.
</event>
<event>
 5   0  0.3345919E-06  0.2807155E+04  0.7818609E-02  0.8301051E-01
       -2   -1    0    0    0  501  0.00000000000E+00  0.00000000000E+00  0.14591065815E+04  0.14591065815E+04  0.25500000920E-02 0.  1.
        2   -1    0    0  501    0  0.00000000000E+00  0.00000000000E+00 -0.13501613532E+04  0.13501613532E+04  0.25500000920E-02 0. -1.
    10030    2    1    2    0    0  0.00000000000E+00  0.00000000000E+00  0.10894522824E+03  0.28092679347E+04  0.28071546566E+04 0.  0.
        2    1    3    3  502    0  0.67103365670E+03  0.12245573694E+04 -0.87769524662E+02  0.13991177252E+04  0.25500000920E-02 0.  1.
       -2    1    3    3    0  502 -0.67103365670E+03 -0.12245573694E+04  0.19671475290E+03  0.14101502095E+04  0.25500000920E-02 0. -1.
</event>
<event>
 5   0  0.3167616E-06  0.2798887E+04  0.7818609E-02  0.8303614E-01
       -2   -1    0    0    0  501  0.00000000000E+00  0.00000000000E+00  0.17212481162E+04  0.17212481162E+04  0.25500000920E-02 0.  1.
        2   -1    0    0  501    0  0.00000000000E+00  0.00000000000E+00 -0.11378035029E+04  0.11378035029E+04  0.25500000920E-02 0. -1.
    10030    2    1    2    0    0  0.00000000000E+00  0.00000000000E+00  0.58344461329E+03  0.28590516190E+04  0.27988870187E+04 0.  0.
        3    1    3    3  502    0 -0.32411531263E+03 -0.12442582345E+04 -0.27261404398E+03  0.13143620952E+04  0.10100000352E+00 0.  1.
       -3    1    3    3    0  502  0.32411531263E+03  0.12442582345E+04  0.85605865726E+03  0.15446895238E+04  0.10100000352E+00 0. -1.
</event>
<event>
 5   0  0.1220265E-06  0.2789639E+04  0.7818609E-02  0.8306492E-01
        1   -1    0    0  501    0  0.00000000000E+00  0.00000000000E+00  0.16340882070E+04  0.16340882070E+04  0.50400001928E-02 0.  1.
       -1   -1    0    0    0  501  0.00000000000E+00  0.00000000000E+00 -0.11905856543E+04  0.11905856544E+04  0.50400001928E-02 0. -1.
    10030    2    1    2    0    0  0.00000000000E+00  0.00000000000E+00  0.44350255268E+03  0.28246738614E+04  0.27896393869E+04 0.  0.
        4    1    3    3  502    0  0.34764861469E+02  0.17185341768E+03  0.16228846539E+04  0.16323291351E+04  0.12699999809E+01 0.  1.
       -4    1    3    3    0  502 -0.34764861469E+02 -0.17185341768E+03 -0.11793821012E+04  0.11923447263E+04  0.12699999809E+01 0. -1.
</event>
<event>
 5   0  0.1235252E-06  0.2798003E+04  0.7818609E-02  0.8303889E-01
       -1   -1    0    0    0  501  0.00000000000E+00  0.00000000000E+00  0.15485502607E+04  0.15485502607E+04  0.50400001928E-02 0.  1.
        1   -1    0    0  501    0  0.00000000000E+00  0.00000000000E+00 -0.12638954859E+04  0.12638954859E+04  0.50400001928E-02 0. -1.
    10030    2    1    2    0    0  0.00000000000E+00  0.00000000000E+00  0.28465477477E+03  0.28124457466E+04  0.27980033482E+04 0.  0.
        1    1    3    3  502    0  0.46855273773E+03 -0.68266709445E+02 -0.11809036076E+04  0.12722953046E+04  0.50400001928E-02 0. -1.
       -1    1    3    3    0  502 -0.46855273773E+03  0.68266709445E+02  0.14655583824E+04  0.15401504420E+04  0.50400001928E-02 0.  1.
</event>
<event>
 5   0  0.1263513E-06  0.2795144E+04  0.7818609E-02  0.8304777E-01
        1   -1    0    0  501    0  0.00000000000E+00  0.00000000000E+00  0.21372776668E+04  0.21372776668E+04  0.50400001928E-02 0. -1.
       -1   -1    0    0    0  501  0.00000000000E+00  0.00000000000E+00 -0.91387663110E+03  0.91387663111E+03  0.50400001928E-02 0.  1.
    10030    2    1    2    0    0  0.00000000000E+00  0.00000000000E+00  0.12234010357E+04  0.30511542979E+04  0.27951444427E+04 0.  0.
        3    1    3    3  502    0  0.66463497456E+03 -0.69426220546E+03  0.17192584061E+04  0.19696672655E+04  0.10100000352E+00 0. -1.
       -3    1    3    3    0  502 -0.66463497456E+03  0.69426220546E+03 -0.49585737044E+03  0.10814870325E+04  0.10100000352E+00 0.  1.
</event>
<event>
 5   0  0.1246044E-06  0.2794136E+04  0.7818609E-02  0.8305091E-01
       -1   -1    0    0    0  501  0.00000000000E+00  0.00000000000E+00  0.10158056514E+04  0.10158056514E+04  0.50400001928E-02 0. -1.
        1   -1    0    0  501    0  0.00000000000E+00  0.00000000000E+00 -0.19214291162E+04  0.19214291162E+04  0.50400001928E-02 0.  1.
    10030    2    1    2    0    0  0.00000000000E+00  0.00000000000E+00 -0.90562346489E+03  0.29372347676E+04  0.27941356839E+04 0.  0.
        2    1    3    3  502    0  0.91134030825E+03  0.66730694682E+03 -0.13170854240E+04  0.17350947331E+04  0.25500000920E-02 0. -1.
       -2    1    3    3    0  502 -0.91134030825E+03 -0.66730694682E+03  0.41146195914E+03  0.12021400345E+04  0.25500000920E-02 0.  1.
</event>
<event>
 5   0  0.1263513E-06  0.2799610E+04  0.7818609E-02  0.8303389E-01
        1   -1    0    0  501    0  0.00000000000E+00  0.00000000000E+00  0.30543444688E+04  0.30543444688E+04  0.50400001928E-02 0. -1.
       -1   -1    0    0    0  501  0.00000000000E+00  0.00000000000E+00 -0.64153028836E+03  0.64153028838E+03  0.50400001928E-02 0.  1.
    10030    2    1    2    0    0  0.00000000000E+00  0.00000000000E+00  0.24128141804E+04  0.36958747572E+04  0.27996103213E+04 0.  0.
        3    1    3    3  502    0  0.95841073867E+03 -0.78563955399E+03  0.34712556076E+03  0.12869641867E+04  0.10100000352E+00 0.  1.
       -3    1    3    3    0  502 -0.95841073867E+03  0.78563955399E+03  0.20656886196E+04  0.24089105704E+04  0.10100000352E+00 0. -1.
</event>
<event>
 5   0  0.3212679E-06  0.2795058E+04  0.7818609E-02  0.8304804E-01
       -2   -1    0    0    0  501  0.00000000000E+00  0.00000000000E+00  0.12779983618E+04  0.12779983618E+04  0.25500000920E-02 0. -1.
        2   -1    0    0  501    0  0.00000000000E+00  0.00000000000E+00 -0.15282391296E+04  0.15282391297E+04  0.25500000920E-02 0.  1.
    10030    2    1    2    0    0  0.00000000000E+00  0.00000000000E+00 -0.25024076784E+03  0.28062374915E+04  0.27950578557E+04 0.  0.
        4    1    3    3  502    0 -0.62823850192E+03 -0.60265955098E+03  0.97250595510E+03  0.13052400527E+04  0.12699999809E+01 0. -1.
       -4    1    3    3    0  502  0.62823850192E+03  0.60265955098E+03 -0.12227467229E+04  0.15009974387E+04  0.12699999809E+01 0.  1.
</event>
<event>
 5   0  0.3212679E-06  0.2791498E+04  0.7818609E-02  0.8305913E-01
       -2   -1    0    0    0  501  0.00000000000E+00  0.00000000000E+00  0.83923812773E+03  0.83923812773E+03  0.25500000920E-02 0. -1.
        2   -1    0    0  501    0  0.00000000000E+00  0.00000000000E+00 -0.23212897847E+04  0.23212897847E+04  0.25500000920E-02 0.  1.
    10030    2    1    2    0    0  0.00000000000E+00  0.00000000000E+00 -0.14820516570E+04  0.31605279124E+04  0.27914977291E+04 0.  0.
        4    1    3    3  502    0 -0.11152490456E+04  0.56983605645E+03 -0.43441475456E+02  0.12531489694E+04  0.12699999809E+01 0. -1.
       -4    1    3    3    0  502  0.11152490456E+04 -0.56983605645E+03 -0.14386101815E+04  0.19073789430E+04  0.12699999809E+01 0.  1.
</event>
<event>
 5   0  0.3345919E-06  0.2777447E+04  0.7818609E-02  0.8310304E-01
       -2   -1    0    0    0  501  0.00000000000E+00  0.00000000000E+00  0.18368284638E+04  0.18368284638E+04  0.25500000920E-02 0. -1.
        2   -1    0    0  501    0  0.00000000000E+00  0.00000000000E+00 -0.10499364379E+04  0.10499364379E+04  0.25500000920E-02 0.  1.
    10030    2    1    2    0    0  0.00000000000E+00  0.00000000000E+00  0.78689202589E+03  0.28867649017E+04  0.27774471259E+04 0.  0.
        2    1    3    3  502    0  0.73717351526E+03 -0.59393236611E+03 -0.66260250010E+03  0.11555182908E+04  0.25500000920E-02 0.  1.
       -2    1    3    3    0  502 -0.73717351526E+03  0.59393236611E+03  0.14494945260E+04  0.17312466110E+04  0.25500000920E-02 0. -1.
</event>
<event>
 5   0  0.1065675E-06  0.2805570E+04  0.7818609E-02  0.8301541E-01
        3   -1    0    0  501    0  0.00000000000E+00  0.00000000000E+00  0.13096044749E+04  0.13096044788E+04  0.10100000352E+00 0.  1.
       -3   -1    0    0    0  501  0.00000000000E+00  0.00000000000E+00 -0.15025958175E+04  0.15025958209E+04  0.10100000352E+00 0. -1.
    10030    2    1    2    0    0  0.00000000000E+00  0.00000000000E+00 -0.19299134259E+03  0.28122002997E+04  0.28055703284E+04 0.  0.
        5    1    3    3  502    0 -0.91228681268E+03 -0.10619773997E+04 -0.84193677235E+01  0.14000557852E+04  0.46999998093E+01 0.  1.
       -5    1    3    3    0  502  0.91228681268E+03  0.10619773997E+04 -0.18457197486E+03  0.14121445145E+04  0.46999998093E+01 0. -1.
</event>
<event>
 5   0  0.1220265E-06  0.2891109E+04  0.7818609E-02  0.8275528E-01
       -1   -1    0    0    0  501  0.00000000000E+00  0.00000000000E+00  0.13930525234E+04  0.13930525234E+04  0.50400001928E-02 0.  1.
        1   -1    0    0  501    0  0.00000000000E+00  0.00000000000E+00 -0.15000348610E+04  0.15000348610E+04  0.50400001928E-02 0. -1.
    10030    2    1    2    0    0  0.00000000000E+00  0.00000000000E+00 -0.10698233764E+03  0.28930873844E+04  0.28911086789E+04 0.  0.
        4    1    3    3  502    0  0.26304524811E+03 -0.12422132583E+04 -0.74486138031E+03  0.14721095986E+04  0.12699999809E+01 0. -1.
       -4    1    3    3    0  502 -0.26304524811E+03  0.12422132583E+04  0.63787904267E+03  0.14209777858E+04  0.12699999809E+01 0.  1.
</event>
<event>
 5   0  0.1263513E-06  0.2803380E+04  0.7818609E-02  0.8302220E-01
        1   -1    0    0  501    0  0.00000000000E+00  0.00000000000E+00  0.16551285431E+04  0.16551285431E+04  0.50400001928E-02 0. -1.
       -1   -1    0    0    0  501  0.00000000000E+00  0.00000000000E+00 -0.11870585044E+04  0.11870585044E+04  0.50400001928E-02 0.  1.
    10030    2    1    2    0    0  0.00000000000E+00  0.00000000000E+00  0.46807003865E+03  0.28421870475E+04  0.28033796839E+04 0.  0.
        3    1    3    3  502    0  0.88902029710E+02  0.82546200277E+03 -0.91095398227E+03  0.12325292114E+04  0.10100000352E+00 0.  1.
       -3    1    3    3    0  502 -0.88902029710E+02 -0.82546200277E+03  0.13790240209E+04  0.16096578361E+04  0.10100000352E+00 0. -1.
</event>
<event>
 5   0  0.1220265E-06  0.2796295E+04  0.7818609E-02  0.8304420E-01
       -1   -1    0    0    0  501  0.00000000000E+00  0.00000000000E+00  0.14791428074E+04  0.14791428074E+04  0.50400001928E-02 0.  1.
        1   -1    0    0  501    0  0.00000000000E+00  0.00000000000E+00 -0.13215870958E+04  0.13215870959E+04  0.50400001928E-02 0. -1.
    10030    2    1    2    0    0  0.00000000000E+00  0.00000000000E+00  0.15755571158E+03  0.28007299033E+04  0.27962947250E+04 0.  0.
        4    1    3    3  502    0 -0.96798790699E+03  0.50918730015E+03 -0.79354678665E+03  0.13512921262E+04  0.12699999809E+01 0. -1.
       -4    1    3    3    0  502  0.96798790699E+03 -0.50918730015E+03  0.95110249823E+03  0.14494377771E+04  0.12699999809E+01 0.  1.
</event>
<event>
 5   0  0.1220265E-06  0.2808281E+04  0.7818609E-02  0.8300702E-01
        1   -1    0    0  501    0  0.00000000000E+00  0.00000000000E+00  0.11024680941E+04  0.11024680941E+04  0.50400001928E-02 0. -1.
       -1   -1    0    0    0  501  0.00000000000E+00  0.00000000000E+00 -0.17883601241E+04  0.17883601241E+04  0.50400001928E-02 0.  1.
    10030    2    1    2    0    0  0.00000000000E+00  0.00000000000E+00 -0.68589203002E+03  0.28908282182E+04  0.28082805968E+04 0.  0.
        4    1    3    3  502    0  0.10161997434E+04 -0.18969588904E+03 -0.13211208884E+04  0.16775006597E+04  0.12699999809E+01 0.  1.
       -4    1    3    3    0  502 -0.10161997434E+04  0.18969588904E+03  0.63522885837E+03  0.12133275585E+04  0.12699999809E+01 0. -1.
</event>
<event>
 5   0  0.3162695E-06  0.2751741E+04  0.7818609E-02  0.8318410E-01
       -2   -1    0    0    0  501  0.00000000000E+00  0.00000000000E+00  0.16386210072E+04  0.16386210072E+04  0.25500000920E-02 0.  1.
        2   -1    0    0  501    0  0.00000000000E+00  0.00000000000E+00 -0.11552513782E+04  0.11552513782E+04  0.25500000920E-02 0. -1.
    10030    2    1    2    0    0  0.00000000000E+00  0.00000000000E+00  0.48336962901E+03  0.27938723854E+04  0.27517406687E+04 0.  0.
        1    1    3    3  502    0 -0.74043229056E+03  0.73012278184E+03  0.11564230132E+04  0.15551956272E+04  0.50400001928E-02 0.  1.
       -1    1    3    3    0  502  0.74043229056E+03 -0.73012278184E+03 -0.67305338414E+03  0.12386767582E+04  0.50400001928E-02 0. -1.
</event>
<event>
 5   0  0.3345919E-06  0.2791777E+04  0.7818609E-02  0.8305826E-01
       -2   -1    0    0    0  501  0.00000000000E+00  0.00000000000E+00  0.13700477803E+04  0.13700477803E+04  0.25500000920E-02 0.  1.
        2   -1    0    0  501    0  0.00000000000E+00  0.00000000000E+00 -0.14222164336E+04  0.14222164336E+04  0.25500000920E-02 0. -1.
    10030    2    1    2    0    0  0.00000000000E+00  0.00000000000E+00 -0.52168653267E+02  0.27922642139E+04  0.27917768306E+04 0.  0.
        2    1    3    3  502    0 -0.10054185706E+04  0.78475355173E+03 -0.59345739359E+03  0.14067324967E+04  0.25500000920E-02 0.  1.
       -2    1    3    3    0  502  0.10054185706E+04 -0.78475355173E+03  0.54128874032E+03  0.13855317173E+04  0.25500000920E-02 0. -1.
</event>
<event>
 5   0  0.3167616E-06  0.2774815E+04  0.7818609E-02  0.8311130E-01
        2   -1    0    0  501    0  0.00000000000E+00  0.00000000000E+00  0.32693731124E+04  0.32693731124E+04  0.25500000920E-02 0.  1.
       -2   -1    0    0    0  501  0.00000000000E+00  0.00000000000E+00 -0.58876698854E+03  0.58876698854E+03  0.25500000920E-02 0. -1.
    10030    2    1    2    0    0  0.00000000000E+00  0.00000000000E+00  0.26806061238E+04  0.38581401009E+04  0.27748145609E+04 0.  0.
        3    1    3    3  502    0 -0.54562235451E+03  0.53515097476E+03 -0.26970269147E+03  0.81045041274E+03  0.10100000352E+00 0. -1.
       -3    1    3    3    0  502  0.54562235451E+03 -0.53515097476E+03  0.29503088153E+04  0.30476896882E+04  0.10100000352E+00 0.  1.
</event>
<event>
 5   0  0.3226364E-06  0.2821348E+04  0.7818609E-02  0.8296671E-01
       -2   -1    0    0    0  501  0.00000000000E+00  0.00000000000E+00  0.19303347905E+04  0.19303347905E+04  0.25500000920E-02 0.  1.
        2   -1    0    0  501    0  0.00000000000E+00  0.00000000000E+00 -0.10309098911E+04  0.10309098911E+04  0.25500000920E-02 0. -1.
    10030    2    1    2    0    0  0.00000000000E+00  0.00000000000E+00  0.89942489940E+03  0.29612446817E+04  0.28213480670E+04 0.  0.
        5    1    3    3  502    0 -0.11599862285E+04  0.77215543150E+03  0.21931221254E+03  0.14106424059E+04  0.46999998093E+01 0. -1.
       -5    1    3    3    0  502  0.11599862285E+04 -0.77215543150E+03  0.68011268686E+03  0.15506022758E+04  0.46999998093E+01 0.  1.
</event>
<event>
 5   0  0.1243055E-06  0.2784871E+04  0.7818609E-02  0.8307981E-01
        1   -1    0    0  501    0  0.00000000000E+00  0.00000000000E+00  0.19362879886E+04  0.19362879886E+04  0.50400001928E-02 0. -1.
       -1   -1    0    0    0  501  0.00000000000E+00  0.00000000000E+00 -0.10013369971E+04  0.10013369971E+04  0.50400001928E-02 0.  1.
    10030    2    1    2    0    0  0.00000000000E+00  0.00000000000E+00  0.93495099151E+03  0.29376249857E+04  0.27848711281E+04 0.  0.
        5    1    3    3  502    0  0.12933783574E+04  0.43349974362E+03  0.17267312859E+03  0.13749864372E+04  0.46999998093E+01 0. -1.
       -5    1    3    3    0  502 -0.12933783574E+04 -0.43349974362E+03  0.76227786292E+03  0.15626385485E+04  0.46999998093E+01 0.  1.
</event>
<event>
 5   0  0.1246044E-06  0.2779772E+04  0.7818609E-02  0.8309576E-01
       -1   -1    0    0    0  501  0.00000000000E+00  0.00000000000E+00  0.14706833581E+04  0.14706833581E+04  0.50400001928E-02 0. -1.
        1   -1    0    0  501    0  0.00000000000E+00  0.00000000000E+00 -0.13135279332E+04  0.13135279333E+04  0.50400001928E-02 0.  1.
    10030    2    1    2    0    0  0.00000000000E+00  0.00000000000E+00  0.15715542486E+03  0.27842112914E+04  0.27797724165E+04 0.  0.
        2    1    3    3  502    0 -0.53180352747E+03  0.11656772184E+04 -0.46095240003E+03  0.13616517486E+04  0.25500000920E-02 0.  1.
       -2    1    3    3    0  502  0.53180352747E+03 -0.11656772184E+04  0.61810782489E+03  0.14225595427E+04  0.25500000920E-02 0. -1.
</event>
<event>
 5   0  0.1243055E-06  0.2801664E+04  0.7818609E-02  0.8302752E-01
       -1   -1    0    0    0  501  0.00000000000E+00  0.00000000000E+00  0.11900730487E+04  0.11900730487E+04  0.50400001928E-02 0.  1.
        1   -1    0    0  501    0  0.00000000000E+00  0.00000000000E+00 -0.16489153031E+04  0.16489153032E+04  0.50400001928E-02 0. -1.
    10030    2    1    2    0    0  0.00000000000E+00  0.00000000000E+00 -0.45884225450E+03  0.28389883518E+04  0.28016635500E+04 0.  0.
        5    1    3    3  502    0 -0.26430635069E+03 -0.89683286834E+03 -0.12864579688E+04  0.15903343159E+04  0.46999998093E+01 0. -1.
       -5    1    3    3    0  502  0.26430635069E+03  0.89683286834E+03  0.82761571435E+03  0.12486540359E+04  0.46999998093E+01 0.  1.
</event>
<event>
 5   0  0.3345919E-06  0.2802320E+04  0.7818609E-02  0.8302548E-01
        2   -1    0    0  501    0  0.00000000000E+00  0.00000000000E+00  0.14188116850E+04  0.14188116850E+04  0.25500000920E-02 0.  1.
       -2   -1    0    0    0  501  0.00000000000E+00  0.00000000000E+00 -0.13837279719E+04  0.13837279719E+04  0.25500000920E-02 0. -1.
    10030    2    1    2    0    0  0.00000000000E+00  0.00000000000E+00  0.35083713077E+02  0.28025396569E+04  0.28023200498E+04 0.  0.
        2    1    3    3  502    0 -0.37793659867E+03 -0.87346727470E+03 -0.10108714887E+04  0.13883955918E+04  0.25500000920E-02 0. -1.
       -2    1    3    3    0  502  0.37793659867E+03  0.87346727470E+03  0.10459552018E+04  0.14141440651E+04  0.25500000920E-02 0.  1.
</event>
<event>
 5   0  0.3162695E-06  0.2790560E+04  0.7818609E-02  0.8306205E-01
        2   -1    0    0  501    0  0.00000000000E+00  0.00000000000E+00  0.15879971179E+04  0.15879971179E+04  0.25500000920E-02 0.  1.
       -2   -1    0    0    0  501  0.00000000000E+00  0.00000000000E+00 -0.12259507337E+04  0.12259507337E+04  0.25500000920E-02 0. -1.
    10030    2    1    2    0    0  0.00000000000E+00  0.00000000000E+00  0.36204638417E+03  0.28139478516E+04  0.27905599667E+04 0.  0.
        1    1    3    3  502    0 -0.13218678137E+04 -0.32019517712E+03  0.49499549822E+03  0.14473700327E+04  0.50400001928E-02 0. -1.
       -1    1    3    3    0  502  0.13218678137E+04  0.32019517712E+03 -0.13294911405E+03  0.13665778189E+04  0.50400001928E-02 0.  1.
</event>
<event>
 5   0  0.3162695E-06  0.2807569E+04  0.7818609E-02  0.8300922E-01
        2   -1    0    0  501    0  0.00000000000E+00  0.00000000000E+00  0.17350231272E+04  0.17350231272E+04  0.25500000920E-02 0. -1.
       -2   -1    0    0    0  501  0.00000000000E+00  0.00000000000E+00 -0.11357833573E+04  0.11357833573E+04  0.25500000920E-02 0.  1.
    10030    2    1    2    0    0  0.00000000000E+00  0.00000000000E+00  0.59923976990E+03  0.28708064845E+04  0.28075686224E+04 0.  0.
        1    1    3    3  502    0 -0.41237095235E+03  0.96010382483E+03  0.12581571109E+04  0.16354841707E+04  0.50400001928E-02 0. -1.
       -1    1    3    3    0  502  0.41237095235E+03 -0.96010382483E+03 -0.65891734098E+03  0.12353223138E+04  0.50400001928E-02 0.  1.
</event>
<event>
 5   0  0.3167616E-06  0.2800396E+04  0.7818609E-02  0.8303146E-01
       -2   -1    0    0    0  501  0.00000000000E+00  0.00000000000E+00  0.12663494747E+04  0.12663494747E+04  0.25500000920E-02 0. -1.
        2   -1    0    0  501    0  0.00000000000E+00  0.00000000000E+00 -0.15481932779E+04  0.15481932779E+04  0.25500000920E-02 0.  1.
    10030    2    1    2    0    0  0.00000000000E+00  0.00000000000E+00 -0.28184380316E+03  0.28145427526E+04  0.28003955036E+04 0.  0.
        3    1    3    3  502    0  0.91552890241E+03  0.10105094209E+03 -0.12008344133E+04  0.15134093175E+04  0.10100000352E+00 0.  1.
       -3    1    3    3    0  502 -0.91552890241E+03 -0.10105094209E+03  0.91899061015E+03  0.13011334350E+04  0.10100000352E+00 0. -1.
</event>
<event>
 5   0  0.1220265E-06  0.2806909E+04  0.7818609E-02  0.8301127E-01
        1   -1    0    0  501    0  0.00000000000E+00  0.00000000000E+00  0.86475521198E+03  0.86475521200E+03  0.50400001928E-02 0.  1.
       -1   -1    0    0    0  501  0.00000000000E+00  0.00000000000E+00 -0.22777366832E+04  0.22777366832E+04  0.50400001928E-02 0. -1.
    10030    2    1    2    0    0  0.00000000000E+00  0.00000000000E+00 -0.14129814712E+04  0.31424918952E+04  0.28069090960E+04 0.  0.
        4    1    3    3  502    0 -0.34490510752E+03  0.12843083636E+04 -0.12087654655E+04  0.17970873850E+04  0.12699999809E+01 0. -1.
       -4    1    3    3    0  502  0.34490510752E+03 -0.12843083636E+04 -0.20421600572E+03  0.13454045101E+04  0.12699999809E+01 0.  1.
</event>
<event>
 5   0  0.3167616E-06  0.2804373E+04  0.7818609E-02  0.8301912E-01
        2   -1    0    0  501    0  0.00000000000E+00  0.00000000000E+00  0.10969095336E+04  0.10969095336E+04  0.25500000920E-02 0.  1.
       -2   -1    0    0    0  501  0.00000000000E+00  0.00000000000E+00 -0.17924237665E+04  0.17924237666E+04  0.25500000920E-02 0. -1.
    10030    2    1    2    0    0  0.00000000000E+00  0.00000000000E+00 -0.69551423295E+03  0.28893333002E+04  0.28043728124E+04 0.  0.
        3    1    3    3  502    0  0.13730011413E+04  0.18702331574E+03 -0.56877140549E+03  0.14978687447E+04  0.10100000352E+00 0. -1.
       -3    1    3    3    0  502 -0.13730011413E+04 -0.18702331574E+03 -0.12674282746E+03  0.13914645554E+04  0.10100000352E+00 0.  1.
</event>
<event>
 5   0  0.1246044E-06  0.2832223E+04  0.7818609E-02  0.8293334E-01
       -1   -1    0    0    0  501  0.00000000000E+00  0.00000000000E+00  0.12316175044E+04  0.12316175044E+04  0.50400001928E-02 0. -1.
        1   -1    0    0  501    0  0.00000000000E+00  0.00000000000E+00 -0.16282425784E+04  0.16282425784E+04  0.50400001928E-02 0.  1.
    10030    2    1    2    0    0  0.00000000000E+00  0.00000000000E+00 -0.39662507399E+03  0.28598600828E+04  0.28322231981E+04 0.  0.
        2    1    3    3  502    0  0.72354928454E+03 -0.11989906859E+04  0.14144554765E+02  0.14004650301E+04  0.25500000920E-02 0.  1.
       -2    1    3    3    0  502 -0.72354928454E+03  0.11989906859E+04 -0.41076962875E+03  0.14593950527E+04  0.25500000920E-02 0. -1.
</event>
<event>
 5   0  0.1065675E-06  0.2815083E+04  0.7818609E-02  0.8298601E-01
       -4   -1    0    0    0  501  0.00000000000E+00  0.00000000000E+00  0.16391944195E+04  0.16391949115E+04  0.12699999809E+01 0. -1.
        4   -1    0    0  501    0  0.00000000000E+00  0.00000000000E+00 -0.12086252589E+04  0.12086259262E+04  0.12699999809E+01 0.  1.
    10030    2    1    2    0    0  0.00000000000E+00  0.00000000000E+00  0.43056916060E+03  0.28478208377E+04  0.28150832530E+04 0.  0.
        2    1    3    3  502    0  0.53402640688E+03 -0.79772332433E+03  0.12566373390E+04  0.15813551489E+04  0.25500000920E-02 0. -1.
       -2    1    3    3    0  502 -0.53402640688E+03  0.79772332433E+03 -0.82606817836E+03  0.12664656887E+04  0.25500000920E-02 0.  1.
</event>
<event>
 5   0  0.3167616E-06  0.2793150E+04  0.7818609E-02  0.8305398E-01
        2   -1    0    0  501    0  0.00000000000E+00  0.00000000000E+00  0.16595159071E+04  0.16595159071E+04  0.25500000920E-02 0.  1.
       -2   -1    0    0    0  501  0.00000000000E+00  0.00000000000E+00 -0.11752958882E+04  0.11752958882E+04  0.25500000920E-02 0. -1.
    10030    2    1    2    0    0  0.00000000000E+00  0.00000000000E+00  0.48422001887E+03  0.28348117953E+04  0.27931503519E+04 0.  0.
        3    1    3    3  502    0 -0.58225864857E+03 -0.82844907418E+03 -0.73404105058E+03  0.12506675323E+04  0.10100000352E+00 0. -1.
       -3    1    3    3    0  502  0.58225864857E+03  0.82844907418E+03  0.12182610695E+04  0.15841442630E+04  0.10100000352E+00 0.  1.
</event>
<event>
 5   0  0.1246044E-06  0.2799817E+04  0.7818609E-02  0.8303325E-01
       -1   -1    0    0    0  501  0.00000000000E+00  0.00000000000E+00  0.12145722569E+04  0.12145722569E+04  0.50400001928E-02 0.  1.
        1   -1    0    0  501    0  0.00000000000E+00  0.00000000000E+00 -0.16135263045E+04  0.16135263045E+04  0.50400001928E-02 0. -1.
    10030    2    1    2    0    0  0.00000000000E+00  0.00000000000E+00 -0.39895404757E+03  0.28280985615E+04  0.27998173407E+04 0.  0.
        2    1    3    3  502    0  0.11211025504E+04 -0.99439372802E+02 -0.10403430610E+04  0.15326685232E+04  0.25500000920E-02 0. -1.
       -2    1    3    3    0  502 -0.11211025504E+04  0.99439372802E+02  0.64138901346E+03  0.12954300382E+04  0.25500000920E-02 0.  1.
</event>
<event>
 5   0  0.1246044E-06  0.2820322E+04  0.7818609E-02  0.8296987E-01
       -1   -1    0    0    0  501  0.00000000000E+00  0.00000000000E+00  0.15013071762E+04  0.15013071762E+04  0.50400001928E-02 0. -1.
        1   -1    0    0  501    0  0.00000000000E+00  0.00000000000E+00 -0.13245488043E+04  0.13245488043E+04  0.50400001928E-02 0.  1.
    10030    2    1    2    0    0  0.00000000000E+00  0.00000000000E+00  0.17675837196E+03  0.28258559805E+04  0.28203224108E+04 0.  0.
        2    1    3    3  502    0  0.12930301927E+04  0.39977024485E+03 -0.30839183016E+03  0.13881098115E+04  0.25500000920E-02 0. -1.
       -2    1    3    3    0  502 -0.12930301927E+04 -0.39977024485E+03  0.48515020213E+03  0.14377461690E+04  0.25500000920E-02 0.  1.
</event>
<event>
 5   0  0.1065675E-06  0.2795865E+04  0.7818609E-02  0.8304553E-01
        3   -1    0    0  501    0  0.00000000000E+00  0.00000000000E+00  0.15118974665E+04  0.15118974699E+04  0.10100000352E+00 0. -1.
       -3   -1    0    0    0  501  0.00000000000E+00  0.00000000000E+00 -0.12925577332E+04  0.12925577371E+04  0.10100000352E+00 0.  1.
    10030    2    1    2    0    0  0.00000000000E+00  0.00000000000E+00  0.21933973332E+03  0.28044552070E+04  0.27958646408E+04 0.  0.
        4    1    3    3  502    0  0.16520908397E+02 -0.13746094107E+04 -0.14486005123E+03  0.13823205199E+04  0.12699999809E+01 0.  1.
       -4    1    3    3    0  502 -0.16520908397E+02  0.13746094107E+04  0.36419978456E+03  0.14221346871E+04  0.12699999809E+01 0. -1.
</event>
<event>
 5   0  0.3345919E-06  0.2798033E+04  0.7818609E-02  0.8303879E-01
       -2   -1    0    0    0  501  0.00000000000E+00  0.00000000000E+00  0.10994356280E+04  0.10994356281E+04  0.25500000920E-02 0.  1.
        2   -1    0    0  501    0  0.00000000000E+00  0.00000000000E+00 -0.17802290530E+04  0.17802290530E+04  0.25500000920E-02 0. -1.
    10030    2    1    2    0    0  0.00000000000E+00  0.00000000000E+00 -0.68079342494E+03  0.28796646810E+04  0.27980330570E+04 0.  0.
        2    1    3    3  502    0 -0.12783773330E+03 -0.17405556135E+03  0.10821778423E+04  0.11035156125E+04  0.25500000920E-02 0.  1.
       -2    1    3    3    0  502  0.12783773330E+03  0.17405556135E+03 -0.17629712673E+04  0.17761490686E+04  0.25500000920E-02 0. -1.
</event>
<event>
 5   0  0.3345919E-06  0.2780322E+04  0.7818609E-02  0.8309404E-01
        2   -1    0    0  501    0  0.00000000000E+00  0.00000000000E+00  0.13272914460E+04  0.13272914460E+04  0.25500000920E-02 0.  1.
       -2   -1    0    0    0  501  0.00000000000E+00  0.00000000000E+00 -0.14560081475E+04  0.14560081475E+04  0.25500000920E-02 0. -1.
    10030    2    1    2    0    0  0.00000000000E+00  0.00000000000E+00 -0.12871670151E+03  0.27832995936E+04  0.27803216789E+04 0.  0.
        2    1    3    3  502    0 -0.10945204002E+04  0.82735545642E+03  0.15961147859E+03  0.13812920697E+04  0.25500000920E-02 0.  1.
       -2    1    3    3    0  502  0.10945204002E+04 -0.82735545642E+03 -0.28832818009E+03  0.14020075239E+04  0.25500000920E-02 0. -1.
</event>
<event>
 5   0  0.1263513E-06  0.2787517E+04  0.7818609E-02  0.8307154E-01
        1   -1    0    0  501    0  0.00000000000E+00  0.00000000000E+00  0.10549164869E+04  0.10549164870E+04  0.50400001928E-02 0.  1.
       -1   -1    0    0    0  501  0.00000000000E+00  0.00000000000E+00 -0.18414371189E+04  0.18414371189E+04  0.50400001928E-02 0. -1.
    10030    2    1    2    0    0  0.00000000000E+00  0.00000000000E+00 -0.78652063194E+03  0.28963536058E+04  0.27875167274E+04 0.  0.
        3    1    3    3  502    0  0.67427599000E+03  0.11064510787E+04  0.14028696885E+03  0.13032891253E+04  0.10100000352E+00 0.  1.
       -3    1    3    3    0  502 -0.67427599000E+03 -0.11064510787E+04 -0.92680760079E+03  0.15930644806E+04  0.10100000352E+00 0. -1.
</event>
<event>
 5   0  0.3212679E-06  0.2819146E+04  0.7818609E-02  0.8297349E-01
        2   -1    0    0  501    0  0.00000000000E+00  0.00000000000E+00  0.20918974420E+04  0.20918974420E+04  0.25500000920E-02 0.  1.
       -2   -1    0    0    0  501  0.00000000000E+00  0.00000000000E+00 -0.94980548303E+03  0.94980548303E+03  0.25500000920E-02 0. -1.
    10030    2    1    2    0    0  0.00000000000E+00  0.00000000000E+00  0.11420919590E+04  0.30417029250E+04  0.28191457290E+04 0.  0.
        4    1    3    3  502    0  0.12721967377E+04  0.50291071943E+03  0.93771317299E+03  0.16585268580E+04  0.12699999809E+01 0.  1.
       -4    1    3    3    0  502 -0.12721967377E+04 -0.50291071943E+03  0.20437878597E+03  0.13831760670E+04  0.12699999809E+01 0. -1.
</event>
<event>
 5   0  0.1235252E-06  0.2761173E+04  0.7818609E-02  0.8315425E-01
        1   -1    0    0  501    0  0.00000000000E+00  0.00000000000E+00  0.18686513602E+04  0.18686513602E+04  0.50400001928E-02 0. -1.
       -1   -1    0    0    0  501  0.00000000000E+00  0.00000000000E+00 -0.10199970755E+04  0.10199970755E+04  0.50400001928E-02 0.  1.
    10030    2    1    2    0    0  0.00000000000E+00  0.00000000000E+00  0.84865428469E+03  0.28886484357E+04  0.27611728831E+04 0.  0.
        1    1    3    3  502    0 -0.41032487037E+03  0.87670844128E+03 -0.60551524051E+03  0.11417674443E+04  0.50400001928E-02 0.  1.
       -1    1    3    3    0  502  0.41032487037E+03 -0.87670844128E+03  0.14541695252E+04  0.17468809914E+04  0.50400001928E-02 0. -1.
</event>
<event>
 5   0  0.3345919E-06  0.2789957E+04  0.7818609E-02  0.8306393E-01
        2   -1    0    0  501    0  0.00000000000E+00  0.00000000000E+00  0.18468118104E+04  0.18468118104E+04  0.25500000920E-02 0.  1.
       -2   -1    0    0    0  501  0.00000000000E+00  0.00000000000E+00 -0.10536892011E+04  0.10536892011E+04  0.25500000920E-02 0. -1.
    10030    2    1    2    0    0  0.00000000000E+00  0.00000000000E+00  0.79312260927E+03  0.29005010115E+04  0.27899574629E+04 0.  0.
        2    1    3    3  502    0  0.98439185300E+03 -0.28333910631E+03  0.13810000125E+04  0.17194386886E+04  0.25500000920E-02 0.  1.
       -2    1    3    3    0  502 -0.98439185300E+03  0.28333910631E+03 -0.58787740321E+03  0.11810623229E+04  0.25500000920E-02 0. -1.
</event>
<event>
 5   0  0.1243055E-06  0.2760201E+04  0.7818609E-02  0.8315732E-01
       -1   -1    0    0    0  501  0.00000000000E+00  0.00000000000E+00  0.13942724377E+04  0.13942724377E+04  0.50400001928E-02 0.  1.
        1   -1    0    0  501    0  0.00000000000E+00  0.00000000000E+00 -0.13660726765E+04  0.13660726765E+04  0.50400001928E-02 0. -1.
    10030    2    1    2    0    0  0.00000000000E+00  0.00000000000E+00  0.28199761225E+02  0.27603451142E+04  0.27602010657E+04 0.  0.
        5    1    3    3  502    0 -0.23053543969E+03 -0.13598216595E+04 -0.34829721589E+02  0.13796726909E+04  0.46999998093E+01 0. -1.
       -5    1    3    3    0  502  0.23053543969E+03  0.13598216595E+04  0.63029482814E+02  0.13806724233E+04  0.46999998093E+01 0.  1.
</event>
<event>
 5   0  0.3162695E-06  0.2802748E+04  0.7818609E-02  0.8302416E-01
        2   -1    0    0  501    0  0.00000000000E+00  0.00000000000E+00  0.20025588752E+04  0.20025588752E+04  0.25500000920E-02 0. -1.
       -2   -1    0    0    0  501  0.00000000000E+00  0.00000000000E+00 -0.98066970474E+03  0.98066970474E+03  0.25500000920E-02 0.  1.
    10030    2    1    2    0    0  0.00000000000E+00  0.00000000000E+00  0.10218891705E+04  0.29832285800E+04  0.28027478095E+04 0.  0.
        1    1    3    3  502    0  0.77268669523E+02 -0.66766036180E+03 -0.79791758893E+03  0.10432704754E+04  0.50400001928E-02 0.  1.
       -1    1    3    3    0  502 -0.77268669523E+02  0.66766036180E+03  0.18198067594E+04  0.19399581046E+04  0.50400001928E-02 0. -1.
</event>
<event>
 5   0  0.1065675E-06  0.2811542E+04  0.7818609E-02  0.8299694E-01
        4   -1    0    0  501    0  0.00000000000E+00  0.00000000000E+00  0.18075007294E+04  0.18075011756E+04  0.12699999809E+01 0.  1.
       -4   -1    0    0    0  501  0.00000000000E+00  0.00000000000E+00 -0.10933279496E+04  0.10933286872E+04  0.12699999809E+01 0. -1.
    10030    2    1    2    0    0  0.00000000000E+00  0.00000000000E+00  0.71417277978E+03  0.29008298628E+04  0.28115424830E+04 0.  0.
        4    1    3    3  502    0 -0.16997461894E+02 -0.20806982091E+03  0.17914181979E+04  0.18035417202E+04  0.12699999809E+01 0.  1.
       -4    1    3    3    0  502  0.16997461894E+02  0.20806982091E+03 -0.10772454181E+04  0.10972881426E+04  0.12699999809E+01 0. -1.
</event>
<event>
 5   0  0.1235252E-06  0.2791121E+04  0.7818609E-02  0.8306030E-01
       -1   -1    0    0    0  501  0.00000000000E+00  0.00000000000E+00  0.99968254846E+03  0.99968254848E+03  0.50400001928E-02 0. -1.
        1   -1    0    0  501    0  0.00000000000E+00  0.00000000000E+00 -0.19482072022E+04  0.19482072022E+04  0.50400001928E-02 0.  1.
    10030    2    1    2    0    0  0.00000000000E+00  0.00000000000E+00 -0.94852465373E+03  0.29478897507E+04  0.27911207361E+04 0.  0.
        1    1    3    3  502    0 -0.50563391790E+03  0.62231409098E+03  0.73210435080E+03  0.10857795666E+04  0.50400001928E-02 0. -1.
       -1    1    3    3    0  502  0.50563391790E+03 -0.62231409098E+03 -0.16806290045E+04  0.18621101841E+04  0.50400001928E-02 0.  1.
</event>
<event>
 5   0  0.1220265E-06  0.2796751E+04  0.7818609E-02  0.8304278E-01
        1   -1    0    0  501    0  0.00000000000E+00  0.00000000000E+00  0.10664990985E+04  0.10664990985E+04  0.50400001928E-02 0.  1.
       -1   -1    0    0    0  501  0.00000000000E+00  0.00000000000E+00 -0.18335256001E+04  0.18335256001E+04  0.50400001928E-02 0. -1.
    10030    2    1    2    0    0  0.00000000000E+00  0.00000000000E+00 -0.76702650160E+03  0.29000246986E+04  0.27967505427E+04 0.  0.
        4    1    3    3  502    0 -0.31011700505E+03 -0.10242759135E+04  0.54980012419E+03  0.12031606265E+04  0.12699999809E+01 0.  1.
       -4    1    3    3    0  502  0.31011700505E+03  0.10242759135E+04 -0.13168266258E+04  0.16968640721E+04  0.12699999809E+01 0. -1.
</event>
<event>
 5   0  0.1220265E-06  0.2792707E+04  0.7818609E-02  0.8305536E-01
        1   -1    0    0  501    0  0.00000000000E+00  0.00000000000E+00  0.12186628686E+04  0.12186628686E+04  0.50400001928E-02 0.  1.
       -1   -1    0    0    0  501  0.00000000000E+00  0.00000000000E+00 -0.15999528585E+04  0.15999528585E+04  0.50400001928E-02 0. -1.
    10030    2    1    2    0    0  0.00000000000E+00  0.00000000000E+00 -0.38128998989E+03  0.28186157271E+04  0.27927070310E+04 0.  0.
        4    1    3    3  502    0  0.51519543042E+03  0.90024403666E+02 -0.14973651286E+04  0.15860752397E+04  0.12699999809E+01 0. -1.
       -4    1    3    3    0  502 -0.51519543042E+03 -0.90024403666E+02  0.11160751387E+04  0.12325404874E+04  0.12699999809E+01 0.  1.
</event>
<event>
 5   0  0.3345919E-06  0.2802317E+04  0.7818609E-02  0.8302549E-01
       -2   -1    0    0    0  501  0.00000000000E+00  0.00000000000E+00  0.87791427370E+03  0.87791427371E+03  0.25500000920E-02 0.  1.
        2   -1    0    0  501    0  0.00000000000E+00  0.00000000000E+00 -0.22362609623E+04  0.22362609623E+04  0.25500000920E-02 0. -1.
    10030    2    1    2    0    0  0.00000000000E+00  0.00000000000E+00 -0.13583466886E+04  0.31141752360E+04  0.28023171973E+04 0.  0.
        2    1    3    3  502    0 -0.13954472381E+04  0.18503780524E+00 -0.81961977536E+03  0.16183478009E+04  0.25500000920E-02 0.  1.
       -2    1    3    3    0  502  0.13954472381E+04 -0.18503780524E+00 -0.53872691327E+03  0.14958274351E+04  0.25500000920E-02 0. -1.
</event>
<event>
 5   0  0.3345919E-06  0.2803293E+04  0.7818609E-02  0.8302247E-01
        2   -1    0    0  501    0  0.00000000000E+00  0.00000000000E+00  0.10416739306E+04  0.10416739306E+04  0.25500000920E-02 0.  1.
       -2   -1    0    0    0  501  0.00000000000E+00  0.00000000000E+00 -0.18860157434E+04  0.18860157434E+04  0.25500000920E-02 0. -1.
    10030    2    1    2    0    0  0.00000000000E+00  0.00000000000E+00 -0.84434181290E+03  0.29276896740E+04  0.28032933721E+04 0.  0.
        2    1    3    3  502    0 -0.57158172150E+03 -0.15385806903E+03  0.90473440568E+03  0.10811671076E+04  0.25500000920E-02 0.  1.
       -2    1    3    3    0  502  0.57158172150E+03  0.15385806903E+03 -0.17490762186E+04  0.18465225664E+04  0.25500000920E-02 0. -1.
</event>
<event>
 5   0  0.3212679E-06  0.2798779E+04  0.7818609E-02  0.8303647E-01
       -2   -1    0    0    0  501  0.00000000000E+00  0.00000000000E+00  0.85211154268E+03  0.85211154269E+03  0.25500000920E-02 0.  1.
        2   -1    0    0  501    0  0.00000000000E+00  0.00000000000E+00 -0.22981633905E+04  0.22981633905E+04  0.25500000920E-02 0. -1.
    10030    2    1    2    0    0  0.00000000000E+00  0.00000000000E+00 -0.14460518478E+04  0.31502749332E+04  0.27987794140E+04 0.  0.
        4    1    3    3  502    0  0.49292771179E+03  0.58344639498E+03  0.59679722007E+03  0.96930694810E+03  0.12699999809E+01 0.  1.
       -4    1    3    3    0  502 -0.49292771179E+03 -0.58344639498E+03 -0.20428490679E+04  0.21809679851E+04  0.12699999809E+01 0. -1.
</event>
<event>
 5   0  0.3226364E-06  0.2824003E+04  0.7818609E-02  0.8295855E-01
       -2   -1    0    0    0  501  0.00000000000E+00  0.00000000000E+00  0.11679319333E+04  0.11679319333E+04  0.25500000920E-02 0.  1.
        2   -1    0    0  501    0  0.00000000000E+00  0.00000000000E+00 -0.17070762645E+04  0.17070762645E+04  0.25500000920E-02 0. -1.
    10030    2    1    2    0    0  0.00000000000E+00  0.00000000000E+00 -0.53914433114E+03  0.28750081978E+04  0.28240034575E+04 0.  0.
        5    1    3    3  502    0 -0.11188774596E+04 -0.59383851974E+03 -0.90469533357E+03  0.15566074308E+04  0.46999998093E+01 0. -1.
       -5    1    3    3    0  502  0.11188774596E+04  0.59383851974E+03  0.36555100243E+03  0.13184007670E+04  0.46999998093E+01 0.  1.
</event>
<event>
 5   0  0.3345919E-06  0.2801820E+04  0.7818609E-02  0.8302703E-01
       -2   -1    0    0    0  501  0.00000000000E+00  0.00000000000E+00  0.89805347612E+03  0.89805347612E+03  0.25500000920E-02 0.  1.
        2   -1    0    0  501    0  0.00000000000E+00  0.00000000000E+00 -0.21853368068E+04  0.21853368068E+04  0.25500000920E-02 0. -1.
    10030    2    1    2    0    0  0.00000000000E+00  0.00000000000E+00 -0.12872833306E+04  0.30833902829E+04  0.28018203481E+04 0.  0.
        2    1    3    3  502    0  0.32475375781E+03  0.45480568450E+03 -0.20573546806E+04  0.21319056020E+04  0.25500000920E-02 0. -1.
       -2    1    3    3    0  502 -0.32475375781E+03 -0.45480568450E+03  0.77007135000E+03  0.95148468089E+03  0.25500000920E-02 0.  1.
</event>
<event>
 5   0  0.3162695E-06  0.2802209E+04  0.7818609E-02  0.8302583E-01
       -2   -1    0    0    0  501  0.00000000000E+00  0.00000000000E+00  0.61689003051E+03  0.61689003051E+03  0.25500000920E-02 0.  1.
        2   -1    0    0  501    0  0.00000000000E+00  0.00000000000E+00 -0.31822436649E+04  0.31822436649E+04  0.25500000920E-02 0. -1.
    10030    2    1    2    0    0  0.00000000000E+00  0.00000000000E+00 -0.25653536344E+04  0.37991336954E+04  0.28022094080E+04 0.  0.
        1    1    3    3  502    0 -0.10864500510E+04 -0.40500687201E+03 -0.21627573346E+03  0.11794827140E+04  0.50400001928E-02 0.  1.
       -1    1    3    3    0  502  0.10864500510E+04  0.40500687201E+03 -0.23490779010E+04  0.26196509814E+04  0.50400001928E-02 0. -1.
</event>
<event>
 5   0  0.3212679E-06  0.2803656E+04  0.7818609E-02  0.8302134E-01
       -2   -1    0    0    0  501  0.00000000000E+00  0.00000000000E+00  0.75476353474E+03  0.75476353474E+03  0.25500000920E-02 0.  1.
        2   -1    0    0  501    0  0.00000000000E+00  0.00000000000E+00 -0.26036265537E+04  0.26036265537E+04  0.25500000920E-02 0. -1.
    10030    2    1    2    0    0  0.00000000000E+00  0.00000000000E+00 -0.18488630190E+04  0.33583900884E+04  0.28036564560E+04 0.  0.
        4    1    3    3  502    0 -0.86160540619E+03 -0.15246893965E+03  0.38749135190E+03  0.95695444731E+03  0.12699999809E+01 0.  1.
       -4    1    3    3    0  502  0.86160540619E+03  0.15246893965E+03 -0.22363543709E+04  0.24014356411E+04  0.12699999809E+01 0. -1.
</event>
<event>
 5   0  0.3212679E-06  0.2814940E+04  0.7818609E-02  0.8298645E-01
       -2   -1    0    0    0  501  0.00000000000E+00  0.00000000000E+00  0.14055803707E+04  0.14055803707E+04  0.25500000920E-02 0. -1.
        2   -1    0    0  501    0  0.00000000000E+00  0.00000000000E+00 -0.14093626440E+04  0.14093626440E+04  0.25500000920E-02 0.  1.
    10030    2    1    2    0    0  0.00000000000E+00  0.00000000000E+00 -0.37822733749E+01  0.28149430147E+04  0.28149404737E+04 0.  0.
        4    1    3    3  502    0  0.75458766552E+02  0.90316945650E+03  0.10749393307E+04  0.14060246336E+04  0.12699999809E+01 0. -1.
       -4    1    3    3    0  502 -0.75458766552E+02 -0.90316945650E+03 -0.10787216041E+04  0.14089183811E+04  0.12699999809E+01 0.  1.
</event>
<event>
 5   0  0.3226364E-06  0.2819523E+04  0.7818609E-02  0.8297233E-01
       -2   -1    0    0    0  501  0.00000000000E+00  0.00000000000E+00  0.10247229981E+04  0.10247229981E+04  0.25500000920E-02 0.  1.
        2   -1    0    0  501    0  0.00000000000E+00  0.00000000000E+00 -0.19394781675E+04  0.19394781675E+04  0.25500000920E-02 0. -1.
    10030    2    1    2    0    0  0.00000000000E+00  0.00000000000E+00 -0.91475516937E+03  0.29642011656E+04  0.28195232806E+04 0.  0.
        5    1    3    3  502    0  0.11077423335E+04 -0.80784539776E+03 -0.11236346158E+03  0.13756289113E+04  0.46999998093E+01 0.  1.
       -5    1    3    3    0  502 -0.11077423335E+04  0.80784539776E+03 -0.80239170779E+03  0.15885722542E+04  0.46999998093E+01 0. -1.
</event>
<event>
 5   0  0.1220265E-06  0.2650126E+04  0.7818609E-02  0.8351371E-01
       -1   -1    0    0    0  501  0.00000000000E+00  0.00000000000E+00  0.12649932359E+04  0.12649932359E+04  0.50400001928E-02 0.  1.
        1   -1    0    0  501    0  0.00000000000E+00  0.00000000000E+00 -0.13879854531E+04  0.13879854531E+04  0.50400001928E-02 0. -1.
    10030    2    1    2    0    0  0.00000000000E+00  0.00000000000E+00 -0.12299221720E+03  0.26529786890E+04  0.26501261930E+04 0.  0.
        4    1    3    3  502    0 -0.77008173355E+03 -0.10772031972E+04 -0.12474099238E+02  0.13242166819E+04  0.12699999809E+01 0.  1.
       -4    1    3    3    0  502  0.77008173355E+03  0.10772031972E+04 -0.11051811796E+03  0.13287620072E+04  0.12699999809E+01 0. -1.
</event>
<event>
 5   0  0.3226364E-06  0.2798006E+04  0.7818609E-02  0.8303888E-01
       -2   -1    0    0    0  501  0.00000000000E+00  0.00000000000E+00  0.18700327088E+04  0.18700327088E+04  0.25500000920E-02 0. -1.
        2   -1    0    0  501    0  0.00000000000E+00  0.00000000000E+00 -0.10466173815E+04  0.10466173815E+04  0.25500000920E-02 0.  1.
    10030    2    1    2    0    0  0.00000000000E+00  0.00000000000E+00  0.82341532730E+03  0.29166500902E+04  0.27980055303E+04 0.  0.
        5    1    3    3  502    0 -0.44534603188E+03  0.19989194046E+03 -0.95495288983E+03  0.10724956819E+04  0.46999998093E+01 0.  1.
       -5    1    3    3    0  502  0.44534603188E+03 -0.19989194046E+03  0.17783682171E+04  0.18441544083E+04  0.46999998093E+01 0. -1.
</event>
<event>
 5   0  0.3167616E-06  0.2794663E+04  0.7818609E-02  0.8304927E-01
       -2   -1    0    0    0  501  0.00000000000E+00  0.00000000000E+00  0.76267482289E+03  0.76267482289E+03  0.25500000920E-02 0.  1.
        2   -1    0    0  501    0  0.00000000000E+00  0.00000000000E+00 -0.25601155988E+04  0.25601155988E+04  0.25500000920E-02 0. -1.
    10030    2    1    2    0    0  0.00000000000E+00  0.00000000000E+00 -0.17974407759E+04  0.33227904217E+04  0.27946632791E+04 0.  0.
        3    1    3    3  502    0  0.64007879241E+03  0.12393928551E+03  0.57074837855E+03  0.86649612163E+03  0.10100000352E+00 0.  1.
       -3    1    3    3    0  502 -0.64007879241E+03 -0.12393928551E+03 -0.23681891545E+04  0.24562943001E+04  0.10100000352E+00 0. -1.
</event>
<event>
 5   0  0.1246044E-06  0.2738226E+04  0.7818609E-02  0.8322708E-01
       -1   -1    0    0    0  501  0.00000000000E+00  0.00000000000E+00  0.12832638890E+04  0.12832638890E+04  0.50400001928E-02 0. -1.
        1   -1    0    0  501    0  0.00000000000E+00  0.00000000000E+00 -0.14607051862E+04  0.14607051862E+04  0.50400001928E-02 0.  1.
    10030    2    1    2    0    0  0.00000000000E+00  0.00000000000E+00 -0.17744129721E+03  0.27439690752E+04  0.27382258621E+04 0.  0.
        2    1    3    3  502    0  0.91370795509E+03 -0.92163042023E+03 -0.52576078119E+03  0.14002461418E+04  0.25500000920E-02 0.  1.
       -2    1    3    3    0  502 -0.91370795509E+03  0.92163042023E+03  0.34831948398E+03  0.13437229334E+04  0.25500000920E-02 0. -1.
</event>
<event>
 5   0  0.1235252E-06  0.2795125E+04  0.7818609E-02  0.8304783E-01
       -1   -1    0    0    0  501  0.00000000000E+00  0.00000000000E+00  0.70055170452E+03  0.70055170453E+03  0.50400001928E-02 0.  1.
        1   -1    0    0  501    0  0.00000000000E+00  0.00000000000E+00 -0.27880615165E+04  0.27880615165E+04  0.50400001928E-02 0. -1.
    10030    2    1    2    0    0  0.00000000000E+00  0.00000000000E+00 -0.20875098119E+04  0.34886132210E+04  0.27951252192E+04 0.  0.
        1    1    3    3  502    0 -0.44355041582E+03 -0.51841781933E+03 -0.25660798824E+04  0.26552325642E+04  0.50400001928E-02 0. -1.
       -1    1    3    3    0  502  0.44355041582E+03  0.51841781933E+03  0.47857007049E+03  0.83338065683E+03  0.50400001928E-02 0.  1.
</event>
<event>
 5   0  0.1243055E-06  0.2776359E+04  0.7818609E-02  0.8310646E-01
       -1   -1    0    0    0  501  0.00000000000E+00  0.00000000000E+00  0.13711534432E+04  0.13711534432E+04  0.50400001928E-02 0. -1.
        1   -1    0    0  501    0  0.00000000000E+00  0.00000000000E+00 -0.14054171020E+04  0.14054171020E+04  0.50400001928E-02 0.  1.
    10030    2    1    2    0    0  0.00000000000E+00  0.00000000000E+00 -0.34263658811E+02  0.27765705453E+04  0.27763591257E+04 0.  0.
        5    1    3    3  502    0  0.98554638177E+03  0.96288952204E+03  0.15188549698E+03  0.13861995515E+04  0.46999998093E+01 0. -1.
       -5    1    3    3    0  502 -0.98554638177E+03 -0.96288952204E+03 -0.18614915579E+03  0.13903709938E+04  0.46999998093E+01 0.  1.
</event>
<event>
 5   0  0.1243055E-06  0.2806387E+04  0.7818609E-02  0.8301288E-01
        1   -1    0    0  501    0  0.00000000000E+00  0.00000000000E+00  0.10805407130E+04  0.10805407131E+04  0.50400001928E-02 0. -1.
       -1   -1    0    0    0  501  0.00000000000E+00  0.00000000000E+00 -0.18221917989E+04  0.18221917990E+04  0.50400001928E-02 0.  1.
    10030    2    1    2    0    0  0.00000000000E+00  0.00000000000E+00 -0.74165108590E+03  0.29027325120E+04  0.28063873045E+04 0.  0.
        5    1    3    3  502    0  0.58099666858E+03  0.11379604322E+04 -0.97075451681E+03  0.16046487142E+04  0.46999998093E+01 0.  1.
       -5    1    3    3    0  502 -0.58099666858E+03 -0.11379604322E+04  0.22910343091E+03  0.12980837978E+04  0.46999998093E+01 0. -1.
</event>
<event>
 5   0  0.3162695E-06  0.2778181E+04  0.7818609E-02  0.8310075E-01
       -2   -1    0    0    0  501  0.00000000000E+00  0.00000000000E+00  0.10612204566E+04  0.10612204566E+04  0.25500000920E-02 0. -1.
        2   -1    0    0  501    0  0.00000000000E+00  0.00000000000E+00 -0.18182574423E+04  0.18182574423E+04  0.25500000920E-02 0.  1.
    10030    2    1    2    0    0  0.00000000000E+00  0.00000000000E+00 -0.75703698566E+03  0.28794778989E+04  0.27781806947E+04 0.  0.
        1    1    3    3  502    0  0.27829689882E+03  0.10441114130E+04 -0.12832457822E+04  0.16775987435E+04  0.50400001928E-02 0.  1.
       -1    1    3    3    0  502 -0.27829689882E+03 -0.10441114130E+04  0.52620879654E+03  0.12018791554E+04  0.50400001928E-02 0. -1.
</event>
<event>
 5   0  0.3162695E-06  0.2800370E+04  0.7818609E-02  0.8303154E-01
       -2   -1    0    0    0  501  0.00000000000E+00  0.00000000000E+00  0.13585861501E+04  0.13585861501E+04  0.25500000920E-02 0.  1.
        2   -1    0    0  501    0  0.00000000000E+00  0.00000000000E+00 -0.14430570594E+04  0.14430570594E+04  0.25500000920E-02 0. -1.
    10030    2    1    2    0    0  0.00000000000E+00  0.00000000000E+00 -0.84470909298E+02  0.28016432095E+04  0.28003695004E+04 0.  0.
        1    1    3    3  502    0 -0.52931092939E+02 -0.11270707926E+04 -0.87172477834E+03  0.14258311125E+04  0.50400001928E-02 0. -1.
       -1    1    3    3    0  502  0.52931092939E+02  0.11270707926E+04  0.78725386904E+03  0.13758120971E+04  0.50400001928E-02 0.  1.
</event>
<event>
 5   0  0.1220265E-06  0.2797230E+04  0.7818609E-02  0.8304129E-01
       -1   -1    0    0    0  501  0.00000000000E+00  0.00000000000E+00  0.16649541788E+04  0.16649541788E+04  0.50400001928E-02 0. -1.
        1   -1    0    0  501    0  0.00000000000E+00  0.00000000000E+00 -0.11748813284E+04  0.11748813284E+04  0.50400001928E-02 0.  1.
    10030    2    1    2    0    0  0.00000000000E+00  0.00000000000E+00  0.49007285041E+03  0.28398355071E+04  0.27972297562E+04 0.  0.
        4    1    3    3  502    0  0.11385017858E+04 -0.32507058712E+03 -0.51079279836E+03  0.12894836559E+04  0.12699999809E+01 0.  1.
       -4    1    3    3    0  502 -0.11385017858E+04  0.32507058712E+03  0.10008656488E+04  0.15503518513E+04  0.12699999809E+01 0. -1.
</event>
<event>
 5   0  0.3345919E-06  0.2801215E+04  0.7818609E-02  0.8302891E-01
        2   -1    0    0  501    0  0.00000000000E+00  0.00000000000E+00  0.13601976502E+04  0.13601976502E+04  0.25500000920E-02 0. -1.
       -2   -1    0    0    0  501  0.00000000000E+00  0.00000000000E+00 -0.14422179550E+04  0.14422179550E+04  0.25500000920E-02 0.  1.
    10030    2    1    2    0    0  0.00000000000E+00  0.00000000000E+00 -0.82020304769E+02  0.28024156052E+04  0.28012150745E+04 0.  0.
        2    1    3    3  502    0  0.10795129343E+04  0.52678784439E+03  0.67960950514E+03  0.13801169109E+04  0.25500000920E-02 0. -1.
       -2    1    3    3    0  502 -0.10795129343E+04 -0.52678784439E+03 -0.76162980991E+03  0.14222986943E+04  0.25500000920E-02 0.  1.
</event>
<event>
 5   0  0.3226364E-06  0.2797571E+04  0.7818609E-02  0.8304023E-01
        2   -1    0    0  501    0  0.00000000000E+00  0.00000000000E+00  0.17784629057E+04  0.17784629057E+04  0.25500000920E-02 0.  1.
       -2   -1    0    0    0  501  0.00000000000E+00  0.00000000000E+00 -0.11001638886E+04  0.11001638886E+04  0.25500000920E-02 0. -1.
    10030    2    1    2    0    0  0.00000000000E+00  0.00000000000E+00  0.67829901706E+03  0.28786267943E+04  0.27975708507E+04 0.  0.
        5    1    3    3  502    0  0.12776126415E+04  0.27518672343E+03  0.85214916913E+03  0.15601929659E+04  0.46999998093E+01 0.  1.
       -5    1    3    3    0  502 -0.12776126415E+04 -0.27518672343E+03 -0.17385015207E+03  0.13184338284E+04  0.46999998093E+01 0. -1.
</event>
<event>
 5   0  0.3226364E-06  0.2775209E+04  0.7818609E-02  0.8311007E-01
       -2   -1    0    0    0  501  0.00000000000E+00  0.00000000000E+00  0.14855735444E+04  0.14855735444E+04  0.25500000920E-02 0.  1.
        2   -1    0    0  501    0  0.00000000000E+00  0.00000000000E+00 -0.12960961659E+04  0.12960961659E+04  0.25500000920E-02 0. -1.
    10030    2    1    2    0    0  0.00000000000E+00  0.00000000000E+00  0.18947737855E+03  0.27816697103E+04  0.27752089471E+04 0.  0.
        5    1    3    3  502    0  0.13773166440E+04 -0.16422599958E+03  0.56534760617E+02  0.13882325403E+04  0.46999998093E+01 0.  1.
       -5    1    3    3    0  502 -0.13773166440E+04  0.16422599958E+03  0.13294261793E+03  0.13934371699E+04  0.46999998093E+01 0. -1.
</event>
<event>
 5   0  0.1235252E-06  0.2796598E+04  0.7818609E-02  0.8304325E-01
        1   -1    0    0  501    0  0.00000000000E+00  0.00000000000E+00  0.12879239976E+04  0.12879239976E+04  0.50400001928E-02 0. -1.
       -1   -1    0    0    0  501  0.00000000000E+00  0.00000000000E+00 -0.15181333805E+04  0.15181333805E+04  0.50400001928E-02 0.  1.
    10030    2    1    2    0    0  0.00000000000E+00  0.00000000000E+00 -0.23020938289E+03  0.28060573781E+04  0.27965982281E+04 0.  0.
        1    1    3    3  502    0  0.31626189271E+03 -0.63088350000E+03 -0.13263351158E+04  0.15023982211E+04  0.50400001928E-02 0.  1.
       -1    1    3    3    0  502 -0.31626189271E+03  0.63088350000E+03  0.10961257329E+04  0.13036591570E+04  0.50400001928E-02 0. -1.
</event>
<event>
 5   0  0.1220265E-06  0.2801400E+04  0.7818609E-02  0.8302834E-01
       -1   -1    0    0    0  501  0.00000000000E+00  0.00000000000E+00  0.84232908991E+03  0.84232908993E+03  0.50400001928E-02 0. -1.
        1   -1    0    0  501    0  0.00000000000E+00  0.00000000000E+00 -0.23292082855E+04  0.23292082855E+04  0.50400001928E-02 0.  1.
    10030    2    1    2    0    0  0.00000000000E+00  0.00000000000E+00 -0.14868791955E+04  0.31715373754E+04  0.28013995754E+04 0.  0.
        4    1    3    3  502    0  0.95866946919E+03  0.47520058055E+03 -0.17668060952E+04  0.20655430603E+04  0.12699999809E+01 0.  1.
       -4    1    3    3    0  502 -0.95866946919E+03 -0.47520058055E+03  0.27992689969E+03  0.11059943151E+04  0.12699999809E+01 0. -1.
</event>
<event>
 5   0  0.3167616E-06  0.2805894E+04  0.7818609E-02  0.8301441E-01
        2   -1    0    0  501    0  0.00000000000E+00  0.00000000000E+00  0.16921866633E+04  0.16921866633E+04  0.25500000920E-02 0.  1.
       -2   -1    0    0    0  501  0.00000000000E+00  0.00000000000E+00 -0.11631459320E+04  0.11631459320E+04  0.25500000920E-02 0. -1.
    10030    2    1    2    0    0  0.00000000000E+00  0.00000000000E+00  0.52904073134E+03  0.28553325953E+04  0.28058938209E+04 0.  0.
        3    1    3    3  502    0 -0.78092390529E+01 -0.10287268654E+04  0.12352249796E+04  0.16075200491E+04  0.10100000352E+00 0.  1.
       -3    1    3    3    0  502  0.78092390529E+01  0.10287268654E+04 -0.70618424823E+03  0.12478125462E+04  0.10100000352E+00 0. -1.
</event>
<event>
 5   0  0.3162695E-06  0.2794693E+04  0.7818609E-02  0.8304918E-01
       -2   -1    0    0    0  501  0.00000000000E+00  0.00000000000E+00  0.14538443525E+04  0.14538443525E+04  0.25500000920E-02 0.  1.
        2   -1    0    0  501    0  0.00000000000E+00  0.00000000000E+00 -0.13430441855E+04  0.13430441855E+04  0.25500000920E-02 0. -1.
    10030    2    1    2    0    0  0.00000000000E+00  0.00000000000E+00  0.11080016703E+03  0.27968885379E+04  0.27946929736E+04 0.  0.
        1    1    3    3  502    0 -0.30133893109E+03 -0.45347718286E+03  0.13433184409E+04  0.14494658121E+04  0.50400001928E-02 0.  1.
       -1    1    3    3    0  502  0.30133893109E+03  0.45347718286E+03 -0.12325182738E+04  0.13474227259E+04  0.50400001928E-02 0. -1.
</event>
<event>
 5   0  0.3226364E-06  0.2689407E+04  0.7818609E-02  0.8338450E-01
       -2   -1    0    0    0  501  0.00000000000E+00  0.00000000000E+00  0.83875129456E+03  0.83875129456E+03  0.25500000920E-02 0. -1.
        2   -1    0    0  501    0  0.00000000000E+00  0.00000000000E+00 -0.21558563244E+04  0.21558563244E+04  0.25500000920E-02 0.  1.
    10030    2    1    2    0    0  0.00000000000E+00  0.00000000000E+00 -0.13171050298E+04  0.29946076190E+04  0.26894068364E+04 0.  0.
        5    1    3    3  502    0 -0.87904510147E+03 -0.96900879991E+03 -0.31264301702E+03  0.13451639643E+04  0.46999998093E+01 0.  1.
       -5    1    3    3    0  502  0.87904510147E+03  0.96900879991E+03 -0.10044620128E+04  0.16494436547E+04  0.46999998093E+01 0. -1.
</event>
<event>
 5   0  0.1246044E-06  0.2801891E+04  0.7818609E-02  0.8302682E-01
        1   -1    0    0  501    0  0.00000000000E+00  0.00000000000E+00  0.22770465245E+04  0.22770465246E+04  0.50400001928E-02 0. -1.
       -1   -1    0    0    0  501  0.00000000000E+00  0.00000000000E+00 -0.86192715484E+03  0.86192715486E+03  0.50400001928E-02 0.  1.
    10030    2    1    2    0    0  0.00000000000E+00  0.00000000000E+00  0.14151193697E+04  0.31389736794E+04  0.28018909560E+04 0.  0.
        2    1    3    3  502    0  0.10163316708E+04  0.73227597454E+03  0.14103136912E+04  0.18863040252E+04  0.25500000920E-02 0.  1.
       -2    1    3    3    0  502 -0.10163316708E+04 -0.73227597454E+03  0.48056785314E+01  0.12526696542E+04  0.25500000920E-02 0. -1.
</event>
<event>
 5   0  0.3167616E-06  0.2814059E+04  0.7818609E-02  0.8298917E-01
       -2   -1    0    0    0  501  0.00000000000E+00  0.00000000000E+00  0.12251949466E+04  0.12251949466E+04  0.25500000920E-02 0. -1.
        2   -1    0    0  501    0  0.00000000000E+00  0.00000000000E+00 -0.16158507933E+04  0.16158507933E+04  0.25500000920E-02 0.  1.
    10030    2    1    2    0    0  0.00000000000E+00  0.00000000000E+00 -0.39065584666E+03  0.28410457399E+04  0.28140591510E+04 0.  0.
        3    1    3    3  502    0  0.58599138196E+03 -0.80869361935E+03 -0.11959741182E+04  0.15581159685E+04  0.10100000352E+00 0.  1.
       -3    1    3    3    0  502 -0.58599138196E+03  0.80869361935E+03  0.80531827150E+03  0.12829297714E+04  0.10100000352E+00 0. -1.
</event>
<event>
 5   0  0.3212679E-06  0.2838901E+04  0.7818609E-02  0.8291292E-01
       -2   -1    0    0    0  501  0.00000000000E+00  0.00000000000E+00  0.10818363235E+04  0.10818363235E+04  0.25500000920E-02 0. -1.
        2   -1    0    0  501    0  0.00000000000E+00  0.00000000000E+00 -0.18624260033E+04  0.18624260033E+04  0.25500000920E-02 0.  1.
    10030    2    1    2    0    0  0.00000000000E+00  0.00000000000E+00 -0.78058967987E+03  0.29442623268E+04  0.28389012665E+04 0.  0.
        4    1    3    3  502    0  0.44441728520E+03  0.83411997658E+03  0.70805450482E+03  0.11809342291E+04  0.12699999809E+01 0. -1.
       -4    1    3    3    0  502 -0.44441728520E+03 -0.83411997658E+03 -0.14886441847E+04  0.17633280977E+04  0.12699999809E+01 0.  1.
</event>
<event>
 5   0  0.1065675E-06  0.2783316E+04  0.7818609E-02  0.8308467E-01
       -3   -1    0    0    0  501  0.00000000000E+00  0.00000000000E+00  0.82712359648E+03  0.82712360265E+03  0.10100000352E+00 0.  1.
        3   -1    0    0  501    0  0.00000000000E+00  0.00000000000E+00 -0.23415029206E+04  0.23415029228E+04  0.10100000352E+00 0. -1.
    10030    2    1    2    0    0  0.00000000000E+00  0.00000000000E+00 -0.15143793241E+04  0.31686265254E+04  0.27833162451E+04 0.  0.
        5    1    3    3  502    0  0.80713451522E+03 -0.17209402945E+03 -0.20328512971E+04  0.21939892814E+04  0.46999998093E+01 0. -1.
       -5    1    3    3    0  502 -0.80713451522E+03  0.17209402945E+03  0.51847197301E+03  0.97463724402E+03  0.46999998093E+01 0.  1.
</event>
<event>
 5   0  0.3167616E-06  0.2798817E+04  0.7818609E-02  0.8303636E-01
       -2   -1    0    0    0  501  0.00000000000E+00  0.00000000000E+00  0.10062188780E+04  0.10062188780E+04  0.25500000920E-02 0. -1.
        2   -1    0    0  501    0  0.00000000000E+00  0.00000000000E+00 -0.19462410388E+04  0.19462410388E+04  0.25500000920E-02 0.  1.
    10030    2    1    2    0    0  0.00000000000E+00  0.00000000000E+00 -0.94002216073E+03  0.29524599168E+04  0.27988172319E+04 0.  0.
        3    1    3    3  502    0  0.12168456182E+04 -0.16253054292E+03  0.23858908463E+03  0.12506215244E+04  0.10100000352E+00 0. -1.
       -3    1    3    3    0  502 -0.12168456182E+04  0.16253054292E+03 -0.11786112454E+04  0.17018383924E+04  0.10100000352E+00 0.  1.
</event>
<event>
 5   0  0.3212679E-06  0.2801682E+04  0.7818609E-02  0.8302746E-01
        2   -1    0    0  501    0  0.00000000000E+00  0.00000000000E+00  0.23098446292E+04  0.23098446292E+04  0.25500000920E-02 0. -1.
       -2   -1    0    0    0  501  0.00000000000E+00  0.00000000000E+00 -0.84956185692E+03  0.84956185693E+03  0.25500000920E-02 0.  1.
    10030    2    1    2    0    0  0.00000000000E+00  0.00000000000E+00  0.14602827723E+04  0.31594064861E+04  0.28016822749E+04 0.  0.
        4    1    3    3  502    0  0.12056579643E+04  0.63218506318E+03  0.11025927218E+04  0.17518508510E+04  0.12699999809E+01 0. -1.
       -4    1    3    3    0  502 -0.12056579643E+04 -0.63218506318E+03  0.35769005050E+03  0.14075556352E+04  0.12699999809E+01 0.  1.
</event>
<event>
 5   0  0.3162695E-06  0.2810480E+04  0.7818609E-02  0.8300022E-01
        2   -1    0    0  501    0  0.00000000000E+00  0.00000000000E+00  0.12570625831E+04  0.12570625831E+04  0.25500000920E-02 0. -1.
       -2   -1    0    0    0  501  0.00000000000E+00  0.00000000000E+00 -0.15708836874E+04  0.15708836874E+04  0.25500000920E-02 0.  1.
    10030    2    1    2    0    0  0.00000000000E+00  0.00000000000E+00 -0.31382110429E+03  0.28279462704E+04  0.28104797496E+04 0.  0.
        1    1    3    3  502    0 -0.11325737268E+04  0.83066864515E+03 -0.11230150968E+03  0.14090228081E+04  0.50400001928E-02 0. -1.
       -1    1    3    3    0  502  0.11325737268E+04 -0.83066864515E+03 -0.20151959461E+03  0.14189234623E+04  0.50400001928E-02 0.  1.
</event>
<event>
 5   0  0.1220265E-06  0.2810543E+04  0.7818609E-02  0.8300003E-01
        1   -1    0    0  501    0  0.00000000000E+00  0.00000000000E+00  0.18350373653E+04  0.18350373653E+04  0.50400001928E-02 0. -1.
       -1   -1    0    0    0  501  0.00000000000E+00  0.00000000000E+00 -0.10761568658E+04  0.10761568659E+04  0.50400001928E-02 0.  1.
    10030    2    1    2    0    0  0.00000000000E+00  0.00000000000E+00  0.75888049949E+03  0.29111942312E+04  0.28105430506E+04 0.  0.
        4    1    3    3  502    0 -0.12896642845E+04 -0.11485725686E+03 -0.18634477831E+03  0.13081101427E+04  0.12699999809E+01 0.  1.
       -4    1    3    3    0  502  0.12896642845E+04  0.11485725686E+03  0.94522527780E+03  0.16030840885E+04  0.12699999809E+01 0. -1.
</event>
<event>
 5   0  0.3167616E-06  0.2867900E+04  0.7818609E-02  0.8282493E-01
        2   -1    0    0  501    0  0.00000000000E+00  0.00000000000E+00  0.16536831160E+04  0.16536831160E+04  0.25500000920E-02 0. -1.
       -2   -1    0    0    0  501  0.00000000000E+00  0.00000000000E+00 -0.12434136892E+04  0.12434136892E+04  0.25500000920E-02 0.  1.
    10030    2    1    2    0    0  0.00000000000E+00  0.00000000000E+00  0.41026942682E+03  0.28970968052E+04  0.28678997360E+04 0.  0.
        3    1    3    3  502    0 -0.63593946328E+03  0.22095607752E+03  0.14841094339E+04  0.16296691109E+04  0.10100000352E+00 0. -1.
       -3    1    3    3    0  502  0.63593946328E+03 -0.22095607752E+03 -0.10738400071E+04  0.12674276942E+04  0.10100000352E+00 0.  1.
</event>
<event>
 5   0  0.3226364E-06  0.2976275E+04  0.7818609E-02  0.8250538E-01
        2   -1    0    0  501    0  0.00000000000E+00  0.00000000000E+00  0.17021198338E+04  0.17021198338E+04  0.25500000920E-02 0. -1.
       -2   -1    0    0    0  501  0.00000000000E+00  0.00000000000E+00 -0.13010558448E+04  0.13010558448E+04  0.25500000920E-02 0.  1.
    10030    2    1    2    0    0  0.00000000000E+00  0.00000000000E+00  0.40106398901E+03  0.30031756787E+04  0.29762748250E+04 0.  0.
        5    1    3    3  502    0  0.12246063659E+04  0.38036609616E+03  0.96246743002E+03  0.16033417485E+04  0.46999998093E+01 0. -1.
       -5    1    3    3    0  502 -0.12246063659E+04 -0.38036609616E+03 -0.56140344101E+03  0.13998339302E+04  0.46999998093E+01 0.  1.
</event>
<event>
 5   0  0.1263513E-06  0.2815459E+04  0.7818609E-02  0.8298485E-01
        1   -1    0    0  501    0  0.00000000000E+00  0.00000000000E+00  0.20565690434E+04  0.20565690434E+04  0.50400001928E-02 0. -1.
       -1   -1    0    0    0  501  0.00000000000E+00  0.00000000000E+00 -0.96359664469E+03  0.96359664470E+03  0.50400001928E-02 0.  1.
    10030    2    1    2    0    0  0.00000000000E+00  0.00000000000E+00  0.10929723987E+04  0.30201656881E+04  0.28154594863E+04 0.  0.
        3    1    3    3  502    0  0.28462263286E+03 -0.11226792418E+03  0.20204699819E+04  0.20435050986E+04  0.10100000352E+00 0. -1.
       -3    1    3    3    0  502 -0.28462263286E+03  0.11226792418E+03 -0.92749758324E+03  0.97666058948E+03  0.10100000352E+00 0.  1.
</event>
<event>
 5   0  0.1220265E-06  0.2797128E+04  0.7818609E-02  0.8304161E-01
       -1   -1    0    0    0  501  0.00000000000E+00  0.00000000000E+00  0.89417862628E+03  0.89417862629E+03  0.50400001928E-02 0.  1.
        1   -1    0    0  501    0  0.00000000000E+00  0.00000000000E+00 -0.21874613410E+04  0.21874613411E+04  0.50400001928E-02 0. -1.
    10030    2    1    2    0    0  0.00000000000E+00  0.00000000000E+00 -0.12932827148E+04  0.30816399673E+04  0.27971279392E+04 0.  0.
        4    1    3    3  502    0 -0.11107546156E+04  0.56659049183E+03  0.51170978020E+02  0.12479666195E+04  0.12699999809E+01 0.  1.
       -4    1    3    3    0  502  0.11107546156E+04 -0.56659049183E+03 -0.13444536928E+04  0.18336733478E+04  0.12699999809E+01 0. -1.
</event>
<event>
 5   0  0.3212679E-06  0.2798710E+04  0.7818609E-02  0.8303669E-01
        2   -1    0    0  501    0  0.00000000000E+00  0.00000000000E+00  0.21396608447E+04  0.21396608447E+04  0.25500000920E-02 0. -1.
       -2   -1    0    0    0  501  0.00000000000E+00  0.00000000000E+00 -0.91518947568E+03  0.91518947569E+03  0.25500000920E-02 0.  1.
    10030    2    1    2    0    0  0.00000000000E+00  0.00000000000E+00  0.12244713690E+04  0.30548503204E+04  0.27987104792E+04 0.  0.
        4    1    3    3  502    0  0.43335212802E+03  0.10574218356E+04  0.14937752823E+04  0.18807714407E+04  0.12699999809E+01 0. -1.
       -4    1    3    3    0  502 -0.43335212802E+03 -0.10574218356E+04 -0.26930391327E+03  0.11740788797E+04  0.12699999809E+01 0.  1.
</event>
<event>
 5   0  0.1263513E-06  0.2809190E+04  0.7818609E-02  0.8300421E-01
       -1   -1    0    0    0  501  0.00000000000E+00  0.00000000000E+00  0.77934329690E+03  0.77934329691E+03  0.50400001928E-02 0.  1.
        1   -1    0    0  501    0  0.00000000000E+00  0.00000000000E+00 -0.25314736688E+04  0.25314736688E+04  0.50400001928E-02 0. -1.
    10030    2    1    2    0    0  0.00000000000E+00  0.00000000000E+00 -0.17521303719E+04  0.33108169658E+04  0.28091899438E+04 0.  0.
        3    1    3    3  502    0  0.33894801946E+03 -0.13630389895E+04 -0.88929341514E+03  0.16624090457E+04  0.10100000352E+00 0.  1.
       -3    1    3    3    0  502 -0.33894801946E+03  0.13630389895E+04 -0.86283695680E+03  0.16484079201E+04  0.10100000352E+00 0. -1.
</event>
<event>
 5   0  0.3226364E-06  0.2804473E+04  0.7818609E-02  0.8301881E-01
        2   -1    0    0  501    0  0.00000000000E+00  0.00000000000E+00  0.15497123077E+04  0.15497123077E+04  0.25500000920E-02 0.  1.
       -2   -1    0    0    0  501  0.00000000000E+00  0.00000000000E+00 -0.12687946275E+04  0.12687946275E+04  0.25500000920E-02 0. -1.
    10030    2    1    2    0    0  0.00000000000E+00  0.00000000000E+00  0.28091768017E+03  0.28185069353E+04  0.28044726066E+04 0.  0.
        5    1    3    3  502    0 -0.99688710076E+02  0.87771426173E+03 -0.95399237335E+03  0.13001706436E+04  0.46999998093E+01 0. -1.
       -5    1    3    3    0  502  0.99688710076E+02 -0.87771426173E+03  0.12349100535E+04  0.15183362916E+04  0.46999998093E+01 0.  1.
</event>
<event>
 5   0  0.3345919E-06  0.2794883E+04  0.7818609E-02  0.8304859E-01
       -2   -1    0    0    0  501  0.00000000000E+00  0.00000000000E+00  0.12688091709E+04  0.12688091709E+04  0.25500000920E-02 0. -1.
        2   -1    0    0  501    0  0.00000000000E+00  0.00000000000E+00 -0.15391141175E+04  0.15391141175E+04  0.25500000920E-02 0.  1.
    10030    2    1    2    0    0  0.00000000000E+00  0.00000000000E+00 -0.27030494663E+03  0.28079232884E+04  0.27948825430E+04 0.  0.
        2    1    3    3  502    0 -0.78832012224E+03 -0.11374855913E+04 -0.32975712580E+03  0.14226952757E+04  0.25500000920E-02 0.  1.
       -2    1    3    3    0  502  0.78832012224E+03  0.11374855913E+04  0.59452179171E+02  0.13852280127E+04  0.25500000920E-02 0. -1.
</event>
<event>
 5   0  0.3226364E-06  0.2798534E+04  0.7818609E-02  0.8303724E-01
       -2   -1    0    0    0  501  0.00000000000E+00  0.00000000000E+00  0.11516273030E+04  0.11516273030E+04  0.25500000920E-02 0.  1.
        2   -1    0    0  501    0  0.00000000000E+00  0.00000000000E+00 -0.17001579061E+04  0.17001579061E+04  0.25500000920E-02 0. -1.
    10030    2    1    2    0    0  0.00000000000E+00  0.00000000000E+00 -0.54853060318E+03  0.28517852091E+04  0.27985340906E+04 0.  0.
        5    1    3    3  502    0 -0.10553573404E+04  0.91701956647E+03 -0.21642099494E+03  0.14147664607E+04  0.46999998093E+01 0. -1.
       -5    1    3    3    0  502  0.10553573404E+04 -0.91701956647E+03 -0.33210960824E+03  0.14370187484E+04  0.46999998093E+01 0.  1.
</event>
<event>
 5   0  0.1243055E-06  0.2778931E+04  0.7818609E-02  0.8309839E-01
        1   -1    0    0  501    0  0.00000000000E+00  0.00000000000E+00  0.15442271467E+04  0.15442271467E+04  0.50400001928E-02 0. -1.
       -1   -1    0    0    0  501  0.00000000000E+00  0.00000000000E+00 -0.12502143675E+04  0.12502143676E+04  0.50400001928E-02 0.  1.
    10030    2    1    2    0    0  0.00000000000E+00  0.00000000000E+00  0.29401277916E+03  0.27944415143E+04  0.27789314246E+04 0.  0.
        5    1    3    3  502    0 -0.49417650450E+03 -0.83780309938E+03 -0.85073523395E+03  0.12922449378E+04  0.46999998093E+01 0.  1.
       -5    1    3    3    0  502  0.49417650450E+03  0.83780309938E+03  0.11447480131E+04  0.15021965765E+04  0.46999998093E+01 0. -1.
</event>
<event>
 5   0  0.1220265E-06  0.2768079E+04  0.7818609E-02  0.8313248E-01
       -1   -1    0    0    0  501  0.00000000000E+00  0.00000000000E+00  0.73102831558E+03  0.73102831560E+03  0.50400001928E-02 0.  1.
        1   -1    0    0  501    0  0.00000000000E+00  0.00000000000E+00 -0.26203714632E+04  0.26203714632E+04  0.50400001928E-02 0. -1.
    10030    2    1    2    0    0  0.00000000000E+00  0.00000000000E+00 -0.18893431477E+04  0.33513997788E+04  0.27680792886E+04 0.  0.
        4    1    3    3  502    0 -0.69972387311E+03  0.27328035597E+03  0.46273162191E+03  0.88227989797E+03  0.12699999809E+01 0.  1.
       -4    1    3    3    0  502  0.69972387311E+03 -0.27328035597E+03 -0.23520747696E+04  0.24691198809E+04  0.12699999809E+01 0. -1.
</event>
<event>
 5   0  0.3167616E-06  0.2795741E+04  0.7818609E-02  0.8304592E-01
       -2   -1    0    0    0  501  0.00000000000E+00  0.00000000000E+00  0.94212310545E+03  0.94212310545E+03  0.25500000920E-02 0.  1.
        2   -1    0    0  501    0  0.00000000000E+00  0.00000000000E+00 -0.20740834567E+04  0.20740834567E+04  0.25500000920E-02 0. -1.
    10030    2    1    2    0    0  0.00000000000E+00  0.00000000000E+00 -0.11319603512E+04  0.30162065621E+04  0.27957410089E+04 0.  0.
        3    1    3    3  502    0  0.26725797080E+03  0.70337126885E+03  0.70500569853E+03  0.10311115410E+04  0.10100000352E+00 0.  1.
       -3    1    3    3    0  502 -0.26725797080E+03 -0.70337126885E+03 -0.18369660498E+04  0.19850950212E+04  0.10100000352E+00 0. -1.
</event>
<event>
 5   0  0.1246044E-06  0.2797656E+04  0.7818609E-02  0.8303997E-01
        1   -1    0    0  501    0  0.00000000000E+00  0.00000000000E+00  0.14942035844E+04  0.14942035844E+04  0.50400001928E-02 0.  1.
       -1   -1    0    0    0  501  0.00000000000E+00  0.00000000000E+00 -0.13095399928E+04  0.13095399928E+04  0.50400001928E-02 0. -1.
    10030    2    1    2    0    0  0.00000000000E+00  0.00000000000E+00  0.18466359159E+03  0.28037435773E+04  0.27976556981E+04 0.  0.
        2    1    3    3  502    0 -0.60203763840E+03 -0.74439346255E+03  0.11144277754E+04  0.14691903252E+04  0.25500000920E-02 0.  1.
       -2    1    3    3    0  502  0.60203763840E+03  0.74439346255E+03 -0.92976418380E+03  0.13345532521E+04  0.25500000920E-02 0. -1.
</event>
<event>
 5   0  0.3212679E-06  0.2827479E+04  0.7818609E-02  0.8294788E-01
       -2   -1    0    0    0  501  0.00000000000E+00  0.00000000000E+00  0.12768148587E+04  0.12768148587E+04  0.25500000920E-02 0. -1.
        2   -1    0    0  501    0  0.00000000000E+00  0.00000000000E+00 -0.15653475961E+04  0.15653475961E+04  0.25500000920E-02 0.  1.
    10030    2    1    2    0    0  0.00000000000E+00  0.00000000000E+00 -0.28853273740E+03  0.28421624549E+04  0.28274787849E+04 0.  0.
        4    1    3    3  502    0 -0.74533127576E+03 -0.20857241853E+03  0.10449397653E+04  0.13003545249E+04  0.12699999809E+01 0. -1.
       -4    1    3    3    0  502  0.74533127576E+03  0.20857241853E+03 -0.13334725027E+04  0.15418079299E+04  0.12699999809E+01 0.  1.
</event>
<event>
 5   0  0.1220265E-06  0.2771558E+04  0.7818609E-02  0.8312153E-01
       -1   -1    0    0    0  501  0.00000000000E+00  0.00000000000E+00  0.14725507122E+04  0.14725507122E+04  0.50400001928E-02 0. -1.
        1   -1    0    0  501    0  0.00000000000E+00  0.00000000000E+00 -0.13041205009E+04  0.13041205009E+04  0.50400001928E-02 0.  1.
    10030    2    1    2    0    0  0.00000000000E+00  0.00000000000E+00  0.16843021129E+03  0.27766712131E+04  0.27715580979E+04 0.  0.
        4    1    3    3  502    0  0.13138026923E+04 -0.20801301913E+03  0.47356432897E+03  0.14119531568E+04  0.12699999809E+01 0. -1.
       -4    1    3    3    0  502 -0.13138026923E+04  0.20801301913E+03 -0.30513411768E+03  0.13647180563E+04  0.12699999809E+01 0.  1.
</event>
<event>
 5   0  0.1235252E-06  0.2802373E+04  0.7818609E-02  0.8302532E-01
       -1   -1    0    0    0  501  0.00000000000E+00  0.00000000000E+00  0.88256416840E+03  0.88256416841E+03  0.50400001928E-02 0.  1.
        1   -1    0    0  501    0  0.00000000000E+00  0.00000000000E+00 -0.22245680800E+04  0.22245680800E+04  0.50400001928E-02 0. -1.
    10030    2    1    2    0    0  0.00000000000E+00  0.00000000000E+00 -0.13420039116E+04  0.31071322485E+04  0.28023733353E+04 0.  0.
        1    1    3    3  502    0  0.35473803988E+03  0.99570100843E+02  0.82789180278E+03  0.90617775246E+03  0.50400001928E-02 0.  1.
       -1    1    3    3    0  502 -0.35473803988E+03 -0.99570100843E+02 -0.21698957144E+04  0.22009544960E+04  0.50400001928E-02 0. -1.
</event>
<event>
 5   0  0.1243055E-06  0.2802664E+04  0.7818609E-02  0.8302442E-01
       -1   -1    0    0    0  501  0.00000000000E+00  0.00000000000E+00  0.87468388501E+03  0.87468388503E+03  0.50400001928E-02 0.  1.
        1   -1    0    0  501    0  0.00000000000E+00  0.00000000000E+00 -0.22450749822E+04  0.22450749822E+04  0.50400001928E-02 0. -1.
    10030    2    1    2    0    0  0.00000000000E+00  0.00000000000E+00 -0.13703910971E+04  0.31197588672E+04  0.28026636670E+04 0.  0.
        5    1    3    3  502    0 -0.39882157945E+02 -0.57790037839E+03 -0.21055514134E+04  0.21837875992E+04  0.46999998093E+01 0. -1.
       -5    1    3    3    0  502  0.39882157945E+02  0.57790037839E+03  0.73516031628E+03  0.93597126799E+03  0.46999998093E+01 0.  1.
</event>
<event>
 5   0  0.1263513E-06  0.2801599E+04  0.7818609E-02  0.8302772E-01
       -1   -1    0    0    0  501  0.00000000000E+00  0.00000000000E+00  0.91894872093E+03  0.91894872095E+03  0.50400001928E-02 0.  1.
        1   -1    0    0  501    0  0.00000000000E+00  0.00000000000E+00 -0.21353087643E+04  0.21353087643E+04  0.50400001928E-02 0. -1.
    10030    2    1    2    0    0  0.00000000000E+00  0.00000000000E+00 -0.12163600433E+04  0.30542574852E+04  0.28015990132E+04 0.  0.
        3    1    3    3  502    0  0.11371915518E+04 -0.20827067729E+03 -0.14704994158E+04  0.18705480060E+04  0.10100000352E+00 0. -1.
       -3    1    3    3    0  502 -0.11371915518E+04  0.20827067729E+03  0.25413937252E+03  0.11837094793E+04  0.10100000352E+00 0.  1.
</event>
<event>
 5   0  0.3345919E-06  0.2814006E+04  0.7818609E-02  0.8298933E-01
        2   -1    0    0  501    0  0.00000000000E+00  0.00000000000E+00  0.18435052429E+04  0.18435052429E+04  0.25500000920E-02 0. -1.
       -2   -1    0    0    0  501  0.00000000000E+00  0.00000000000E+00 -0.10738550814E+04  0.10738550814E+04  0.25500000920E-02 0.  1.
    10030    2    1    2    0    0  0.00000000000E+00  0.00000000000E+00  0.76965016148E+03  0.29173603243E+04  0.28140060218E+04 0.  0.
        2    1    3    3  502    0 -0.91165842592E+03 -0.17334342280E+02  0.14957395207E+04  0.17517586246E+04  0.25500000920E-02 0. -1.
       -2    1    3    3    0  502  0.91165842592E+03  0.17334342280E+02 -0.72608935920E+03  0.11656016998E+04  0.25500000920E-02 0.  1.
</event>
<event>
 5   0  0.1220265E-06  0.2807422E+04  0.7818609E-02  0.8300968E-01
       -1   -1    0    0    0  501  0.00000000000E+00  0.00000000000E+00  0.10419906940E+04  0.10419906940E+04  0.50400001928E-02 0. -1.
        1   -1    0    0  501    0  0.00000000000E+00  0.00000000000E+00 -0.18909999409E+04  0.18909999409E+04  0.50400001928E-02 0.  1.
    10030    2    1    2    0    0  0.00000000000E+00  0.00000000000E+00 -0.84900924693E+03  0.29329906350E+04  0.28074218357E+04 0.  0.
        4    1    3    3  502    0  0.79237181596E+03 -0.22284018504E+03  0.76340693379E+03  0.11226319977E+04  0.12699999809E+01 0. -1.
       -4    1    3    3    0  502 -0.79237181596E+03  0.22284018504E+03 -0.16124161807E+04  0.18103586373E+04  0.12699999809E+01 0.  1.
</event>
<event>
 5   0  0.3226364E-06  0.2810803E+04  0.7818609E-02  0.8299922E-01
       -2   -1    0    0    0  501  0.00000000000E+00  0.00000000000E+00  0.91241316848E+03  0.91241316849E+03  0.25500000920E-02 0.  1.
        2   -1    0    0  501    0  0.00000000000E+00  0.00000000000E+00 -0.21647575654E+04  0.21647575654E+04  0.25500000920E-02 0. -1.
    10030    2    1    2    0    0  0.00000000000E+00  0.00000000000E+00 -0.12523443970E+04  0.30771707339E+04  0.28108029524E+04 0.  0.
        5    1    3    3  502    0 -0.13239303237E+04  0.43551040786E+03 -0.42829377991E+03  0.14580529720E+04  0.46999998093E+01 0.  1.
       -5    1    3    3    0  502  0.13239303237E+04 -0.43551040786E+03 -0.82405061705E+03  0.16191177619E+04  0.46999998093E+01 0. -1.
</event>
<event>
 5   0  0.3212679E-06  0.2803645E+04  0.7818609E-02  0.8302138E-01
        2   -1    0    0  501    0  0.00000000000E+00  0.00000000000E+00  0.66107936894E+03  0.66107936895E+03  0.25500000920E-02 0. -1.
       -2   -1    0    0    0  501  0.00000000000E+00  0.00000000000E+00 -0.29725722021E+04  0.29725722021E+04  0.25500000920E-02 0.  1.
    10030    2    1    2    0    0  0.00000000000E+00  0.00000000000E+00 -0.23114928332E+04  0.36336515711E+04  0.28036448816E+04 0.  0.
        4    1    3    3  502    0 -0.10274065706E+04 -0.92953741000E+03 -0.87928897225E+03  0.16409615375E+04  0.12699999809E+01 0. -1.
       -4    1    3    3    0  502  0.10274065706E+04  0.92953741000E+03 -0.14322038609E+04  0.19926900336E+04  0.12699999809E+01 0.  1.
</event>
<event>
 5   0  0.1235252E-06  0.2800317E+04  0.7818609E-02  0.8303170E-01
        1   -1    0    0  501    0  0.00000000000E+00  0.00000000000E+00  0.16087988846E+04  0.16087988846E+04  0.50400001928E-02 0. -1.
       -1   -1    0    0    0  501  0.00000000000E+00  0.00000000000E+00 -0.12185761006E+04  0.12185761006E+04  0.50400001928E-02 0.  1.
    10030    2    1    2    0    0  0.00000000000E+00  0.00000000000E+00  0.39022278399E+03  0.28273749852E+04  0.28003170331E+04 0.  0.
        1    1    3    3  502    0  0.46794847752E+03 -0.12822906494E+04 -0.11966824175E+03  0.13702428892E+04  0.50400001928E-02 0.  1.
       -1    1    3    3    0  502 -0.46794847752E+03  0.12822906494E+04  0.50989102574E+03  0.14571320961E+04  0.50400001928E-02 0. -1.
</event>
<event>
 5   0  0.3226364E-06  0.2794223E+04  0.7818609E-02  0.8305064E-01
        2   -1    0    0  501    0  0.00000000000E+00  0.00000000000E+00  0.21596376897E+04  0.21596376897E+04  0.25500000920E-02 0.  1.
       -2   -1    0    0    0  501  0.00000000000E+00  0.00000000000E+00 -0.90381827815E+03  0.90381827816E+03  0.25500000920E-02 0. -1.
    10030    2    1    2    0    0  0.00000000000E+00  0.00000000000E+00  0.12558194115E+04  0.30634559678E+04  0.27942226240E+04 0.  0.
        5    1    3    3  502    0  0.11608025253E+04 -0.51949421729E+03 -0.62350622418E+01  0.12717695194E+04  0.46999998093E+01 0. -1.
       -5    1    3    3    0  502 -0.11608025253E+04  0.51949421729E+03  0.12620544738E+04  0.17916864484E+04  0.46999998093E+01 0.  1.
</event>
<event>
 5   0  0.3162695E-06  0.2783504E+04  0.7818609E-02  0.8308408E-01
        2   -1    0    0  501    0  0.00000000000E+00  0.00000000000E+00  0.11490110278E+04  0.11490110278E+04  0.25500000920E-02 0. -1.
       -2   -1    0    0    0  501  0.00000000000E+00  0.00000000000E+00 -0.16857750801E+04  0.16857750801E+04  0.25500000920E-02 0.  1.
    10030    2    1    2    0    0  0.00000000000E+00  0.00000000000E+00 -0.53676405224E+03  0.28347861079E+04  0.27835043794E+04 0.  0.
        1    1    3    3  502    0 -0.56510617973E+03  0.79874364280E+03  0.73961939484E+03  0.12265289440E+04  0.50400001928E-02 0. -1.
       -1    1    3    3    0  502  0.56510617973E+03 -0.79874364280E+03 -0.12763834471E+04  0.16082571639E+04  0.50400001928E-02 0.  1.
</event>
<event>
 5   0  0.3167616E-06  0.2796526E+04  0.7818609E-02  0.8304348E-01
       -2   -1    0    0    0  501  0.00000000000E+00  0.00000000000E+00  0.10906175808E+04  0.10906175808E+04  0.25500000920E-02 0. -1.
        2   -1    0    0  501    0  0.00000000000E+00  0.00000000000E+00 -0.17926898192E+04  0.17926898192E+04  0.25500000920E-02 0.  1.
    10030    2    1    2    0    0  0.00000000000E+00  0.00000000000E+00 -0.70207223849E+03  0.28833074000E+04  0.27965257258E+04 0.  0.
        3    1    3    3  502    0 -0.84612242204E+03  0.30774073106E+03 -0.14540531310E+04  0.17102333258E+04  0.10100000352E+00 0.  1.
       -3    1    3    3    0  502  0.84612242204E+03 -0.30774073106E+03  0.75198089254E+03  0.11730740742E+04  0.10100000352E+00 0. -1.
</event>
<event>
 5   0  0.1235252E-06  0.2797240E+04  0.7818609E-02  0.8304126E-01
        1   -1    0    0  501    0  0.00000000000E+00  0.00000000000E+00  0.27037457780E+04  0.27037457780E+04  0.50400001928E-02 0.  1.
       -1   -1    0    0    0  501  0.00000000000E+00  0.00000000000E+00 -0.72349173463E+03  0.72349173465E+03  0.50400001928E-02 0. -1.
    10030    2    1    2    0    0  0.00000000000E+00  0.00000000000E+00  0.19802540434E+04  0.34272375127E+04  0.27972398703E+04 0.  0.
        1    1    3    3  502    0 -0.43788220005E+03 -0.16001627547E+02  0.26174775946E+04  0.26539001171E+04  0.50400001928E-02 0.  1.
       -1    1    3    3    0  502  0.43788220005E+03  0.16001627547E+02 -0.63722355120E+03  0.77333739560E+03  0.50400001928E-02 0. -1.
</event>
<event>
 5   0  0.1246044E-06  0.2796889E+04  0.7818609E-02  0.8304235E-01
       -1   -1    0    0    0  501  0.00000000000E+00  0.00000000000E+00  0.98384206026E+03  0.98384206027E+03  0.50400001928E-02 0. -1.
        1   -1    0    0  501    0  0.00000000000E+00  0.00000000000E+00 -0.19877653156E+04  0.19877653156E+04  0.50400001928E-02 0.  1.
    10030    2    1    2    0    0  0.00000000000E+00  0.00000000000E+00 -0.10039232554E+04  0.29716073759E+04  0.27968890743E+04 0.  0.
        2    1    3    3  502    0 -0.29712407838E+03 -0.12733862614E+04  0.24847040355E+02  0.13078274596E+04  0.25500000920E-02 0. -1.
       -2    1    3    3    0  502  0.29712407838E+03  0.12733862614E+04 -0.10287702957E+04  0.16637799163E+04  0.25500000920E-02 0.  1.
</event>
<event>
 5   0  0.3162695E-06  0.2756270E+04  0.7818609E-02  0.8316975E-01
        2   -1    0    0  501    0  0.00000000000E+00  0.00000000000E+00  0.20345535803E+04  0.20345535803E+04  0.25500000920E-02 0. -1.
       -2   -1    0    0    0  501  0.00000000000E+00  0.00000000000E+00 -0.93350044828E+03  0.93350044828E+03  0.25500000920E-02 0.  1.
    10030    2    1    2    0    0  0.00000000000E+00  0.00000000000E+00  0.11010531320E+04  0.29680540286E+04  0.27562704361E+04 0.  0.
        1    1    3    3  502    0  0.56789644358E+03 -0.10915796771E+03 -0.79652502688E+03  0.98431394942E+03  0.50400001928E-02 0.  1.
       -1    1    3    3    0  502 -0.56789644358E+03  0.10915796771E+03  0.18975781589E+04  0.19837400792E+04  0.50400001928E-02 0. -1.
</event>
<event>
 5   0  0.3167616E-06  0.2802306E+04  0.7818609E-02  0.8302553E-01
       -2   -1    0    0    0  501  0.00000000000E+00  0.00000000000E+00  0.74317911147E+03  0.74317911147E+03  0.25500000920E-02 0.  1.
        2   -1    0    0  501    0  0.00000000000E+00  0.00000000000E+00 -0.26416643945E+04  0.26416643945E+04  0.25500000920E-02 0. -1.
    10030    2    1    2    0    0  0.00000000000E+00  0.00000000000E+00 -0.18984852830E+04  0.33848435059E+04  0.28023060486E+04 0.  0.
        3    1    3    3  502    0 -0.26283744659E+03 -0.11035486959E+04 -0.19425902377E+04  0.22495688674E+04  0.10100000352E+00 0. -1.
       -3    1    3    3    0  502  0.26283744659E+03  0.11035486959E+04  0.44104954703E+02  0.11352746385E+04  0.10100000352E+00 0.  1.
</event>
<event>
 5   0  0.1243055E-06  0.2798172E+04  0.7818609E-02  0.8303836E-01
       -1   -1    0    0    0  501  0.00000000000E+00  0.00000000000E+00  0.28011531340E+04  0.28011531340E+04  0.50400001928E-02 0.  1.
        1   -1    0    0  501    0  0.00000000000E+00  0.00000000000E+00 -0.69879845244E+03  0.69879845246E+03  0.50400001928E-02 0. -1.
    10030    2    1    2    0    0  0.00000000000E+00  0.00000000000E+00  0.21023546816E+04  0.34999515865E+04  0.27981718854E+04 0.  0.
        5    1    3    3  502    0  0.69597995843E+03 -0.79447918837E+03  0.21988047326E+04  0.24393338487E+04  0.46999998093E+01 0.  1.
       -5    1    3    3    0  502 -0.69597995843E+03  0.79447918837E+03 -0.96450051047E+02  0.10606177378E+04  0.46999998093E+01 0. -1.
</event>
<event>
 5   0  0.3167616E-06  0.2832825E+04  0.7818609E-02  0.8293150E-01
       -2   -1    0    0    0  501  0.00000000000E+00  0.00000000000E+00  0.12167417055E+04  0.12167417055E+04  0.25500000920E-02 0. -1.
        2   -1    0    0  501    0  0.00000000000E+00  0.00000000000E+00 -0.16488492689E+04  0.16488492689E+04  0.25500000920E-02 0.  1.
    10030    2    1    2    0    0  0.00000000000E+00  0.00000000000E+00 -0.43210756340E+03  0.28655909745E+04  0.28328245069E+04 0.  0.
        3    1    3    3  502    0 -0.84587771925E+03  0.10198188923E+04  0.29042098584E+03  0.13564232556E+04  0.10100000352E+00 0. -1.
       -3    1    3    3    0  502  0.84587771925E+03 -0.10198188923E+04 -0.72252854924E+03  0.15091677189E+04  0.10100000352E+00 0.  1.
</event>
<event>
 5   0  0.1220265E-06  0.2803691E+04  0.7818609E-02  0.8302123E-01
        1   -1    0    0  501    0  0.00000000000E+00  0.00000000000E+00  0.19243173670E+04  0.19243173670E+04  0.50400001928E-02 0. -1.
       -1   -1    0    0    0  501  0.00000000000E+00  0.00000000000E+00 -0.10212301720E+04  0.10212301721E+04  0.50400001928E-02 0.  1.
    10030    2    1    2    0    0  0.00000000000E+00  0.00000000000E+00  0.90308719499E+03  0.29455475391E+04  0.28036911070E+04 0.  0.
        4    1    3    3  502    0 -0.36247780546E+03  0.18928158754E+03  0.18602642391E+04  0.19046790625E+04  0.12699999809E+01 0. -1.
       -4    1    3    3    0  502  0.36247780546E+03 -0.18928158754E+03 -0.95717704415E+03  0.10408684766E+04  0.12699999809E+01 0.  1.
</event>
<event>
 5   0  0.1220265E-06  0.2800556E+04  0.7818609E-02  0.8303096E-01
        1   -1    0    0  501    0  0.00000000000E+00  0.00000000000E+00  0.21894151577E+04  0.21894151577E+04  0.50400001928E-02 0. -1.
       -1   -1    0    0    0  501  0.00000000000E+00  0.00000000000E+00 -0.89557196913E+03  0.89557196914E+03  0.50400001928E-02 0.  1.
    10030    2    1    2    0    0  0.00000000000E+00  0.00000000000E+00  0.12938431885E+04  0.30849871268E+04  0.28005562619E+04 0.  0.
        4    1    3    3  502    0 -0.55424257225E+01 -0.83467803220E+03  0.18854122755E+04  0.20619163895E+04  0.12699999809E+01 0. -1.
       -4    1    3    3    0  502  0.55424257225E+01  0.83467803220E+03 -0.59156908696E+03  0.10230707373E+04  0.12699999809E+01 0.  1.
</event>
<event>
 5   0  0.3167616E-06  0.2804879E+04  0.7818609E-02  0.8301755E-01
        2   -1    0    0  501    0  0.00000000000E+00  0.00000000000E+00  0.23915824825E+04  0.23915824825E+04  0.25500000920E-02 0. -1.
       -2   -1    0    0    0  501  0.00000000000E+00  0.00000000000E+00 -0.82239972126E+03  0.82239972127E+03  0.25500000920E-02 0.  1.
    10030    2    1    2    0    0  0.00000000000E+00  0.00000000000E+00  0.15691827612E+04  0.32139822037E+04  0.28048791539E+04 0.  0.
        3    1    3    3  502    0 -0.44025302945E+03  0.87660200483E+03  0.19330681495E+04  0.21677191437E+04  0.10100000352E+00 0. -1.
       -3    1    3    3    0  502  0.44025302945E+03 -0.87660200483E+03 -0.36388538835E+03  0.10462630601E+04  0.10100000352E+00 0.  1.
</event>
<event>
 5   0  0.1243055E-06  0.2739467E+04  0.7818609E-02  0.8322312E-01
        1   -1    0    0  501    0  0.00000000000E+00  0.00000000000E+00  0.26045230818E+04  0.26045230818E+04  0.50400001928E-02 0. -1.
       -1   -1    0    0    0  501  0.00000000000E+00  0.00000000000E+00 -0.72035068241E+03  0.72035068242E+03  0.50400001928E-02 0.  1.
    10030    2    1    2    0    0  0.00000000000E+00  0.00000000000E+00  0.18841723994E+04  0.33248737642E+04  0.27394670864E+04 0.  0.
        5    1    3    3  502    0 -0.55538296715E+03  0.86343603703E+03 -0.15841731658E+03  0.10387926484E+04  0.46999998093E+01 0.  1.
       -5    1    3    3    0  502  0.55538296715E+03 -0.86343603703E+03  0.20425897160E+04  0.22860811158E+04  0.46999998093E+01 0. -1.
</event>
<event>
 5   0  0.1235252E-06  0.2794420E+04  0.7818609E-02  0.8305003E-01
       -1   -1    0    0    0  501  0.00000000000E+00  0.00000000000E+00  0.75905104869E+03  0.75905104870E+03  0.50400001928E-02 0.  1.
        1   -1    0    0  501    0  0.00000000000E+00  0.00000000000E+00 -0.25718907109E+04  0.25718907110E+04  0.50400001928E-02 0. -1.
    10030    2    1    2    0    0  0.00000000000E+00  0.00000000000E+00 -0.18128396623E+04  0.33309417597E+04  0.27944203988E+04 0.  0.
        1    1    3    3  502    0 -0.11008118233E+04  0.53517630878E+03 -0.17095784136E+04  0.21025838162E+04  0.50400001928E-02 0. -1.
       -1    1    3    3    0  502  0.11008118233E+04 -0.53517630878E+03 -0.10326124868E+03  0.12283579435E+04  0.50400001928E-02 0.  1.
</event>
<event>
 5   0  0.1220265E-06  0.2793875E+04  0.7818609E-02  0.8305172E-01
       -1   -1    0    0    0  501  0.00000000000E+00  0.00000000000E+00  0.74171102211E+03  0.74171102213E+03  0.50400001928E-02 0. -1.
        1   -1    0    0  501    0  0.00000000000E+00  0.00000000000E+00 -0.26309899208E+04  0.26309899208E+04  0.50400001928E-02 0.  1.
    10030    2    1    2    0    0  0.00000000000E+00  0.00000000000E+00 -0.18892788987E+04  0.33727009429E+04  0.27938748887E+04 0.  0.
        4    1    3    3  502    0  0.13748056297E+04 -0.99734344533E+02 -0.12183124509E+04  0.18396533097E+04  0.12699999809E+01 0. -1.
       -4    1    3    3    0  502 -0.13748056297E+04  0.99734344533E+02 -0.67096644779E+03  0.15330476333E+04  0.12699999809E+01 0.  1.
</event>
<event>
 5   0  0.3345919E-06  0.2816263E+04  0.7818609E-02  0.8298237E-01
       -2   -1    0    0    0  501  0.00000000000E+00  0.00000000000E+00  0.12919852727E+04  0.12919852727E+04  0.25500000920E-02 0.  1.
        2   -1    0    0  501    0  0.00000000000E+00  0.00000000000E+00 -0.15347188994E+04  0.15347188994E+04  0.25500000920E-02 0. -1.
    10030    2    1    2    0    0  0.00000000000E+00  0.00000000000E+00 -0.24273362671E+03  0.28267041722E+04  0.28162629251E+04 0.  0.
        2    1    3    3  502    0 -0.32747473608E+03 -0.11553354391E+04  0.61674696030E+03  0.13499690710E+04  0.25500000920E-02 0. -1.
       -2    1    3    3    0  502  0.32747473608E+03  0.11553354391E+04 -0.85948058701E+03  0.14767351012E+04  0.25500000920E-02 0.  1.
</event>
<event>
 5   0  0.3345919E-06  0.2725734E+04  0.7818609E-02  0.8326703E-01
        2   -1    0    0  501    0  0.00000000000E+00  0.00000000000E+00  0.26615222560E+04  0.26615222560E+04  0.25500000920E-02 0.  1.
       -2   -1    0    0    0  501  0.00000000000E+00  0.00000000000E+00 -0.69787347255E+03  0.69787347255E+03  0.25500000920E-02 0. -1.
    10030    2    1    2    0    0  0.00000000000E+00  0.00000000000E+00  0.19636487834E+04  0.33593957285E+04  0.27257335006E+04 0.  0.
        2    1    3    3  502    0 -0.94299382489E+03  0.73099048914E+03  0.17935948164E+04  0.21541974873E+04  0.25500000920E-02 0.  1.
       -2    1    3    3    0  502  0.94299382489E+03 -0.73099048914E+03  0.17005396709E+03  0.12051982413E+04  0.25500000920E-02 0. -1.
</event>
<event>
 5   0  0.3345919E-06  0.2852359E+04  0.7818609E-02  0.8287195E-01
       -2   -1    0    0    0  501  0.00000000000E+00  0.00000000000E+00  0.12597916124E+04  0.12597916124E+04  0.25500000920E-02 0.  1.
        2   -1    0    0  501    0  0.00000000000E+00  0.00000000000E+00 -0.16145434883E+04  0.16145434883E+04  0.25500000920E-02 0. -1.
    10030    2    1    2    0    0  0.00000000000E+00  0.00000000000E+00 -0.35475187586E+03  0.28743351007E+04  0.28523592651E+04 0.  0.
        2    1    3    3  502    0  0.74027570350E+02 -0.22010461563E+03 -0.15953640558E+04  0.16121763531E+04  0.25500000920E-02 0. -1.
       -2    1    3    3    0  502 -0.74027570350E+02  0.22010461563E+03  0.12406121799E+04  0.12621587475E+04  0.25500000920E-02 0.  1.
</event>
<event>
 5   0  0.1246044E-06  0.2804006E+04  0.7818609E-02  0.8302026E-01
        1   -1    0    0  501    0  0.00000000000E+00  0.00000000000E+00  0.13852984958E+04  0.13852984958E+04  0.50400001928E-02 0. -1.
       -1   -1    0    0    0  501  0.00000000000E+00  0.00000000000E+00 -0.14189087588E+04  0.14189087588E+04  0.50400001928E-02 0.  1.
    10030    2    1    2    0    0  0.00000000000E+00  0.00000000000E+00 -0.33610262957E+02  0.28042072546E+04  0.28040058268E+04 0.  0.
        2    1    3    3  502    0 -0.11738333523E+04  0.65041768001E+03 -0.42264738294E+03  0.14069679128E+04  0.25500000920E-02 0.  1.
       -2    1    3    3    0  502  0.11738333523E+04 -0.65041768001E+03  0.38903711998E+03  0.13972393418E+04  0.25500000920E-02 0. -1.
</event>
<event>
 5   0  0.1220265E-06  0.2854114E+04  0.7818609E-02  0.8286662E-01
        1   -1    0    0  501    0  0.00000000000E+00  0.00000000000E+00  0.16706698082E+04  0.16706698082E+04  0.50400001928E-02 0. -1.
       -1   -1    0    0    0  501  0.00000000000E+00  0.00000000000E+00 -0.12189667672E+04  0.12189667672E+04  0.50400001928E-02 0.  1.
    10030    2    1    2    0    0  0.00000000000E+00  0.00000000000E+00  0.45170304108E+03  0.28896365754E+04  0.28541135052E+04 0.  0.
        4    1    3    3  502    0 -0.10062855447E+04  0.95028348405E+03 -0.12609563529E+03  0.13898025110E+04  0.12699999809E+01 0.  1.
       -4    1    3    3    0  502  0.10062855447E+04 -0.95028348405E+03  0.57779867637E+03  0.14998340644E+04  0.12699999809E+01 0. -1.
</event>
<event>
 5   0  0.1263513E-06  0.2799493E+04  0.7818609E-02  0.8303426E-01
       -1   -1    0    0    0  501  0.00000000000E+00  0.00000000000E+00  0.24377443320E+04  0.24377443320E+04  0.50400001928E-02 0.  1.
        1   -1    0    0  501    0  0.00000000000E+00  0.00000000000E+00 -0.80373093520E+03  0.80373093521E+03  0.50400001928E-02 0. -1.
    10030    2    1    2    0    0  0.00000000000E+00  0.00000000000E+00  0.16340133968E+04  0.32414752672E+04  0.27994931911E+04 0.  0.
        3    1    3    3  502    0  0.38692666376E+02 -0.12443546531E+04  0.15578458069E+04  0.19941913633E+04  0.10100000352E+00 0.  1.
       -3    1    3    3    0  502 -0.38692666376E+02  0.12443546531E+04  0.76167589956E+02  0.12472839040E+04  0.10100000352E+00 0. -1.
</event>
<event>
 5   0  0.3226364E-06  0.2803041E+04  0.7818609E-02  0.8302325E-01
       -2   -1    0    0    0  501  0.00000000000E+00  0.00000000000E+00  0.10784320473E+04  0.10784320473E+04  0.25500000920E-02 0.  1.
        2   -1    0    0  501    0  0.00000000000E+00  0.00000000000E+00 -0.18214032736E+04  0.18214032736E+04  0.25500000920E-02 0. -1.
    10030    2    1    2    0    0  0.00000000000E+00  0.00000000000E+00 -0.74297122636E+03  0.28998353209E+04  0.28030409639E+04 0.  0.
        5    1    3    3  502    0 -0.14235104451E+03 -0.83672783553E+03  0.78231214498E+03  0.11543013787E+04  0.46999998093E+01 0.  1.
       -5    1    3    3    0  502  0.14235104451E+03  0.83672783553E+03 -0.15252833713E+04  0.17455339422E+04  0.46999998093E+01 0. -1.
</event>
<event>
 5   0  0.1220265E-06  0.2802698E+04  0.7818609E-02  0.8302431E-01
        1   -1    0    0  501    0  0.00000000000E+00  0.00000000000E+00  0.20291611818E+04  0.20291611818E+04  0.50400001928E-02 0.  1.
       -1   -1    0    0    0  501  0.00000000000E+00  0.00000000000E+00 -0.96777892335E+03  0.96777892336E+03  0.50400001928E-02 0. -1.
    10030    2    1    2    0    0  0.00000000000E+00  0.00000000000E+00  0.10613822585E+04  0.29969401052E+04  0.28026982884E+04 0.  0.
        4    1    3    3  502    0  0.12645455936E+04 -0.58826931900E+03  0.67668737503E+03  0.15501753986E+04  0.12699999809E+01 0. -1.
       -4    1    3    3    0  502 -0.12645455936E+04  0.58826931900E+03  0.38469488347E+03  0.14467647066E+04  0.12699999809E+01 0.  1.
</event>
<event>
 5   0  0.3226364E-06  0.2798873E+04  0.7818609E-02  0.8303618E-01
        2   -1    0    0  501    0  0.00000000000E+00  0.00000000000E+00  0.30655664193E+04  0.30655664193E+04  0.25500000920E-02 0.  1.
       -2   -1    0    0    0  501  0.00000000000E+00  0.00000000000E+00 -0.63884532209E+03  0.63884532210E+03  0.25500000920E-02 0. -1.
    10030    2    1    2    0    0  0.00000000000E+00  0.00000000000E+00  0.24267210972E+04  0.37044117414E+04  0.27988731779E+04 0.  0.
        5    1    3    3  502    0  0.51092594634E+03  0.63472125652E+03  0.27192199417E+04  0.28386784914E+04  0.46999998093E+01 0.  1.
       -5    1    3    3    0  502 -0.51092594634E+03 -0.63472125652E+03 -0.29249884450E+03  0.86573325000E+03  0.46999998093E+01 0. -1.
</event>
<event>
 5   0  0.1220265E-06  0.2801869E+04  0.7818609E-02  0.8302688E-01
        1   -1    0    0  501    0  0.00000000000E+00  0.00000000000E+00  0.16326797716E+04  0.16326797716E+04  0.50400001928E-02 0. -1.
       -1   -1    0    0    0  501  0.00000000000E+00  0.00000000000E+00 -0.12020839184E+04  0.12020839184E+04  0.50400001928E-02 0.  1.
    10030    2    1    2    0    0  0.00000000000E+00  0.00000000000E+00  0.43059585313E+03  0.28347636900E+04  0.28018694455E+04 0.  0.
        4    1    3    3  502    0 -0.45724090395E+03  0.80668592126E+02  0.15525718247E+04  0.16205115087E+04  0.12699999809E+01 0. -1.
       -4    1    3    3    0  502  0.45724090395E+03 -0.80668592126E+02 -0.11219759716E+04  0.12142521813E+04  0.12699999809E+01 0.  1.
</event>
<event>
 5   0  0.1065675E-06  0.2807048E+04  0.7818609E-02  0.8301083E-01
        3   -1    0    0  501    0  0.00000000000E+00  0.00000000000E+00  0.88929620280E+03  0.88929620853E+03  0.10100000352E+00 0.  1.
       -3   -1    0    0    0  501  0.00000000000E+00  0.00000000000E+00 -0.22151003075E+04  0.22151003098E+04  0.10100000352E+00 0. -1.
    10030    2    1    2    0    0  0.00000000000E+00  0.00000000000E+00 -0.13258041047E+04  0.31043965184E+04  0.28070484889E+04 0.  0.
        4    1    3    3  502    0  0.13056768603E+04  0.45028000805E+03 -0.38678599600E+03  0.14342765315E+04  0.12699999809E+01 0. -1.
       -4    1    3    3    0  502 -0.13056768603E+04 -0.45028000805E+03 -0.93901810875E+03  0.16701199869E+04  0.12699999809E+01 0.  1.
</event>
<event>
 5   0  0.1263513E-06  0.2806816E+04  0.7818609E-02  0.8301155E-01
       -1   -1    0    0    0  501  0.00000000000E+00  0.00000000000E+00  0.85069613228E+03  0.85069613230E+03  0.50400001928E-02 0. -1.
        1   -1    0    0  501    0  0.00000000000E+00  0.00000000000E+00 -0.23152261890E+04  0.23152261890E+04  0.50400001928E-02 0.  1.
    10030    2    1    2    0    0  0.00000000000E+00  0.00000000000E+00 -0.14645300567E+04  0.31659223213E+04  0.28068159643E+04 0.  0.
        3    1    3    3  502    0  0.28762296026E+03 -0.13502461399E+04 -0.44766977962E+03  0.14513097007E+04  0.10100000352E+00 0.  1.
       -3    1    3    3    0  502 -0.28762296026E+03  0.13502461399E+04 -0.10168602771E+04  0.17146126206E+04  0.10100000352E+00 0. -1.
</event>
<event>
 5   0  0.1263513E-06  0.2818143E+04  0.7818609E-02  0.8297658E-01
       -1   -1    0    0    0  501  0.00000000000E+00  0.00000000000E+00  0.90203976637E+03  0.90203976638E+03  0.50400001928E-02 0.  1.
        1   -1    0    0  501    0  0.00000000000E+00  0.00000000000E+00 -0.22011025250E+04  0.22011025250E+04  0.50400001928E-02 0. -1.
    10030    2    1    2    0    0  0.00000000000E+00  0.00000000000E+00 -0.12990627586E+04  0.31031422914E+04  0.28181426560E+04 0.  0.
        3    1    3    3  502    0  0.17408239023E+03 -0.43188480836E+03 -0.21139323678E+04  0.21646106422E+04  0.10100000352E+00 0. -1.
       -3    1    3    3    0  502 -0.17408239023E+03  0.43188480836E+03  0.81486960922E+03  0.93853164918E+03  0.10100000352E+00 0.  1.
</event>
<event>
 5   0  0.3212679E-06  0.2794887E+04  0.7818609E-02  0.8304857E-01
       -2   -1    0    0    0  501  0.00000000000E+00  0.00000000000E+00  0.88133188535E+03  0.88133188535E+03  0.25500000920E-02 0.  1.
        2   -1    0    0  501    0  0.00000000000E+00  0.00000000000E+00 -0.22157922975E+04  0.22157922975E+04  0.25500000920E-02 0. -1.
    10030    2    1    2    0    0  0.00000000000E+00  0.00000000000E+00 -0.13344604121E+04  0.30971241828E+04  0.27948870482E+04 0.  0.
        4    1    3    3  502    0  0.14032461040E+02  0.79973370442E+03 -0.19370417484E+04  0.20956868220E+04  0.12699999809E+01 0. -1.
       -4    1    3    3    0  502 -0.14032461040E+02 -0.79973370442E+03  0.60258133627E+03  0.10014373608E+04  0.12699999809E+01 0.  1.
</event>
<event>
 5   0  0.3345919E-06  0.2800039E+04  0.7818609E-02  0.8303256E-01
       -2   -1    0    0    0  501  0.00000000000E+00  0.00000000000E+00  0.12089115318E+04  0.12089115318E+04  0.25500000920E-02 0. -1.
        2   -1    0    0  501    0  0.00000000000E+00  0.00000000000E+00 -0.16213380290E+04  0.16213380290E+04  0.25500000920E-02 0.  1.
    10030    2    1    2    0    0  0.00000000000E+00  0.00000000000E+00 -0.41242649720E+03  0.28302495607E+04  0.28000387427E+04 0.  0.
        2    1    3    3  502    0 -0.10467613943E+04 -0.16089230492E+03  0.71934013841E+03  0.12802523131E+04  0.25500000920E-02 0. -1.
       -2    1    3    3    0  502  0.10467613943E+04  0.16089230492E+03 -0.11317666356E+04  0.15499972477E+04  0.25500000920E-02 0.  1.
</event>
<event>
 5   0  0.1263513E-06  0.2801103E+04  0.7818609E-02  0.8302926E-01
       -1   -1    0    0    0  501  0.00000000000E+00  0.00000000000E+00  0.82053135166E+03  0.82053135168E+03  0.50400001928E-02 0.  1.
        1   -1    0    0  501    0  0.00000000000E+00  0.00000000000E+00 -0.23905790009E+04  0.23905790009E+04  0.50400001928E-02 0. -1.
    10030    2    1    2    0    0  0.00000000000E+00  0.00000000000E+00 -0.15700476492E+04  0.32111103525E+04  0.28011033675E+04 0.  0.
        3    1    3    3  502    0  0.22334634790E+03  0.13043533806E+04 -0.25928484597E+03  0.13484991561E+04  0.10100000352E+00 0.  1.
       -3    1    3    3    0  502 -0.22334634790E+03 -0.13043533806E+04 -0.13107628032E+04  0.18626111964E+04  0.10100000352E+00 0. -1.
</event>
<event>
 5   0  0.3167616E-06  0.2776563E+04  0.7818609E-02  0.8310582E-01
       -2   -1    0    0    0  501  0.00000000000E+00  0.00000000000E+00  0.12188801121E+04  0.12188801121E+04  0.25500000920E-02 0.  1.
        2   -1    0    0  501    0  0.00000000000E+00  0.00000000000E+00 -0.15812264832E+04  0.15812264832E+04  0.25500000920E-02 0. -1.
    10030    2    1    2    0    0  0.00000000000E+00  0.00000000000E+00 -0.36234637109E+03  0.28001065953E+04  0.27765629927E+04 0.  0.
        3    1    3    3  502    0 -0.10863593554E+04 -0.32582984236E+02 -0.10522607806E+04  0.15127759452E+04  0.10100000352E+00 0. -1.
       -3    1    3    3    0  502  0.10863593554E+04  0.32582984236E+02  0.68991440948E+03  0.12873306500E+04  0.10100000352E+00 0.  1.
</event>
<event>
 5   0  0.1235252E-06  0.2666329E+04  0.7818609E-02  0.8346013E-01
        1   -1    0    0  501    0  0.00000000000E+00  0.00000000000E+00  0.12752912278E+04  0.12752912279E+04  0.50400001928E-02 0. -1.
       -1   -1    0    0    0  501  0.00000000000E+00  0.00000000000E+00 -0.13936645890E+04  0.13936645890E+04  0.50400001928E-02 0.  1.
    10030    2    1    2    0    0  0.00000000000E+00  0.00000000000E+00 -0.11837336113E+03  0.26689558168E+04  0.26663294807E+04 0.  0.
        1    1    3    3  502    0 -0.31705404866E+03 -0.12617316090E+04 -0.35074373451E+03  0.13474090286E+04  0.50400001928E-02 0.  1.
       -1    1    3    3    0  502  0.31705404866E+03  0.12617316090E+04  0.23237037338E+03  0.13215467882E+04  0.50400001928E-02 0. -1.
</event>
<event>
 5   0  0.1220265E-06  0.2756712E+04  0.7818609E-02  0.8316835E-01
       -1   -1    0    0    0  501  0.00000000000E+00  0.00000000000E+00  0.14661069341E+04  0.14661069341E+04  0.50400001928E-02 0. -1.
        1   -1    0    0  501    0  0.00000000000E+00  0.00000000000E+00 -0.12958569312E+04  0.12958569312E+04  0.50400001928E-02 0.  1.
    10030    2    1    2    0    0  0.00000000000E+00  0.00000000000E+00  0.17025000286E+03  0.27619638653E+04  0.27567116879E+04 0.  0.
        4    1    3    3  502    0 -0.53974656279E+03 -0.10166169634E+04 -0.67462497358E+03  0.13341502427E+04  0.12699999809E+01 0.  1.
       -4    1    3    3    0  502  0.53974656279E+03  0.10166169634E+04  0.84487497644E+03  0.14278136226E+04  0.12699999809E+01 0. -1.
</event>
<event>
 5   0  0.1243055E-06  0.2802822E+04  0.7818609E-02  0.8302393E-01
        1   -1    0    0  501    0  0.00000000000E+00  0.00000000000E+00  0.24267319187E+04  0.24267319187E+04  0.50400001928E-02 0. -1.
       -1   -1    0    0    0  501  0.00000000000E+00  0.00000000000E+00 -0.80929940304E+03  0.80929940305E+03  0.50400001928E-02 0.  1.
    10030    2    1    2    0    0  0.00000000000E+00  0.00000000000E+00  0.16174325157E+04  0.32360313218E+04  0.28028219303E+04 0.  0.
        5    1    3    3  502    0  0.10939572013E+04 -0.65609908777E+03  0.13874973016E+03  0.12831531276E+04  0.46999998093E+01 0.  1.
       -5    1    3    3    0  502 -0.10939572013E+04  0.65609908777E+03  0.14786827855E+04  0.19528781942E+04  0.46999998093E+01 0. -1.
</event>
<event>
 5   0  0.3167616E-06  0.2801165E+04  0.7818609E-02  0.8302907E-01
       -2   -1    0    0    0  501  0.00000000000E+00  0.00000000000E+00  0.11007273599E+04  0.11007273599E+04  0.25500000920E-02 0.  1.
        2   -1    0    0  501    0  0.00000000000E+00  0.00000000000E+00 -0.17821223133E+04  0.17821223133E+04  0.25500000920E-02 0. -1.
    10030    2    1    2    0    0  0.00000000000E+00  0.00000000000E+00 -0.68139495339E+03  0.28828496732E+04  0.28011646070E+04 0.  0.
        3    1    3    3  502    0 -0.48545789762E+03 -0.30005739060E+03  0.97563416977E+03  0.11302945861E+04  0.10100000352E+00 0.  1.
       -3    1    3    3    0  502  0.48545789762E+03  0.30005739060E+03 -0.16570291232E+04  0.17525550871E+04  0.10100000352E+00 0. -1.
</event>
<event>
 5   0  0.1235252E-06  0.2919729E+04  0.7818609E-02  0.8267032E-01
       -1   -1    0    0    0  501  0.00000000000E+00  0.00000000000E+00  0.15366624424E+04  0.15366624424E+04  0.50400001928E-02 0.  1.
        1   -1    0    0  501    0  0.00000000000E+00  0.00000000000E+00 -0.13869047374E+04  0.13869047375E+04  0.50400001928E-02 0. -1.
    10030    2    1    2    0    0  0.00000000000E+00  0.00000000000E+00  0.14975770493E+03  0.29235671798E+04  0.29197290430E+04 0.  0.
        1    1    3    3  502    0 -0.70819563596E+03  0.11697071167E+04 -0.43711377554E+03  0.14355571220E+04  0.50400001928E-02 0.  1.
       -1    1    3    3    0  502  0.70819563596E+03 -0.11697071167E+04  0.58687148048E+03  0.14880100579E+04  0.50400001928E-02 0. -1.
</event>
<event>
 5   0  0.3162695E-06  0.2801408E+04  0.7818609E-02  0.8302831E-01
       -2   -1    0    0    0  501  0.00000000000E+00  0.00000000000E+00  0.85142192079E+03  0.85142192079E+03  0.25500000920E-02 0.  1.
        2   -1    0    0  501    0  0.00000000000E+00  0.00000000000E+00 -0.23043470947E+04  0.23043470947E+04  0.25500000920E-02 0. -1.
    10030    2    1    2    0    0  0.00000000000E+00  0.00000000000E+00 -0.14529251739E+04  0.31557690155E+04  0.28014079528E+04 0.  0.
        1    1    3    3  502    0  0.21309311643E+03 -0.85647332725E+02 -0.22829932831E+04  0.22945157381E+04  0.50400001928E-02 0. -1.
       -1    1    3    3    0  502 -0.21309311643E+03  0.85647332725E+02  0.83006810917E+03  0.86125327736E+03  0.50400001928E-02 0.  1.
</event>
<event>
 5   0  0.1220265E-06  0.2780132E+04  0.7818609E-02  0.8309463E-01
       -1   -1    0    0    0  501  0.00000000000E+00  0.00000000000E+00  0.15112659242E+04  0.15112659242E+04  0.50400001928E-02 0. -1.
        1   -1    0    0  501    0  0.00000000000E+00  0.00000000000E+00 -0.12785859460E+04  0.12785859460E+04  0.50400001928E-02 0.  1.
    10030    2    1    2    0    0  0.00000000000E+00  0.00000000000E+00  0.23267997820E+03  0.27898518702E+04  0.27801319187E+04 0.  0.
        4    1    3    3  502    0 -0.13124827715E+04  0.25020702175E+02 -0.34247259244E+03  0.13566599244E+04  0.12699999809E+01 0.  1.
       -4    1    3    3    0  502  0.13124827715E+04 -0.25020702175E+02  0.57515257065E+03  0.14331919458E+04  0.12699999809E+01 0. -1.
</event>
<event>
 5   0  0.1243055E-06  0.2797339E+04  0.7818609E-02  0.8304095E-01
       -1   -1    0    0    0  501  0.00000000000E+00  0.00000000000E+00  0.94745616817E+03  0.94745616818E+03  0.50400001928E-02 0. -1.
        1   -1    0    0  501    0  0.00000000000E+00  0.00000000000E+00 -0.20647676441E+04  0.20647676441E+04  0.50400001928E-02 0.  1.
    10030    2    1    2    0    0  0.00000000000E+00  0.00000000000E+00 -0.11173114759E+04  0.30122238123E+04  0.27973393360E+04 0.  0.
        5    1    3    3  502    0 -0.22611566778E+03 -0.13771226419E+04 -0.65886159653E+03  0.15432808427E+04  0.46999998093E+01 0.  1.
       -5    1    3    3    0  502  0.22611566778E+03  0.13771226419E+04 -0.45844987938E+03  0.14689429696E+04  0.46999998093E+01 0. -1.
</event>
<event>
 5   0  0.1246044E-06  0.2790778E+04  0.7818609E-02  0.8306137E-01
       -1   -1    0    0    0  501  0.00000000000E+00  0.00000000000E+00  0.15199503274E+04  0.15199503274E+04  0.50400001928E-02 0.  1.
        1   -1    0    0  501    0  0.00000000000E+00  0.00000000000E+00 -0.12810359947E+04  0.12810359947E+04  0.50400001928E-02 0. -1.
    10030    2    1    2    0    0  0.00000000000E+00  0.00000000000E+00  0.23891433272E+03  0.28009863221E+04  0.27907784430E+04 0.  0.
        2    1    3    3  502    0  0.10452412348E+04  0.84242364455E+03 -0.26259809123E+03  0.13679051844E+04  0.25500000920E-02 0.  1.
       -2    1    3    3    0  502 -0.10452412348E+04 -0.84242364455E+03  0.50151242396E+03  0.14330811377E+04  0.25500000920E-02 0. -1.
</event>
<event>
 5   0  0.1220265E-06  0.2828757E+04  0.7818609E-02  0.8294396E-01
       -1   -1    0    0    0  501  0.00000000000E+00  0.00000000000E+00  0.88274833988E+03  0.88274833990E+03  0.50400001928E-02 0. -1.
        1   -1    0    0  501    0  0.00000000000E+00  0.00000000000E+00 -0.22661800374E+04  0.22661800374E+04  0.50400001928E-02 0.  1.
    10030    2    1    2    0    0  0.00000000000E+00  0.00000000000E+00 -0.13834316975E+04  0.31489283773E+04  0.28287570881E+04 0.  0.
        4    1    3    3  502    0  0.59531217961E+03 -0.83561729553E+03 -0.17754637616E+04  0.20505916311E+04  0.12699999809E+01 0.  1.
       -4    1    3    3    0  502 -0.59531217961E+03  0.83561729553E+03  0.39203206414E+03  0.10983367462E+04  0.12699999809E+01 0. -1.
</event>
<event>
 5   0  0.1243055E-06  0.2822533E+04  0.7818609E-02  0.8296307E-01
        1   -1    0    0  501    0  0.00000000000E+00  0.00000000000E+00  0.15000899444E+04  0.15000899444E+04  0.50400001928E-02 0. -1.
       -1   -1    0    0    0  501  0.00000000000E+00  0.00000000000E+00 -0.13277020631E+04  0.13277020631E+04  0.50400001928E-02 0.  1.
    10030    2    1    2    0    0  0.00000000000E+00  0.00000000000E+00  0.17238788133E+03  0.28277920076E+04  0.28225325607E+04 0.  0.
        5    1    3    3  502    0 -0.11109389967E+04 -0.51586513939E+03  0.78846238578E+03  0.14567076989E+04  0.46999998093E+01 0. -1.
       -5    1    3    3    0  502  0.11109389967E+04  0.51586513939E+03 -0.61607450445E+03  0.13710843086E+04  0.46999998093E+01 0.  1.
</event>
<event>
 5   0  0.3345919E-06  0.2780174E+04  0.7818609E-02  0.8309450E-01
        2   -1    0    0  501    0  0.00000000000E+00  0.00000000000E+00  0.17871597737E+04  0.17871597737E+04  0.25500000920E-02 0. -1.
       -2   -1    0    0    0  501  0.00000000000E+00  0.00000000000E+00 -0.10812363535E+04  0.10812363535E+04  0.25500000920E-02 0.  1.
    10030    2    1    2    0    0  0.00000000000E+00  0.00000000000E+00  0.70592342020E+03  0.28683961271E+04  0.27801741793E+04 0.  0.
        2    1    3    3  502    0  0.11913796278E+04  0.70726970794E+03  0.23657121727E+03  0.14055539115E+04  0.25500000920E-02 0.  1.
       -2    1    3    3    0  502 -0.11913796278E+04 -0.70726970794E+03  0.46935220293E+03  0.14628422156E+04  0.25500000920E-02 0. -1.
</event>
<event>
 5   0  0.1235252E-06  0.2800871E+04  0.7818609E-02  0.8302998E-01
       -1   -1    0    0    0  501  0.00000000000E+00  0.00000000000E+00  0.10783314976E+04  0.10783314976E+04  0.50400001928E-02 0. -1.
        1   -1    0    0  501    0  0.00000000000E+00  0.00000000000E+00 -0.18187542966E+04  0.18187542966E+04  0.50400001928E-02 0.  1.
    10030    2    1    2    0    0  0.00000000000E+00  0.00000000000E+00 -0.74042279900E+03  0.28970857942E+04  0.28008713247E+04 0.  0.
        1    1    3    3  502    0 -0.51259644827E+03 -0.87048526783E+03 -0.13734366691E+04  0.17049422290E+04  0.50400001928E-02 0.  1.
       -1    1    3    3    0  502  0.51259644827E+03  0.87048526783E+03  0.63301387007E+03  0.11921435652E+04  0.50400001928E-02 0. -1.
</event>
<event>
 5   0  0.1235252E-06  0.2772404E+04  0.7818609E-02  0.8311887E-01
       -1   -1    0    0    0  501  0.00000000000E+00  0.00000000000E+00  0.14048051349E+04  0.14048051349E+04  0.50400001928E-02 0. -1.
        1   -1    0    0  501    0  0.00000000000E+00  0.00000000000E+00 -0.13678451371E+04  0.13678451371E+04  0.50400001928E-02 0.  1.
    10030    2    1    2    0    0  0.00000000000E+00  0.00000000000E+00  0.36959997834E+02  0.27726502720E+04  0.27724039189E+04 0.  0.
        1    1    3    3  502    0  0.49666815947E+03  0.60147927444E+03  0.11644872702E+04  0.14016016484E+04  0.50400001928E-02 0. -1.
       -1    1    3    3    0  502 -0.49666815947E+03 -0.60147927444E+03 -0.11275272724E+04  0.13710486236E+04  0.50400001928E-02 0.  1.
</event>
<event>
 5   0  0.1235252E-06  0.2819314E+04  0.7818609E-02  0.8297297E-01
       -1   -1    0    0    0  501  0.00000000000E+00  0.00000000000E+00  0.30378533333E+04  0.30378533333E+04  0.50400001928E-02 0.  1.
        1   -1    0    0  501    0  0.00000000000E+00  0.00000000000E+00 -0.65412380897E+03  0.65412380899E+03  0.50400001928E-02 0. -1.
    10030    2    1    2    0    0  0.00000000000E+00  0.00000000000E+00  0.23837295243E+04  0.36919771423E+04  0.28193135289E+04 0.  0.
        1    1    3    3  502    0 -0.94907525659E+03  0.93136432763E+03  0.18046198875E+04  0.22416146618E+04  0.50400001928E-02 0. -1.
       -1    1    3    3    0  502  0.94907525659E+03 -0.93136432763E+03  0.57910963684E+03  0.14503624805E+04  0.50400001928E-02 0.  1.
</event>
<event>
 5   0  0.3212679E-06  0.2795322E+04  0.7818609E-02  0.8304722E-01
       -2   -1    0    0    0  501  0.00000000000E+00  0.00000000000E+00  0.10477105192E+04  0.10477105192E+04  0.25500000920E-02 0.  1.
        2   -1    0    0  501    0  0.00000000000E+00  0.00000000000E+00 -0.18645005532E+04  0.18645005532E+04  0.25500000920E-02 0. -1.
    10030    2    1    2    0    0  0.00000000000E+00  0.00000000000E+00 -0.81679003401E+03  0.29122110723E+04  0.27953224090E+04 0.  0.
        4    1    3    3  502    0  0.15474666943E+03  0.13852112589E+04 -0.51615355739E+03  0.14863286552E+04  0.12699999809E+01 0.  1.
       -4    1    3    3    0  502 -0.15474666943E+03 -0.13852112589E+04 -0.30063647662E+03  0.14258824171E+04  0.12699999809E+01 0. -1.
</event>
<event>
 5   0  0.1263513E-06  0.2799095E+04  0.7818609E-02  0.8303549E-01
       -1   -1    0    0    0  501  0.00000000000E+00  0.00000000000E+00  0.13917769002E+04  0.13917769002E+04  0.50400001928E-02 0. -1.
        1   -1    0    0  501    0  0.00000000000E+00  0.00000000000E+00 -0.14073614359E+04  0.14073614359E+04  0.50400001928E-02 0.  1.
    10030    2    1    2    0    0  0.00000000000E+00  0.00000000000E+00 -0.15584535723E+02  0.27991383361E+04  0.27990949514E+04 0.  0.
        3    1    3    3  502    0 -0.13094059631E+04 -0.45905701305E+03  0.17511985871E+03  0.13985507830E+04  0.10100000352E+00 0. -1.
       -3    1    3    3    0  502  0.13094059631E+04  0.45905701305E+03 -0.19070439443E+03  0.14005875531E+04  0.10100000352E+00 0.  1.
</event>
<event>
 5   0  0.3212679E-06  0.2811346E+04  0.7818609E-02  0.8299754E-01
        2   -1    0    0  501    0  0.00000000000E+00  0.00000000000E+00  0.18569403158E+04  0.18569403158E+04  0.25500000920E-02 0. -1.
       -2   -1    0    0    0  501  0.00000000000E+00  0.00000000000E+00 -0.10640713065E+04  0.10640713065E+04  0.25500000920E-02 0.  1.
    10030    2    1    2    0    0  0.00000000000E+00  0.00000000000E+00  0.79286900937E+03  0.29210116223E+04  0.28113462312E+04 0.  0.
        4    1    3    3  502    0  0.12879755592E+03 -0.63931406366E+03  0.16902412240E+04  0.18116921070E+04  0.12699999809E+01 0. -1.
       -4    1    3    3    0  502 -0.12879755592E+03  0.63931406366E+03 -0.89737221467E+03  0.11093195153E+04  0.12699999809E+01 0.  1.
</event>
<event>
 5   0  0.3167616E-06  0.2753535E+04  0.7818609E-02  0.8317841E-01
        2   -1    0    0  501    0  0.00000000000E+00  0.00000000000E+00  0.21748684969E+04  0.21748684969E+04  0.25500000920E-02 0. -1.
       -2   -1    0    0    0  501  0.00000000000E+00  0.00000000000E+00 -0.87154161817E+03  0.87154161818E+03  0.25500000920E-02 0.  1.
    10030    2    1    2    0    0  0.00000000000E+00  0.00000000000E+00  0.13033268787E+04  0.30464101150E+04  0.27535347531E+04 0.  0.
        3    1    3    3  502    0 -0.72049203794E+03  0.88564125955E+03 -0.19960335998E+03  0.11590128252E+04  0.10100000352E+00 0.  1.
       -3    1    3    3    0  502  0.72049203794E+03 -0.88564125955E+03  0.15029302387E+04  0.18873972899E+04  0.10100000352E+00 0. -1.
</event>
<event>
 5   0  0.3162695E-06  0.2787472E+04  0.7818609E-02  0.8307168E-01
        2   -1    0    0  501    0  0.00000000000E+00  0.00000000000E+00  0.94818828255E+03  0.94818828256E+03  0.25500000920E-02 0. -1.
       -2   -1    0    0    0  501  0.00000000000E+00  0.00000000000E+00 -0.20486433114E+04  0.20486433114E+04  0.25500000920E-02 0.  1.
    10030    2    1    2    0    0  0.00000000000E+00  0.00000000000E+00 -0.11004550288E+04  0.29968315939E+04  0.27874716737E+04 0.  0.
        1    1    3    3  502    0  0.68920320794E+03  0.95505088335E+03  0.25098100662E+03  0.12042070907E+04  0.50400001928E-02 0. -1.
       -1    1    3    3    0  502 -0.68920320794E+03 -0.95505088335E+03 -0.13514360354E+04  0.17926245032E+04  0.50400001928E-02 0.  1.
</event>
<event>
 5   0  0.3212679E-06  0.2811547E+04  0.7818609E-02  0.8299692E-01
       -2   -1    0    0    0  501  0.00000000000E+00  0.00000000000E+00  0.13395445985E+04  0.13395445985E+04  0.25500000920E-02 0. -1.
        2   -1    0    0  501    0  0.00000000000E+00  0.00000000000E+00 -0.14752766134E+04  0.14752766134E+04  0.25500000920E-02 0.  1.
    10030    2    1    2    0    0  0.00000000000E+00  0.00000000000E+00 -0.13573201490E+03  0.28148212119E+04  0.28115467763E+04 0.  0.
        4    1    3    3  502    0  0.37686967255E+02  0.13152375724E+04  0.42761140032E+03  0.13835184502E+04  0.12699999809E+01 0. -1.
       -4    1    3    3    0  502 -0.37686967255E+02 -0.13152375724E+04 -0.56334341522E+03  0.14313027617E+04  0.12699999809E+01 0.  1.
</event>
<event>
 5   0  0.1263513E-06  0.2793066E+04  0.7818609E-02  0.8305424E-01
        1   -1    0    0  501    0  0.00000000000E+00  0.00000000000E+00  0.20404959164E+04  0.20404959164E+04  0.50400001928E-02 0. -1.
       -1   -1    0    0    0  501  0.00000000000E+00  0.00000000000E+00 -0.95579915043E+03  0.95579915044E+03  0.50400001928E-02 0.  1.
    10030    2    1    2    0    0  0.00000000000E+00  0.00000000000E+00  0.10846967660E+04  0.29962950668E+04  0.27930658878E+04 0.  0.
        3    1    3    3  502    0  0.18093077296E+03 -0.22358312537E+01 -0.94317076529E+03  0.96037078581E+03  0.10100000352E+00 0.  1.
       -3    1    3    3    0  502 -0.18093077296E+03  0.22358312537E+01  0.20278675313E+04  0.20359242810E+04  0.10100000352E+00 0. -1.
</event>
<event>
 5   0  0.3167616E-06  0.2785319E+04  0.7818609E-02  0.8307841E-01
        2   -1    0    0  501    0  0.00000000000E+00  0.00000000000E+00  0.24686244360E+04  0.24686244360E+04  0.25500000920E-02 0.  1.
       -2   -1    0    0    0  501  0.00000000000E+00  0.00000000000E+00 -0.78566024745E+03  0.78566024745E+03  0.25500000920E-02 0. -1.
    10030    2    1    2    0    0  0.00000000000E+00  0.00000000000E+00  0.16829641886E+04  0.32542846835E+04  0.27853187144E+04 0.  0.
        3    1    3    3  502    0 -0.47975820815E+03  0.10650170948E+04  0.17274975027E+04  0.20853481682E+04  0.10100000352E+00 0.  1.
       -3    1    3    3    0  502  0.47975820815E+03 -0.10650170948E+04 -0.44533314179E+02  0.11689365153E+04  0.10100000352E+00 0. -1.
</event>
<event>
 5   0  0.1263513E-06  0.2796879E+04  0.7818609E-02  0.8304238E-01
       -1   -1    0    0    0  501  0.00000000000E+00  0.00000000000E+00  0.13965768990E+04  0.13965768990E+04  0.50400001928E-02 0.  1.
        1   -1    0    0  501    0  0.00000000000E+00  0.00000000000E+00 -0.14003043690E+04  0.14003043690E+04  0.50400001928E-02 0. -1.
    10030    2    1    2    0    0  0.00000000000E+00  0.00000000000E+00 -0.37274699715E+01  0.27968812680E+04  0.27968787841E+04 0.  0.
        3    1    3    3  502    0  0.11477053258E+04 -0.79876552852E+03  0.17600060274E+02  0.13984146941E+04  0.10100000352E+00 0. -1.
       -3    1    3    3    0  502 -0.11477053258E+04  0.79876552852E+03 -0.21327530245E+02  0.13984665738E+04  0.10100000352E+00 0.  1.
</event>
<event>
 5   0  0.3212679E-06  0.2813361E+04  0.7818609E-02  0.8299132E-01
        2   -1    0    0  501    0  0.00000000000E+00  0.00000000000E+00  0.15135617841E+04  0.15135617841E+04  0.25500000920E-02 0. -1.
       -2   -1    0    0    0  501  0.00000000000E+00  0.00000000000E+00 -0.13073466168E+04  0.13073466168E+04  0.25500000920E-02 0.  1.
    10030    2    1    2    0    0  0.00000000000E+00  0.00000000000E+00  0.20621516729E+03  0.28209084009E+04  0.28133608924E+04 0.  0.
        4    1    3    3  502    0 -0.13230851828E+02  0.88047344713E+03  0.12030188836E+04  0.14908603535E+04  0.12699999809E+01 0. -1.
       -4    1    3    3    0  502  0.13230851828E+02 -0.88047344713E+03 -0.99680371629E+03  0.13300480474E+04  0.12699999809E+01 0.  1.
</event>
<event>
 5   0  0.3345919E-06  0.2849406E+04  0.7818609E-02  0.8288092E-01
       -2   -1    0    0    0  501  0.00000000000E+00  0.00000000000E+00  0.14608821950E+04  0.14608821950E+04  0.25500000920E-02 0. -1.
        2   -1    0    0  501    0  0.00000000000E+00  0.00000000000E+00 -0.13894196225E+04  0.13894196225E+04  0.25500000920E-02 0.  1.
    10030    2    1    2    0    0  0.00000000000E+00  0.00000000000E+00  0.71462572454E+02  0.28503018175E+04  0.28494058244E+04 0.  0.
        2    1    3    3  502    0  0.54360737097E+03 -0.67839435744E+03 -0.10933621041E+04  0.13968423564E+04  0.25500000920E-02 0.  1.
       -2    1    3    3    0  502 -0.54360737097E+03  0.67839435744E+03  0.11648246766E+04  0.14534594611E+04  0.25500000920E-02 0. -1.
</event>
<event>
 5   0  0.3162695E-06  0.2793974E+04  0.7818609E-02  0.8305142E-01
       -2   -1    0    0    0  501  0.00000000000E+00  0.00000000000E+00  0.16613824054E+04  0.16613824054E+04  0.25500000920E-02 0. -1.
        2   -1    0    0  501    0  0.00000000000E+00  0.00000000000E+00 -0.11746680910E+04  0.11746680910E+04  0.25500000920E-02 0.  1.
    10030    2    1    2    0    0  0.00000000000E+00  0.00000000000E+00  0.48671431441E+03  0.28360504964E+04  0.27939741577E+04 0.  0.
        1    1    3    3  502    0  0.31228112092E+02 -0.12014766207E+04  0.96615636433E+03  0.15420698380E+04  0.50400001928E-02 0. -1.
       -1    1    3    3    0  502 -0.31228112092E+02  0.12014766207E+04 -0.47944204991E+03  0.12939806584E+04  0.50400001928E-02 0.  1.
</event>
<event>
 5   0  0.3167616E-06  0.2798597E+04  0.7818609E-02  0.8303704E-01
        2   -1    0    0  501    0  0.00000000000E+00  0.00000000000E+00  0.19504140409E+04  0.19504140409E+04  0.25500000920E-02 0.  1.
       -2   -1    0    0    0  501  0.00000000000E+00  0.00000000000E+00 -0.10039081549E+04  0.10039081549E+04  0.25500000920E-02 0. -1.
    10030    2    1    2    0    0  0.00000000000E+00  0.00000000000E+00  0.94650588599E+03  0.29543221959E+04  0.27985971923E+04 0.  0.
        3    1    3    3  502    0 -0.87044677160E+03 -0.73429059527E+02 -0.68071951900E+03  0.11074513455E+04  0.10100000352E+00 0. -1.
       -3    1    3    3    0  502  0.87044677160E+03  0.73429059527E+02  0.16272254050E+04  0.18468708503E+04  0.10100000352E+00 0.  1.
</event>
<event>
 5   0  0.3345919E-06  0.2774407E+04  0.7818609E-02  0.8311258E-01
        2   -1    0    0  501    0  0.00000000000E+00  0.00000000000E+00  0.24278437772E+04  0.24278437772E+04  0.25500000920E-02 0. -1.
       -2   -1    0    0    0  501  0.00000000000E+00  0.00000000000E+00 -0.79260986580E+03  0.79260986581E+03  0.25500000920E-02 0.  1.
    10030    2    1    2    0    0  0.00000000000E+00  0.00000000000E+00  0.16352339113E+04  0.32204536430E+04  0.27744065531E+04 0.  0.
        2    1    3    3  502    0 -0.64996190169E+03 -0.11836690037E+04  0.11861692109E+04  0.17973647879E+04  0.25500000920E-02 0. -1.
       -2    1    3    3    0  502  0.64996190169E+03  0.11836690037E+04  0.44906470046E+03  0.14230888550E+04  0.25500000920E-02 0.  1.
</event>
<event>
 5   0  0.1246044E-06  0.2763423E+04  0.7818609E-02  0.8314715E-01
        1   -1    0    0  501    0  0.00000000000E+00  0.00000000000E+00  0.72900847064E+03  0.72900847066E+03  0.50400001928E-02 0.  1.
       -1   -1    0    0    0  501  0.00000000000E+00  0.00000000000E+00 -0.26187990500E+04  0.26187990500E+04  0.50400001928E-02 0. -1.
    10030    2    1    2    0    0  0.00000000000E+00  0.00000000000E+00 -0.18897905794E+04  0.33478075207E+04  0.27634230153E+04 0.  0.
        2    1    3    3  502    0  0.97188681998E+02  0.74149082261E+03  0.46264057878E+03  0.87936942468E+03  0.25500000920E-02 0.  1.
       -2    1    3    3    0  502 -0.97188681998E+02 -0.74149082261E+03 -0.23524311582E+04  0.24684380960E+04  0.25500000920E-02 0. -1.
</event>
<event>
 5   0  0.1246044E-06  0.2801561E+04  0.7818609E-02  0.8302784E-01
        1   -1    0    0  501    0  0.00000000000E+00  0.00000000000E+00  0.15730115443E+04  0.15730115443E+04  0.50400001928E-02 0. -1.
       -1   -1    0    0    0  501  0.00000000000E+00  0.00000000000E+00 -0.12474073475E+04  0.12474073475E+04  0.50400001928E-02 0.  1.
    10030    2    1    2    0    0  0.00000000000E+00  0.00000000000E+00  0.32560419675E+03  0.28204188918E+04  0.28015611063E+04 0.  0.
        2    1    3    3  502    0 -0.31246652816E+03 -0.73944314218E+03 -0.99286857480E+03  0.12767926608E+04  0.25500000920E-02 0.  1.
       -2    1    3    3    0  502  0.31246652816E+03  0.73944314218E+03  0.13184727716E+04  0.15436262310E+04  0.25500000920E-02 0. -1.
</event>
<event>
 5   0  0.1220265E-06  0.2800954E+04  0.7818609E-02  0.8302972E-01
        1   -1    0    0  501    0  0.00000000000E+00  0.00000000000E+00  0.12373989395E+04  0.12373989395E+04  0.50400001928E-02 0. -1.
       -1   -1    0    0    0  501  0.00000000000E+00  0.00000000000E+00 -0.15850469150E+04  0.15850469150E+04  0.50400001928E-02 0.  1.
    10030    2    1    2    0    0  0.00000000000E+00  0.00000000000E+00 -0.34764797557E+03  0.28224458545E+04  0.28009536745E+04 0.  0.
        4    1    3    3  502    0 -0.29124820694E+03 -0.99182865386E+02  0.12029212517E+04  0.12416456457E+04  0.12699999809E+01 0. -1.
       -4    1    3    3    0  502  0.29124820694E+03  0.99182865386E+02 -0.15505692272E+04  0.15808002088E+04  0.12699999809E+01 0.  1.
</event>
<event>
 5   0  0.1243055E-06  0.2803894E+04  0.7818609E-02  0.8302060E-01
        1   -1    0    0  501    0  0.00000000000E+00  0.00000000000E+00  0.13175355490E+04  0.13175355490E+04  0.50400001928E-02 0.  1.
       -1   -1    0    0    0  501  0.00000000000E+00  0.00000000000E+00 -0.14917668890E+04  0.14917668890E+04  0.50400001928E-02 0. -1.
    10030    2    1    2    0    0  0.00000000000E+00  0.00000000000E+00 -0.17423133994E+03  0.28093024380E+04  0.28038943683E+04 0.  0.
        5    1    3    3  502    0  0.10076711133E+03 -0.10126336904E+04  0.87903298355E+03  0.13447312288E+04  0.46999998093E+01 0.  1.
       -5    1    3    3    0  502 -0.10076711133E+03  0.10126336904E+04 -0.10532643235E+04  0.14645712092E+04  0.46999998093E+01 0. -1.
</event>
<event>
 5   0  0.1243055E-06  0.2701204E+04  0.7818609E-02  0.8334614E-01
       -1   -1    0    0    0  501  0.00000000000E+00  0.00000000000E+00  0.10001842940E+04  0.10001842940E+04  0.50400001928E-02 0. -1.
        1   -1    0    0  501    0  0.00000000000E+00  0.00000000000E+00 -0.18237902170E+04  0.18237902170E+04  0.50400001928E-02 0.  1.
    10030    2    1    2    0    0  0.00000000000E+00  0.00000000000E+00 -0.82360592299E+03  0.28239745110E+04  0.27012044207E+04 0.  0.
        5    1    3    3  502    0 -0.45797816328E+03 -0.82154448594E+03  0.60148843291E+03  0.11164630604E+04  0.46999998093E+01 0. -1.
       -5    1    3    3    0  502  0.45797816328E+03  0.82154448594E+03 -0.14250943559E+04  0.17075114505E+04  0.46999998093E+01 0.  1.
</event>
<event>
 5   0  0.3167616E-06  0.2791919E+04  0.7818609E-02  0.8305782E-01
        2   -1    0    0  501    0  0.00000000000E+00  0.00000000000E+00  0.19149460198E+04  0.19149460198E+04  0.25500000920E-02 0. -1.
       -2   -1    0    0    0  501  0.00000000000E+00  0.00000000000E+00 -0.10176280742E+04  0.10176280742E+04  0.25500000920E-02 0.  1.
    10030    2    1    2    0    0  0.00000000000E+00  0.00000000000E+00  0.89731794562E+03  0.29325740940E+04  0.27919189317E+04 0.  0.
        3    1    3    3  502    0  0.12021489228E+04 -0.67988798373E+03  0.66210350043E+03  0.15315974531E+04  0.10100000352E+00 0.  1.
       -3    1    3    3    0  502 -0.12021489228E+04  0.67988798373E+03  0.23521444519E+03  0.14009766409E+04  0.10100000352E+00 0. -1.
</event>
<event>
 5   0  0.3167616E-06  0.2823805E+04  0.7818609E-02  0.8295916E-01
       -2   -1    0    0    0  501  0.00000000000E+00  0.00000000000E+00  0.16504530525E+04  0.16504530525E+04  0.25500000920E-02 0. -1.
        2   -1    0    0  501    0  0.00000000000E+00  0.00000000000E+00 -0.12078313356E+04  0.12078313356E+04  0.25500000920E-02 0.  1.
    10030    2    1    2    0    0  0.00000000000E+00  0.00000000000E+00  0.44262171690E+03  0.28582843880E+04  0.28238051736E+04 0.  0.
        3    1    3    3  502    0 -0.10227421077E+04  0.33174448116E+03 -0.70496549849E+03  0.12857029921E+04  0.10100000352E+00 0.  1.
       -3    1    3    3    0  502  0.10227421077E+04 -0.33174448116E+03  0.11475872154E+04  0.15725813959E+04  0.10100000352E+00 0. -1.
</event>
<event>
 5   0  0.1065675E-06  0.2792344E+04  0.7818609E-02  0.8305649E-01
        3   -1    0    0  501    0  0.00000000000E+00  0.00000000000E+00  0.20689281584E+04  0.20689281608E+04  0.10100000352E+00 0.  1.
       -3   -1    0    0    0  501  0.00000000000E+00  0.00000000000E+00 -0.94217711498E+03  0.94217712039E+03  0.10100000352E+00 0. -1.
    10030    2    1    2    0    0  0.00000000000E+00  0.00000000000E+00  0.11267510434E+04  0.30111052812E+04  0.27923443736E+04 0.  0.
        4    1    3    3  502    0  0.12084026338E+03 -0.13631079672E+04  0.26486829262E+03  0.13938516868E+04  0.12699999809E+01 0. -1.
       -4    1    3    3    0  502 -0.12084026338E+03  0.13631079672E+04  0.86188275079E+03  0.16172535944E+04  0.12699999809E+01 0.  1.
</event>
<event>
 5   0  0.3162695E-06  0.2800531E+04  0.7818609E-02  0.8303103E-01
       -2   -1    0    0    0  501  0.00000000000E+00  0.00000000000E+00  0.10831543045E+04  0.10831543045E+04  0.25500000920E-02 0. -1.
        2   -1    0    0  501    0  0.00000000000E+00  0.00000000000E+00 -0.18102166552E+04  0.18102166552E+04  0.25500000920E-02 0.  1.
    10030    2    1    2    0    0  0.00000000000E+00  0.00000000000E+00 -0.72706235069E+03  0.28933709597E+04  0.28005313511E+04 0.  0.
        1    1    3    3  502    0 -0.70524982155E+02 -0.13101845055E+04  0.14174897655E+03  0.13197158724E+04  0.50400001928E-02 0. -1.
       -1    1    3    3    0  502  0.70524982155E+02  0.13101845055E+04 -0.86881132725E+03  0.15736550873E+04  0.50400001928E-02 0.  1.
</event>
<event>
 5   0  0.1246044E-06  0.2819686E+04  0.7818609E-02  0.8297183E-01
       -1   -1    0    0    0  501  0.00000000000E+00  0.00000000000E+00  0.13878247880E+04  0.13878247880E+04  0.50400001928E-02 0.  1.
        1   -1    0    0  501    0  0.00000000000E+00  0.00000000000E+00 -0.14322107096E+04  0.14322107096E+04  0.50400001928E-02 0. -1.
    10030    2    1    2    0    0  0.00000000000E+00  0.00000000000E+00 -0.44385921596E+02  0.28200354977E+04  0.28196861702E+04 0.  0.
        2    1    3    3  502    0  0.11071526488E+04 -0.57545645118E+03  0.63418127622E+03  0.13996867529E+04  0.25500000920E-02 0.  1.
       -2    1    3    3    0  502 -0.11071526488E+04  0.57545645118E+03 -0.67856719781E+03  0.14203487448E+04  0.25500000920E-02 0. -1.
</event>
<event>
 5   0  0.3167616E-06  0.2802646E+04  0.7818609E-02  0.8302447E-01
       -2   -1    0    0    0  501  0.00000000000E+00  0.00000000000E+00  0.15181057599E+04  0.15181057599E+04  0.25500000920E-02 0. -1.
        2   -1    0    0  501    0  0.00000000000E+00  0.00000000000E+00 -0.12935239418E+04  0.12935239418E+04  0.25500000920E-02 0.  1.
    10030    2    1    2    0    0  0.00000000000E+00  0.00000000000E+00  0.22458181811E+03  0.28116297017E+04  0.28026459973E+04 0.  0.
        3    1    3    3  502    0 -0.43287464066E+03 -0.12251982479E+04  0.63858182763E+03  0.14478528800E+04  0.10100000352E+00 0. -1.
       -3    1    3    3    0  502  0.43287464066E+03  0.12251982479E+04 -0.41400000952E+03  0.13637768217E+04  0.10100000352E+00 0.  1.
</event>
<event>
 5   0  0.3212679E-06  0.2799405E+04  0.7818609E-02  0.8303453E-01
        2   -1    0    0  501    0  0.00000000000E+00  0.00000000000E+00  0.19330678724E+04  0.19330678724E+04  0.25500000920E-02 0.  1.
       -2   -1    0    0    0  501  0.00000000000E+00  0.00000000000E+00 -0.10135015706E+04  0.10135015706E+04  0.25500000920E-02 0. -1.
    10030    2    1    2    0    0  0.00000000000E+00  0.00000000000E+00  0.91956630182E+03  0.29465694430E+04  0.27994051688E+04 0.  0.
        4    1    3    3  502    0  0.11627144869E+04 -0.61946694565E+03  0.95741768469E+03  0.16285866605E+04  0.12699999809E+01 0.  1.
       -4    1    3    3    0  502 -0.11627144869E+04  0.61946694565E+03 -0.37851382864E+02  0.13179827825E+04  0.12699999809E+01 0. -1.
</event>
<event>
 5   0  0.3226364E-06  0.2801443E+04  0.7818609E-02  0.8302821E-01
        2   -1    0    0  501    0  0.00000000000E+00  0.00000000000E+00  0.16796423654E+04  0.16796423654E+04  0.25500000920E-02 0.  1.
       -2   -1    0    0    0  501  0.00000000000E+00  0.00000000000E+00 -0.11681177751E+04  0.11681177751E+04  0.25500000920E-02 0. -1.
    10030    2    1    2    0    0  0.00000000000E+00  0.00000000000E+00  0.51152459029E+03  0.28477601404E+04  0.28014425589E+04 0.  0.
        5    1    3    3  502    0  0.11430639055E+04 -0.60210176660E+03  0.80589043640E+03  0.15226960021E+04  0.46999998093E+01 0.  1.
       -5    1    3    3    0  502 -0.11430639055E+04  0.60210176660E+03 -0.29436584611E+03  0.13250641383E+04  0.46999998093E+01 0. -1.
</event>
<event>
 5   0  0.1235252E-06  0.2774352E+04  0.7818609E-02  0.8311276E-01
       -1   -1    0    0    0  501  0.00000000000E+00  0.00000000000E+00  0.86122289597E+03  0.86122289598E+03  0.50400001928E-02 0. -1.
        1   -1    0    0  501    0  0.00000000000E+00  0.00000000000E+00 -0.22343310685E+04  0.22343310685E+04  0.50400001928E-02 0.  1.
    10030    2    1    2    0    0  0.00000000000E+00  0.00000000000E+00 -0.13731081726E+04  0.30955539645E+04  0.27743518691E+04 0.  0.
        1    1    3    3  502    0 -0.10185354293E+03  0.22323072108E+03 -0.22099252488E+04  0.22235052742E+04  0.50400001928E-02 0.  1.
       -1    1    3    3    0  502  0.10185354293E+03 -0.22323072108E+03  0.83681707628E+03  0.87204869028E+03  0.50400001928E-02 0. -1.
</event>
<event>
 5   0  0.1263513E-06  0.2791096E+04  0.7818609E-02  0.8306038E-01
       -1   -1    0    0    0  501  0.00000000000E+00  0.00000000000E+00  0.15342045883E+04  0.15342045883E+04  0.50400001928E-02 0. -1.
        1   -1    0    0  501    0  0.00000000000E+00  0.00000000000E+00 -0.12694227986E+04  0.12694227986E+04  0.50400001928E-02 0.  1.
    10030    2    1    2    0    0  0.00000000000E+00  0.00000000000E+00  0.26478178967E+03  0.28036273869E+04  0.27910960443E+04 0.  0.
        3    1    3    3  502    0  0.12631879093E+04 -0.47143203510E+03  0.49409427215E+03  0.14359738918E+04  0.10100000352E+00 0. -1.
       -3    1    3    3    0  502 -0.12631879093E+04  0.47143203510E+03 -0.22931248248E+03  0.13676534951E+04  0.10100000352E+00 0.  1.
</event>
<event>
 5   0  0.1220265E-06  0.2813572E+04  0.7818609E-02  0.8299067E-01
       -1   -1    0    0    0  501  0.00000000000E+00  0.00000000000E+00  0.10572740408E+04  0.10572740409E+04  0.50400001928E-02 0.  1.
        1   -1    0    0  501    0  0.00000000000E+00  0.00000000000E+00 -0.18718385454E+04  0.18718385454E+04  0.50400001928E-02 0. -1.
    10030    2    1    2    0    0  0.00000000000E+00  0.00000000000E+00 -0.81456450454E+03  0.29291125862E+04  0.28135716111E+04 0.  0.
        4    1    3    3  502    0 -0.74803791645E+03 -0.90685276904E+03 -0.12117383762E+04  0.16882695799E+04  0.12699999809E+01 0.  1.
       -4    1    3    3    0  502  0.74803791645E+03  0.90685276904E+03  0.39717387167E+03  0.12408430063E+04  0.12699999809E+01 0. -1.
</event>
<event>
 5   0  0.1243055E-06  0.2800618E+04  0.7818609E-02  0.8303076E-01
        1   -1    0    0  501    0  0.00000000000E+00  0.00000000000E+00  0.20115531993E+04  0.20115531993E+04  0.50400001928E-02 0. -1.
       -1   -1    0    0    0  501  0.00000000000E+00  0.00000000000E+00 -0.97480178718E+03  0.97480178719E+03  0.50400001928E-02 0.  1.
    10030    2    1    2    0    0  0.00000000000E+00  0.00000000000E+00  0.10367514121E+04  0.29863549865E+04  0.28006182558E+04 0.  0.
        5    1    3    3  502    0  0.96692934481E+03 -0.62274529947E+03 -0.33339933604E+03  0.11974728695E+04  0.46999998093E+01 0.  1.
       -5    1    3    3    0  502 -0.96692934481E+03  0.62274529947E+03  0.13701507482E+04  0.17888821170E+04  0.46999998093E+01 0. -1.
</event>
<event>
 5   0  0.3167616E-06  0.2804740E+04  0.7818609E-02  0.8301798E-01
        2   -1    0    0  501    0  0.00000000000E+00  0.00000000000E+00  0.19237827191E+04  0.19237827191E+04  0.25500000920E-02 0. -1.
       -2   -1    0    0    0  501  0.00000000000E+00  0.00000000000E+00 -0.10222784993E+04  0.10222784993E+04  0.25500000920E-02 0.  1.
    10030    2    1    2    0    0  0.00000000000E+00  0.00000000000E+00  0.90150421974E+03  0.29460612184E+04  0.28047400671E+04 0.  0.
        3    1    3    3  502    0  0.93470915641E+03 -0.94508411315E+03  0.92023672220E+03  0.16166944124E+04  0.10100000352E+00 0. -1.
       -3    1    3    3    0  502 -0.93470915641E+03  0.94508411315E+03 -0.18732502454E+02  0.13293668060E+04  0.10100000352E+00 0.  1.
</event>
<event>
 5   0  0.1246044E-06  0.2810341E+04  0.7818609E-02  0.8300065E-01
       -1   -1    0    0    0  501  0.00000000000E+00  0.00000000000E+00  0.87873826511E+03  0.87873826512E+03  0.50400001928E-02 0. -1.
        1   -1    0    0  501    0  0.00000000000E+00  0.00000000000E+00 -0.22469765762E+04  0.22469765762E+04  0.50400001928E-02 0.  1.
    10030    2    1    2    0    0  0.00000000000E+00  0.00000000000E+00 -0.13682383111E+04  0.31257148413E+04  0.28103411169E+04 0.  0.
        2    1    3    3  502    0 -0.45673940860E+03  0.12946022775E+04 -0.10175963871E+04  0.17088324527E+04  0.25500000920E-02 0.  1.
       -2    1    3    3    0  502  0.45673940860E+03 -0.12946022775E+04 -0.35064192394E+03  0.14168823886E+04  0.25500000920E-02 0. -1.
</event>
<event>
 5   0  0.1220265E-06  0.2812163E+04  0.7818609E-02  0.8299502E-01
        1   -1    0    0  501    0  0.00000000000E+00  0.00000000000E+00  0.19955818752E+04  0.19955818752E+04  0.50400001928E-02 0. -1.
       -1   -1    0    0    0  501  0.00000000000E+00  0.00000000000E+00 -0.99072135718E+03  0.99072135720E+03  0.50400001928E-02 0.  1.
    10030    2    1    2    0    0  0.00000000000E+00  0.00000000000E+00  0.10048605180E+04  0.29863032324E+04  0.28121632839E+04 0.  0.
        4    1    3    3  502    0  0.51384548256E+02  0.17362787530E+03 -0.97828801271E+03  0.99490505054E+03  0.12699999809E+01 0.  1.
       -4    1    3    3    0  502 -0.51384548256E+02 -0.17362787530E+03  0.19831485307E+04  0.19913981818E+04  0.12699999809E+01 0. -1.
</event>
<event>
 5   0  0.1263513E-06  0.2796475E+04  0.7818609E-02  0.8304364E-01
        1   -1    0    0  501    0  0.00000000000E+00  0.00000000000E+00  0.17220868795E+04  0.17220868795E+04  0.50400001928E-02 0.  1.
       -1   -1    0    0    0  501  0.00000000000E+00  0.00000000000E+00 -0.11352896958E+04  0.11352896958E+04  0.50400001928E-02 0. -1.
    10030    2    1    2    0    0  0.00000000000E+00  0.00000000000E+00  0.58679718372E+03  0.28573765753E+04  0.27964745589E+04 0.  0.
        3    1    3    3  502    0  0.61783078907E+03  0.90718580342E+03 -0.59170342371E+03  0.12469217769E+04  0.10100000352E+00 0. -1.
       -3    1    3    3    0  502 -0.61783078907E+03 -0.90718580342E+03  0.11785006074E+04  0.16104547984E+04  0.10100000352E+00 0.  1.
</event>
<event>
 5   0  0.1220265E-06  0.2827433E+04  0.7818609E-02  0.8294802E-01
       -1   -1    0    0    0  501  0.00000000000E+00  0.00000000000E+00  0.59858175750E+03  0.59858175752E+03  0.50400001928E-02 0. -1.
        1   -1    0    0  501    0  0.00000000000E+00  0.00000000000E+00 -0.33388834131E+04  0.33388834131E+04  0.50400001928E-02 0.  1.
    10030    2    1    2    0    0  0.00000000000E+00  0.00000000000E+00 -0.27403016556E+04  0.39374651707E+04  0.28274332541E+04 0.  0.
        4    1    3    3  502    0  0.81714322737E+03 -0.11139258197E+03 -0.29691864083E+04  0.30815906447E+04  0.12699999809E+01 0.  1.
       -4    1    3    3    0  502 -0.81714322737E+03  0.11139258197E+03  0.22888475263E+03  0.85587452599E+03  0.12699999809E+01 0. -1.
</event>
<event>
 5   0  0.3345919E-06  0.2802391E+04  0.7818609E-02  0.8302526E-01
       -2   -1    0    0    0  501  0.00000000000E+00  0.00000000000E+00  0.17712508996E+04  0.17712508996E+04  0.25500000920E-02 0. -1.
        2   -1    0    0  501    0  0.00000000000E+00  0.00000000000E+00 -0.11084535745E+04  0.11084535745E+04  0.25500000920E-02 0.  1.
    10030    2    1    2    0    0  0.00000000000E+00  0.00000000000E+00  0.66279732513E+03  0.28797044741E+04  0.28023914009E+04 0.  0.
        2    1    3    3  502    0 -0.59224068467E+03 -0.12468269047E+04  0.83873508792E+02  0.13828814571E+04  0.25500000920E-02 0. -1.
       -2    1    3    3    0  502  0.59224068467E+03  0.12468269047E+04  0.57892381634E+03  0.14968230170E+04  0.25500000920E-02 0.  1.
</event>
<event>
 5   0  0.3226364E-06  0.2795998E+04  0.7818609E-02  0.8304512E-01
        2   -1    0    0  501    0  0.00000000000E+00  0.00000000000E+00  0.14150459535E+04  0.14150459535E+04  0.25500000920E-02 0.  1.
       -2   -1    0    0    0  501  0.00000000000E+00  0.00000000000E+00 -0.13811570401E+04  0.13811570401E+04  0.25500000920E-02 0. -1.
    10030    2    1    2    0    0  0.00000000000E+00  0.00000000000E+00  0.33888913353E+02  0.27962029936E+04  0.27959976257E+04 0.  0.
        5    1    3    3  502    0  0.65351902194E+03 -0.19944393784E+02  0.12527106201E+04  0.14130785112E+04  0.46999998093E+01 0.  1.
       -5    1    3    3    0  502 -0.65351902194E+03  0.19944393784E+02 -0.12188217068E+04  0.13831244824E+04  0.46999998093E+01 0. -1.
</event>
<event>
 5   0  0.3167616E-06  0.2809279E+04  0.7818609E-02  0.8300394E-01
        2   -1    0    0  501    0  0.00000000000E+00  0.00000000000E+00  0.19160040780E+04  0.19160040780E+04  0.25500000920E-02 0.  1.
       -2   -1    0    0    0  501  0.00000000000E+00  0.00000000000E+00 -0.10297532668E+04  0.10297532668E+04  0.25500000920E-02 0. -1.
    10030    2    1    2    0    0  0.00000000000E+00  0.00000000000E+00  0.88625081117E+03  0.29457573448E+04  0.28092785255E+04 0.  0.
        3    1    3    3  502    0  0.91124634535E+03 -0.10010070639E+04  0.83634541215E+03  0.15911815429E+04  0.10100000352E+00 0.  1.
       -3    1    3    3    0  502 -0.91124634535E+03  0.10010070639E+04  0.49905399015E+02  0.13545758018E+04  0.10100000352E+00 0. -1.
</event>
<event>
 5   0  0.3226364E-06  0.2823999E+04  0.7818609E-02  0.8295856E-01
       -2   -1    0    0    0  501  0.00000000000E+00  0.00000000000E+00  0.13875380044E+04  0.13875380044E+04  0.25500000920E-02 0. -1.
        2   -1    0    0  501    0  0.00000000000E+00  0.00000000000E+00 -0.14368917582E+04  0.14368917582E+04  0.25500000920E-02 0.  1.
    10030    2    1    2    0    0  0.00000000000E+00  0.00000000000E+00 -0.49353753879E+02  0.28244297626E+04  0.28239985288E+04 0.  0.
        5    1    3    3  502    0 -0.89270561132E+03 -0.95338494500E+03 -0.56127876847E+03  0.14215913997E+04  0.46999998093E+01 0. -1.
       -5    1    3    3    0  502  0.89270561132E+03  0.95338494500E+03  0.51192501459E+03  0.14028383629E+04  0.46999998093E+01 0.  1.
</event>
<event>
 5   0  0.1220265E-06  0.2778522E+04  0.7818609E-02  0.8309968E-01
       -1   -1    0    0    0  501  0.00000000000E+00  0.00000000000E+00  0.11110037681E+04  0.11110037682E+04  0.50400001928E-02 0. -1.
        1   -1    0    0  501    0  0.00000000000E+00  0.00000000000E+00 -0.17372094177E+04  0.17372094178E+04  0.50400001928E-02 0.  1.
    10030    2    1    2    0    0  0.00000000000E+00  0.00000000000E+00 -0.62620564961E+03  0.28482131859E+04  0.27785220598E+04 0.  0.
        4    1    3    3  502    0  0.12742596859E+02 -0.75830450374E+03 -0.15062809795E+04  0.16864376941E+04  0.12699999809E+01 0.  1.
       -4    1    3    3    0  502 -0.12742596859E+02  0.75830450374E+03  0.88007532986E+03  0.11617754918E+04  0.12699999809E+01 0. -1.
</event>
<event>
 5   0  0.1243055E-06  0.2811256E+04  0.7818609E-02  0.8299782E-01
       -1   -1    0    0    0  501  0.00000000000E+00  0.00000000000E+00  0.15840172894E+04  0.15840172894E+04  0.50400001928E-02 0.  1.
        1   -1    0    0  501    0  0.00000000000E+00  0.00000000000E+00 -0.12473282559E+04  0.12473282559E+04  0.50400001928E-02 0. -1.
    10030    2    1    2    0    0  0.00000000000E+00  0.00000000000E+00  0.33668903347E+03  0.28313455453E+04  0.28112556076E+04 0.  0.
        5    1    3    3  502    0  0.51203976420E+03  0.10879438727E+04  0.90153096868E+03  0.15028595303E+04  0.46999998093E+01 0.  1.
       -5    1    3    3    0  502 -0.51203976420E+03 -0.10879438727E+04 -0.56484193521E+03  0.13284860150E+04  0.46999998093E+01 0. -1.
</event>
<event>
 5   0  0.1263513E-06  0.2799197E+04  0.7818609E-02  0.8303518E-01
        1   -1    0    0  501    0  0.00000000000E+00  0.00000000000E+00  0.84129600474E+03  0.84129600475E+03  0.50400001928E-02 0. -1.
       -1   -1    0    0    0  501  0.00000000000E+00  0.00000000000E+00 -0.23284034575E+04  0.23284034575E+04  0.50400001928E-02 0.  1.
    10030    2    1    2    0    0  0.00000000000E+00  0.00000000000E+00 -0.14871074528E+04  0.31696994623E+04  0.27991974037E+04 0.  0.
        3    1    3    3  502    0 -0.32570350671E+03 -0.92539901567E+03  0.38678353620E+03  0.10545366881E+04  0.10100000352E+00 0. -1.
       -3    1    3    3    0  502  0.32570350671E+03  0.92539901567E+03 -0.18738909890E+04  0.21151627742E+04  0.10100000352E+00 0.  1.
</event>
<event>
 5   0  0.1243055E-06  0.2808381E+04  0.7818609E-02  0.8300671E-01
        1   -1    0    0  501    0  0.00000000000E+00  0.00000000000E+00  0.18866372644E+04  0.18866372644E+04  0.50400001928E-02 0.  1.
       -1   -1    0    0    0  501  0.00000000000E+00  0.00000000000E+00 -0.10451141198E+04  0.10451141198E+04  0.50400001928E-02 0. -1.
    10030    2    1    2    0    0  0.00000000000E+00  0.00000000000E+00  0.84152314461E+03  0.29317513841E+04  0.28083812020E+04 0.  0.
        5    1    3    3  502    0 -0.35945656665E+03 -0.94999541178E+03  0.14329040979E+04  0.17563987445E+04  0.46999998093E+01 0.  1.
       -5    1    3    3    0  502  0.35945656665E+03  0.94999541178E+03 -0.59138095331E+03  0.11753526397E+04  0.46999998093E+01 0. -1.
</event>
<event>
 5   0  0.3345919E-06  0.2801992E+04  0.7818609E-02  0.8302650E-01
       -2   -1    0    0    0  501  0.00000000000E+00  0.00000000000E+00  0.11554269384E+04  0.11554269384E+04  0.25500000920E-02 0.  1.
        2   -1    0    0  501    0  0.00000000000E+00  0.00000000000E+00 -0.16987571606E+04  0.16987571606E+04  0.25500000920E-02 0. -1.
    10030    2    1    2    0    0  0.00000000000E+00  0.00000000000E+00 -0.54333022216E+03  0.28541840990E+04  0.28019919951E+04 0.  0.
        2    1    3    3  502    0  0.13151745543E+04 -0.47773367277E+03 -0.34279571723E+03  0.14406326645E+04  0.25500000920E-02 0. -1.
       -2    1    3    3    0  502 -0.13151745543E+04  0.47773367277E+03 -0.20053450492E+03  0.14135514345E+04  0.25500000920E-02 0.  1.
</event>
<event>
 5   0  0.3167616E-06  0.2779587E+04  0.7818609E-02  0.8309634E-01
        2   -1    0    0  501    0  0.00000000000E+00  0.00000000000E+00  0.18599574878E+04  0.18599574878E+04  0.25500000920E-02 0. -1.
       -2   -1    0    0    0  501  0.00000000000E+00  0.00000000000E+00 -0.10384783785E+04  0.10384783785E+04  0.25500000920E-02 0.  1.
    10030    2    1    2    0    0  0.00000000000E+00  0.00000000000E+00  0.82147910927E+03  0.28984358663E+04  0.27795867578E+04 0.  0.
        3    1    3    3  502    0  0.27209204723E+03  0.12037609620E+04  0.10771679462E+04  0.16380980832E+04  0.10100000352E+00 0. -1.
       -3    1    3    3    0  502 -0.27209204723E+03 -0.12037609620E+04 -0.25568883692E+03  0.12603377830E+04  0.10100000352E+00 0.  1.
</event>
<event>
 5   0  0.3167616E-06  0.2807038E+04  0.7818609E-02  0.8301087E-01
       -2   -1    0    0    0  501  0.00000000000E+00  0.00000000000E+00  0.11493516198E+04  0.11493516198E+04  0.25500000920E-02 0.  1.
        2   -1    0    0  501    0  0.00000000000E+00  0.00000000000E+00 -0.17138923005E+04  0.17138923005E+04  0.25500000920E-02 0. -1.
    10030    2    1    2    0    0  0.00000000000E+00  0.00000000000E+00 -0.56454068074E+03  0.28632439203E+04  0.28070375072E+04 0.  0.
        3    1    3    3  502    0  0.28068593087E+03 -0.12418719977E+04  0.32017781571E+03  0.13128383351E+04  0.10100000352E+00 0. -1.
       -3    1    3    3    0  502 -0.28068593087E+03  0.12418719977E+04 -0.88471849646E+03  0.15504055852E+04  0.10100000352E+00 0.  1.
</event>
<event>
 5   0  0.1246044E-06  0.2795708E+04  0.7818609E-02  0.8304602E-01
       -1   -1    0    0    0  501  0.00000000000E+00  0.00000000000E+00  0.14654596912E+04  0.14654596912E+04  0.50400001928E-02 0. -1.
        1   -1    0    0  501    0  0.00000000000E+00  0.00000000000E+00 -0.13333674866E+04  0.13333674866E+04  0.50400001928E-02 0.  1.
    10030    2    1    2    0    0  0.00000000000E+00  0.00000000000E+00  0.13209220459E+03  0.27988271777E+04  0.27957083575E+04 0.  0.
        2    1    3    3  502    0  0.21273891968E+03 -0.13373483214E+04 -0.28109413245E+03  0.13830301125E+04  0.25500000920E-02 0.  1.
       -2    1    3    3    0  502 -0.21273891968E+03  0.13373483214E+04  0.41318633704E+03  0.14157970652E+04  0.25500000920E-02 0. -1.
</event>
<event>
 5   0  0.3212679E-06  0.2808130E+04  0.7818609E-02  0.8300749E-01
        2   -1    0    0  501    0  0.00000000000E+00  0.00000000000E+00  0.17329916925E+04  0.17329916925E+04  0.25500000920E-02 0. -1.
       -2   -1    0    0    0  501  0.00000000000E+00  0.00000000000E+00 -0.11375698075E+04  0.11375698075E+04  0.25500000920E-02 0.  1.
    10030    2    1    2    0    0  0.00000000000E+00  0.00000000000E+00  0.59542188502E+03  0.28705615000E+04  0.28081303574E+04 0.  0.
        4    1    3    3  502    0  0.74203989012E+03 -0.60194636566E+02  0.15146186101E+04  0.16876959856E+04  0.12699999809E+01 0. -1.
       -4    1    3    3    0  502 -0.74203989012E+03  0.60194636566E+02 -0.91919672508E+03  0.11828655144E+04  0.12699999809E+01 0.  1.
</event>
<event>
 5   0  0.3167616E-06  0.2807148E+04  0.7818609E-02  0.8301053E-01
       -2   -1    0    0    0  501  0.00000000000E+00  0.00000000000E+00  0.89097163828E+03  0.89097163828E+03  0.25500000920E-02 0. -1.
        2   -1    0    0  501    0  0.00000000000E+00  0.00000000000E+00 -0.22110915765E+04  0.22110915765E+04  0.25500000920E-02 0.  1.
    10030    2    1    2    0    0  0.00000000000E+00  0.00000000000E+00 -0.13201199382E+04  0.31020632148E+04  0.28071479365E+04 0.  0.
        3    1    3    3  502    0  0.63230738098E+03 -0.12527117524E+04 -0.62653248960E+03  0.15367635893E+04  0.10100000352E+00 0. -1.
       -3    1    3    3    0  502 -0.63230738098E+03  0.12527117524E+04 -0.69358744863E+03  0.15652996255E+04  0.10100000352E+00 0.  1.
</event>
<event>
 5   0  0.3167616E-06  0.2810921E+04  0.7818609E-02  0.8299886E-01
        2   -1    0    0  501    0  0.00000000000E+00  0.00000000000E+00  0.20267102017E+04  0.20267102017E+04  0.25500000920E-02 0. -1.
       -2   -1    0    0    0  501  0.00000000000E+00  0.00000000000E+00 -0.97464282962E+03  0.97464282963E+03  0.25500000920E-02 0.  1.
    10030    2    1    2    0    0  0.00000000000E+00  0.00000000000E+00  0.10520673720E+04  0.30013530313E+04  0.28109205366E+04 0.  0.
        3    1    3    3  502    0  0.11533152741E+04 -0.17929163882E+03 -0.30997701528E+03  0.12076288227E+04  0.10100000352E+00 0.  1.
       -3    1    3    3    0  502 -0.11533152741E+04  0.17929163882E+03  0.13620443873E+04  0.17937242086E+04  0.10100000352E+00 0. -1.
</event>
<event>
 5   0  0.3167616E-06  0.2813589E+04  0.7818609E-02  0.8299062E-01
       -2   -1    0    0    0  501  0.00000000000E+00  0.00000000000E+00  0.13377910982E+04  0.13377910982E+04  0.25500000920E-02 0.  1.
        2   -1    0    0  501    0  0.00000000000E+00  0.00000000000E+00 -0.14793568212E+04  0.14793568212E+04  0.25500000920E-02 0. -1.
    10030    2    1    2    0    0  0.00000000000E+00  0.00000000000E+00 -0.14156572302E+03  0.28171479194E+04  0.28135887307E+04 0.  0.
        3    1    3    3  502    0 -0.12709254378E+04 -0.20190531927E+01 -0.67471652056E+03  0.14389224922E+04  0.10100000352E+00 0.  1.
       -3    1    3    3    0  502  0.12709254378E+04  0.20190531927E+01  0.53315079754E+03  0.13782254272E+04  0.10100000352E+00 0. -1.
</event>
<event>
 5   0  0.3226364E-06  0.2618564E+04  0.7818609E-02  0.8361923E-01
        2   -1    0    0  501    0  0.00000000000E+00  0.00000000000E+00  0.11393606521E+04  0.11393606521E+04  0.25500000920E-02 0. -1.
       -2   -1    0    0    0  501  0.00000000000E+00  0.00000000000E+00 -0.15045454788E+04  0.15045454788E+04  0.25500000920E-02 0.  1.
    10030    2    1    2    0    0  0.00000000000E+00  0.00000000000E+00 -0.36518482671E+03  0.26439061310E+04  0.26185644295E+04 0.  0.
        5    1    3    3  502    0  0.27923180214E+03  0.12787844896E+04 -0.15167487156E+03  0.13176826351E+04  0.46999998093E+01 0.  1.
       -5    1    3    3    0  502 -0.27923180214E+03 -0.12787844896E+04 -0.21350995515E+03  0.13262234959E+04  0.46999998093E+01 0. -1.
</event>
<event>
 5   0  0.1263513E-06  0.2806391E+04  0.7818609E-02  0.8301287E-01
       -1   -1    0    0    0  501  0.00000000000E+00  0.00000000000E+00  0.18423231887E+04  0.18423231887E+04  0.50400001928E-02 0.  1.
        1   -1    0    0  501    0  0.00000000000E+00  0.00000000000E+00 -0.10687359087E+04  0.10687359088E+04  0.50400001928E-02 0. -1.
    10030    2    1    2    0    0  0.00000000000E+00  0.00000000000E+00  0.77358727998E+03  0.29110590975E+04  0.28063905269E+04 0.  0.
        3    1    3    3  502    0 -0.21657992512E+03 -0.73176782421E+03  0.16082365641E+04  0.17801168133E+04  0.10100000352E+00 0.  1.
       -3    1    3    3    0  502  0.21657992512E+03  0.73176782421E+03 -0.83464928413E+03  0.11309422842E+04  0.10100000352E+00 0. -1.
</event>
<event>
 5   0  0.1246044E-06  0.2821247E+04  0.7818609E-02  0.8296702E-01
        1   -1    0    0  501    0  0.00000000000E+00  0.00000000000E+00  0.20211762280E+04  0.20211762280E+04  0.50400001928E-02 0.  1.
       -1   -1    0    0    0  501  0.00000000000E+00  0.00000000000E+00 -0.98450528019E+03  0.98450528021E+03  0.50400001928E-02 0. -1.
    10030    2    1    2    0    0  0.00000000000E+00  0.00000000000E+00  0.10366709478E+04  0.30056815082E+04  0.28212470071E+04 0.  0.
        2    1    3    3  502    0  0.77862243549E+03 -0.42520600606E+03 -0.65008611580E+03  0.10998477179E+04  0.25500000920E-02 0. -1.
       -2    1    3    3    0  502 -0.77862243549E+03  0.42520600606E+03  0.16867570636E+04  0.19058337903E+04  0.25500000920E-02 0.  1.
</event>
<event>
 5   0  0.1220265E-06  0.2806398E+04  0.7818609E-02  0.8301285E-01
        1   -1    0    0  501    0  0.00000000000E+00  0.00000000000E+00  0.15969807058E+04  0.15969807059E+04  0.50400001928E-02 0.  1.
       -1   -1    0    0    0  501  0.00000000000E+00  0.00000000000E+00 -0.12329311081E+04  0.12329311081E+04  0.50400001928E-02 0. -1.
    10030    2    1    2    0    0  0.00000000000E+00  0.00000000000E+00  0.36404959778E+03  0.28299118139E+04  0.28063978273E+04 0.  0.
        4    1    3    3  502    0 -0.11551841219E+03 -0.57000099675E+03  0.14697208307E+04  0.15806095574E+04  0.12699999809E+01 0.  1.
       -4    1    3    3    0  502  0.11551841219E+03  0.57000099675E+03 -0.11056712329E+04  0.12493022565E+04  0.12699999809E+01 0. -1.
</event>
<event>
 5   0  0.3167616E-06  0.2786098E+04  0.7818609E-02  0.8307598E-01
        2   -1    0    0  501    0  0.00000000000E+00  0.00000000000E+00  0.13531874344E+04  0.13531874344E+04  0.25500000920E-02 0. -1.
       -2   -1    0    0    0  501  0.00000000000E+00  0.00000000000E+00 -0.14340842957E+04  0.14340842957E+04  0.25500000920E-02 0.  1.
    10030    2    1    2    0    0  0.00000000000E+00  0.00000000000E+00 -0.80896861265E+02  0.27872717301E+04  0.27860975208E+04 0.  0.
        3    1    3    3  502    0  0.48594879744E+03  0.12625653478E+03  0.12595213526E+04  0.13559059681E+04  0.10100000352E+00 0. -1.
       -3    1    3    3    0  502 -0.48594879744E+03 -0.12625653478E+03 -0.13404182139E+04  0.14313657620E+04  0.10100000352E+00 0.  1.
</event>
<event>
 5   0  0.3167616E-06  0.2794443E+04  0.7818609E-02  0.8304996E-01
       -2   -1    0    0    0  501  0.00000000000E+00  0.00000000000E+00  0.11576065069E+04  0.11576065069E+04  0.25500000920E-02 0.  1.
        2   -1    0    0  501    0  0.00000000000E+00  0.00000000000E+00 -0.16864352524E+04  0.16864352524E+04  0.25500000920E-02 0. -1.
    10030    2    1    2    0    0  0.00000000000E+00  0.00000000000E+00 -0.52882874556E+03  0.28440417593E+04  0.27944433590E+04 0.  0.
        3    1    3    3  502    0  0.35349816115E+03 -0.49406411236E+03  0.10161581379E+04  0.11839077956E+04  0.10100000352E+00 0.  1.
       -3    1    3    3    0  502 -0.35349816115E+03  0.49406411236E+03 -0.15449868835E+04  0.16601339637E+04  0.10100000352E+00 0. -1.
</event>
<event>
 5   0  0.3162695E-06  0.2801325E+04  0.7818609E-02  0.8302857E-01
       -2   -1    0    0    0  501  0.00000000000E+00  0.00000000000E+00  0.10395526679E+04  0.10395526679E+04  0.25500000920E-02 0.  1.
        2   -1    0    0  501    0  0.00000000000E+00  0.00000000000E+00 -0.18872113893E+04  0.18872113893E+04  0.25500000920E-02 0. -1.
    10030    2    1    2    0    0  0.00000000000E+00  0.00000000000E+00 -0.84765872139E+03  0.29267640571E+04  0.28013251397E+04 0.  0.
        1    1    3    3  502    0  0.11343076185E+04  0.81800617288E+03 -0.50521325649E+03  0.14869526915E+04  0.50400001928E-02 0. -1.
       -1    1    3    3    0  502 -0.11343076185E+04 -0.81800617288E+03 -0.34244546490E+03  0.14398113656E+04  0.50400001928E-02 0.  1.
</event>
<event>
 5   0  0.1235252E-06  0.2798203E+04  0.7818609E-02  0.8303826E-01
       -1   -1    0    0    0  501  0.00000000000E+00  0.00000000000E+00  0.99762967816E+03  0.99762967818E+03  0.50400001928E-02 0.  1.
        1   -1    0    0  501    0  0.00000000000E+00  0.00000000000E+00 -0.19621365897E+04  0.19621365897E+04  0.50400001928E-02 0. -1.
    10030    2    1    2    0    0  0.00000000000E+00  0.00000000000E+00 -0.96450691158E+03  0.29597662679E+04  0.27982034912E+04 0.  0.
        1    1    3    3  502    0 -0.12009284711E+02  0.43743620365E+02 -0.19613585517E+04  0.19618830484E+04  0.50400001928E-02 0. -1.
       -1    1    3    3    0  502  0.12009284711E+02 -0.43743620365E+02  0.99685164015E+03  0.99788321949E+03  0.50400001928E-02 0.  1.
</event>
<event>
 5   0  0.3345919E-06  0.2815957E+04  0.7818609E-02  0.8298332E-01
        2   -1    0    0  501    0  0.00000000000E+00  0.00000000000E+00  0.22255649460E+04  0.22255649460E+04  0.25500000920E-02 0. -1.
       -2   -1    0    0    0  501  0.00000000000E+00  0.00000000000E+00 -0.89074136418E+03  0.89074136418E+03  0.25500000920E-02 0.  1.
    10030    2    1    2    0    0  0.00000000000E+00  0.00000000000E+00  0.13348235819E+04  0.31163063102E+04  0.28159565026E+04 0.  0.
        2    1    3    3  502    0  0.42523597471E+03 -0.95344359106E+03 -0.37808756394E+03  0.11103290150E+04  0.25500000920E-02 0.  1.
       -2    1    3    3    0  502 -0.42523597471E+03  0.95344359106E+03  0.17129111458E+04  0.20059772952E+04  0.25500000920E-02 0. -1.
</event>
<event>
 5   0  0.3167616E-06  0.2799841E+04  0.7818609E-02  0.8303318E-01
        2   -1    0    0  501    0  0.00000000000E+00  0.00000000000E+00  0.12181132614E+04  0.12181132614E+04  0.25500000920E-02 0. -1.
       -2   -1    0    0    0  501  0.00000000000E+00  0.00000000000E+00 -0.16088624799E+04  0.16088624799E+04  0.25500000920E-02 0.  1.
    10030    2    1    2    0    0  0.00000000000E+00  0.00000000000E+00 -0.39074921847E+03  0.28269757412E+04  0.27998405115E+04 0.  0.
        3    1    3    3  502    0  0.11774457998E+04 -0.43630616666E+03 -0.82027102723E+03  0.14998620773E+04  0.10100000352E+00 0.  1.
       -3    1    3    3    0  502 -0.11774457998E+04  0.43630616666E+03  0.42952180876E+03  0.13271136639E+04  0.10100000352E+00 0. -1.
</event>
<event>
 5   0  0.1235252E-06  0.2809908E+04  0.7818609E-02  0.8300199E-01
       -1   -1    0    0    0  501  0.00000000000E+00  0.00000000000E+00  0.92940474408E+03  0.92940474409E+03  0.50400001928E-02 0.  1.
        1   -1    0    0  501    0  0.00000000000E+00  0.00000000000E+00 -0.21238280861E+04  0.21238280861E+04  0.50400001928E-02 0. -1.
    10030    2    1    2    0    0  0.00000000000E+00  0.00000000000E+00 -0.11944233420E+04  0.30532328302E+04  0.28099081116E+04 0.  0.
        1    1    3    3  502    0  0.85592677962E+03 -0.62601028559E+03  0.40422388182E+03  0.11348552667E+04  0.50400001928E-02 0.  1.
       -1    1    3    3    0  502 -0.85592677962E+03  0.62601028559E+03 -0.15986472238E+04  0.19183775635E+04  0.50400001928E-02 0. -1.
</event>
<event>
 5   0  0.3212679E-06  0.2801822E+04  0.7818609E-02  0.8302703E-01
        2   -1    0    0  501    0  0.00000000000E+00  0.00000000000E+00  0.23146847288E+04  0.23146847288E+04  0.25500000920E-02 0.  1.
       -2   -1    0    0    0  501  0.00000000000E+00  0.00000000000E+00 -0.84786985415E+03  0.84786985415E+03  0.25500000920E-02 0. -1.
    10030    2    1    2    0    0  0.00000000000E+00  0.00000000000E+00  0.14668148747E+04  0.31625545830E+04  0.28018218383E+04 0.  0.
        4    1    3    3  502    0 -0.38889680811E+03 -0.34236973803E+03 -0.73574213449E+03  0.89987547263E+03  0.12699999809E+01 0. -1.
       -4    1    3    3    0  502  0.38889680811E+03  0.34236973803E+03  0.22025570092E+04  0.22626791104E+04  0.12699999809E+01 0.  1.
</event>
<event>
 5   0  0.1065675E-06  0.2792534E+04  0.7818609E-02  0.8305590E-01
       -3   -1    0    0    0  501  0.00000000000E+00  0.00000000000E+00  0.14011884063E+04  0.14011884100E+04  0.10100000352E+00 0.  1.
        3   -1    0    0  501    0  0.00000000000E+00  0.00000000000E+00 -0.13913630588E+04  0.13913630624E+04  0.10100000352E+00 0. -1.
    10030    2    1    2    0    0  0.00000000000E+00  0.00000000000E+00  0.98253475599E+01  0.27925514724E+04  0.27925341875E+04 0.  0.
        3    1    3    3  502    0  0.23209422643E+03 -0.45439423948E+03  0.13046206578E+04  0.14008486448E+04  0.10100000352E+00 0.  1.
       -3    1    3    3    0  502 -0.23209422643E+03  0.45439423948E+03 -0.12947953102E+04  0.13917028276E+04  0.10100000352E+00 0. -1.
</event>
<event>
 5   0  0.3226364E-06  0.2797123E+04  0.7818609E-02  0.8304162E-01
        2   -1    0    0  501    0  0.00000000000E+00  0.00000000000E+00  0.21038683518E+04  0.21038683518E+04  0.25500000920E-02 0. -1.
       -2   -1    0    0    0  501  0.00000000000E+00  0.00000000000E+00 -0.92970399172E+03  0.92970399172E+03  0.25500000920E-02 0.  1.
    10030    2    1    2    0    0  0.00000000000E+00  0.00000000000E+00  0.11741643600E+04  0.30335723435E+04  0.27971233828E+04 0.  0.
        5    1    3    3  502    0  0.70216215176E+03 -0.32805035291E+03  0.18496685349E+04  0.20054786213E+04  0.46999998093E+01 0. -1.
       -5    1    3    3    0  502 -0.70216215176E+03  0.32805035291E+03 -0.67550417485E+03  0.10280937222E+04  0.46999998093E+01 0.  1.
</event>
<event>
 5   0  0.3212679E-06  0.2800892E+04  0.7818609E-02  0.8302991E-01
       -2   -1    0    0    0  501  0.00000000000E+00  0.00000000000E+00  0.14389714882E+04  0.14389714882E+04  0.25500000920E-02 0. -1.
        2   -1    0    0  501    0  0.00000000000E+00  0.00000000000E+00 -0.13629521049E+04  0.13629521049E+04  0.25500000920E-02 0.  1.
    10030    2    1    2    0    0  0.00000000000E+00  0.00000000000E+00  0.76019383316E+02  0.28019235930E+04  0.28008921569E+04 0.  0.
        4    1    3    3  502    0 -0.30912188662E+03 -0.82675684015E+03 -0.10496645348E+04  0.13714519540E+04  0.12699999809E+01 0.  1.
       -4    1    3    3    0  502  0.30912188662E+03  0.82675684015E+03  0.11256839182E+04  0.14304716390E+04  0.12699999809E+01 0. -1.
</event>
<event>
 5   0  0.3167616E-06  0.2790684E+04  0.7818609E-02  0.8306167E-01
        2   -1    0    0  501    0  0.00000000000E+00  0.00000000000E+00  0.13768434542E+04  0.13768434542E+04  0.25500000920E-02 0.  1.
       -2   -1    0    0    0  501  0.00000000000E+00  0.00000000000E+00 -0.14140888915E+04  0.14140888915E+04  0.25500000920E-02 0. -1.
    10030    2    1    2    0    0  0.00000000000E+00  0.00000000000E+00 -0.37245437328E+02  0.27909323457E+04  0.27906838115E+04 0.  0.
        3    1    3    3  502    0 -0.77279132630E+03  0.11613856560E+04 -0.49543877225E+02  0.13958788207E+04  0.10100000352E+00 0.  1.
       -3    1    3    3    0  502  0.77279132630E+03 -0.11613856560E+04  0.12298439897E+02  0.13950535251E+04  0.10100000352E+00 0. -1.
</event>
<event>
 5   0  0.3167616E-06  0.2798514E+04  0.7818609E-02  0.8303730E-01
       -2   -1    0    0    0  501  0.00000000000E+00  0.00000000000E+00  0.20359699572E+04  0.20359699572E+04  0.25500000920E-02 0.  1.
        2   -1    0    0  501    0  0.00000000000E+00  0.00000000000E+00 -0.96166428714E+03  0.96166428714E+03  0.25500000920E-02 0. -1.
    10030    2    1    2    0    0  0.00000000000E+00  0.00000000000E+00  0.10743056701E+04  0.29976342444E+04  0.27985136037E+04 0.  0.
        3    1    3    3  502    0  0.78722191948E+03  0.64521926887E+03 -0.49131699409E+03  0.11302294698E+04  0.10100000352E+00 0.  1.
       -3    1    3    3    0  502 -0.78722191948E+03 -0.64521926887E+03  0.15656226642E+04  0.18674047746E+04  0.10100000352E+00 0. -1.
</event>
<event>
 5   0  0.3212679E-06  0.2803701E+04  0.7818609E-02  0.8302120E-01
        2   -1    0    0  501    0  0.00000000000E+00  0.00000000000E+00  0.20034591344E+04  0.20034591344E+04  0.25500000920E-02 0. -1.
       -2   -1    0    0    0  501  0.00000000000E+00  0.00000000000E+00 -0.98089584994E+03  0.98089584994E+03  0.25500000920E-02 0.  1.
    10030    2    1    2    0    0  0.00000000000E+00  0.00000000000E+00  0.10225632845E+04  0.29843549843E+04  0.28037009473E+04 0.  0.
        4    1    3    3  502    0  0.64389070038E+03 -0.25682725187E+03  0.18082445832E+04  0.19365705660E+04  0.12699999809E+01 0. -1.
       -4    1    3    3    0  502 -0.64389070038E+03  0.25682725187E+03 -0.78568129874E+03  0.10477844184E+04  0.12699999809E+01 0.  1.
</event>
<event>
 5   0  0.3167616E-06  0.2844019E+04  0.7818609E-02  0.8289731E-01
        2   -1    0    0  501    0  0.00000000000E+00  0.00000000000E+00  0.23788994036E+04  0.23788994036E+04  0.25500000920E-02 0. -1.
       -2   -1    0    0    0  501  0.00000000000E+00  0.00000000000E+00 -0.85001973464E+03  0.85001973465E+03  0.25500000920E-02 0.  1.
    10030    2    1    2    0    0  0.00000000000E+00  0.00000000000E+00  0.15288796689E+04  0.32289191382E+04  0.28440192965E+04 0.  0.
        3    1    3    3  502    0 -0.61951164335E+03  0.96298648321E+03 -0.19286758466E+03  0.11611785214E+04  0.10100000352E+00 0.  1.
       -3    1    3    3    0  502  0.61951164335E+03 -0.96298648321E+03  0.17217472536E+04  0.20677406168E+04  0.10100000352E+00 0. -1.
</event>
<event>
 5   0  0.1243055E-06  0.2806455E+04  0.7818609E-02  0.8301267E-01
        1   -1    0    0  501    0  0.00000000000E+00  0.00000000000E+00  0.97041043638E+03  0.97041043639E+03  0.50400001928E-02 0.  1.
       -1   -1    0    0    0  501  0.00000000000E+00  0.00000000000E+00 -0.20290876430E+04  0.20290876430E+04  0.50400001928E-02 0. -1.
    10030    2    1    2    0    0  0.00000000000E+00  0.00000000000E+00 -0.10586772067E+04  0.29994980794E+04  0.28064552910E+04 0.  0.
        5    1    3    3  502    0  0.80417373301E+03 -0.75740585187E+03  0.39543350708E+03  0.11733493793E+04  0.46999998093E+01 0. -1.
       -5    1    3    3    0  502 -0.80417373301E+03  0.75740585187E+03 -0.14541107137E+04  0.18261487002E+04  0.46999998093E+01 0.  1.
</event>
<event>
 5   0  0.3162695E-06  0.2804336E+04  0.7818609E-02  0.8301923E-01
        2   -1    0    0  501    0  0.00000000000E+00  0.00000000000E+00  0.10055867547E+04  0.10055867547E+04  0.25500000920E-02 0.  1.
       -2   -1    0    0    0  501  0.00000000000E+00  0.00000000000E+00 -0.19551523919E+04  0.19551523919E+04  0.25500000920E-02 0. -1.
    10030    2    1    2    0    0  0.00000000000E+00  0.00000000000E+00 -0.94956563721E+03  0.29607391467E+04  0.28043361773E+04 0.  0.
        1    1    3    3  502    0 -0.62702415465E+03  0.42150454548E+03 -0.17218678981E+04  0.18803335957E+04  0.50400001928E-02 0. -1.
       -1    1    3    3    0  502  0.62702415465E+03 -0.42150454548E+03  0.77230226093E+03  0.10804055510E+04  0.50400001928E-02 0.  1.
</event>
<event>
 5   0  0.1263513E-06  0.2799032E+04  0.7818609E-02  0.8303569E-01
       -1   -1    0    0    0  501  0.00000000000E+00  0.00000000000E+00  0.18561669695E+04  0.18561669695E+04  0.50400001928E-02 0.  1.
        1   -1    0    0  501    0  0.00000000000E+00  0.00000000000E+00 -0.10552096967E+04  0.10552096968E+04  0.50400001928E-02 0. -1.
    10030    2    1    2    0    0  0.00000000000E+00  0.00000000000E+00  0.80095727277E+03  0.29113766663E+04  0.27990322506E+04 0.  0.
        3    1    3    3  502    0 -0.37208599983E+03 -0.11416823209E+04  0.11481908262E+04  0.16613936008E+04  0.10100000352E+00 0.  1.
       -3    1    3    3    0  502  0.37208599983E+03  0.11416823209E+04 -0.34723355341E+03  0.12499830655E+04  0.10100000352E+00 0. -1.
</event>
<event>
 5   0  0.3212679E-06  0.2788990E+04  0.7818609E-02  0.8306695E-01
       -2   -1    0    0    0  501  0.00000000000E+00  0.00000000000E+00  0.66485196320E+03  0.66485196321E+03  0.25500000920E-02 0. -1.
        2   -1    0    0  501    0  0.00000000000E+00  0.00000000000E+00 -0.29248852861E+04  0.29248852861E+04  0.25500000920E-02 0.  1.
    10030    2    1    2    0    0  0.00000000000E+00  0.00000000000E+00 -0.22600333229E+04  0.35897372493E+04  0.27889895838E+04 0.  0.
        4    1    3    3  502    0 -0.12741243305E+04  0.52672560533E+03 -0.86070151144E+03  0.16253127014E+04  0.12699999809E+01 0.  1.
       -4    1    3    3    0  502  0.12741243305E+04 -0.52672560533E+03 -0.13993318114E+04  0.19644245478E+04  0.12699999809E+01 0. -1.
</event>
<event>
 5   0  0.3162695E-06  0.2792787E+04  0.7818609E-02  0.8305511E-01
       -2   -1    0    0    0  501  0.00000000000E+00  0.00000000000E+00  0.16062998756E+04  0.16062998756E+04  0.25500000920E-02 0. -1.
        2   -1    0    0  501    0  0.00000000000E+00  0.00000000000E+00 -0.12139169339E+04  0.12139169339E+04  0.25500000920E-02 0.  1.
    10030    2    1    2    0    0  0.00000000000E+00  0.00000000000E+00  0.39238294173E+03  0.28202168095E+04  0.27927868662E+04 0.  0.
        1    1    3    3  502    0 -0.93554624477E+03 -0.74394220863E+03 -0.53285353113E+03  0.13086747768E+04  0.50400001928E-02 0.  1.
       -1    1    3    3    0  502  0.93554624477E+03  0.74394220863E+03  0.92523647286E+03  0.15115420327E+04  0.50400001928E-02 0. -1.
</event>
<event>
 5   0  0.3212679E-06  0.2843001E+04  0.7818609E-02  0.8290041E-01
        2   -1    0    0  501    0  0.00000000000E+00  0.00000000000E+00  0.14719331028E+04  0.14719331028E+04  0.25500000920E-02 0.  1.
       -2   -1    0    0    0  501  0.00000000000E+00  0.00000000000E+00 -0.13727957067E+04  0.13727957067E+04  0.25500000920E-02 0. -1.
    10030    2    1    2    0    0  0.00000000000E+00  0.00000000000E+00  0.99137396084E+02  0.28447288096E+04  0.28430008401E+04 0.  0.
        4    1    3    3  502    0  0.14801453001E+03  0.96483213880E+02  0.14609026820E+04  0.14715486981E+04  0.12699999809E+01 0.  1.
       -4    1    3    3    0  502 -0.14801453001E+03 -0.96483213880E+02 -0.13617652859E+04  0.13731801115E+04  0.12699999809E+01 0. -1.
</event>
<event>
 5   0  0.3162695E-06  0.2828076E+04  0.7818609E-02  0.8294605E-01
       -2   -1    0    0    0  501  0.00000000000E+00  0.00000000000E+00  0.88369825013E+03  0.88369825014E+03  0.25500000920E-02 0.  1.
        2   -1    0    0  501    0  0.00000000000E+00  0.00000000000E+00 -0.22626535975E+04  0.22626535975E+04  0.25500000920E-02 0. -1.
    10030    2    1    2    0    0  0.00000000000E+00  0.00000000000E+00 -0.13789553474E+04  0.31463518477E+04  0.28280756884E+04 0.  0.
        1    1    3    3  502    0 -0.34083867463E+02  0.10832603309E+04  0.32097004776E+03  0.11303258053E+04  0.50400001928E-02 0.  1.
       -1    1    3    3    0  502  0.34083867463E+02 -0.10832603309E+04 -0.16999253952E+04  0.20160260424E+04  0.50400001928E-02 0. -1.
</event>
<event>
 5   0  0.1220265E-06  0.2814159E+04  0.7818609E-02  0.8298886E-01
        1   -1    0    0  501    0  0.00000000000E+00  0.00000000000E+00  0.19101331369E+04  0.19101331369E+04  0.50400001928E-02 0. -1.
       -1   -1    0    0    0  501  0.00000000000E+00  0.00000000000E+00 -0.10365103963E+04  0.10365103963E+04  0.50400001928E-02 0.  1.
    10030    2    1    2    0    0  0.00000000000E+00  0.00000000000E+00  0.87362274062E+03  0.29466435333E+04  0.28141590963E+04 0.  0.
        4    1    3    3  502    0 -0.28767001872E+03  0.16886803251E+03 -0.99451020750E+03  0.10489626389E+04  0.12699999809E+01 0.  1.
       -4    1    3    3    0  502  0.28767001872E+03 -0.16886803251E+03  0.18681329481E+04  0.18976808944E+04  0.12699999809E+01 0. -1.
</event>
<event>
 5   0  0.1243055E-06  0.2781860E+04  0.7818609E-02  0.8308922E-01
       -1   -1    0    0    0  501  0.00000000000E+00  0.00000000000E+00  0.11511933999E+04  0.11511933999E+04  0.50400001928E-02 0. -1.
        1   -1    0    0  501    0  0.00000000000E+00  0.00000000000E+00 -0.16805918843E+04  0.16805918843E+04  0.50400001928E-02 0.  1.
    10030    2    1    2    0    0  0.00000000000E+00  0.00000000000E+00 -0.52939848444E+03  0.28317852842E+04  0.27818600145E+04 0.  0.
        5    1    3    3  502    0  0.18483435081E+03  0.13779451273E+04 -0.22190085715E+03  0.14078915410E+04  0.46999998093E+01 0. -1.
       -5    1    3    3    0  502 -0.18483435081E+03 -0.13779451273E+04 -0.30749762729E+03  0.14238937431E+04  0.46999998093E+01 0.  1.
</event>
<event>
 5   0  0.3212679E-06  0.2808873E+04  0.7818609E-02  0.8300519E-01
        2   -1    0    0  501    0  0.00000000000E+00  0.00000000000E+00  0.20124198376E+04  0.20124198376E+04  0.25500000920E-02 0.  1.
       -2   -1    0    0    0  501  0.00000000000E+00  0.00000000000E+00 -0.98013439929E+03  0.98013439929E+03  0.25500000920E-02 0. -1.
    10030    2    1    2    0    0  0.00000000000E+00  0.00000000000E+00  0.10322854383E+04  0.29925542369E+04  0.28088730186E+04 0.  0.
        4    1    3    3  502    0  0.13975112244E+04  0.11704741949E+03  0.43568912876E+03  0.14685245488E+04  0.12699999809E+01 0.  1.
       -4    1    3    3    0  502 -0.13975112244E+04 -0.11704741949E+03  0.59659630954E+03  0.15240296881E+04  0.12699999809E+01 0. -1.
</event>
<event>
 5   0  0.3162695E-06  0.2806069E+04  0.7818609E-02  0.8301387E-01
       -2   -1    0    0    0  501  0.00000000000E+00  0.00000000000E+00  0.13309219026E+04  0.13309219026E+04  0.25500000920E-02 0. -1.
        2   -1    0    0  501    0  0.00000000000E+00  0.00000000000E+00 -0.14790543510E+04  0.14790543510E+04  0.25500000920E-02 0.  1.
    10030    2    1    2    0    0  0.00000000000E+00  0.00000000000E+00 -0.14813244836E+03  0.28099762536E+04  0.28060690162E+04 0.  0.
        1    1    3    3  502    0 -0.47964320026E+03  0.71634329473E+03  0.10344080274E+04  0.13465531117E+04  0.50400001928E-02 0. -1.
       -1    1    3    3    0  502  0.47964320026E+03 -0.71634329473E+03 -0.11825404758E+04  0.14634231419E+04  0.50400001928E-02 0.  1.
</event>
<event>
 5   0  0.3212679E-06  0.2805478E+04  0.7818609E-02  0.8301570E-01
        2   -1    0    0  501    0  0.00000000000E+00  0.00000000000E+00  0.17843127267E+04  0.17843127267E+04  0.25500000920E-02 0. -1.
       -2   -1    0    0    0  501  0.00000000000E+00  0.00000000000E+00 -0.11027647979E+04  0.11027647979E+04  0.25500000920E-02 0.  1.
    10030    2    1    2    0    0  0.00000000000E+00  0.00000000000E+00  0.68154792877E+03  0.28870775246E+04  0.28054784002E+04 0.  0.
        4    1    3    3  502    0  0.88722644448E+03 -0.43100852591E+03 -0.68559982188E+03  0.12012442890E+04  0.12699999809E+01 0.  1.
       -4    1    3    3    0  502 -0.88722644448E+03  0.43100852591E+03  0.13671477506E+04  0.16858332356E+04  0.12699999809E+01 0. -1.
</event>
<event>
 5   0  0.3226364E-06  0.2793007E+04  0.7818609E-02  0.8305443E-01
       -2   -1    0    0    0  501  0.00000000000E+00  0.00000000000E+00  0.97711564334E+03  0.97711564335E+03  0.25500000920E-02 0. -1.
        2   -1    0    0  501    0  0.00000000000E+00  0.00000000000E+00 -0.19958962832E+04  0.19958962832E+04  0.25500000920E-02 0.  1.
    10030    2    1    2    0    0  0.00000000000E+00  0.00000000000E+00 -0.10187806399E+04  0.29730119266E+04  0.27930066100E+04 0.  0.
        5    1    3    3  502    0 -0.10194637286E+04 -0.85034753997E+03 -0.48099324329E+02  0.13284324852E+04  0.46999998093E+01 0. -1.
       -5    1    3    3    0  502  0.10194637286E+04  0.85034753997E+03 -0.97068131555E+03  0.16445794414E+04  0.46999998093E+01 0.  1.
</event>
<event>
 5   0  0.3345919E-06  0.2806660E+04  0.7818609E-02  0.8301204E-01
       -2   -1    0    0    0  501  0.00000000000E+00  0.00000000000E+00  0.18971483111E+04  0.18971483111E+04  0.25500000920E-02 0. -1.
        2   -1    0    0  501    0  0.00000000000E+00  0.00000000000E+00 -0.10380501999E+04  0.10380501999E+04  0.25500000920E-02 0.  1.
    10030    2    1    2    0    0  0.00000000000E+00  0.00000000000E+00  0.85909811111E+03  0.29351985110E+04  0.28066600675E+04 0.  0.
        2    1    3    3  502    0 -0.68556390840E+03 -0.11869712761E+04  0.11504986076E+03  0.13755490370E+04  0.25500000920E-02 0.  1.
       -2    1    3    3    0  502  0.68556390840E+03  0.11869712761E+04  0.74404825036E+03  0.15596494740E+04  0.25500000920E-02 0. -1.
</event>
<event>
 5   0  0.1263513E-06  0.2796897E+04  0.7818609E-02  0.8304232E-01
       -1   -1    0    0    0  501  0.00000000000E+00  0.00000000000E+00  0.11860896908E+04  0.11860896908E+04  0.50400001928E-02 0.  1.
        1   -1    0    0  501    0  0.00000000000E+00  0.00000000000E+00 -0.16488280508E+04  0.16488280508E+04  0.50400001928E-02 0. -1.
    10030    2    1    2    0    0  0.00000000000E+00  0.00000000000E+00 -0.46273836007E+03  0.28349177416E+04  0.27968968182E+04 0.  0.
        3    1    3    3  502    0  0.10167161032E+04 -0.95441444062E+03 -0.12487241070E+03  0.14000756008E+04  0.10100000352E+00 0.  1.
       -3    1    3    3    0  502 -0.10167161032E+04  0.95441444062E+03 -0.33786594937E+03  0.14348421408E+04  0.10100000352E+00 0. -1.
</event>
<event>
 5   0  0.3162695E-06  0.2802446E+04  0.7818609E-02  0.8302509E-01
       -2   -1    0    0    0  501  0.00000000000E+00  0.00000000000E+00  0.12250255040E+04  0.12250255040E+04  0.25500000920E-02 0.  1.
        2   -1    0    0  501    0  0.00000000000E+00  0.00000000000E+00 -0.16027633758E+04  0.16027633758E+04  0.25500000920E-02 0. -1.
    10030    2    1    2    0    0  0.00000000000E+00  0.00000000000E+00 -0.37773787174E+03  0.28277888798E+04  0.28024460832E+04 0.  0.
        1    1    3    3  502    0 -0.42901776683E+03 -0.68503616920E+03 -0.13438135199E+04  0.15681726862E+04  0.50400001928E-02 0. -1.
       -1    1    3    3    0  502  0.42901776683E+03  0.68503616920E+03  0.96607564816E+03  0.12596161937E+04  0.50400001928E-02 0.  1.
</event>
<event>
 5   0  0.1220265E-06  0.2810207E+04  0.7818609E-02  0.8300107E-01
        1   -1    0    0  501    0  0.00000000000E+00  0.00000000000E+00  0.10275695603E+04  0.10275695603E+04  0.50400001928E-02 0.  1.
       -1   -1    0    0    0  501  0.00000000000E+00  0.00000000000E+00 -0.19213449050E+04  0.19213449050E+04  0.50400001928E-02 0. -1.
    10030    2    1    2    0    0  0.00000000000E+00  0.00000000000E+00 -0.89377534473E+03  0.29489144653E+04  0.28102067818E+04 0.  0.
        4    1    3    3  502    0  0.37546469592E+03 -0.44345127421E+03 -0.17893659466E+04  0.18813439011E+04  0.12699999809E+01 0. -1.
       -4    1    3    3    0  502 -0.37546469592E+03  0.44345127421E+03  0.89559060184E+03  0.10675705642E+04  0.12699999809E+01 0.  1.
</event>
<event>
 5   0  0.1220265E-06  0.2809922E+04  0.7818609E-02  0.8300195E-01
       -1   -1    0    0    0  501  0.00000000000E+00  0.00000000000E+00  0.14257734729E+04  0.14257734729E+04  0.50400001928E-02 0. -1.
        1   -1    0    0  501    0  0.00000000000E+00  0.00000000000E+00 -0.13844522291E+04  0.13844522291E+04  0.50400001928E-02 0.  1.
    10030    2    1    2    0    0  0.00000000000E+00  0.00000000000E+00  0.41321243848E+02  0.28102257020E+04  0.28099218941E+04 0.  0.
        4    1    3    3  502    0 -0.14042518691E+04 -0.26403690630E+02  0.56625364724E+02  0.14056416725E+04  0.12699999809E+01 0.  1.
       -4    1    3    3    0  502  0.14042518691E+04  0.26403690630E+02 -0.15304120876E+02  0.14045840294E+04  0.12699999809E+01 0. -1.
</event>
<event>
 5   0  0.3167616E-06  0.2788712E+04  0.7818609E-02  0.8306781E-01
        2   -1    0    0  501    0  0.00000000000E+00  0.00000000000E+00  0.15931560806E+04  0.15931560806E+04  0.25500000920E-02 0.  1.
       -2   -1    0    0    0  501  0.00000000000E+00  0.00000000000E+00 -0.12203630818E+04  0.12203630818E+04  0.25500000920E-02 0. -1.
    10030    2    1    2    0    0  0.00000000000E+00  0.00000000000E+00  0.37279299880E+03  0.28135191624E+04  0.27887121503E+04 0.  0.
        3    1    3    3  502    0 -0.13470417326E+04 -0.85557242551E+01  0.54964683590E+03  0.14548904715E+04  0.10100000352E+00 0.  1.
       -3    1    3    3    0  502  0.13470417326E+04  0.85557242551E+01 -0.17685383710E+03  0.13586286909E+04  0.10100000352E+00 0. -1.
</event>
<event>
 5   0  0.3226364E-06  0.2803191E+04  0.7818609E-02  0.8302279E-01
       -2   -1    0    0    0  501  0.00000000000E+00  0.00000000000E+00  0.15813630171E+04  0.15813630171E+04  0.25500000920E-02 0.  1.
        2   -1    0    0  501    0  0.00000000000E+00  0.00000000000E+00 -0.12422633448E+04  0.12422633448E+04  0.25500000920E-02 0. -1.
    10030    2    1    2    0    0  0.00000000000E+00  0.00000000000E+00  0.33909967227E+03  0.28236263619E+04  0.28031905472E+04 0.  0.
        5    1    3    3  502    0  0.31589530935E+02  0.12222260677E+04  0.85982866432E+03  0.14947113036E+04  0.46999998093E+01 0.  1.
       -5    1    3    3    0  502 -0.31589530935E+02 -0.12222260677E+04 -0.52072899204E+03  0.13289150583E+04  0.46999998093E+01 0. -1.
</event>
<event>
 5   0  0.3226364E-06  0.2813033E+04  0.7818609E-02  0.8299234E-01
        2   -1    0    0  501    0  0.00000000000E+00  0.00000000000E+00  0.19476703204E+04  0.19476703204E+04  0.25500000920E-02 0.  1.
       -2   -1    0    0    0  501  0.00000000000E+00  0.00000000000E+00 -0.10157201495E+04  0.10157201495E+04  0.25500000920E-02 0. -1.
    10030    2    1    2    0    0  0.00000000000E+00  0.00000000000E+00  0.93195017094E+03  0.29633904699E+04  0.28130325196E+04 0.  0.
        5    1    3    3  502    0 -0.42949404139E+03 -0.22497096421E+02 -0.94474208801E+03  0.10380418844E+04  0.46999998093E+01 0. -1.
       -5    1    3    3    0  502  0.42949404139E+03  0.22497096421E+02  0.18766922589E+04  0.19253485855E+04  0.46999998093E+01 0.  1.
</event>
<event>
 5   0  0.3162695E-06  0.2809678E+04  0.7818609E-02  0.8300270E-01
        2   -1    0    0  501    0  0.00000000000E+00  0.00000000000E+00  0.17929343952E+04  0.17929343952E+04  0.25500000920E-02 0. -1.
       -2   -1    0    0    0  501  0.00000000000E+00  0.00000000000E+00 -0.11007500928E+04  0.11007500928E+04  0.25500000920E-02 0.  1.
    10030    2    1    2    0    0  0.00000000000E+00  0.00000000000E+00  0.69218430240E+03  0.28936844879E+04  0.28096780611E+04 0.  0.
        1    1    3    3  502    0 -0.98614990424E+02 -0.86197989849E+03  0.14840435486E+04  0.17190461064E+04  0.50400001928E-02 0. -1.
       -1    1    3    3    0  502  0.98614990424E+02  0.86197989849E+03 -0.79185924615E+03  0.11746383816E+04  0.50400001928E-02 0.  1.
</event>
<event>
 5   0  0.1220265E-06  0.2799209E+04  0.7818609E-02  0.8303514E-01
        1   -1    0    0  501    0  0.00000000000E+00  0.00000000000E+00  0.77011481634E+03  0.77011481636E+03  0.50400001928E-02 0.  1.
       -1   -1    0    0    0  501  0.00000000000E+00  0.00000000000E+00 -0.25436366967E+04  0.25436366967E+04  0.50400001928E-02 0. -1.
    10030    2    1    2    0    0  0.00000000000E+00  0.00000000000E+00 -0.17735218804E+04  0.33137515131E+04  0.27992086793E+04 0.  0.
        4    1    3    3  502    0 -0.53701669221E+03 -0.85381347758E+03 -0.20354335914E+04  0.22716460772E+04  0.12699999809E+01 0. -1.
       -4    1    3    3    0  502  0.53701669221E+03  0.85381347758E+03  0.26191171101E+03  0.10421054359E+04  0.12699999809E+01 0.  1.
</event>
<event>
 5   0  0.1065675E-06  0.2807283E+04  0.7818609E-02  0.8301011E-01
       -3   -1    0    0    0  501  0.00000000000E+00  0.00000000000E+00  0.96701379116E+03  0.96701379643E+03  0.10100000352E+00 0. -1.
        3   -1    0    0  501    0  0.00000000000E+00  0.00000000000E+00 -0.20374161439E+04  0.20374161464E+04  0.10100000352E+00 0.  1.
    10030    2    1    2    0    0  0.00000000000E+00  0.00000000000E+00 -0.10704023528E+04  0.30044299429E+04  0.28072830432E+04 0.  0.
        3    1    3    3  502    0  0.21645133323E+03  0.60759408881E+03  0.79901935867E+03  0.10268659611E+04  0.10100000352E+00 0. -1.
       -3    1    3    3    0  502 -0.21645133323E+03 -0.60759408881E+03 -0.18694217114E+04  0.19775639817E+04  0.10100000352E+00 0.  1.
</event>
<event>
 5   0  0.3226364E-06  0.2808204E+04  0.7818609E-02  0.8300726E-01
        2   -1    0    0  501    0  0.00000000000E+00  0.00000000000E+00  0.16506404451E+04  0.16506404451E+04  0.25500000920E-02 0.  1.
       -2   -1    0    0    0  501  0.00000000000E+00  0.00000000000E+00 -0.11943866984E+04  0.11943866984E+04  0.25500000920E-02 0. -1.
    10030    2    1    2    0    0  0.00000000000E+00  0.00000000000E+00  0.45625374667E+03  0.28450271435E+04  0.28082044024E+04 0.  0.
        5    1    3    3  502    0  0.84130365336E+03 -0.72907369814E+00 -0.91075248235E+03  0.12398727930E+04  0.46999998093E+01 0. -1.
       -5    1    3    3    0  502 -0.84130365336E+03  0.72907369814E+00  0.13670062290E+04  0.16051543505E+04  0.46999998093E+01 0.  1.
</event>
<event>
 5   0  0.3345919E-06  0.2671678E+04  0.7818609E-02  0.8344253E-01
        2   -1    0    0  501    0  0.00000000000E+00  0.00000000000E+00  0.19580766063E+04  0.19580766063E+04  0.25500000920E-02 0.  1.
       -2   -1    0    0    0  501  0.00000000000E+00  0.00000000000E+00 -0.91133581963E+03  0.91133581964E+03  0.25500000920E-02 0. -1.
    10030    2    1    2    0    0  0.00000000000E+00  0.00000000000E+00  0.10467407867E+04  0.28694124260E+04  0.26716776370E+04 0.  0.
        2    1    3    3  502    0  0.64805744254E+03  0.57787363459E+03 -0.56692263390E+03  0.10369752452E+04  0.25500000920E-02 0. -1.
       -2    1    3    3    0  502 -0.64805744254E+03 -0.57787363459E+03  0.16136634206E+04  0.18324371807E+04  0.25500000920E-02 0.  1.
</event>
<event>
 5   0  0.3167616E-06  0.2830445E+04  0.7818609E-02  0.8293878E-01
       -2   -1    0    0    0  501  0.00000000000E+00  0.00000000000E+00  0.78151874693E+03  0.78151874693E+03  0.25500000920E-02 0. -1.
        2   -1    0    0  501    0  0.00000000000E+00  0.00000000000E+00 -0.25627728819E+04  0.25627728819E+04  0.25500000920E-02 0.  1.
    10030    2    1    2    0    0  0.00000000000E+00  0.00000000000E+00 -0.17812541349E+04  0.33442916288E+04  0.28304452309E+04 0.  0.
        3    1    3    3  502    0 -0.68715973932E+03 -0.86529352801E+03  0.15417575215E+03  0.11156574607E+04  0.10100000352E+00 0. -1.
       -3    1    3    3    0  502  0.68715973932E+03  0.86529352801E+03 -0.19354298871E+04  0.22286341681E+04  0.10100000352E+00 0.  1.
</event>
<event>
 5   0  0.1235252E-06  0.2800159E+04  0.7818609E-02  0.8303219E-01
        1   -1    0    0  501    0  0.00000000000E+00  0.00000000000E+00  0.12391657467E+04  0.12391657467E+04  0.50400001928E-02 0.  1.
       -1   -1    0    0    0  501  0.00000000000E+00  0.00000000000E+00 -0.15818892079E+04  0.15818892079E+04  0.50400001928E-02 0. -1.
    10030    2    1    2    0    0  0.00000000000E+00  0.00000000000E+00 -0.34272346116E+03  0.28210549546E+04  0.28001592252E+04 0.  0.
        1    1    3    3  502    0 -0.71425541965E+03  0.48198916508E+03 -0.12831129942E+04  0.15455915747E+04  0.50400001928E-02 0. -1.
       -1    1    3    3    0  502  0.71425541965E+03 -0.48198916508E+03  0.94038953304E+03  0.12754633800E+04  0.50400001928E-02 0.  1.
</event>
<event>
 5   0  0.3167616E-06  0.2778135E+04  0.7818609E-02  0.8310089E-01
       -2   -1    0    0    0  501  0.00000000000E+00  0.00000000000E+00  0.92783584955E+03  0.92783584955E+03  0.25500000920E-02 0.  1.
        2   -1    0    0  501    0  0.00000000000E+00  0.00000000000E+00 -0.20795794508E+04  0.20795794509E+04  0.25500000920E-02 0. -1.
    10030    2    1    2    0    0  0.00000000000E+00  0.00000000000E+00 -0.11517436013E+04  0.30074153004E+04  0.27781348898E+04 0.  0.
        3    1    3    3  502    0 -0.13935272364E+03 -0.61577260561E+03  0.76354385359E+03  0.99075441456E+03  0.10100000352E+00 0.  1.
       -3    1    3    3    0  502  0.13935272364E+03  0.61577260561E+03 -0.19152874549E+04  0.20166608858E+04  0.10100000352E+00 0. -1.
</event>
<event>
 5   0  0.3226364E-06  0.2753470E+04  0.7818609E-02  0.8317862E-01
       -2   -1    0    0    0  501  0.00000000000E+00  0.00000000000E+00  0.11615037257E+04  0.11615037257E+04  0.25500000920E-02 0.  1.
        2   -1    0    0  501    0  0.00000000000E+00  0.00000000000E+00 -0.16318489894E+04  0.16318489894E+04  0.25500000920E-02 0. -1.
    10030    2    1    2    0    0  0.00000000000E+00  0.00000000000E+00 -0.47034526368E+03  0.27933527151E+04  0.27534695793E+04 0.  0.
        5    1    3    3  502    0 -0.15249332462E+03  0.12822899705E+04 -0.71942816706E+03  0.14782153971E+04  0.46999998093E+01 0. -1.
       -5    1    3    3    0  502  0.15249332462E+03 -0.12822899705E+04  0.24908290339E+03  0.13151373180E+04  0.46999998093E+01 0.  1.
</event>
<event>
 5   0  0.1235252E-06  0.2800090E+04  0.7818609E-02  0.8303240E-01
        1   -1    0    0  501    0  0.00000000000E+00  0.00000000000E+00  0.24160078465E+04  0.24160078465E+04  0.50400001928E-02 0.  1.
       -1   -1    0    0    0  501  0.00000000000E+00  0.00000000000E+00 -0.81130806795E+03  0.81130806796E+03  0.50400001928E-02 0. -1.
    10030    2    1    2    0    0  0.00000000000E+00  0.00000000000E+00  0.16046997785E+04  0.32273159144E+04  0.28000904686E+04 0.  0.
        1    1    3    3  502    0  0.89387430583E+03 -0.29083120400E+03 -0.39351745872E+03  0.10190436959E+04  0.50400001928E-02 0. -1.
       -1    1    3    3    0  502 -0.89387430583E+03  0.29083120400E+03  0.19982172372E+04  0.22082722185E+04  0.50400001928E-02 0.  1.
</event>
<event>
 5   0  0.1246044E-06  0.2801643E+04  0.7818609E-02  0.8302758E-01
        1   -1    0    0  501    0  0.00000000000E+00  0.00000000000E+00  0.23823475118E+04  0.23823475118E+04  0.50400001928E-02 0.  1.
       -1   -1    0    0    0  501  0.00000000000E+00  0.00000000000E+00 -0.82368370863E+03  0.82368370865E+03  0.50400001928E-02 0. -1.
    10030    2    1    2    0    0  0.00000000000E+00  0.00000000000E+00  0.15586638032E+04  0.32060312205E+04  0.28016429707E+04 0.  0.
        2    1    3    3  502    0  0.44485963660E+03 -0.13231521831E+04  0.91312198755E+03  0.16680598191E+04  0.25500000920E-02 0. -1.
       -2    1    3    3    0  502 -0.44485963660E+03  0.13231521831E+04  0.64554181566E+03  0.15379714014E+04  0.25500000920E-02 0.  1.
</event>
<event>
 5   0  0.3212679E-06  0.2840630E+04  0.7818609E-02  0.8290764E-01
       -2   -1    0    0    0  501  0.00000000000E+00  0.00000000000E+00  0.12901749554E+04  0.12901749554E+04  0.25500000920E-02 0. -1.
        2   -1    0    0  501    0  0.00000000000E+00  0.00000000000E+00 -0.15635819246E+04  0.15635819246E+04  0.25500000920E-02 0.  1.
    10030    2    1    2    0    0  0.00000000000E+00  0.00000000000E+00 -0.27340696918E+03  0.28537568800E+04  0.28406296765E+04 0.  0.
        4    1    3    3  502    0  0.23530490294E+03  0.79596749544E+03 -0.12945746597E+04  0.15378094204E+04  0.12699999809E+01 0.  1.
       -4    1    3    3    0  502 -0.23530490294E+03 -0.79596749544E+03  0.10211676905E+04  0.13159474595E+04  0.12699999809E+01 0. -1.
</event>
<event>
 5   0  0.3212679E-06  0.2800627E+04  0.7818609E-02  0.8303074E-01
       -2   -1    0    0    0  501  0.00000000000E+00  0.00000000000E+00  0.91254532271E+03  0.91254532271E+03  0.25500000920E-02 0. -1.
        2   -1    0    0  501    0  0.00000000000E+00  0.00000000000E+00 -0.21488001103E+04  0.21488001103E+04  0.25500000920E-02 0.  1.
    10030    2    1    2    0    0  0.00000000000E+00  0.00000000000E+00 -0.12362547876E+04  0.30613454330E+04  0.28006267085E+04 0.  0.
        4    1    3    3  502    0 -0.19238025639E+03 -0.45161849404E+03 -0.20516664289E+04  0.21095748803E+04  0.12699999809E+01 0.  1.
       -4    1    3    3    0  502  0.19238025639E+03  0.45161849404E+03  0.81541164135E+03  0.95177055268E+03  0.12699999809E+01 0. -1.
</event>
<event>
 5   0  0.3345919E-06  0.2783799E+04  0.7818609E-02  0.8308316E-01
       -2   -1    0    0    0  501  0.00000000000E+00  0.00000000000E+00  0.13770196365E+04  0.13770196365E+04  0.25500000920E-02 0. -1.
        2   -1    0    0  501    0  0.00000000000E+00  0.00000000000E+00 -0.14069405763E+04  0.14069405763E+04  0.25500000920E-02 0.  1.
    10030    2    1    2    0    0  0.00000000000E+00  0.00000000000E+00 -0.29920939798E+02  0.27839602128E+04  0.27837994187E+04 0.  0.
        2    1    3    3  502    0  0.10917024702E+04  0.49130675814E+03 -0.72506358433E+03  0.13996120231E+04  0.25500000920E-02 0.  1.
       -2    1    3    3    0  502 -0.10917024702E+04 -0.49130675814E+03  0.69514264453E+03  0.13843481897E+04  0.25500000920E-02 0. -1.
</event>
<event>
 5   0  0.3162695E-06  0.2806768E+04  0.7818609E-02  0.8301170E-01
        2   -1    0    0  501    0  0.00000000000E+00  0.00000000000E+00  0.22594265135E+04  0.22594265135E+04  0.25500000920E-02 0.  1.
       -2   -1    0    0    0  501  0.00000000000E+00  0.00000000000E+00 -0.87167547348E+03  0.87167547348E+03  0.25500000920E-02 0. -1.
    10030    2    1    2    0    0  0.00000000000E+00  0.00000000000E+00  0.13877510400E+04  0.31311019870E+04  0.28067680175E+04 0.  0.
        1    1    3    3  502    0 -0.13224410747E+04  0.44212844451E+03  0.87081915812E+03  0.16439750496E+04  0.50400001928E-02 0. -1.
       -1    1    3    3    0  502  0.13224410747E+04 -0.44212844451E+03  0.51693188191E+03  0.14871269374E+04  0.50400001928E-02 0.  1.
</event>
<event>
 5   0  0.3212679E-06  0.2809665E+04  0.7818609E-02  0.8300274E-01
        2   -1    0    0  501    0  0.00000000000E+00  0.00000000000E+00  0.16733558755E+04  0.16733558755E+04  0.25500000920E-02 0.  1.
       -2   -1    0    0    0  501  0.00000000000E+00  0.00000000000E+00 -0.11793990878E+04  0.11793990878E+04  0.25500000920E-02 0. -1.
    10030    2    1    2    0    0  0.00000000000E+00  0.00000000000E+00  0.49395678772E+03  0.28527549633E+04  0.28096650285E+04 0.  0.
        4    1    3    3  502    0  0.82658085402E+03  0.39538885317E+03 -0.83424015604E+03  0.12391636310E+04  0.12699999809E+01 0. -1.
       -4    1    3    3    0  502 -0.82658085402E+03 -0.39538885317E+03  0.13281969438E+04  0.16135913323E+04  0.12699999809E+01 0.  1.
</event>
<event>
 5   0  0.3167616E-06  0.2798564E+04  0.7818609E-02  0.8303714E-01
        2   -1    0    0  501    0  0.00000000000E+00  0.00000000000E+00  0.13303110702E+04  0.13303110702E+04  0.25500000920E-02 0.  1.
       -2   -1    0    0    0  501  0.00000000000E+00  0.00000000000E+00 -0.14718285677E+04  0.14718285678E+04  0.25500000920E-02 0. -1.
    10030    2    1    2    0    0  0.00000000000E+00  0.00000000000E+00 -0.14151749759E+03  0.28021396379E+04  0.27985638010E+04 0.  0.
        3    1    3    3  502    0  0.12962877253E+03  0.12727187965E+04 -0.63838085926E+03  0.14297366490E+04  0.10100000352E+00 0. -1.
       -3    1    3    3    0  502 -0.12962877253E+03 -0.12727187965E+04  0.49686336167E+03  0.13724029890E+04  0.10100000352E+00 0.  1.
</event>
<event>
 5   0  0.1263513E-06  0.2803268E+04  0.7818609E-02  0.8302254E-01
        1   -1    0    0  501    0  0.00000000000E+00  0.00000000000E+00  0.16629549675E+04  0.16629549675E+04  0.50400001928E-02 0. -1.
       -1   -1    0    0    0  501  0.00000000000E+00  0.00000000000E+00 -0.11813777668E+04  0.11813777668E+04  0.50400001928E-02 0.  1.
    10030    2    1    2    0    0  0.00000000000E+00  0.00000000000E+00  0.48157720070E+03  0.28443327343E+04  0.28032681112E+04 0.  0.
        3    1    3    3  502    0 -0.10519104238E+04 -0.92627337990E+03  0.23170755133E+03  0.14206288444E+04  0.10100000352E+00 0. -1.
       -3    1    3    3    0  502  0.10519104238E+04  0.92627337990E+03  0.24986964937E+03  0.14237038899E+04  0.10100000352E+00 0.  1.
</event>
<event>
 5   0  0.1263513E-06  0.2785617E+04  0.7818609E-02  0.8307748E-01
       -1   -1    0    0    0  501  0.00000000000E+00  0.00000000000E+00  0.26959447001E+04  0.26959447001E+04  0.50400001928E-02 0. -1.
        1   -1    0    0  501    0  0.00000000000E+00  0.00000000000E+00 -0.71956798362E+03  0.71956798364E+03  0.50400001928E-02 0.  1.
    10030    2    1    2    0    0  0.00000000000E+00  0.00000000000E+00  0.19763767165E+04  0.34155126837E+04  0.27856169814E+04 0.  0.
        3    1    3    3  502    0  0.11802516440E+04 -0.17457899777E+03  0.18693305523E+04  0.22176267705E+04  0.10100000352E+00 0. -1.
       -3    1    3    3    0  502 -0.11802516440E+04  0.17457899777E+03  0.10704616417E+03  0.11978859132E+04  0.10100000352E+00 0.  1.
</event>
<event>
 5   0  0.1220265E-06  0.2807577E+04  0.7818609E-02  0.8300920E-01
        1   -1    0    0  501    0  0.00000000000E+00  0.00000000000E+00  0.15218120572E+04  0.15218120572E+04  0.50400001928E-02 0. -1.
       -1   -1    0    0    0  501  0.00000000000E+00  0.00000000000E+00 -0.12949184075E+04  0.12949184076E+04  0.50400001928E-02 0.  1.
    10030    2    1    2    0    0  0.00000000000E+00  0.00000000000E+00  0.22689364964E+03  0.28167304648E+04  0.28075772087E+04 0.  0.
        4    1    3    3  502    0  0.45883454814E+03  0.13194105614E+04 -0.25740697308E+02  0.13971533805E+04  0.12699999809E+01 0.  1.
       -4    1    3    3    0  502 -0.45883454814E+03 -0.13194105614E+04  0.25263434695E+03  0.14195770843E+04  0.12699999809E+01 0. -1.
</event>
<event>
 5   0  0.1235252E-06  0.2808474E+04  0.7818609E-02  0.8300642E-01
        1   -1    0    0  501    0  0.00000000000E+00  0.00000000000E+00  0.91217791620E+03  0.91217791621E+03  0.50400001928E-02 0.  1.
       -1   -1    0    0    0  501  0.00000000000E+00  0.00000000000E+00 -0.21617296692E+04  0.21617296692E+04  0.50400001928E-02 0. -1.
    10030    2    1    2    0    0  0.00000000000E+00  0.00000000000E+00 -0.12495517530E+04  0.30739075854E+04  0.28084743652E+04 0.  0.
        1    1    3    3  502    0  0.43753763671E+02 -0.32948239813E+03 -0.21180558811E+04  0.21439761561E+04  0.50400001928E-02 0. -1.
       -1    1    3    3    0  502 -0.43753763671E+02  0.32948239813E+03  0.86850412814E+03  0.92993142926E+03  0.50400001928E-02 0.  1.
</event>
<event>
 5   0  0.3162695E-06  0.2853260E+04  0.7818609E-02  0.8286921E-01
       -2   -1    0    0    0  501  0.00000000000E+00  0.00000000000E+00  0.86753343204E+03  0.86753343204E+03  0.25500000920E-02 0. -1.
        2   -1    0    0  501    0  0.00000000000E+00  0.00000000000E+00 -0.23460457651E+04  0.23460457651E+04  0.25500000920E-02 0.  1.
    10030    2    1    2    0    0  0.00000000000E+00  0.00000000000E+00 -0.14785123331E+04  0.32135791972E+04  0.28532599842E+04 0.  0.
        1    1    3    3  502    0 -0.37026207745E+03  0.12105351402E+04  0.16840381168E+01  0.12658957965E+04  0.50400001928E-02 0. -1.
       -1    1    3    3    0  502  0.37026207745E+03 -0.12105351402E+04 -0.14801963712E+04  0.19476834006E+04  0.50400001928E-02 0.  1.
</event>
<event>
 5   0  0.3212679E-06  0.2800591E+04  0.7818609E-02  0.8303085E-01
       -2   -1    0    0    0  501  0.00000000000E+00  0.00000000000E+00  0.10767873518E+04  0.10767873518E+04  0.25500000920E-02 0.  1.
        2   -1    0    0  501    0  0.00000000000E+00  0.00000000000E+00 -0.18209974694E+04  0.18209974694E+04  0.25500000920E-02 0. -1.
    10030    2    1    2    0    0  0.00000000000E+00  0.00000000000E+00 -0.74421011763E+03  0.28977848212E+04  0.28005906825E+04 0.  0.
        4    1    3    3  502    0 -0.46769098059E+03 -0.12974850879E+04 -0.12158033067E+03  0.13845525617E+04  0.12699999809E+01 0.  1.
       -4    1    3    3    0  502  0.46769098059E+03  0.12974850879E+04 -0.62262978696E+03  0.15132322595E+04  0.12699999809E+01 0. -1.
</event>
<event>
 5   0  0.3345919E-06  0.2808171E+04  0.7818609E-02  0.8300736E-01
       -2   -1    0    0    0  501  0.00000000000E+00  0.00000000000E+00  0.10234988301E+04  0.10234988301E+04  0.25500000920E-02 0.  1.
        2   -1    0    0  501    0  0.00000000000E+00  0.00000000000E+00 -0.19261922937E+04  0.19261922937E+04  0.25500000920E-02 0. -1.
    10030    2    1    2    0    0  0.00000000000E+00  0.00000000000E+00 -0.90269346362E+03  0.29496911238E+04  0.28081706209E+04 0.  0.
        2    1    3    3  502    0 -0.62300224515E+03  0.24295538225E+03 -0.17481908244E+04  0.18717185349E+04  0.25500000920E-02 0. -1.
       -2    1    3    3    0  502  0.62300224515E+03 -0.24295538225E+03  0.84549736081E+03  0.10779725889E+04  0.25500000920E-02 0.  1.
</event>
<event>
 5   0  0.1065675E-06  0.2810199E+04  0.7818609E-02  0.8300109E-01
        3   -1    0    0  501    0  0.00000000000E+00  0.00000000000E+00  0.19039439786E+04  0.19039439812E+04  0.10100000352E+00 0.  1.
       -3   -1    0    0    0  501  0.00000000000E+00  0.00000000000E+00 -0.10369552137E+04  0.10369552186E+04  0.10100000352E+00 0. -1.
    10030    2    1    2    0    0  0.00000000000E+00  0.00000000000E+00  0.86698876486E+03  0.29408991998E+04  0.28101990295E+04 0.  0.
        2    1    3    3  502    0  0.14896448691E+03  0.13512861027E+02 -0.10285998388E+04  0.10394184163E+04  0.25500000920E-02 0. -1.
       -2    1    3    3    0  502 -0.14896448691E+03 -0.13512861027E+02  0.18955886037E+04  0.19014807835E+04  0.25500000920E-02 0.  1.
</event>
<event>
 5   0  0.1263513E-06  0.2822571E+04  0.7818609E-02  0.8296295E-01
        1   -1    0    0  501    0  0.00000000000E+00  0.00000000000E+00  0.18106038890E+04  0.18106038890E+04  0.50400001928E-02 0. -1.
       -1   -1    0    0    0  501  0.00000000000E+00  0.00000000000E+00 -0.11000341439E+04  0.11000341439E+04  0.50400001928E-02 0.  1.
    10030    2    1    2    0    0  0.00000000000E+00  0.00000000000E+00  0.71056974514E+03  0.29106380330E+04  0.28225705299E+04 0.  0.
        3    1    3    3  502    0 -0.38047547254E+03  0.40065724058E+03  0.16944330137E+04  0.17822432656E+04  0.10100000352E+00 0. -1.
       -3    1    3    3    0  502  0.38047547254E+03 -0.40065724058E+03 -0.98386326855E+03  0.11283947674E+04  0.10100000352E+00 0.  1.
</event>
<event>
 5   0  0.3162695E-06  0.2816197E+04  0.7818609E-02  0.8298257E-01
        2   -1    0    0  501    0  0.00000000000E+00  0.00000000000E+00  0.12299329073E+04  0.12299329073E+04  0.25500000920E-02 0. -1.
       -2   -1    0    0    0  501  0.00000000000E+00  0.00000000000E+00 -0.16120729865E+04  0.16120729865E+04  0.25500000920E-02 0.  1.
    10030    2    1    2    0    0  0.00000000000E+00  0.00000000000E+00 -0.38214007925E+03  0.28420058938E+04  0.28161971628E+04 0.  0.
        1    1    3    3  502    0 -0.26610007024E+03  0.10667077448E+04  0.69680363921E+03  0.13016182128E+04  0.50400001928E-02 0. -1.
       -1    1    3    3    0  502  0.26610007024E+03 -0.10667077448E+04 -0.10789437185E+04  0.15403876810E+04  0.50400001928E-02 0.  1.
</event>
<event>
 5   0  0.1220265E-06  0.2788554E+04  0.7818609E-02  0.8306831E-01
       -1   -1    0    0    0  501  0.00000000000E+00  0.00000000000E+00  0.78329931334E+03  0.78329931336E+03  0.50400001928E-02 0.  1.
        1   -1    0    0  501    0  0.00000000000E+00  0.00000000000E+00 -0.24818212198E+04  0.24818212198E+04  0.50400001928E-02 0. -1.
    10030    2    1    2    0    0  0.00000000000E+00  0.00000000000E+00 -0.16985219065E+04  0.32651205332E+04  0.27885543619E+04 0.  0.
        4    1    3    3  502    0 -0.98436562546E+03 -0.64826660210E+03 -0.17213910477E+04  0.20862439992E+04  0.12699999809E+01 0. -1.
       -4    1    3    3    0  502  0.98436562546E+03  0.64826660210E+03  0.22869141223E+02  0.11788765340E+04  0.12699999809E+01 0.  1.
</event>
<event>
 5   0  0.1263513E-06  0.2793726E+04  0.7818609E-02  0.8305219E-01
        1   -1    0    0  501    0  0.00000000000E+00  0.00000000000E+00  0.14656073450E+04  0.14656073450E+04  0.50400001928E-02 0. -1.
       -1   -1    0    0    0  501  0.00000000000E+00  0.00000000000E+00 -0.13313431890E+04  0.13313431890E+04  0.50400001928E-02 0.  1.
    10030    2    1    2    0    0  0.00000000000E+00  0.00000000000E+00  0.13426415598E+03  0.27969505341E+04  0.27937260829E+04 0.  0.
        3    1    3    3  502    0 -0.73567886545E+03  0.11784796196E+04  0.21286360804E+03  0.14054709291E+04  0.10100000352E+00 0.  1.
       -3    1    3    3    0  502  0.73567886545E+03 -0.11784796196E+04 -0.78599452060E+02  0.13914796049E+04  0.10100000352E+00 0. -1.
</event>
<event>
 5   0  0.1235252E-06  0.2799721E+04  0.7818609E-02  0.8303355E-01
       -1   -1    0    0    0  501  0.00000000000E+00  0.00000000000E+00  0.86996752184E+03  0.86996752185E+03  0.50400001928E-02 0.  1.
        1   -1    0    0  501    0  0.00000000000E+00  0.00000000000E+00 -0.22525091643E+04  0.22525091643E+04  0.50400001928E-02 0. -1.
    10030    2    1    2    0    0  0.00000000000E+00  0.00000000000E+00 -0.13825416424E+04  0.31224766861E+04  0.27997212830E+04 0.  0.
        1    1    3    3  502    0 -0.87196827947E+03 -0.62891368083E+03 -0.16911431558E+04  0.20039526621E+04  0.50400001928E-02 0. -1.
       -1    1    3    3    0  502  0.87196827947E+03  0.62891368083E+03  0.30860151336E+03  0.11185240241E+04  0.50400001928E-02 0.  1.
</event>
<event>
 5   0  0.1065675E-06  0.2791801E+04  0.7818609E-02  0.8305818E-01
       -3   -1    0    0    0  501  0.00000000000E+00  0.00000000000E+00  0.10448145770E+04  0.10448145819E+04  0.10100000352E+00 0.  1.
        3   -1    0    0  501    0  0.00000000000E+00  0.00000000000E+00 -0.18649610444E+04  0.18649610472E+04  0.10100000352E+00 0. -1.
    10030    2    1    2    0    0  0.00000000000E+00  0.00000000000E+00 -0.82014646745E+03  0.29097756291E+04  0.27918012077E+04 0.  0.
        2    1    3    3  502    0 -0.95581990824E+03  0.11085880392E+02  0.65017665856E+03  0.11560468334E+04  0.25500000920E-02 0.  1.
       -2    1    3    3    0  502  0.95581990824E+03 -0.11085880392E+02 -0.14703231260E+04  0.17537287956E+04  0.25500000920E-02 0. -1.
</event>
<event>
 5   0  0.1263513E-06  0.2833987E+04  0.7818609E-02  0.8292794E-01
       -1   -1    0    0    0  501  0.00000000000E+00  0.00000000000E+00  0.13038127974E+04  0.13038127974E+04  0.50400001928E-02 0. -1.
        1   -1    0    0  501    0  0.00000000000E+00  0.00000000000E+00 -0.15399991275E+04  0.15399991275E+04  0.50400001928E-02 0.  1.
    10030    2    1    2    0    0  0.00000000000E+00  0.00000000000E+00 -0.23618633007E+03  0.28438119249E+04  0.28339869940E+04 0.  0.
        3    1    3    3  502    0  0.48663753247E+03 -0.69794911047E+03 -0.12551240352E+04  0.15163394748E+04  0.10100000352E+00 0.  1.
       -3    1    3    3    0  502 -0.48663753247E+03  0.69794911047E+03  0.10189377051E+04  0.13274724502E+04  0.10100000352E+00 0. -1.
</event>
<event>
 5   0  0.3212679E-06  0.2797251E+04  0.7818609E-02  0.8304122E-01
       -2   -1    0    0    0  501  0.00000000000E+00  0.00000000000E+00  0.91152948024E+03  0.91152948024E+03  0.25500000920E-02 0.  1.
        2   -1    0    0  501    0  0.00000000000E+00  0.00000000000E+00 -0.21460113888E+04  0.21460113888E+04  0.25500000920E-02 0. -1.
    10030    2    1    2    0    0  0.00000000000E+00  0.00000000000E+00 -0.12344819085E+04  0.30575408690E+04  0.27972505399E+04 0.  0.
        4    1    3    3  502    0 -0.61818594763E+03 -0.92959852857E+03 -0.15381617575E+04  0.19005921434E+04  0.12699999809E+01 0. -1.
       -4    1    3    3    0  502  0.61818594763E+03  0.92959852857E+03  0.30367984901E+03  0.11569487256E+04  0.12699999809E+01 0.  1.
</event>
<event>
 5   0  0.3162695E-06  0.2804065E+04  0.7818609E-02  0.8302007E-01
       -2   -1    0    0    0  501  0.00000000000E+00  0.00000000000E+00  0.14832846714E+04  0.14832846714E+04  0.25500000920E-02 0. -1.
        2   -1    0    0  501    0  0.00000000000E+00  0.00000000000E+00 -0.13252313756E+04  0.13252313756E+04  0.25500000920E-02 0.  1.
    10030    2    1    2    0    0  0.00000000000E+00  0.00000000000E+00  0.15805329576E+03  0.28085160470E+04  0.28040651815E+04 0.  0.
        1    1    3    3  502    0 -0.88800295910E+03 -0.32005096119E+03  0.11173560681E+04  0.14626915109E+04  0.50400001928E-02 0. -1.
       -1    1    3    3    0  502  0.88800295910E+03  0.32005096119E+03 -0.95930277232E+03  0.13458245362E+04  0.50400001928E-02 0.  1.
</event>
<event>
 5   0  0.1220265E-06  0.2872333E+04  0.7818609E-02  0.8281157E-01
        1   -1    0    0  501    0  0.00000000000E+00  0.00000000000E+00  0.26137083506E+04  0.26137083506E+04  0.50400001928E-02 0. -1.
       -1   -1    0    0    0  501  0.00000000000E+00  0.00000000000E+00 -0.78913697066E+03  0.78913697067E+03  0.50400001928E-02 0.  1.
    10030    2    1    2    0    0  0.00000000000E+00  0.00000000000E+00  0.18245713799E+04  0.34028453213E+04  0.28723327732E+04 0.  0.
        4    1    3    3  502    0 -0.48884083173E+03  0.11153129390E+03  0.25066471425E+04  0.25563032094E+04  0.12699999809E+01 0. -1.
       -4    1    3    3    0  502  0.48884083173E+03 -0.11153129390E+03 -0.68207576262E+03  0.84654211185E+03  0.12699999809E+01 0.  1.
</event>
<event>
 5   0  0.3226364E-06  0.2847794E+04  0.7818609E-02  0.8288582E-01
       -2   -1    0    0    0  501  0.00000000000E+00  0.00000000000E+00  0.12066758787E+04  0.12066758787E+04  0.25500000920E-02 0. -1.
        2   -1    0    0  501    0  0.00000000000E+00  0.00000000000E+00 -0.16802212676E+04  0.16802212676E+04  0.25500000920E-02 0.  1.
    10030    2    1    2    0    0  0.00000000000E+00  0.00000000000E+00 -0.47354538893E+03  0.28868971463E+04  0.28477938651E+04 0.  0.
        5    1    3    3  502    0  0.68322528276E+03  0.25741762346E+03  0.10024693980E+04  0.12401724089E+04  0.46999998093E+01 0. -1.
       -5    1    3    3    0  502 -0.68322528276E+03 -0.25741762346E+03 -0.14760147869E+04  0.16467247375E+04  0.46999998093E+01 0.  1.
</event>
<event>
 5   0  0.1220265E-06  0.2811307E+04  0.7818609E-02  0.8299767E-01
        1   -1    0    0  501    0  0.00000000000E+00  0.00000000000E+00  0.19601883966E+04  0.19601883966E+04  0.50400001928E-02 0. -1.
       -1   -1    0    0    0  501  0.00000000000E+00  0.00000000000E+00 -0.10079958104E+04  0.10079958104E+04  0.50400001928E-02 0.  1.
    10030    2    1    2    0    0  0.00000000000E+00  0.00000000000E+00  0.95219258618E+03  0.29681842070E+04  0.28113069498E+04 0.  0.
        4    1    3    3  502    0 -0.43385152229E+03  0.95074994708E+03  0.14686107643E+04  0.18024904424E+04  0.12699999809E+01 0. -1.
       -4    1    3    3    0  502  0.43385152229E+03 -0.95074994708E+03 -0.51641817809E+03  0.11656937646E+04  0.12699999809E+01 0.  1.
</event>
<event>
 5   0  0.1235252E-06  0.2627880E+04  0.7818609E-02  0.8358792E-01
       -1   -1    0    0    0  501  0.00000000000E+00  0.00000000000E+00  0.11788246179E+04  0.11788246179E+04  0.50400001928E-02 0. -1.
        1   -1    0    0  501    0  0.00000000000E+00  0.00000000000E+00 -0.14645420088E+04  0.14645420088E+04  0.50400001928E-02 0.  1.
    10030    2    1    2    0    0  0.00000000000E+00  0.00000000000E+00 -0.28571739088E+03  0.26433666267E+04  0.26278798861E+04 0.  0.
        1    1    3    3  502    0  0.61612453336E+03  0.85643948637E+03  0.64491701423E+03  0.12365338611E+04  0.50400001928E-02 0. -1.
       -1    1    3    3    0  502 -0.61612453336E+03 -0.85643948637E+03 -0.93063440512E+03  0.14068327656E+04  0.50400001928E-02 0.  1.
</event>
<event>
 5   0  0.1235252E-06  0.2784740E+04  0.7818609E-02  0.8308022E-01
        1   -1    0    0  501    0  0.00000000000E+00  0.00000000000E+00  0.26302887966E+04  0.26302887966E+04  0.50400001928E-02 0.  1.
       -1   -1    0    0    0  501  0.00000000000E+00  0.00000000000E+00 -0.73706511394E+03  0.73706511396E+03  0.50400001928E-02 0. -1.
    10030    2    1    2    0    0  0.00000000000E+00  0.00000000000E+00  0.18932236827E+04  0.33673539106E+04  0.27847399244E+04 0.  0.
        1    1    3    3  502    0 -0.13004066247E+04  0.46412826184E+03  0.11636710435E+04  0.18057139116E+04  0.50400001928E-02 0.  1.
       -1    1    3    3    0  502  0.13004066247E+04 -0.46412826184E+03  0.72955263914E+03  0.15616399990E+04  0.50400001928E-02 0. -1.
</event>
<event>
 5   0  0.1263513E-06  0.2792447E+04  0.7818609E-02  0.8305617E-01
        1   -1    0    0  501    0  0.00000000000E+00  0.00000000000E+00  0.21438213642E+04  0.21438213642E+04  0.50400001928E-02 0.  1.
       -1   -1    0    0    0  501  0.00000000000E+00  0.00000000000E+00 -0.90932921184E+03  0.90932921185E+03  0.50400001928E-02 0. -1.
    10030    2    1    2    0    0  0.00000000000E+00  0.00000000000E+00  0.12344921524E+04  0.30531505761E+04  0.27924465198E+04 0.  0.
        3    1    3    3  502    0 -0.71508243724E+03  0.88739103201E+03  0.14991710035E+04  0.18831673966E+04  0.10100000352E+00 0.  1.
       -3    1    3    3    0  502  0.71508243724E+03 -0.88739103201E+03 -0.26467885114E+03  0.11699831794E+04  0.10100000352E+00 0. -1.
</event>
<event>
 5   0  0.3226364E-06  0.2803295E+04  0.7818609E-02  0.8302246E-01
       -2   -1    0    0    0  501  0.00000000000E+00  0.00000000000E+00  0.10622078548E+04  0.10622078548E+04  0.25500000920E-02 0.  1.
        2   -1    0    0  501    0  0.00000000000E+00  0.00000000000E+00 -0.18495585174E+04  0.18495585174E+04  0.25500000920E-02 0. -1.
    10030    2    1    2    0    0  0.00000000000E+00  0.00000000000E+00 -0.78735066257E+03  0.29117663722E+04  0.28032949079E+04 0.  0.
        5    1    3    3  502    0 -0.98028458240E+03 -0.50975045467E+03  0.50212854351E+03  0.12136550386E+04  0.46999998093E+01 0.  1.
       -5    1    3    3    0  502  0.98028458240E+03  0.50975045467E+03 -0.12894792061E+04  0.16981113336E+04  0.46999998093E+01 0. -1.
</event>
<event>
 5   0  0.3162695E-06  0.2797398E+04  0.7818609E-02  0.8304077E-01
       -2   -1    0    0    0  501  0.00000000000E+00  0.00000000000E+00  0.12487236797E+04  0.12487236797E+04  0.25500000920E-02 0. -1.
        2   -1    0    0  501    0  0.00000000000E+00  0.00000000000E+00 -0.15666862801E+04  0.15666862801E+04  0.25500000920E-02 0.  1.
    10030    2    1    2    0    0  0.00000000000E+00  0.00000000000E+00 -0.31796260035E+03  0.28154099598E+04  0.27973975453E+04 0.  0.
        1    1    3    3  502    0  0.12221019918E+04  0.59628885580E+03 -0.48860286656E+03  0.14449312922E+04  0.50400001928E-02 0.  1.
       -1    1    3    3    0  502 -0.12221019918E+04 -0.59628885580E+03  0.17064026621E+03  0.13704786676E+04  0.50400001928E-02 0. -1.
</event>
<event>
 5   0  0.1220265E-06  0.2797164E+04  0.7818609E-02  0.8304149E-01
       -1   -1    0    0    0  501  0.00000000000E+00  0.00000000000E+00  0.10563215281E+04  0.10563215281E+04  0.50400001928E-02 0.  1.
        1   -1    0    0  501    0  0.00000000000E+00  0.00000000000E+00 -0.18517388399E+04  0.18517388399E+04  0.50400001928E-02 0. -1.
    10030    2    1    2    0    0  0.00000000000E+00  0.00000000000E+00 -0.79541731184E+03  0.29080603680E+04  0.27971639931E+04 0.  0.
        4    1    3    3  502    0  0.53425513383E+03 -0.81151944804E+03 -0.14435933760E+04  0.17401022414E+04  0.12699999809E+01 0. -1.
       -4    1    3    3    0  502 -0.53425513383E+03  0.81151944804E+03  0.64817606412E+03  0.11679581266E+04  0.12699999809E+01 0.  1.
</event>
<event>
 5   0  0.1263513E-06  0.2807418E+04  0.7818609E-02  0.8300969E-01
        1   -1    0    0  501    0  0.00000000000E+00  0.00000000000E+00  0.17110004407E+04  0.17110004407E+04  0.50400001928E-02 0. -1.
       -1   -1    0    0    0  501  0.00000000000E+00  0.00000000000E+00 -0.11516062998E+04  0.11516062998E+04  0.50400001928E-02 0.  1.
    10030    2    1    2    0    0  0.00000000000E+00  0.00000000000E+00  0.55939414091E+03  0.28626067405E+04  0.28074179500E+04 0.  0.
        3    1    3    3  502    0 -0.13371143685E+04  0.36716562530E+03  0.50242516718E+03  0.14748276136E+04  0.10100000352E+00 0.  1.
       -3    1    3    3    0  502  0.13371143685E+04 -0.36716562530E+03  0.56968973724E+02  0.13877791269E+04  0.10100000352E+00 0. -1.
</event>
<event>
 5   0  0.3226364E-06  0.2752561E+04  0.7818609E-02  0.8318150E-01
        2   -1    0    0  501    0  0.00000000000E+00  0.00000000000E+00  0.18385261610E+04  0.18385261610E+04  0.25500000920E-02 0.  1.
       -2   -1    0    0    0  501  0.00000000000E+00  0.00000000000E+00 -0.10302531531E+04  0.10302531531E+04  0.25500000920E-02 0. -1.
    10030    2    1    2    0    0  0.00000000000E+00  0.00000000000E+00  0.80827300793E+03  0.28687793140E+04  0.27525605347E+04 0.  0.
        5    1    3    3  502    0 -0.84441766711E+03 -0.72336734134E+03  0.12494446329E+04  0.16725535829E+04  0.46999998093E+01 0.  1.
       -5    1    3    3    0  502  0.84441766711E+03  0.72336734134E+03 -0.44117162501E+03  0.11962257311E+04  0.46999998093E+01 0. -1.
</event>
<event>
 5   0  0.1243055E-06  0.2806608E+04  0.7818609E-02  0.8301220E-01
       -1   -1    0    0    0  501  0.00000000000E+00  0.00000000000E+00  0.94023453941E+03  0.94023453942E+03  0.50400001928E-02 0.  1.
        1   -1    0    0  501    0  0.00000000000E+00  0.00000000000E+00 -0.20944375734E+04  0.20944375734E+04  0.50400001928E-02 0. -1.
    10030    2    1    2    0    0  0.00000000000E+00  0.00000000000E+00 -0.11542030340E+04  0.30346721128E+04  0.28066083070E+04 0.  0.
        5    1    3    3  502    0  0.12912623183E+04  0.38311908764E+03 -0.15126936192E+03  0.13553756379E+04  0.46999998093E+01 0.  1.
       -5    1    3    3    0  502 -0.12912623183E+04 -0.38311908764E+03 -0.10029336721E+04  0.16792964749E+04  0.46999998093E+01 0. -1.
</event>
<event>
 5   0  0.1263513E-06  0.2798543E+04  0.7818609E-02  0.8303721E-01
       -1   -1    0    0    0  501  0.00000000000E+00  0.00000000000E+00  0.93361666631E+03  0.93361666632E+03  0.50400001928E-02 0. -1.
        1   -1    0    0  501    0  0.00000000000E+00  0.00000000000E+00 -0.20971790030E+04  0.20971790030E+04  0.50400001928E-02 0.  1.
    10030    2    1    2    0    0  0.00000000000E+00  0.00000000000E+00 -0.11635623367E+04  0.30307956693E+04  0.27985433850E+04 0.  0.
        3    1    3    3  502    0 -0.60670502273E+01 -0.47317433486E+03 -0.20078910195E+04  0.20629001713E+04  0.10100000352E+00 0.  1.
       -3    1    3    3    0  502  0.60670502273E+01  0.47317433486E+03  0.84432868282E+03  0.96789549803E+03  0.10100000352E+00 0. -1.
</event>
<event>
 5   0  0.3212679E-06  0.2809435E+04  0.7818609E-02  0.8300345E-01
       -2   -1    0    0    0  501  0.00000000000E+00  0.00000000000E+00  0.78183324327E+03  0.78183324327E+03  0.25500000920E-02 0.  1.
        2   -1    0    0  501    0  0.00000000000E+00  0.00000000000E+00 -0.25238512938E+04  0.25238512938E+04  0.25500000920E-02 0. -1.
    10030    2    1    2    0    0  0.00000000000E+00  0.00000000000E+00 -0.17420180505E+04  0.33056845370E+04  0.28094347065E+04 0.  0.
        4    1    3    3  502    0  0.30070562794E+03 -0.98212538155E+03  0.25649838705E+03  0.10586723644E+04  0.12699999809E+01 0.  1.
       -4    1    3    3    0  502 -0.30070562794E+03  0.98212538155E+03 -0.19985164376E+04  0.22470121726E+04  0.12699999809E+01 0. -1.
</event>
<event>
 5   0  0.3345919E-06  0.2798789E+04  0.7818609E-02  0.8303644E-01
        2   -1    0    0  501    0  0.00000000000E+00  0.00000000000E+00  0.22654750220E+04  0.22654750220E+04  0.25500000920E-02 0.  1.
       -2   -1    0    0    0  501  0.00000000000E+00  0.00000000000E+00 -0.86441251343E+03  0.86441251344E+03  0.25500000920E-02 0. -1.
    10030    2    1    2    0    0  0.00000000000E+00  0.00000000000E+00  0.14010625085E+04  0.31298875354E+04  0.27987889937E+04 0.  0.
        2    1    3    3  502    0  0.57564545317E+02 -0.42905131772E+03 -0.78765181803E+03  0.89877366259E+03  0.25500000920E-02 0. -1.
       -2    1    3    3    0  502 -0.57564545317E+02  0.42905131772E+03  0.21887143266E+04  0.22311138728E+04  0.25500000920E-02 0.  1.
</event>
<event>
 5   0  0.1246044E-06  0.2786112E+04  0.7818609E-02  0.8307593E-01
        1   -1    0    0  501    0  0.00000000000E+00  0.00000000000E+00  0.15980471968E+04  0.15980471968E+04  0.50400001928E-02 0.  1.
       -1   -1    0    0    0  501  0.00000000000E+00  0.00000000000E+00 -0.12143599443E+04  0.12143599443E+04  0.50400001928E-02 0. -1.
    10030    2    1    2    0    0  0.00000000000E+00  0.00000000000E+00  0.38368725254E+03  0.28124071411E+04  0.27861116309E+04 0.  0.
        2    1    3    3  502    0  0.89162793567E+03 -0.16618149291E+03  0.12591724030E+04  0.15518156478E+04  0.25500000920E-02 0.  1.
       -2    1    3    3    0  502 -0.89162793567E+03  0.16618149291E+03 -0.87548515050E+03  0.12605914933E+04  0.25500000920E-02 0. -1.
</event>
<event>
 5   0  0.3345919E-06  0.2797043E+04  0.7818609E-02  0.8304187E-01
        2   -1    0    0  501    0  0.00000000000E+00  0.00000000000E+00  0.15862428373E+04  0.15862428373E+04  0.25500000920E-02 0. -1.
       -2   -1    0    0    0  501  0.00000000000E+00  0.00000000000E+00 -0.12330159615E+04  0.12330159615E+04  0.25500000920E-02 0.  1.
    10030    2    1    2    0    0  0.00000000000E+00  0.00000000000E+00  0.35322687587E+03  0.28192587988E+04  0.27970432512E+04 0.  0.
        2    1    3    3  502    0  0.49113812905E+03  0.21609474330E+03  0.14783621722E+04  0.15727263945E+04  0.25500000920E-02 0. -1.
       -2    1    3    3    0  502 -0.49113812905E+03 -0.21609474330E+03 -0.11251352963E+04  0.12465324043E+04  0.25500000920E-02 0.  1.
</event>
<event>
 5   0  0.1246044E-06  0.2793949E+04  0.7818609E-02  0.8305150E-01
        1   -1    0    0  501    0  0.00000000000E+00  0.00000000000E+00  0.12871643831E+04  0.12871643831E+04  0.50400001928E-02 0.  1.
       -1   -1    0    0    0  501  0.00000000000E+00  0.00000000000E+00 -0.15161521986E+04  0.15161521986E+04  0.50400001928E-02 0. -1.
    10030    2    1    2    0    0  0.00000000000E+00  0.00000000000E+00 -0.22898781541E+03  0.28033165817E+04  0.27939485388E+04 0.  0.
        2    1    3    3  502    0 -0.43721295871E+03 -0.11886004867E+04  0.47706825368E+03  0.13533367677E+04  0.25500000920E-02 0.  1.
       -2    1    3    3    0  502  0.43721295871E+03  0.11886004867E+04 -0.70605606909E+03  0.14499798140E+04  0.25500000920E-02 0. -1.
</event>
<event>
 5   0  0.1235252E-06  0.2798042E+04  0.7818609E-02  0.8303877E-01
        1   -1    0    0  501    0  0.00000000000E+00  0.00000000000E+00  0.23138936674E+04  0.23138936674E+04  0.50400001928E-02 0. -1.
       -1   -1    0    0    0  501  0.00000000000E+00  0.00000000000E+00 -0.84587264429E+03  0.84587264430E+03  0.50400001928E-02 0.  1.
    10030    2    1    2    0    0  0.00000000000E+00  0.00000000000E+00  0.14680210231E+04  0.31597663117E+04  0.27980417117E+04 0.  0.
        1    1    3    3  502    0 -0.26283811568E+03  0.13079530795E+04  0.12096955295E+04  0.18008854509E+04  0.50400001928E-02 0. -1.
       -1    1    3    3    0  502  0.26283811568E+03 -0.13079530795E+04  0.25832549361E+03  0.13588808608E+04  0.50400001928E-02 0.  1.
</event>
<event>
 5   0  0.3345919E-06  0.2707888E+04  0.7818609E-02  0.8332450E-01
        2   -1    0    0  501    0  0.00000000000E+00  0.00000000000E+00  0.10813169931E+04  0.10813169931E+04  0.25500000920E-02 0. -1.
       -2   -1    0    0    0  501  0.00000000000E+00  0.00000000000E+00 -0.16953065616E+04  0.16953065616E+04  0.25500000920E-02 0.  1.
    10030    2    1    2    0    0  0.00000000000E+00  0.00000000000E+00 -0.61398956850E+03  0.27766235546E+04  0.27078875852E+04 0.  0.
        2    1    3    3  502    0 -0.12403427937E+04  0.22414680224E+03 -0.81398633396E+03  0.15004218696E+04  0.25500000920E-02 0.  1.
       -2    1    3    3    0  502  0.12403427937E+04 -0.22414680224E+03  0.19999676546E+03  0.12762016851E+04  0.25500000920E-02 0. -1.
</event>
<event>
 5   0  0.3212679E-06  0.2800552E+04  0.7818609E-02  0.8303097E-01
       -2   -1    0    0    0  501  0.00000000000E+00  0.00000000000E+00  0.90042439688E+03  0.90042439688E+03  0.25500000920E-02 0. -1.
        2   -1    0    0  501    0  0.00000000000E+00  0.00000000000E+00 -0.21776090345E+04  0.21776090345E+04  0.25500000920E-02 0.  1.
    10030    2    1    2    0    0  0.00000000000E+00  0.00000000000E+00 -0.12771846376E+04  0.30780334314E+04  0.28005515896E+04 0.  0.
        4    1    3    3  502    0  0.20225917667E+03  0.10092055807E+04 -0.16820632227E+04  0.19719895985E+04  0.12699999809E+01 0.  1.
       -4    1    3    3    0  502 -0.20225917667E+03 -0.10092055807E+04  0.40487858507E+03  0.11060438329E+04  0.12699999809E+01 0. -1.
</event>
<event>
 5   0  0.3162695E-06  0.2802518E+04  0.7818609E-02  0.8302487E-01
        2   -1    0    0  501    0  0.00000000000E+00  0.00000000000E+00  0.20143409553E+04  0.20143409553E+04  0.25500000920E-02 0. -1.
       -2   -1    0    0    0  501  0.00000000000E+00  0.00000000000E+00 -0.97477384789E+03  0.97477384789E+03  0.25500000920E-02 0.  1.
    10030    2    1    2    0    0  0.00000000000E+00  0.00000000000E+00  0.10395671074E+04  0.29891148032E+04  0.28025180705E+04 0.  0.
        1    1    3    3  502    0  0.64718577117E+03  0.50114690325E+03 -0.69327649392E+03  0.10726741994E+04  0.50400001928E-02 0.  1.
       -1    1    3    3    0  502 -0.64718577117E+03 -0.50114690325E+03  0.17328436013E+04  0.19164406037E+04  0.50400001928E-02 0. -1.
</event>
<event>
 5   0  0.3162695E-06  0.2800830E+04  0.7818609E-02  0.8303011E-01
       -2   -1    0    0    0  501  0.00000000000E+00  0.00000000000E+00  0.20099649418E+04  0.20099649418E+04  0.25500000920E-02 0. -1.
        2   -1    0    0  501    0  0.00000000000E+00  0.00000000000E+00 -0.97571935814E+03  0.97571935814E+03  0.25500000920E-02 0.  1.
    10030    2    1    2    0    0  0.00000000000E+00  0.00000000000E+00  0.10342455837E+04  0.29856843000E+04  0.28008296649E+04 0.  0.
        1    1    3    3  502    0 -0.11310559083E+04  0.27870135058E+03  0.13457276451E+04  0.17798721317E+04  0.50400001928E-02 0. -1.
       -1    1    3    3    0  502  0.11310559083E+04 -0.27870135058E+03 -0.31148206138E+03  0.12058121683E+04  0.50400001928E-02 0.  1.
</event>
<event>
 5   0  0.1246044E-06  0.2781214E+04  0.7818609E-02  0.8309125E-01
        1   -1    0    0  501    0  0.00000000000E+00  0.00000000000E+00  0.18557987509E+04  0.18557987509E+04  0.50400001928E-02 0. -1.
       -1   -1    0    0    0  501  0.00000000000E+00  0.00000000000E+00 -0.10420243055E+04  0.10420243055E+04  0.50400001928E-02 0.  1.
    10030    2    1    2    0    0  0.00000000000E+00  0.00000000000E+00  0.81377444539E+03  0.28978230565E+04  0.27812136952E+04 0.  0.
        2    1    3    3  502    0  0.30921409808E+02  0.12727969485E+04  0.98963980144E+03  0.16125616709E+04  0.25500000920E-02 0. -1.
       -2    1    3    3    0  502 -0.30921409808E+02 -0.12727969485E+04 -0.17586535604E+03  0.12852613856E+04  0.25500000920E-02 0.  1.
</event>
<event>
 5   0  0.1246044E-06  0.2805356E+04  0.7818609E-02  0.8301608E-01
       -1   -1    0    0    0  501  0.00000000000E+00  0.00000000000E+00  0.12578567441E+04  0.12578567441E+04  0.50400001928E-02 0. -1.
        1   -1    0    0  501    0  0.00000000000E+00  0.00000000000E+00 -0.15641728143E+04  0.15641728143E+04  0.50400001928E-02 0.  1.
    10030    2    1    2    0    0  0.00000000000E+00  0.00000000000E+00 -0.30631607021E+03  0.28220295583E+04  0.28053558229E+04 0.  0.
        2    1    3    3  502    0 -0.12234202722E+04 -0.21952005969E+03  0.50075099714E+03  0.13400364847E+04  0.25500000920E-02 0. -1.
       -2    1    3    3    0  502  0.12234202722E+04  0.21952005969E+03 -0.80706706735E+03  0.14819930737E+04  0.25500000920E-02 0.  1.
</event>
<event>
 5   0  0.3162695E-06  0.2806352E+04  0.7818609E-02  0.8301299E-01
       -2   -1    0    0    0  501  0.00000000000E+00  0.00000000000E+00  0.88414727413E+03  0.88414727414E+03  0.25500000920E-02 0. -1.
        2   -1    0    0  501    0  0.00000000000E+00  0.00000000000E+00 -0.22268948855E+04  0.22268948855E+04  0.25500000920E-02 0.  1.
    10030    2    1    2    0    0  0.00000000000E+00  0.00000000000E+00 -0.13427476114E+04  0.31110421597E+04  0.28063521111E+04 0.  0.
        1    1    3    3  502    0 -0.87405342661E+03  0.84359028709E+03 -0.14499739602E+04  0.18915703662E+04  0.50400001928E-02 0.  1.
       -1    1    3    3    0  502  0.87405342661E+03 -0.84359028709E+03  0.10722634885E+03  0.12194717934E+04  0.50400001928E-02 0. -1.
</event>
<event>
 5   0  0.3226364E-06  0.2797537E+04  0.7818609E-02  0.8304034E-01
       -2   -1    0    0    0  501  0.00000000000E+00  0.00000000000E+00  0.14021427040E+04  0.14021427040E+04  0.25500000920E-02 0. -1.
        2   -1    0    0  501    0  0.00000000000E+00  0.00000000000E+00 -0.13954021336E+04  0.13954021336E+04  0.25500000920E-02 0.  1.
    10030    2    1    2    0    0  0.00000000000E+00  0.00000000000E+00  0.67405703631E+01  0.27975448375E+04  0.27975367170E+04 0.  0.
        5    1    3    3  502    0 -0.53230612041E+03 -0.60180644434E+02 -0.12887477464E+04  0.13956591130E+04  0.46999998093E+01 0.  1.
       -5    1    3    3    0  502  0.53230612041E+03  0.60180644434E+02  0.12954883168E+04  0.14018857245E+04  0.46999998093E+01 0. -1.
</event>
<event>
 5   0  0.3212679E-06  0.2803358E+04  0.7818609E-02  0.8302226E-01
        2   -1    0    0  501    0  0.00000000000E+00  0.00000000000E+00  0.13403747790E+04  0.13403747790E+04  0.25500000920E-02 0. -1.
       -2   -1    0    0    0  501  0.00000000000E+00  0.00000000000E+00 -0.14657875649E+04  0.14657875649E+04  0.25500000920E-02 0.  1.
    10030    2    1    2    0    0  0.00000000000E+00  0.00000000000E+00 -0.12541278593E+03  0.28061623439E+04  0.28033584739E+04 0.  0.
        4    1    3    3  502    0 -0.13356713657E+04 -0.26857094565E+03  0.26709957746E+03  0.13883415095E+04  0.12699999809E+01 0. -1.
       -4    1    3    3    0  502  0.13356713657E+04  0.26857094565E+03 -0.39251236339E+03  0.14178208343E+04  0.12699999809E+01 0.  1.
</event>
<event>
 5   0  0.1235252E-06  0.2817062E+04  0.7818609E-02  0.8297991E-01
        1   -1    0    0  501    0  0.00000000000E+00  0.00000000000E+00  0.13660765907E+04  0.13660765907E+04  0.50400001928E-02 0.  1.
       -1   -1    0    0    0  501  0.00000000000E+00  0.00000000000E+00 -0.14523043910E+04  0.14523043910E+04  0.50400001928E-02 0. -1.
    10030    2    1    2    0    0  0.00000000000E+00  0.00000000000E+00 -0.86227800268E+02  0.28183809817E+04  0.28170616118E+04 0.  0.
        1    1    3    3  502    0  0.27165533702E+03  0.13236355736E+04 -0.44098253698E+03  0.14213632019E+04  0.50400001928E-02 0. -1.
       -1    1    3    3    0  502 -0.27165533702E+03 -0.13236355736E+04  0.35475473671E+03  0.13970177798E+04  0.50400001928E-02 0.  1.
</event>
<event>
 5   0  0.3167616E-06  0.2798233E+04  0.7818609E-02  0.8303817E-01
        2   -1    0    0  501    0  0.00000000000E+00  0.00000000000E+00  0.23742401143E+04  0.23742401143E+04  0.25500000920E-02 0. -1.
       -2   -1    0    0    0  501  0.00000000000E+00  0.00000000000E+00 -0.82448584009E+03  0.82448584010E+03  0.25500000920E-02 0.  1.
    10030    2    1    2    0    0  0.00000000000E+00  0.00000000000E+00  0.15497542742E+04  0.31987259544E+04  0.27982332678E+04 0.  0.
        3    1    3    3  502    0 -0.79158494408E+03  0.10533109074E+04  0.13128217756E+04  0.18599923699E+04  0.10100000352E+00 0. -1.
       -3    1    3    3    0  502  0.79158494408E+03 -0.10533109074E+04  0.23693249866E+03  0.13387335846E+04  0.10100000352E+00 0.  1.
</event>
<event>
 5   0  0.3162695E-06  0.2793566E+04  0.7818609E-02  0.8305269E-01
       -2   -1    0    0    0  501  0.00000000000E+00  0.00000000000E+00  0.11397737306E+04  0.11397737306E+04  0.25500000920E-02 0. -1.
        2   -1    0    0  501    0  0.00000000000E+00  0.00000000000E+00 -0.17117461106E+04  0.17117461106E+04  0.25500000920E-02 0.  1.
    10030    2    1    2    0    0  0.00000000000E+00  0.00000000000E+00 -0.57197237996E+03  0.28515198413E+04  0.27935663589E+04 0.  0.
        1    1    3    3  502    0  0.30003639949E+03  0.33487522025E+03  0.10638853601E+04  0.11549958067E+04  0.50400001928E-02 0. -1.
       -1    1    3    3    0  502 -0.30003639949E+03 -0.33487522025E+03 -0.16358577400E+04  0.16965240345E+04  0.50400001928E-02 0.  1.
</event>
<event>
 5   0  0.1220265E-06  0.2820537E+04  0.7818609E-02  0.8296921E-01
       -1   -1    0    0    0  501  0.00000000000E+00  0.00000000000E+00  0.12702680821E+04  0.12702680821E+04  0.50400001928E-02 0. -1.
        1   -1    0    0  501    0  0.00000000000E+00  0.00000000000E+00 -0.15656989794E+04  0.15656989794E+04  0.50400001928E-02 0.  1.
    10030    2    1    2    0    0  0.00000000000E+00  0.00000000000E+00 -0.29543089729E+03  0.28359670615E+04  0.28205371401E+04 0.  0.
        4    1    3    3  502    0  0.82879459448E+03  0.16404361759E+03  0.98764071616E+03  0.12997101929E+04  0.12699999809E+01 0. -1.
       -4    1    3    3    0  502 -0.82879459448E+03 -0.16404361759E+03 -0.12830716135E+04  0.15362568686E+04  0.12699999809E+01 0.  1.
</event>
<event>
 5   0  0.3167616E-06  0.2803212E+04  0.7818609E-02  0.8302272E-01
        2   -1    0    0  501    0  0.00000000000E+00  0.00000000000E+00  0.15101707656E+04  0.15101707656E+04  0.25500000920E-02 0. -1.
       -2   -1    0    0    0  501  0.00000000000E+00  0.00000000000E+00 -0.13008456009E+04  0.13008456009E+04  0.25500000920E-02 0.  1.
    10030    2    1    2    0    0  0.00000000000E+00  0.00000000000E+00  0.20932516471E+03  0.28110163664E+04  0.28032117273E+04 0.  0.
        3    1    3    3  502    0  0.69425212510E+02  0.68222555540E+03 -0.11211349137E+04  0.13142279382E+04  0.10100000352E+00 0.  1.
       -3    1    3    3    0  502 -0.69425212510E+02 -0.68222555540E+03  0.13304600784E+04  0.14967884283E+04  0.10100000352E+00 0. -1.
</event>
<event>
 5   0  0.3162695E-06  0.2804617E+04  0.7818609E-02  0.8301836E-01
       -2   -1    0    0    0  501  0.00000000000E+00  0.00000000000E+00  0.16054678262E+04  0.16054678262E+04  0.25500000920E-02 0. -1.
        2   -1    0    0  501    0  0.00000000000E+00  0.00000000000E+00 -0.12248572351E+04  0.12248572351E+04  0.25500000920E-02 0.  1.
    10030    2    1    2    0    0  0.00000000000E+00  0.00000000000E+00  0.38061059117E+03  0.28303250613E+04  0.28046168242E+04 0.  0.
        1    1    3    3  502    0  0.47945683079E+03  0.10272082942E+04 -0.64275111476E+03  0.13031364962E+04  0.50400001928E-02 0.  1.
       -1    1    3    3    0  502 -0.47945683079E+03 -0.10272082942E+04  0.10233617059E+04  0.15271885651E+04  0.50400001928E-02 0. -1.
</event>
<event>
 5   0  0.1246044E-06  0.2788871E+04  0.7818609E-02  0.8306732E-01
        1   -1    0    0  501    0  0.00000000000E+00  0.00000000000E+00  0.12709665049E+04  0.12709665049E+04  0.50400001928E-02 0. -1.
       -1   -1    0    0    0  501  0.00000000000E+00  0.00000000000E+00 -0.15298995162E+04  0.15298995162E+04  0.50400001928E-02 0.  1.
    10030    2    1    2    0    0  0.00000000000E+00  0.00000000000E+00 -0.25893301124E+03  0.28008660211E+04  0.27888714857E+04 0.  0.
        2    1    3    3  502    0  0.33709841540E+03  0.11457882105E+04  0.59334067200E+03  0.13336113070E+04  0.25500000920E-02 0. -1.
       -2    1    3    3    0  502 -0.33709841540E+03 -0.11457882105E+04 -0.85227368324E+03  0.14672547142E+04  0.25500000920E-02 0.  1.
</event>
<event>
 5   0  0.3226364E-06  0.2807123E+04  0.7818609E-02  0.8301060E-01
       -2   -1    0    0    0  501  0.00000000000E+00  0.00000000000E+00  0.90061784699E+03  0.90061784700E+03  0.25500000920E-02 0. -1.
        2   -1    0    0  501    0  0.00000000000E+00  0.00000000000E+00 -0.21873706659E+04  0.21873706659E+04  0.25500000920E-02 0.  1.
    10030    2    1    2    0    0  0.00000000000E+00  0.00000000000E+00 -0.12867528189E+04  0.30879885129E+04  0.28071231250E+04 0.  0.
        5    1    3    3  502    0  0.25519173021E+03  0.24228726705E+03 -0.21380493806E+04  0.21668186779E+04  0.46999998093E+01 0.  1.
       -5    1    3    3    0  502 -0.25519173021E+03 -0.24228726705E+03  0.85129656171E+03  0.92116983500E+03  0.46999998093E+01 0. -1.
</event>
<event>
 5   0  0.1235252E-06  0.2802521E+04  0.7818609E-02  0.8302486E-01
        1   -1    0    0  501    0  0.00000000000E+00  0.00000000000E+00  0.23593788758E+04  0.23593788758E+04  0.50400001928E-02 0.  1.
       -1   -1    0    0    0  501  0.00000000000E+00  0.00000000000E+00 -0.83222376805E+03  0.83222376807E+03  0.50400001928E-02 0. -1.
    10030    2    1    2    0    0  0.00000000000E+00  0.00000000000E+00  0.15271551077E+04  0.31916026438E+04  0.28025211352E+04 0.  0.
        1    1    3    3  502    0  0.43598634080E+03  0.12594024083E+04  0.12565127798E+04  0.18316666949E+04  0.50400001928E-02 0. -1.
       -1    1    3    3    0  502 -0.43598634080E+03 -0.12594024083E+04  0.27064232787E+03  0.13599359489E+04  0.50400001928E-02 0.  1.
</event>
<event>
 5   0  0.3162695E-06  0.2793101E+04  0.7818609E-02  0.8305413E-01
        2   -1    0    0  501    0  0.00000000000E+00  0.00000000000E+00  0.20595950300E+04  0.20595950300E+04  0.25500000920E-02 0. -1.
       -2   -1    0    0    0  501  0.00000000000E+00  0.00000000000E+00 -0.94695970324E+03  0.94695970324E+03  0.25500000920E-02 0.  1.
    10030    2    1    2    0    0  0.00000000000E+00  0.00000000000E+00  0.11126353268E+04  0.30065547333E+04  0.27931011428E+04 0.  0.
        1    1    3    3  502    0  0.59843633857E+03  0.88450933335E+03  0.15250198762E+04  0.18617648710E+04  0.50400001928E-02 0.  1.
       -1    1    3    3    0  502 -0.59843633857E+03 -0.88450933335E+03 -0.41238454941E+03  0.11447898623E+04  0.50400001928E-02 0. -1.
</event>
<event>
 5   0  0.3345919E-06  0.2807774E+04  0.7818609E-02  0.8300859E-01
        2   -1    0    0  501    0  0.00000000000E+00  0.00000000000E+00  0.16026665335E+04  0.16026665335E+04  0.25500000920E-02 0.  1.
       -2   -1    0    0    0  501  0.00000000000E+00  0.00000000000E+00 -0.12297624388E+04  0.12297624388E+04  0.25500000920E-02 0. -1.
    10030    2    1    2    0    0  0.00000000000E+00  0.00000000000E+00  0.37290409468E+03  0.28324289723E+04  0.28077742821E+04 0.  0.
        2    1    3    3  502    0 -0.13262891737E+04  0.31050796194E+03  0.52920149204E+03  0.14613392439E+04  0.25500000920E-02 0.  1.
       -2    1    3    3    0  502  0.13262891737E+04 -0.31050796194E+03 -0.15629739735E+03  0.13710897283E+04  0.25500000920E-02 0. -1.
</event>
<event>
 5   0  0.1065675E-06  0.2775709E+04  0.7818609E-02  0.8310850E-01
        3   -1    0    0  501    0  0.00000000000E+00  0.00000000000E+00  0.13069203019E+04  0.13069203058E+04  0.10100000352E+00 0. -1.
       -3   -1    0    0    0  501  0.00000000000E+00  0.00000000000E+00 -0.14738009709E+04  0.14738009744E+04  0.10100000352E+00 0.  1.
    10030    2    1    2    0    0  0.00000000000E+00  0.00000000000E+00 -0.16688066902E+03  0.27807212802E+04  0.27757092212E+04 0.  0.
        4    1    3    3  502    0 -0.97465279503E+03  0.76346592500E+03 -0.71171749520E+03  0.14280657182E+04  0.12699999809E+01 0.  1.
       -4    1    3    3    0  502  0.97465279503E+03 -0.76346592500E+03  0.54483682618E+03  0.13526555621E+04  0.12699999809E+01 0. -1.
</event>
<event>
 5   0  0.1263513E-06  0.2794604E+04  0.7818609E-02  0.8304946E-01
        1   -1    0    0  501    0  0.00000000000E+00  0.00000000000E+00  0.93830232531E+03  0.93830232533E+03  0.50400001928E-02 0.  1.
       -1   -1    0    0    0  501  0.00000000000E+00  0.00000000000E+00 -0.20808349273E+04  0.20808349273E+04  0.50400001928E-02 0. -1.
    10030    2    1    2    0    0  0.00000000000E+00  0.00000000000E+00 -0.11425326020E+04  0.30191372526E+04  0.27946035504E+04 0.  0.
        3    1    3    3  502    0  0.33325470516E+03 -0.91834939473E+03  0.50801337365E+03  0.11011366434E+04  0.10100000352E+00 0.  1.
       -3    1    3    3    0  502 -0.33325470516E+03  0.91834939473E+03 -0.16505459757E+04  0.19180006093E+04  0.10100000352E+00 0. -1.
</event>
<event>
 5   0  0.3167616E-06  0.2807515E+04  0.7818609E-02  0.8300939E-01
        2   -1    0    0  501    0  0.00000000000E+00  0.00000000000E+00  0.16392935913E+04  0.16392935913E+04  0.25500000920E-02 0.  1.
       -2   -1    0    0    0  501  0.00000000000E+00  0.00000000000E+00 -0.12020632628E+04  0.12020632628E+04  0.25500000920E-02 0. -1.
    10030    2    1    2    0    0  0.00000000000E+00  0.00000000000E+00  0.43723032846E+03  0.28413568541E+04  0.28075146325E+04 0.  0.
        3    1    3    3  502    0  0.12592612883E+04  0.43967362165E+03  0.66147728178E+03  0.14888264137E+04  0.10100000352E+00 0.  1.
       -3    1    3    3    0  502 -0.12592612883E+04 -0.43967362165E+03 -0.22424695332E+03  0.13525304403E+04  0.10100000352E+00 0. -1.
</event>
<event>
 5   0  0.3226364E-06  0.2808029E+04  0.7818609E-02  0.8300780E-01
        2   -1    0    0  501    0  0.00000000000E+00  0.00000000000E+00  0.14111826801E+04  0.14111826801E+04  0.25500000920E-02 0. -1.
       -2   -1    0    0    0  501  0.00000000000E+00  0.00000000000E+00 -0.13968826137E+04  0.13968826137E+04  0.25500000920E-02 0.  1.
    10030    2    1    2    0    0  0.00000000000E+00  0.00000000000E+00  0.14300066378E+02  0.28080652938E+04  0.28080288821E+04 0.  0.
        5    1    3    3  502    0  0.13830429754E+04  0.16933925707E+03 -0.16533641977E+03  0.14031542600E+04  0.46999998093E+01 0. -1.
       -5    1    3    3    0  502 -0.13830429754E+04 -0.16933925707E+03  0.17963648615E+03  0.14049110338E+04  0.46999998093E+01 0.  1.
</event>
<event>
 5   0  0.1065675E-06  0.2795444E+04  0.7818609E-02  0.8304684E-01
       -3   -1    0    0    0  501  0.00000000000E+00  0.00000000000E+00  0.12878884328E+04  0.12878884367E+04  0.10100000352E+00 0. -1.
        3   -1    0    0  501    0  0.00000000000E+00  0.00000000000E+00 -0.15169228126E+04  0.15169228160E+04  0.10100000352E+00 0.  1.
    10030    2    1    2    0    0  0.00000000000E+00  0.00000000000E+00 -0.22903437985E+03  0.28048112527E+04  0.27954444041E+04 0.  0.
        4    1    3    3  502    0  0.80056044877E+03 -0.66600193973E+03 -0.10499340146E+04  0.14787895941E+04  0.12699999809E+01 0.  1.
       -4    1    3    3    0  502 -0.80056044877E+03  0.66600193973E+03  0.82089963471E+03  0.13260216586E+04  0.12699999809E+01 0. -1.
</event>
<event>
 5   0  0.3162695E-06  0.2827471E+04  0.7818609E-02  0.8294790E-01
       -2   -1    0    0    0  501  0.00000000000E+00  0.00000000000E+00  0.19328025032E+04  0.19328025032E+04  0.25500000920E-02 0.  1.
        2   -1    0    0  501    0  0.00000000000E+00  0.00000000000E+00 -0.10340676978E+04  0.10340676978E+04  0.25500000920E-02 0. -1.
    10030    2    1    2    0    0  0.00000000000E+00  0.00000000000E+00  0.89873480538E+03  0.29668702010E+04  0.28274714038E+04 0.  0.
        1    1    3    3  502    0  0.19987500872E+02 -0.70694357754E+03  0.17338427935E+04  0.18725329249E+04  0.50400001928E-02 0.  1.
       -1    1    3    3    0  502 -0.19987500872E+02  0.70694357754E+03 -0.83510798815E+03  0.10943372761E+04  0.50400001928E-02 0. -1.
</event>
<event>
 5   0  0.1235252E-06  0.2797159E+04  0.7818609E-02  0.8304151E-01
       -1   -1    0    0    0  501  0.00000000000E+00  0.00000000000E+00  0.12445046519E+04  0.12445046519E+04  0.50400001928E-02 0. -1.
        1   -1    0    0  501    0  0.00000000000E+00  0.00000000000E+00 -0.15717294910E+04  0.15717294910E+04  0.50400001928E-02 0.  1.
    10030    2    1    2    0    0  0.00000000000E+00  0.00000000000E+00 -0.32722483913E+03  0.28162341429E+04  0.27971590324E+04 0.  0.
        1    1    3    3  502    0 -0.21383068286E+03 -0.90026347440E+03 -0.12194904300E+04  0.15308020098E+04  0.50400001928E-02 0.  1.
       -1    1    3    3    0  502  0.21383068286E+03  0.90026347440E+03  0.89226559087E+03  0.12854321332E+04  0.50400001928E-02 0. -1.
</event>
<event>
 5   0  0.3167616E-06  0.2802460E+04  0.7818609E-02  0.8302505E-01
       -2   -1    0    0    0  501  0.00000000000E+00  0.00000000000E+00  0.26662428861E+04  0.26662428861E+04  0.25500000920E-02 0.  1.
        2   -1    0    0  501    0  0.00000000000E+00  0.00000000000E+00 -0.73640906562E+03  0.73640906563E+03  0.25500000920E-02 0. -1.
    10030    2    1    2    0    0  0.00000000000E+00  0.00000000000E+00  0.19298338205E+04  0.34026519517E+04  0.28024599426E+04 0.  0.
        3    1    3    3  502    0  0.23561230475E+03  0.37016313217E+03  0.25806757715E+04  0.26177130000E+04  0.10100000352E+00 0.  1.
       -3    1    3    3    0  502 -0.23561230475E+03 -0.37016313217E+03 -0.65084195101E+03  0.78493895174E+03  0.10100000352E+00 0. -1.
</event>
<event>
 5   0  0.3212679E-06  0.2807960E+04  0.7818609E-02  0.8300801E-01
        2   -1    0    0  501    0  0.00000000000E+00  0.00000000000E+00  0.18800561336E+04  0.18800561336E+04  0.25500000920E-02 0. -1.
       -2   -1    0    0    0  501  0.00000000000E+00  0.00000000000E+00 -0.10484578471E+04  0.10484578471E+04  0.25500000920E-02 0.  1.
    10030    2    1    2    0    0  0.00000000000E+00  0.00000000000E+00  0.83159828649E+03  0.29285139807E+04  0.28079598332E+04 0.  0.
        4    1    3    3  502    0 -0.64513689398E+02 -0.13864673843E+04  0.19528805855E+03  0.14016393483E+04  0.12699999809E+01 0.  1.
       -4    1    3    3    0  502  0.64513689398E+02  0.13864673843E+04  0.63631022794E+03  0.15268746324E+04  0.12699999809E+01 0. -1.
</event>
<event>
 5   0  0.3345919E-06  0.2796337E+04  0.7818609E-02  0.8304406E-01
       -2   -1    0    0    0  501  0.00000000000E+00  0.00000000000E+00  0.13557474024E+04  0.13557474024E+04  0.25500000920E-02 0.  1.
        2   -1    0    0  501    0  0.00000000000E+00  0.00000000000E+00 -0.14419172748E+04  0.14419172748E+04  0.25500000920E-02 0. -1.
    10030    2    1    2    0    0  0.00000000000E+00  0.00000000000E+00 -0.86169872427E+02  0.27976646772E+04  0.27963373185E+04 0.  0.
        2    1    3    3  502    0  0.75071772280E+03 -0.96405767540E+03 -0.72303339153E+03  0.14197751886E+04  0.25500000920E-02 0. -1.
       -2    1    3    3    0  502 -0.75071772280E+03  0.96405767540E+03  0.63686351911E+03  0.13778894886E+04  0.25500000920E-02 0.  1.
</event>
<event>
 5   0  0.3212679E-06  0.2799548E+04  0.7818609E-02  0.8303409E-01
        2   -1    0    0  501    0  0.00000000000E+00  0.00000000000E+00  0.12905861989E+04  0.12905861989E+04  0.25500000920E-02 0.  1.
       -2   -1    0    0    0  501  0.00000000000E+00  0.00000000000E+00 -0.15181996290E+04  0.15181996290E+04  0.25500000920E-02 0. -1.
    10030    2    1    2    0    0  0.00000000000E+00  0.00000000000E+00 -0.22761343005E+03  0.28087858279E+04  0.27995481695E+04 0.  0.
        4    1    3    3  502    0 -0.28076222522E+02 -0.58143663119E+01  0.12902909731E+04  0.12906101229E+04  0.12699999809E+01 0.  1.
       -4    1    3    3    0  502  0.28076222522E+02  0.58143663119E+01 -0.15179044032E+04  0.15181757050E+04  0.12699999809E+01 0. -1.
</event>
<event>
 5   0  0.3162695E-06  0.2801389E+04  0.7818609E-02  0.8302837E-01
        2   -1    0    0  501    0  0.00000000000E+00  0.00000000000E+00  0.15896154605E+04  0.15896154605E+04  0.25500000920E-02 0.  1.
       -2   -1    0    0    0  501  0.00000000000E+00  0.00000000000E+00 -0.12342261423E+04  0.12342261423E+04  0.25500000920E-02 0. -1.
    10030    2    1    2    0    0  0.00000000000E+00  0.00000000000E+00  0.35538931820E+03  0.28238416029E+04  0.28013889110E+04 0.  0.
        1    1    3    3  502    0 -0.88820668386E+03 -0.43823290864E+03 -0.82069087357E+03  0.12862708523E+04  0.50400001928E-02 0. -1.
       -1    1    3    3    0  502  0.88820668386E+03  0.43823290864E+03  0.11760801918E+04  0.15375707506E+04  0.50400001928E-02 0.  1.
</event>
<event>
 5   0  0.1065675E-06  0.2797455E+04  0.7818609E-02  0.8304059E-01
        3   -1    0    0  501    0  0.00000000000E+00  0.00000000000E+00  0.12260085598E+04  0.12260085639E+04  0.10100000352E+00 0.  1.
       -3   -1    0    0    0  501  0.00000000000E+00  0.00000000000E+00 -0.15957788080E+04  0.15957788112E+04  0.10100000352E+00 0. -1.
    10030    2    1    2    0    0  0.00000000000E+00  0.00000000000E+00 -0.36977024821E+03  0.28217873751E+04  0.27974549065E+04 0.  0.
        4    1    3    3  502    0 -0.70904380028E+02 -0.13737234573E+04 -0.44065186797E+03  0.14444096545E+04  0.12699999809E+01 0. -1.
       -4    1    3    3    0  502  0.70904380028E+02  0.13737234573E+04  0.70881619763E+02  0.13773777206E+04  0.12699999809E+01 0.  1.
</event>
<event>
 5   0  0.1235252E-06  0.2822359E+04  0.7818609E-02  0.8296360E-01
        1   -1    0    0  501    0  0.00000000000E+00  0.00000000000E+00  0.16122967397E+04  0.16122967397E+04  0.50400001928E-02 0. -1.
       -1   -1    0    0    0  501  0.00000000000E+00  0.00000000000E+00 -0.12351493606E+04  0.12351493606E+04  0.50400001928E-02 0.  1.
    10030    2    1    2    0    0  0.00000000000E+00  0.00000000000E+00  0.37714737905E+03  0.28474461003E+04  0.28223587916E+04 0.  0.
        1    1    3    3  502    0  0.43293250791E+03 -0.23907885767E+03  0.15220018071E+04  0.16003370762E+04  0.50400001928E-02 0. -1.
       -1    1    3    3    0  502 -0.43293250791E+03  0.23907885767E+03 -0.11448544281E+04  0.12471090241E+04  0.50400001928E-02 0.  1.
</event>
<event>
 5   0  0.3162695E-06  0.2787943E+04  0.7818609E-02  0.8307021E-01
        2   -1    0    0  501    0  0.00000000000E+00  0.00000000000E+00  0.20877160763E+04  0.20877160763E+04  0.25500000920E-02 0.  1.
       -2   -1    0    0    0  501  0.00000000000E+00  0.00000000000E+00 -0.93075711969E+03  0.93075711969E+03  0.25500000920E-02 0. -1.
    10030    2    1    2    0    0  0.00000000000E+00  0.00000000000E+00  0.11569589567E+04  0.30184731960E+04  0.27879430424E+04 0.  0.
        1    1    3    3  502    0  0.72739561460E+03 -0.51183024329E+03  0.17405838286E+04  0.19546627951E+04  0.50400001928E-02 0.  1.
       -1    1    3    3    0  502 -0.72739561460E+03  0.51183024329E+03 -0.58362487192E+03  0.10638104010E+04  0.50400001928E-02 0. -1.
</event>
<event>
 5   0  0.1246044E-06  0.2797267E+04  0.7818609E-02  0.8304117E-01
       -1   -1    0    0    0  501  0.00000000000E+00  0.00000000000E+00  0.10147273387E+04  0.10147273387E+04  0.50400001928E-02 0. -1.
        1   -1    0    0  501    0  0.00000000000E+00  0.00000000000E+00 -0.19277847154E+04  0.19277847154E+04  0.50400001928E-02 0.  1.
    10030    2    1    2    0    0  0.00000000000E+00  0.00000000000E+00 -0.91305737672E+03  0.29425120541E+04  0.27972671334E+04 0.  0.
        2    1    3    3  502    0  0.66801212910E+03 -0.12198060325E+04 -0.61258574125E+03  0.15196803124E+04  0.25500000920E-02 0.  1.
       -2    1    3    3    0  502 -0.66801212910E+03  0.12198060325E+04 -0.30047163547E+03  0.14228317417E+04  0.25500000920E-02 0. -1.
</event>
<event>
 5   0  0.1263513E-06  0.2809117E+04  0.7818609E-02  0.8300444E-01
       -1   -1    0    0    0  501  0.00000000000E+00  0.00000000000E+00  0.25261410936E+04  0.25261410936E+04  0.50400001928E-02 0. -1.
        1   -1    0    0  501    0  0.00000000000E+00  0.00000000000E+00 -0.78094762485E+03  0.78094762486E+03  0.50400001928E-02 0.  1.
    10030    2    1    2    0    0  0.00000000000E+00  0.00000000000E+00  0.17451934687E+04  0.33070887184E+04  0.28091165067E+04 0.  0.
        3    1    3    3  502    0  0.68840673172E+03  0.12188287906E+04  0.10085519443E+04  0.17252896811E+04  0.10100000352E+00 0. -1.
       -3    1    3    3    0  502 -0.68840673172E+03 -0.12188287906E+04  0.73664152439E+03  0.15817990374E+04  0.10100000352E+00 0.  1.
</event>
<event>
 5   0  0.1220265E-06  0.2831612E+04  0.7818609E-02  0.8293521E-01
        1   -1    0    0  501    0  0.00000000000E+00  0.00000000000E+00  0.12344344948E+04  0.12344344948E+04  0.50400001928E-02 0. -1.
       -1   -1    0    0    0  501  0.00000000000E+00  0.00000000000E+00 -0.16238260289E+04  0.16238260289E+04  0.50400001928E-02 0.  1.
    10030    2    1    2    0    0  0.00000000000E+00  0.00000000000E+00 -0.38939153413E+03  0.28582605237E+04  0.28316121653E+04 0.  0.
        4    1    3    3  502    0 -0.43617961391E+03 -0.12643324473E+04 -0.66351916608E+03  0.14929998290E+04  0.12699999809E+01 0.  1.
       -4    1    3    3    0  502  0.43617961391E+03  0.12643324473E+04  0.27412763195E+03  0.13652606946E+04  0.12699999809E+01 0. -1.
</event>
<event>
 5   0  0.3162695E-06  0.2806039E+04  0.7818609E-02  0.8301396E-01
       -2   -1    0    0    0  501  0.00000000000E+00  0.00000000000E+00  0.16268869902E+04  0.16268869902E+04  0.25500000920E-02 0.  1.
        2   -1    0    0  501    0  0.00000000000E+00  0.00000000000E+00 -0.12099572402E+04  0.12099572402E+04  0.25500000920E-02 0. -1.
    10030    2    1    2    0    0  0.00000000000E+00  0.00000000000E+00  0.41692975000E+03  0.28368442305E+04  0.28060389825E+04 0.  0.
        1    1    3    3  502    0  0.17837444372E+02 -0.80370908458E+03 -0.95402695746E+03  0.12475712014E+04  0.50400001928E-02 0. -1.
       -1    1    3    3    0  502 -0.17837444372E+02  0.80370908458E+03  0.13709567075E+04  0.15892730290E+04  0.50400001928E-02 0.  1.
</event>
<event>
 5   0  0.1246044E-06  0.2813031E+04  0.7818609E-02  0.8299234E-01
       -1   -1    0    0    0  501  0.00000000000E+00  0.00000000000E+00  0.99043523356E+03  0.99043523357E+03  0.50400001928E-02 0. -1.
        1   -1    0    0  501    0  0.00000000000E+00  0.00000000000E+00 -0.19973903014E+04  0.19973903014E+04  0.50400001928E-02 0.  1.
    10030    2    1    2    0    0  0.00000000000E+00  0.00000000000E+00 -0.10069550679E+04  0.29878255350E+04  0.28130309133E+04 0.  0.
        2    1    3    3  502    0  0.22679406414E+03  0.47254663018E+02  0.97003185952E+03  0.99731156576E+03  0.25500000920E-02 0. -1.
       -2    1    3    3    0  502 -0.22679406414E+03 -0.47254663018E+02 -0.19769869274E+04  0.19905139692E+04  0.25500000920E-02 0.  1.
</event>
<event>
 5   0  0.1243055E-06  0.2803136E+04  0.7818609E-02  0.8302295E-01
       -1   -1    0    0    0  501  0.00000000000E+00  0.00000000000E+00  0.87615972001E+03  0.87615972002E+03  0.50400001928E-02 0.  1.
        1   -1    0    0  501    0  0.00000000000E+00  0.00000000000E+00 -0.22420486401E+04  0.22420486401E+04  0.50400001928E-02 0. -1.
    10030    2    1    2    0    0  0.00000000000E+00  0.00000000000E+00 -0.13658889201E+04  0.31182083601E+04  0.28031358931E+04 0.  0.
        5    1    3    3  502    0 -0.85557102406E+03 -0.96304817210E+03 -0.12971938293E+04  0.18281677931E+04  0.46999998093E+01 0. -1.
       -5    1    3    3    0  502  0.85557102406E+03  0.96304817210E+03 -0.68695090756E+02  0.12900405670E+04  0.46999998093E+01 0.  1.
</event>
<event>
 5   0  0.1243055E-06  0.2798591E+04  0.7818609E-02  0.8303706E-01
       -1   -1    0    0    0  501  0.00000000000E+00  0.00000000000E+00  0.21974295055E+04  0.21974295055E+04  0.50400001928E-02 0.  1.
        1   -1    0    0  501    0  0.00000000000E+00  0.00000000000E+00 -0.89105385022E+03  0.89105385023E+03  0.50400001928E-02 0. -1.
    10030    2    1    2    0    0  0.00000000000E+00  0.00000000000E+00  0.13063756553E+04  0.30884833558E+04  0.27985910895E+04 0.  0.
        5    1    3    3  502    0  0.10981401692E+04  0.86586521205E+03  0.59944499243E+03  0.15215093774E+04  0.46999998093E+01 0.  1.
       -5    1    3    3    0  502 -0.10981401692E+04 -0.86586521205E+03  0.70693066288E+03  0.15669739783E+04  0.46999998093E+01 0. -1.
</event>
<event>
 5   0  0.3162695E-06  0.2800622E+04  0.7818609E-02  0.8303075E-01
       -2   -1    0    0    0  501  0.00000000000E+00  0.00000000000E+00  0.83602098828E+03  0.83602098828E+03  0.25500000920E-02 0. -1.
        2   -1    0    0  501    0  0.00000000000E+00  0.00000000000E+00 -0.23454806189E+04  0.23454806189E+04  0.25500000920E-02 0.  1.
    10030    2    1    2    0    0  0.00000000000E+00  0.00000000000E+00 -0.15094596306E+04  0.31815016071E+04  0.28006220916E+04 0.  0.
        1    1    3    3  502    0 -0.43393608453E+02  0.12108179254E+04  0.42825029508E+02  0.12123518618E+04  0.50400001928E-02 0. -1.
       -1    1    3    3    0  502  0.43393608453E+02 -0.12108179254E+04 -0.15522846601E+04  0.19691497453E+04  0.50400001928E-02 0.  1.
</event>
<event>
 5   0  0.1243055E-06  0.2799402E+04  0.7818609E-02  0.8303454E-01
        1   -1    0    0  501    0  0.00000000000E+00  0.00000000000E+00  0.19502034321E+04  0.19502034321E+04  0.50400001928E-02 0.  1.
       -1   -1    0    0    0  501  0.00000000000E+00  0.00000000000E+00 -0.10045938188E+04  0.10045938188E+04  0.50400001928E-02 0. -1.
    10030    2    1    2    0    0  0.00000000000E+00  0.00000000000E+00  0.94560961331E+03  0.29547972510E+04  0.27994015885E+04 0.  0.
        5    1    3    3  502    0  0.96529713428E+03  0.19448396916E+03 -0.57715882054E+03  0.11413837943E+04  0.46999998093E+01 0. -1.
       -5    1    3    3    0  502 -0.96529713428E+03 -0.19448396916E+03  0.15227684339E+04  0.18134134567E+04  0.46999998093E+01 0.  1.
</event>
<event>
 5   0  0.3345919E-06  0.2804157E+04  0.7818609E-02  0.8301979E-01
       -2   -1    0    0    0  501  0.00000000000E+00  0.00000000000E+00  0.21977882671E+04  0.21977882671E+04  0.25500000920E-02 0. -1.
        2   -1    0    0  501    0  0.00000000000E+00  0.00000000000E+00 -0.89445573676E+03  0.89445573677E+03  0.25500000920E-02 0.  1.
    10030    2    1    2    0    0  0.00000000000E+00  0.00000000000E+00  0.13033325304E+04  0.30922440039E+04  0.28041571452E+04 0.  0.
        2    1    3    3  502    0  0.70191678100E+03  0.12137083609E+04  0.65939886209E+03  0.15493811707E+04  0.25500000920E-02 0.  1.
       -2    1    3    3    0  502 -0.70191678100E+03 -0.12137083609E+04  0.64393366826E+03  0.15428628332E+04  0.25500000920E-02 0. -1.
</event>
<event>
 5   0  0.1246044E-06  0.2806924E+04  0.7818609E-02  0.8301122E-01
       -1   -1    0    0    0  501  0.00000000000E+00  0.00000000000E+00  0.93192296014E+03  0.93192296015E+03  0.50400001928E-02 0. -1.
        1   -1    0    0  501    0  0.00000000000E+00  0.00000000000E+00 -0.21135923333E+04  0.21135923333E+04  0.50400001928E-02 0.  1.
    10030    2    1    2    0    0  0.00000000000E+00  0.00000000000E+00 -0.11816693731E+04  0.30455152934E+04  0.28069237423E+04 0.  0.
        2    1    3    3  502    0  0.94999026466E+03 -0.98410773040E+03 -0.93180082203E+03  0.16550535641E+04  0.25500000920E-02 0. -1.
       -2    1    3    3    0  502 -0.94999026466E+03  0.98410773040E+03 -0.24986855109E+03  0.13904617294E+04  0.25500000920E-02 0.  1.
</event>
<event>
 5   0  0.3226364E-06  0.2802296E+04  0.7818609E-02  0.8302556E-01
       -2   -1    0    0    0  501  0.00000000000E+00  0.00000000000E+00  0.13899442111E+04  0.13899442111E+04  0.25500000920E-02 0. -1.
        2   -1    0    0  501    0  0.00000000000E+00  0.00000000000E+00 -0.14124425263E+04  0.14124425263E+04  0.25500000920E-02 0.  1.
    10030    2    1    2    0    0  0.00000000000E+00  0.00000000000E+00 -0.22498315235E+02  0.28023867373E+04  0.28022964246E+04 0.  0.
        5    1    3    3  502    0  0.82704045856E+03  0.96762252197E+03  0.57435058664E+03  0.13964920163E+04  0.46999998093E+01 0. -1.
       -5    1    3    3    0  502 -0.82704045856E+03 -0.96762252197E+03 -0.59684890187E+03  0.14058947211E+04  0.46999998093E+01 0.  1.
</event>
<event>
 5   0  0.3212679E-06  0.2794144E+04  0.7818609E-02  0.8305089E-01
        2   -1    0    0  501    0  0.00000000000E+00  0.00000000000E+00  0.19834836122E+04  0.19834836122E+04  0.25500000920E-02 0. -1.
       -2   -1    0    0    0  501  0.00000000000E+00  0.00000000000E+00 -0.98403112921E+03  0.98403112921E+03  0.25500000920E-02 0.  1.
    10030    2    1    2    0    0  0.00000000000E+00  0.00000000000E+00  0.99945248298E+03  0.29675147414E+04  0.27941436031E+04 0.  0.
        4    1    3    3  502    0  0.90591501576E+03 -0.65100989522E+03  0.13929282854E+04  0.17845858681E+04  0.12699999809E+01 0. -1.
       -4    1    3    3    0  502 -0.90591501576E+03  0.65100989522E+03 -0.39347580237E+03  0.11829288733E+04  0.12699999809E+01 0.  1.
</event>
<event>
 5   0  0.3212679E-06  0.2804321E+04  0.7818609E-02  0.8301928E-01
       -2   -1    0    0    0  501  0.00000000000E+00  0.00000000000E+00  0.89599693985E+03  0.89599693985E+03  0.25500000920E-02 0.  1.
        2   -1    0    0  501    0  0.00000000000E+00  0.00000000000E+00 -0.21942640430E+04  0.21942640430E+04  0.25500000920E-02 0. -1.
    10030    2    1    2    0    0  0.00000000000E+00  0.00000000000E+00 -0.12982671032E+04  0.30902609829E+04  0.28043208574E+04 0.  0.
        4    1    3    3  502    0  0.62610827345E+03  0.31137685446E+03 -0.19884099667E+04  0.21077815172E+04  0.12699999809E+01 0. -1.
       -4    1    3    3    0  502 -0.62610827345E+03 -0.31137685446E+03  0.69014286352E+03  0.98247946571E+03  0.12699999809E+01 0.  1.
</event>
<event>
 5   0  0.1065675E-06  0.2797801E+04  0.7818609E-02  0.8303951E-01
       -3   -1    0    0    0  501  0.00000000000E+00  0.00000000000E+00  0.13093520494E+04  0.13093520533E+04  0.10100000352E+00 0.  1.
        3   -1    0    0  501    0  0.00000000000E+00  0.00000000000E+00 -0.14945728975E+04  0.14945729009E+04  0.10100000352E+00 0. -1.
    10030    2    1    2    0    0  0.00000000000E+00  0.00000000000E+00 -0.18522084812E+03  0.28039249542E+04  0.27978006338E+04 0.  0.
        4    1    3    3  502    0  0.13465264405E+04 -0.37656453693E+03 -0.13727453834E+03  0.14049128860E+04  0.12699999809E+01 0. -1.
       -4    1    3    3    0  502 -0.13465264405E+04  0.37656453693E+03 -0.47946309785E+02  0.13990120682E+04  0.12699999809E+01 0.  1.
</event>
<event>
 5   0  0.1065675E-06  0.2785238E+04  0.7818609E-02  0.8307866E-01
       -3   -1    0    0    0  501  0.00000000000E+00  0.00000000000E+00  0.13306748550E+04  0.13306748588E+04  0.10100000352E+00 0. -1.
        3   -1    0    0  501    0  0.00000000000E+00  0.00000000000E+00 -0.14574464208E+04  0.14574464243E+04  0.10100000352E+00 0.  1.
    10030    2    1    2    0    0  0.00000000000E+00  0.00000000000E+00 -0.12677156578E+03  0.27881212831E+04  0.27852377384E+04 0.  0.
        5    1    3    3  502    0 -0.19986702402E+03 -0.65807888092E+03  0.11487975237E+04  0.13389445400E+04  0.46999998093E+01 0. -1.
       -5    1    3    3    0  502  0.19986702402E+03  0.65807888092E+03 -0.12755690894E+04  0.14491767431E+04  0.46999998093E+01 0.  1.
</event>
<event>
 5   0  0.1243055E-06  0.2797570E+04  0.7818609E-02  0.8304023E-01
       -1   -1    0    0    0  501  0.00000000000E+00  0.00000000000E+00  0.17242494938E+04  0.17242494938E+04  0.50400001928E-02 0.  1.
        1   -1    0    0  501    0  0.00000000000E+00  0.00000000000E+00 -0.11347543567E+04  0.11347543567E+04  0.50400001928E-02 0. -1.
    10030    2    1    2    0    0  0.00000000000E+00  0.00000000000E+00  0.58949513711E+03  0.28590038505E+04  0.27975701065E+04 0.  0.
        5    1    3    3  502    0  0.56640623487E+03  0.39478896620E+03 -0.94847937572E+03  0.11731622083E+04  0.46999998093E+01 0. -1.
       -5    1    3    3    0  502 -0.56640623487E+03 -0.39478896620E+03  0.15379745128E+04  0.16858416423E+04  0.46999998093E+01 0.  1.
</event>
<event>
 5   0  0.3162695E-06  0.2815293E+04  0.7818609E-02  0.8298536E-01
        2   -1    0    0  501    0  0.00000000000E+00  0.00000000000E+00  0.15593641595E+04  0.15593641595E+04  0.25500000920E-02 0. -1.
       -2   -1    0    0    0  501  0.00000000000E+00  0.00000000000E+00 -0.12706902167E+04  0.12706902167E+04  0.25500000920E-02 0.  1.
    10030    2    1    2    0    0  0.00000000000E+00  0.00000000000E+00  0.28867394279E+03  0.28300543762E+04  0.28152930802E+04 0.  0.
        1    1    3    3  502    0 -0.93426898095E+03  0.91234565335E+03  0.67267398826E+03  0.14689191314E+04  0.50400001928E-02 0. -1.
       -1    1    3    3    0  502  0.93426898095E+03 -0.91234565335E+03 -0.38400004548E+03  0.13611352449E+04  0.50400001928E-02 0.  1.
</event>
<event>
 5   0  0.3226364E-06  0.2796628E+04  0.7818609E-02  0.8304316E-01
        2   -1    0    0  501    0  0.00000000000E+00  0.00000000000E+00  0.80134553097E+03  0.80134553098E+03  0.25500000920E-02 0.  1.
       -2   -1    0    0    0  501  0.00000000000E+00  0.00000000000E+00 -0.24399990132E+04  0.24399990133E+04  0.25500000920E-02 0. -1.
    10030    2    1    2    0    0  0.00000000000E+00  0.00000000000E+00 -0.16386534823E+04  0.32413445442E+04  0.27966281876E+04 0.  0.
        5    1    3    3  502    0  0.22678717807E+03  0.34527999478E+03  0.72899805544E+03  0.83792061305E+03  0.46999998093E+01 0.  1.
       -5    1    3    3    0  502 -0.22678717807E+03 -0.34527999478E+03 -0.23676515377E+04  0.24034239312E+04  0.46999998093E+01 0. -1.
</event>
<event>
 5   0  0.1243055E-06  0.2794135E+04  0.7818609E-02  0.8305092E-01
       -1   -1    0    0    0  501  0.00000000000E+00  0.00000000000E+00  0.15134323539E+04  0.15134323539E+04  0.50400001928E-02 0. -1.
        1   -1    0    0  501    0  0.00000000000E+00  0.00000000000E+00 -0.12896497033E+04  0.12896497034E+04  0.50400001928E-02 0.  1.
    10030    2    1    2    0    0  0.00000000000E+00  0.00000000000E+00  0.22378265057E+03  0.28030820573E+04  0.27941349905E+04 0.  0.
        5    1    3    3  502    0  0.17918808118E+03 -0.12113621557E+04  0.78655413174E+03  0.14554023955E+04  0.46999998093E+01 0. -1.
       -5    1    3    3    0  502 -0.17918808118E+03  0.12113621557E+04 -0.56277148117E+03  0.13476796618E+04  0.46999998093E+01 0.  1.
</event>
<event>
 5   0  0.3212679E-06  0.2836842E+04  0.7818609E-02  0.8291921E-01
        2   -1    0    0  501    0  0.00000000000E+00  0.00000000000E+00  0.16136864818E+04  0.16136864818E+04  0.25500000920E-02 0.  1.
       -2   -1    0    0    0  501  0.00000000000E+00  0.00000000000E+00 -0.12467838312E+04  0.12467838312E+04  0.25500000920E-02 0. -1.
    10030    2    1    2    0    0  0.00000000000E+00  0.00000000000E+00  0.36690265061E+03  0.28604703130E+04  0.28368420570E+04 0.  0.
        4    1    3    3  502    0 -0.75260825810E+03 -0.24705613369E+03 -0.10029799885E+04  0.12780557083E+04  0.12699999809E+01 0. -1.
       -4    1    3    3    0  502  0.75260825810E+03  0.24705613369E+03  0.13698826391E+04  0.15824146047E+04  0.12699999809E+01 0.  1.
</event>
<event>
 5   0  0.3162695E-06  0.2799187E+04  0.7818609E-02  0.8303521E-01
        2   -1    0    0  501    0  0.00000000000E+00  0.00000000000E+00  0.17602771004E+04  0.17602771004E+04  0.25500000920E-02 0. -1.
       -2   -1    0    0    0  501  0.00000000000E+00  0.00000000000E+00 -0.11128145617E+04  0.11128145617E+04  0.25500000920E-02 0.  1.
    10030    2    1    2    0    0  0.00000000000E+00  0.00000000000E+00  0.64746253875E+03  0.28730916621E+04  0.27991870176E+04 0.  0.
        1    1    3    3  502    0  0.62299029190E+03 -0.48710198980E+03  0.15089821549E+04  0.17036467932E+04  0.50400001928E-02 0. -1.
       -1    1    3    3    0  502 -0.62299029190E+03  0.48710198980E+03 -0.86151961616E+03  0.11694448689E+04  0.50400001928E-02 0.  1.
</event>
<event>
 5   0  0.1263513E-06  0.2799694E+04  0.7818609E-02  0.8303363E-01
        1   -1    0    0  501    0  0.00000000000E+00  0.00000000000E+00  0.10886879149E+04  0.10886879149E+04  0.50400001928E-02 0.  1.
       -1   -1    0    0    0  501  0.00000000000E+00  0.00000000000E+00 -0.17999384960E+04  0.17999384960E+04  0.50400001928E-02 0. -1.
    10030    2    1    2    0    0  0.00000000000E+00  0.00000000000E+00 -0.71125058111E+03  0.28886264110E+04  0.27996937606E+04 0.  0.
        3    1    3    3  502    0 -0.37289909666E+03  0.67894791602E+02 -0.17459868438E+04  0.17866542777E+04  0.10100000352E+00 0. -1.
       -3    1    3    3    0  502  0.37289909666E+03 -0.67894791602E+02  0.10347362627E+04  0.11019721333E+04  0.10100000352E+00 0.  1.
</event>
<event>
 5   0  0.3167616E-06  0.2695212E+04  0.7818609E-02  0.8336560E-01
       -2   -1    0    0    0  501  0.00000000000E+00  0.00000000000E+00  0.10767116960E+04  0.10767116960E+04  0.25500000920E-02 0.  1.
        2   -1    0    0  501    0  0.00000000000E+00  0.00000000000E+00 -0.16866556458E+04  0.16866556458E+04  0.25500000920E-02 0. -1.
    10030    2    1    2    0    0  0.00000000000E+00  0.00000000000E+00 -0.60994394984E+03  0.27633673418E+04  0.26952119479E+04 0.  0.
        3    1    3    3  502    0  0.18983343365E+03  0.10221628226E+04 -0.11840855487E+04  0.15757259169E+04  0.10100000352E+00 0. -1.
       -3    1    3    3    0  502 -0.18983343365E+03 -0.10221628226E+04  0.57414159884E+03  0.11876414249E+04  0.10100000352E+00 0.  1.
</event>
<event>
 5   0  0.1263513E-06  0.2804260E+04  0.7818609E-02  0.8301947E-01
        1   -1    0    0  501    0  0.00000000000E+00  0.00000000000E+00  0.18869040620E+04  0.18869040620E+04  0.50400001928E-02 0. -1.
       -1   -1    0    0    0  501  0.00000000000E+00  0.00000000000E+00 -0.10419020087E+04  0.10419020087E+04  0.50400001928E-02 0.  1.
    10030    2    1    2    0    0  0.00000000000E+00  0.00000000000E+00  0.84500205331E+03  0.29288060708E+04  0.28042604248E+04 0.  0.
        3    1    3    3  502    0  0.10406104581E+04 -0.50750893957E+02  0.14025385634E+04  0.17471577521E+04  0.10100000352E+00 0. -1.
       -3    1    3    3    0  502 -0.10406104581E+04  0.50750893957E+02 -0.55753651005E+03  0.11816483187E+04  0.10100000352E+00 0.  1.
</event>
<event>
 5   0  0.1243055E-06  0.2804813E+04  0.7818609E-02  0.8301776E-01
       -1   -1    0    0    0  501  0.00000000000E+00  0.00000000000E+00  0.14467923945E+04  0.14467923945E+04  0.50400001928E-02 0. -1.
        1   -1    0    0  501    0  0.00000000000E+00  0.00000000000E+00 -0.13593823945E+04  0.13593823945E+04  0.50400001928E-02 0.  1.
    10030    2    1    2    0    0  0.00000000000E+00  0.00000000000E+00  0.87409999997E+02  0.28061747890E+04  0.28048130844E+04 0.  0.
        5    1    3    3  502    0  0.12918491643E+04  0.40835388891E+03  0.40595101947E+03  0.14143710553E+04  0.46999998093E+01 0. -1.
       -5    1    3    3    0  502 -0.12918491643E+04 -0.40835388891E+03 -0.31854101947E+03  0.13918037337E+04  0.46999998093E+01 0.  1.
</event>
<event>
 5   0  0.1235252E-06  0.2797977E+04  0.7818609E-02  0.8303897E-01
       -1   -1    0    0    0  501  0.00000000000E+00  0.00000000000E+00  0.19936808490E+04  0.19936808490E+04  0.50400001928E-02 0.  1.
        1   -1    0    0  501    0  0.00000000000E+00  0.00000000000E+00 -0.98168638976E+03  0.98168638977E+03  0.50400001928E-02 0. -1.
    10030    2    1    2    0    0  0.00000000000E+00  0.00000000000E+00  0.10119944593E+04  0.29753672388E+04  0.27979773802E+04 0.  0.
        1    1    3    3  502    0  0.33843129592E+03  0.10305671761E+04  0.14455061091E+04  0.18072333436E+04  0.50400001928E-02 0.  1.
       -1    1    3    3    0  502 -0.33843129592E+03 -0.10305671761E+04 -0.43351164988E+03  0.11681338952E+04  0.50400001928E-02 0. -1.
</event>
<event>
 5   0  0.1235252E-06  0.2803674E+04  0.7818609E-02  0.8302129E-01
       -1   -1    0    0    0  501  0.00000000000E+00  0.00000000000E+00  0.17051407299E+04  0.17051407299E+04  0.50400001928E-02 0. -1.
        1   -1    0    0  501    0  0.00000000000E+00  0.00000000000E+00 -0.11524837846E+04  0.11524837846E+04  0.50400001928E-02 0.  1.
    10030    2    1    2    0    0  0.00000000000E+00  0.00000000000E+00  0.55265694527E+03  0.28576245145E+04  0.28036740479E+04 0.  0.
        1    1    3    3  502    0 -0.92021466608E+03  0.53839491278E+03  0.12040538210E+04  0.16082318607E+04  0.50400001928E-02 0. -1.
       -1    1    3    3    0  502  0.92021466608E+03 -0.53839491278E+03 -0.65139687574E+03  0.12493926539E+04  0.50400001928E-02 0.  1.
</event>
<event>
 5   0  0.3167616E-06  0.2794716E+04  0.7818609E-02  0.8304911E-01
       -2   -1    0    0    0  501  0.00000000000E+00  0.00000000000E+00  0.13298663820E+04  0.13298663820E+04  0.25500000920E-02 0.  1.
        2   -1    0    0  501    0  0.00000000000E+00  0.00000000000E+00 -0.14682746065E+04  0.14682746066E+04  0.25500000920E-02 0. -1.
    10030    2    1    2    0    0  0.00000000000E+00  0.00000000000E+00 -0.13840822452E+03  0.27981409886E+04  0.27947157557E+04 0.  0.
        3    1    3    3  502    0  0.59669616936E+03  0.12523255125E+04 -0.23746817365E+03  0.14073935667E+04  0.10100000352E+00 0. -1.
       -3    1    3    3    0  502 -0.59669616936E+03 -0.12523255125E+04  0.99059949129E+02  0.13907474219E+04  0.10100000352E+00 0.  1.
</event>
<event>
 5   0  0.1235252E-06  0.2808141E+04  0.7818609E-02  0.8300745E-01
        1   -1    0    0  501    0  0.00000000000E+00  0.00000000000E+00  0.14481224576E+04  0.14481224576E+04  0.50400001928E-02 0.  1.
       -1   -1    0    0    0  501  0.00000000000E+00  0.00000000000E+00 -0.13613588983E+04  0.13613588983E+04  0.50400001928E-02 0. -1.
    10030    2    1    2    0    0  0.00000000000E+00  0.00000000000E+00  0.86763559336E+02  0.28094813559E+04  0.28081413023E+04 0.  0.
        1    1    3    3  502    0 -0.50901057970E+03  0.64150848719E+03  0.11844476242E+04  0.14399795429E+04  0.50400001928E-02 0.  1.
       -1    1    3    3    0  502  0.50901057970E+03 -0.64150848719E+03 -0.10976840649E+04  0.13695018130E+04  0.50400001928E-02 0. -1.
</event>
<event>
 5   0  0.1246044E-06  0.2810893E+04  0.7818609E-02  0.8299894E-01
       -1   -1    0    0    0  501  0.00000000000E+00  0.00000000000E+00  0.14247830019E+04  0.14247830019E+04  0.50400001928E-02 0.  1.
        1   -1    0    0  501    0  0.00000000000E+00  0.00000000000E+00 -0.13863724125E+04  0.13863724125E+04  0.50400001928E-02 0. -1.
    10030    2    1    2    0    0  0.00000000000E+00  0.00000000000E+00  0.38410589461E+02  0.28111554144E+04  0.28108929881E+04 0.  0.
        2    1    3    3  502    0  0.52213780651E+03  0.18037605269E+03  0.13116557961E+04  0.14232372736E+04  0.25500000920E-02 0.  1.
       -2    1    3    3    0  502 -0.52213780651E+03 -0.18037605269E+03 -0.12732452067E+04  0.13879181408E+04  0.25500000920E-02 0. -1.
</event>
<event>
 5   0  0.1243055E-06  0.2808891E+04  0.7818609E-02  0.8300513E-01
        1   -1    0    0  501    0  0.00000000000E+00  0.00000000000E+00  0.19293999888E+04  0.19293999888E+04  0.50400001928E-02 0. -1.
       -1   -1    0    0    0  501  0.00000000000E+00  0.00000000000E+00 -0.10223216281E+04  0.10223216281E+04  0.50400001928E-02 0.  1.
    10030    2    1    2    0    0  0.00000000000E+00  0.00000000000E+00  0.90707836071E+03  0.29517216170E+04  0.28088911249E+04 0.  0.
        5    1    3    3  502    0  0.85901015811E+02 -0.12848977129E+04 -0.13540931124E+03  0.12948740822E+04  0.46999998093E+01 0.  1.
       -5    1    3    3    0  502 -0.85901015811E+02  0.12848977129E+04  0.10424876720E+04  0.16568475347E+04  0.46999998093E+01 0. -1.
</event>
<event>
 5   0  0.3162695E-06  0.2797194E+04  0.7818609E-02  0.8304140E-01
        2   -1    0    0  501    0  0.00000000000E+00  0.00000000000E+00  0.14157737495E+04  0.14157737495E+04  0.25500000920E-02 0.  1.
       -2   -1    0    0    0  501  0.00000000000E+00  0.00000000000E+00 -0.13816285870E+04  0.13816285870E+04  0.25500000920E-02 0. -1.
    10030    2    1    2    0    0  0.00000000000E+00  0.00000000000E+00  0.34145162587E+02  0.27974023365E+04  0.27971939404E+04 0.  0.
        1    1    3    3  502    0  0.23229598456E+03 -0.34081299377E+03 -0.13194245897E+04  0.13823878505E+04  0.50400001928E-02 0. -1.
       -1    1    3    3    0  502 -0.23229598456E+03  0.34081299377E+03  0.13535697523E+04  0.14150144860E+04  0.50400001928E-02 0.  1.
</event>
<event>
 5   0  0.3167616E-06  0.2809527E+04  0.7818609E-02  0.8300317E-01
        2   -1    0    0  501    0  0.00000000000E+00  0.00000000000E+00  0.18749737736E+04  0.18749737736E+04  0.25500000920E-02 0.  1.
       -2   -1    0    0    0  501  0.00000000000E+00  0.00000000000E+00 -0.10524734681E+04  0.10524734681E+04  0.25500000920E-02 0. -1.
    10030    2    1    2    0    0  0.00000000000E+00  0.00000000000E+00  0.82250030550E+03  0.29274472417E+04  0.28095267574E+04 0.  0.
        3    1    3    3  502    0 -0.32595842202E+03 -0.13538028955E+04  0.21819283294E+03  0.14094819244E+04  0.10100000352E+00 0. -1.
       -3    1    3    3    0  502  0.32595842202E+03  0.13538028955E+04  0.60430747256E+03  0.15179653173E+04  0.10100000352E+00 0.  1.
</event>
<event>
 5   0  0.1235252E-06  0.2791963E+04  0.7818609E-02  0.8305768E-01
        1   -1    0    0  501    0  0.00000000000E+00  0.00000000000E+00  0.20553400215E+04  0.20553400215E+04  0.50400001928E-02 0.  1.
       -1   -1    0    0    0  501  0.00000000000E+00  0.00000000000E+00 -0.94814675205E+03  0.94814675206E+03  0.50400001928E-02 0. -1.
    10030    2    1    2    0    0  0.00000000000E+00  0.00000000000E+00  0.11071932695E+04  0.30034867736E+04  0.27919627260E+04 0.  0.
        1    1    3    3  502    0 -0.91470189631E+03  0.99141578199E+03  0.16695169946E+03  0.13592121548E+04  0.50400001928E-02 0. -1.
       -1    1    3    3    0  502  0.91470189631E+03 -0.99141578199E+03  0.94024157001E+03  0.16442746188E+04  0.50400001928E-02 0.  1.
</event>
<event>
 5   0  0.1246044E-06  0.2808181E+04  0.7818609E-02  0.8300733E-01
        1   -1    0    0  501    0  0.00000000000E+00  0.00000000000E+00  0.15866670909E+04  0.15866670909E+04  0.50400001928E-02 0.  1.
       -1   -1    0    0    0  501  0.00000000000E+00  0.00000000000E+00 -0.12425232842E+04  0.12425232842E+04  0.50400001928E-02 0. -1.
    10030    2    1    2    0    0  0.00000000000E+00  0.00000000000E+00  0.34414380673E+03  0.28291903751E+04  0.28081814790E+04 0.  0.
        2    1    3    3  502    0 -0.39243508728E+03 -0.66227294222E+03 -0.10109617439E+04  0.12706905191E+04  0.25500000920E-02 0. -1.
       -2    1    3    3    0  502  0.39243508728E+03  0.66227294222E+03  0.13551055506E+04  0.15584998560E+04  0.25500000920E-02 0.  1.
</event>
<event>
 5   0  0.1220265E-06  0.2802615E+04  0.7818609E-02  0.8302457E-01
        1   -1    0    0  501    0  0.00000000000E+00  0.00000000000E+00  0.12297334626E+04  0.12297334626E+04  0.50400001928E-02 0.  1.
       -1   -1    0    0    0  501  0.00000000000E+00  0.00000000000E+00 -0.15968195105E+04  0.15968195105E+04  0.50400001928E-02 0. -1.
    10030    2    1    2    0    0  0.00000000000E+00  0.00000000000E+00 -0.36708604785E+03  0.28265529731E+04  0.28026147690E+04 0.  0.
        4    1    3    3  502    0 -0.13954864984E+04  0.11110816923E+03 -0.12029227696E+03  0.14050620759E+04  0.12699999809E+01 0.  1.
       -4    1    3    3    0  502  0.13954864984E+04 -0.11110816923E+03 -0.24679377089E+03  0.14214908972E+04  0.12699999809E+01 0. -1.
</event>
<event>
 5   0  0.1263513E-06  0.2752061E+04  0.7818609E-02  0.8318308E-01
        1   -1    0    0  501    0  0.00000000000E+00  0.00000000000E+00  0.15272215654E+04  0.15272215654E+04  0.50400001928E-02 0.  1.
       -1   -1    0    0    0  501  0.00000000000E+00  0.00000000000E+00 -0.12398069069E+04  0.12398069069E+04  0.50400001928E-02 0. -1.
    10030    2    1    2    0    0  0.00000000000E+00  0.00000000000E+00  0.28741465852E+03  0.27670284723E+04  0.27520609333E+04 0.  0.
        3    1    3    3  502    0 -0.44748511614E+03  0.11664681227E+04  0.72353172080E+03  0.14437413105E+04  0.10100000352E+00 0. -1.
       -3    1    3    3    0  502  0.44748511614E+03 -0.11664681227E+04 -0.43611706228E+03  0.13232871618E+04  0.10100000352E+00 0.  1.
</event>
<event>
 5   0  0.1235252E-06  0.2795811E+04  0.7818609E-02  0.8304570E-01
        1   -1    0    0  501    0  0.00000000000E+00  0.00000000000E+00  0.82623711290E+03  0.82623711292E+03  0.50400001928E-02 0.  1.
       -1   -1    0    0    0  501  0.00000000000E+00  0.00000000000E+00 -0.23651084028E+04  0.23651084028E+04  0.50400001928E-02 0. -1.
    10030    2    1    2    0    0  0.00000000000E+00  0.00000000000E+00 -0.15388712899E+04  0.31913455157E+04  0.27958113946E+04 0.  0.
        1    1    3    3  502    0  0.10273894218E+04 -0.87539548931E+03 -0.11846153484E+04  0.17958729940E+04  0.50400001928E-02 0. -1.
       -1    1    3    3    0  502 -0.10273894218E+04  0.87539548931E+03 -0.35425594147E+03  0.13954725217E+04  0.50400001928E-02 0.  1.
</event>
<event>
 5   0  0.3212679E-06  0.2794541E+04  0.7818609E-02  0.8304965E-01
        2   -1    0    0  501    0  0.00000000000E+00  0.00000000000E+00  0.27533739238E+04  0.27533739238E+04  0.25500000920E-02 0.  1.
       -2   -1    0    0    0  501  0.00000000000E+00  0.00000000000E+00 -0.70908068187E+03  0.70908068188E+03  0.25500000920E-02 0. -1.
    10030    2    1    2    0    0  0.00000000000E+00  0.00000000000E+00  0.20442932419E+04  0.34624546056E+04  0.27945405771E+04 0.  0.
        4    1    3    3  502    0 -0.88097268717E+03 -0.10824650991E+04  0.11054377388E+04  0.17804038231E+04  0.12699999809E+01 0.  1.
       -4    1    3    3    0  502  0.88097268717E+03  0.10824650991E+04  0.93885550311E+03  0.16820507825E+04  0.12699999809E+01 0. -1.
</event>
<event>
 5   0  0.3212679E-06  0.2820508E+04  0.7818609E-02  0.8296929E-01
        2   -1    0    0  501    0  0.00000000000E+00  0.00000000000E+00  0.26087847137E+04  0.26087847137E+04  0.25500000920E-02 0. -1.
       -2   -1    0    0    0  501  0.00000000000E+00  0.00000000000E+00 -0.76235376812E+03  0.76235376813E+03  0.25500000920E-02 0.  1.
    10030    2    1    2    0    0  0.00000000000E+00  0.00000000000E+00  0.18464309456E+04  0.33711384818E+04  0.28205083632E+04 0.  0.
        4    1    3    3  502    0 -0.58569342209E+02  0.13553752677E+04  0.13835593575E+04  0.19377075612E+04  0.12699999809E+01 0. -1.
       -4    1    3    3    0  502  0.58569342209E+02 -0.13553752677E+04  0.46287158808E+03  0.14334309206E+04  0.12699999809E+01 0.  1.
</event>
<event>
 5   0  0.1235252E-06  0.2797367E+04  0.7818609E-02  0.8304086E-01
       -1   -1    0    0    0  501  0.00000000000E+00  0.00000000000E+00  0.79724636523E+03  0.79724636525E+03  0.50400001928E-02 0. -1.
        1   -1    0    0  501    0  0.00000000000E+00  0.00000000000E+00 -0.24538410293E+04  0.24538410293E+04  0.50400001928E-02 0.  1.
    10030    2    1    2    0    0  0.00000000000E+00  0.00000000000E+00 -0.16565946641E+04  0.32510873946E+04  0.27973672205E+04 0.  0.
        1    1    3    3  502    0 -0.13510840814E+04 -0.34303282059E+03 -0.69468968348E+03  0.15574637933E+04  0.50400001928E-02 0. -1.
       -1    1    3    3    0  502  0.13510840814E+04  0.34303282059E+03 -0.96190498062E+03  0.16936236013E+04  0.50400001928E-02 0.  1.
</event>
<event>
 5   0  0.1220265E-06  0.2803026E+04  0.7818609E-02  0.8302330E-01
        1   -1    0    0  501    0  0.00000000000E+00  0.00000000000E+00  0.16294222113E+04  0.16294222113E+04  0.50400001928E-02 0.  1.
       -1   -1    0    0    0  501  0.00000000000E+00  0.00000000000E+00 -0.12054816183E+04  0.12054816183E+04  0.50400001928E-02 0. -1.
    10030    2    1    2    0    0  0.00000000000E+00  0.00000000000E+00  0.42394059303E+03  0.28349038296E+04  0.28030258822E+04 0.  0.
        4    1    3    3  502    0 -0.66261301275E+02 -0.42457691525E+03  0.15611508652E+04  0.16192126957E+04  0.12699999809E+01 0.  1.
       -4    1    3    3    0  502  0.66261301275E+02  0.42457691525E+03 -0.11372102722E+04  0.12156911339E+04  0.12699999809E+01 0. -1.
</event>
<event>
 5   0  0.3212679E-06  0.2783715E+04  0.7818609E-02  0.8308342E-01
        2   -1    0    0  501    0  0.00000000000E+00  0.00000000000E+00  0.14225716201E+04  0.14225716201E+04  0.25500000920E-02 0.  1.
       -2   -1    0    0    0  501  0.00000000000E+00  0.00000000000E+00 -0.13618061601E+04  0.13618061602E+04  0.25500000920E-02 0. -1.
    10030    2    1    2    0    0  0.00000000000E+00  0.00000000000E+00  0.60765459972E+02  0.27843777803E+04  0.27837146373E+04 0.  0.
        4    1    3    3  502    0 -0.30685276890E+01 -0.10279272402E+03  0.14187657797E+04  0.14224885626E+04  0.12699999809E+01 0.  1.
       -4    1    3    3    0  502  0.30685276890E+01  0.10279272402E+03 -0.13580003198E+04  0.13618892177E+04  0.12699999809E+01 0. -1.
</event>
<event>
 5   0  0.3212679E-06  0.2808305E+04  0.7818609E-02  0.8300695E-01
        2   -1    0    0  501    0  0.00000000000E+00  0.00000000000E+00  0.93142271891E+03  0.93142271891E+03  0.25500000920E-02 0. -1.
       -2   -1    0    0    0  501  0.00000000000E+00  0.00000000000E+00 -0.21168092570E+04  0.21168092570E+04  0.25500000920E-02 0.  1.
    10030    2    1    2    0    0  0.00000000000E+00  0.00000000000E+00 -0.11853865381E+04  0.30482319759E+04  0.28083049931E+04 0.  0.
        4    1    3    3  502    0  0.72273411994E+03  0.73187192191E+03  0.44482655940E+03  0.11206486510E+04  0.12699999809E+01 0. -1.
       -4    1    3    3    0  502 -0.72273411994E+03 -0.73187192191E+03 -0.16302130975E+04  0.19275833248E+04  0.12699999809E+01 0.  1.
</event>
<event>
 5   0  0.3226364E-06  0.2795091E+04  0.7818609E-02  0.8304794E-01
       -2   -1    0    0    0  501  0.00000000000E+00  0.00000000000E+00  0.11309390298E+04  0.11309390298E+04  0.25500000920E-02 0. -1.
        2   -1    0    0  501    0  0.00000000000E+00  0.00000000000E+00 -0.17270013304E+04  0.17270013304E+04  0.25500000920E-02 0.  1.
    10030    2    1    2    0    0  0.00000000000E+00  0.00000000000E+00 -0.59606230070E+03  0.28579403602E+04  0.27950908458E+04 0.  0.
        5    1    3    3  502    0  0.49718472894E+03  0.79655375128E+03  0.76033813300E+03  0.12082328831E+04  0.46999998093E+01 0. -1.
       -5    1    3    3    0  502 -0.49718472894E+03 -0.79655375128E+03 -0.13564004337E+04  0.16497074771E+04  0.46999998093E+01 0.  1.
</event>
<event>
 5   0  0.3162695E-06  0.2792124E+04  0.7818609E-02  0.8305718E-01
        2   -1    0    0  501    0  0.00000000000E+00  0.00000000000E+00  0.98060960641E+03  0.98060960641E+03  0.25500000920E-02 0. -1.
       -2   -1    0    0    0  501  0.00000000000E+00  0.00000000000E+00 -0.19875279025E+04  0.19875279025E+04  0.25500000920E-02 0.  1.
    10030    2    1    2    0    0  0.00000000000E+00  0.00000000000E+00 -0.10069182961E+04  0.29681375090E+04  0.27921238900E+04 0.  0.
        1    1    3    3  502    0  0.71712787494E+03 -0.36414121625E+03  0.70957900442E+03  0.10725546969E+04  0.50400001928E-02 0. -1.
       -1    1    3    3    0  502 -0.71712787494E+03  0.36414121625E+03 -0.17164973006E+04  0.18955828120E+04  0.50400001928E-02 0.  1.
</event>
<event>
 5   0  0.1065675E-06  0.2791534E+04  0.7818609E-02  0.8305901E-01
       -3   -1    0    0    0  501  0.00000000000E+00  0.00000000000E+00  0.13573452266E+04  0.13573452303E+04  0.10100000352E+00 0. -1.
        3   -1    0    0  501    0  0.00000000000E+00  0.00000000000E+00 -0.14352765236E+04  0.14352765272E+04  0.10100000352E+00 0.  1.
    10030    2    1    2    0    0  0.00000000000E+00  0.00000000000E+00 -0.77931297071E+02  0.27926217575E+04  0.27915341649E+04 0.  0.
        4    1    3    3  502    0  0.11007898021E+04  0.66815115700E+02 -0.89484656835E+03  0.14201952126E+04  0.12699999809E+01 0.  1.
       -4    1    3    3    0  502 -0.11007898021E+04 -0.66815115700E+02  0.81691527128E+03  0.13724265450E+04  0.12699999809E+01 0. -1.
</event>
<event>
 5   0  0.3226364E-06  0.2803633E+04  0.7818609E-02  0.8302141E-01
       -2   -1    0    0    0  501  0.00000000000E+00  0.00000000000E+00  0.14184559569E+04  0.14184559569E+04  0.25500000920E-02 0. -1.
        2   -1    0    0  501    0  0.00000000000E+00  0.00000000000E+00 -0.13853720057E+04  0.13853720057E+04  0.25500000920E-02 0.  1.
    10030    2    1    2    0    0  0.00000000000E+00  0.00000000000E+00  0.33083951242E+02  0.28038279626E+04  0.28036327677E+04 0.  0.
        5    1    3    3  502    0 -0.11997264323E+04  0.38269394123E+03  0.63243298203E+03  0.14091812275E+04  0.46999998093E+01 0. -1.
       -5    1    3    3    0  502  0.11997264323E+04 -0.38269394123E+03 -0.59934903078E+03  0.13946467351E+04  0.46999998093E+01 0.  1.
</event>
<event>
 5   0  0.1246044E-06  0.2801574E+04  0.7818609E-02  0.8302780E-01
       -1   -1    0    0    0  501  0.00000000000E+00  0.00000000000E+00  0.99208078596E+03  0.99208078597E+03  0.50400001928E-02 0. -1.
        1   -1    0    0  501    0  0.00000000000E+00  0.00000000000E+00 -0.19778669797E+04  0.19778669797E+04  0.50400001928E-02 0.  1.
    10030    2    1    2    0    0  0.00000000000E+00  0.00000000000E+00 -0.98578619370E+03  0.29699477656E+04  0.28015737204E+04 0.  0.
        2    1    3    3  502    0  0.40346504394E+03  0.77484502650E+01  0.92912707374E+03  0.10129764061E+04  0.25500000920E-02 0. -1.
       -2    1    3    3    0  502 -0.40346504394E+03 -0.77484502650E+01 -0.19149132674E+04  0.19569713595E+04  0.25500000920E-02 0.  1.
</event>
<event>
 5   0  0.3226364E-06  0.2803140E+04  0.7818609E-02  0.8302294E-01
       -2   -1    0    0    0  501  0.00000000000E+00  0.00000000000E+00  0.14468449871E+04  0.14468449871E+04  0.25500000920E-02 0. -1.
        2   -1    0    0  501    0  0.00000000000E+00  0.00000000000E+00 -0.13577113310E+04  0.13577113310E+04  0.25500000920E-02 0.  1.
    10030    2    1    2    0    0  0.00000000000E+00  0.00000000000E+00  0.89133656033E+02  0.28045563181E+04  0.28031395493E+04 0.  0.
        5    1    3    3  502    0 -0.73358827614E+03  0.49011393609E+03  0.11341591787E+04  0.14369072906E+04  0.46999998093E+01 0. -1.
       -5    1    3    3    0  502  0.73358827614E+03 -0.49011393609E+03 -0.10450255227E+04  0.13676490274E+04  0.46999998093E+01 0.  1.
</event>
<event>
 5   0  0.1263513E-06  0.2801871E+04  0.7818609E-02  0.8302688E-01
        1   -1    0    0  501    0  0.00000000000E+00  0.00000000000E+00  0.13868655946E+04  0.13868655946E+04  0.50400001928E-02 0.  1.
       -1   -1    0    0    0  501  0.00000000000E+00  0.00000000000E+00 -0.14151479920E+04  0.14151479920E+04  0.50400001928E-02 0. -1.
    10030    2    1    2    0    0  0.00000000000E+00  0.00000000000E+00 -0.28282397377E+02  0.28020135866E+04  0.28018708474E+04 0.  0.
        3    1    3    3  502    0 -0.11363066168E+04 -0.49279454232E+03 -0.66883542609E+03  0.14076150133E+04  0.10100000352E+00 0. -1.
       -3    1    3    3    0  502  0.11363066168E+04  0.49279454232E+03  0.64055302871E+03  0.13943985733E+04  0.10100000352E+00 0.  1.
</event>
<event>
 5   0  0.1220265E-06  0.2833881E+04  0.7818609E-02  0.8292826E-01
        1   -1    0    0  501    0  0.00000000000E+00  0.00000000000E+00  0.16461149894E+04  0.16461149894E+04  0.50400001928E-02 0.  1.
       -1   -1    0    0    0  501  0.00000000000E+00  0.00000000000E+00 -0.12196718082E+04  0.12196718082E+04  0.50400001928E-02 0. -1.
    10030    2    1    2    0    0  0.00000000000E+00  0.00000000000E+00  0.42644318115E+03  0.28657867976E+04  0.28338807637E+04 0.  0.
        4    1    3    3  502    0 -0.13626695594E+04 -0.20515159194E+02 -0.17899722598E+03  0.13745293084E+04  0.12699999809E+01 0. -1.
       -4    1    3    3    0  502  0.13626695594E+04  0.20515159194E+02  0.60544040713E+03  0.14912574892E+04  0.12699999809E+01 0.  1.
</event>
<event>
 5   0  0.1263513E-06  0.2803693E+04  0.7818609E-02  0.8302123E-01
       -1   -1    0    0    0  501  0.00000000000E+00  0.00000000000E+00  0.16642345307E+04  0.16642345307E+04  0.50400001928E-02 0.  1.
        1   -1    0    0  501    0  0.00000000000E+00  0.00000000000E+00 -0.11808275475E+04  0.11808275475E+04  0.50400001928E-02 0. -1.
    10030    2    1    2    0    0  0.00000000000E+00  0.00000000000E+00  0.48340698318E+03  0.28450620782E+04  0.28036932638E+04 0.  0.
        3    1    3    3  502    0 -0.77679546404E+03  0.10255831843E+04  0.80664228764E+03  0.15185202835E+04  0.10100000352E+00 0.  1.
       -3    1    3    3    0  502  0.77679546404E+03 -0.10255831843E+04 -0.32323530446E+03  0.13265417947E+04  0.10100000352E+00 0. -1.
</event>
<event>
 5   0  0.1263513E-06  0.2798791E+04  0.7818609E-02  0.8303644E-01
       -1   -1    0    0    0  501  0.00000000000E+00  0.00000000000E+00  0.12434283474E+04  0.12434283474E+04  0.50400001928E-02 0.  1.
        1   -1    0    0  501    0  0.00000000000E+00  0.00000000000E+00 -0.15749255657E+04  0.15749255657E+04  0.50400001928E-02 0. -1.
    10030    2    1    2    0    0  0.00000000000E+00  0.00000000000E+00 -0.33149721827E+03  0.28183539131E+04  0.27987905198E+04 0.  0.
        3    1    3    3  502    0  0.27856493286E+03  0.71733242147E+03  0.10112425275E+04  0.12707382438E+04  0.10100000352E+00 0.  1.
       -3    1    3    3    0  502 -0.27856493286E+03 -0.71733242147E+03 -0.13427397458E+04  0.15476156693E+04  0.10100000352E+00 0. -1.
</event>
<event>
 5   0  0.3345919E-06  0.2799137E+04  0.7818609E-02  0.8303536E-01
       -2   -1    0    0    0  501  0.00000000000E+00  0.00000000000E+00  0.14928585469E+04  0.14928585469E+04  0.25500000920E-02 0.  1.
        2   -1    0    0  501    0  0.00000000000E+00  0.00000000000E+00 -0.13121081748E+04  0.13121081748E+04  0.25500000920E-02 0. -1.
    10030    2    1    2    0    0  0.00000000000E+00  0.00000000000E+00  0.18075037210E+03  0.28049667217E+04  0.27991369407E+04 0.  0.
        2    1    3    3  502    0  0.37002478404E+03 -0.12831602000E+04  0.51002352343E+03  0.14295252479E+04  0.25500000920E-02 0.  1.
       -2    1    3    3    0  502 -0.37002478404E+03  0.12831602000E+04 -0.32927315133E+03  0.13754414738E+04  0.25500000920E-02 0. -1.
</event>
<event>
 5   0  0.1243055E-06  0.2801429E+04  0.7818609E-02  0.8302825E-01
       -1   -1    0    0    0  501  0.00000000000E+00  0.00000000000E+00  0.11843472052E+04  0.11843472052E+04  0.50400001928E-02 0. -1.
        1   -1    0    0  501    0  0.00000000000E+00  0.00000000000E+00 -0.16566093135E+04  0.16566093135E+04  0.50400001928E-02 0.  1.
    10030    2    1    2    0    0  0.00000000000E+00  0.00000000000E+00 -0.47226210831E+03  0.28409565186E+04  0.28014286430E+04 0.  0.
        5    1    3    3  502    0 -0.13196490477E+04 -0.91290756784E+02 -0.70325049310E+03  0.14981291525E+04  0.46999998093E+01 0. -1.
       -5    1    3    3    0  502  0.13196490477E+04  0.91290756784E+02  0.23098838479E+03  0.13428273662E+04  0.46999998093E+01 0.  1.
</event>
<event>
 5   0  0.1246044E-06  0.2796921E+04  0.7818609E-02  0.8304225E-01
       -1   -1    0    0    0  501  0.00000000000E+00  0.00000000000E+00  0.15364686325E+04  0.15364686325E+04  0.50400001928E-02 0.  1.
        1   -1    0    0  501    0  0.00000000000E+00  0.00000000000E+00 -0.12728487962E+04  0.12728487962E+04  0.50400001928E-02 0. -1.
    10030    2    1    2    0    0  0.00000000000E+00  0.00000000000E+00  0.26361983625E+03  0.28093174287E+04  0.27969213427E+04 0.  0.
        2    1    3    3  502    0 -0.24302124298E+03  0.17989532171E+03  0.15032443083E+04  0.15333509389E+04  0.25500000920E-02 0.  1.
       -2    1    3    3    0  502  0.24302124298E+03 -0.17989532171E+03 -0.12396244721E+04  0.12759664898E+04  0.25500000920E-02 0. -1.
</event>
<event>
 5   0  0.1263513E-06  0.2794935E+04  0.7818609E-02  0.8304842E-01
       -1   -1    0    0    0  501  0.00000000000E+00  0.00000000000E+00  0.14768688251E+04  0.14768688251E+04  0.50400001928E-02 0.  1.
        1   -1    0    0  501    0  0.00000000000E+00  0.00000000000E+00 -0.13223352890E+04  0.13223352890E+04  0.50400001928E-02 0. -1.
    10030    2    1    2    0    0  0.00000000000E+00  0.00000000000E+00  0.15453353612E+03  0.27992041141E+04  0.27949352513E+04 0.  0.
        3    1    3    3  502    0 -0.13728093403E+04 -0.26126605267E+03  0.84371224494E+02  0.13999942674E+04  0.10100000352E+00 0. -1.
       -3    1    3    3    0  502  0.13728093403E+04  0.26126605267E+03  0.70162311621E+02  0.13992098467E+04  0.10100000352E+00 0.  1.
</event>
<event>
 5   0  0.3162695E-06  0.2794222E+04  0.7818609E-02  0.8305064E-01
       -2   -1    0    0    0  501  0.00000000000E+00  0.00000000000E+00  0.16485719063E+04  0.16485719063E+04  0.25500000920E-02 0.  1.
        2   -1    0    0  501    0  0.00000000000E+00  0.00000000000E+00 -0.11840063908E+04  0.11840063908E+04  0.25500000920E-02 0. -1.
    10030    2    1    2    0    0  0.00000000000E+00  0.00000000000E+00  0.46456551551E+03  0.28325782971E+04  0.27942223768E+04 0.  0.
        1    1    3    3  502    0 -0.25206010636E+03  0.66034434966E+03 -0.98938670494E+03  0.12159255772E+04  0.50400001928E-02 0. -1.
       -1    1    3    3    0  502  0.25206010636E+03 -0.66034434966E+03  0.14539522205E+04  0.16166527199E+04  0.50400001928E-02 0.  1.
</event>
<event>
 5   0  0.3345919E-06  0.2804412E+04  0.7818609E-02  0.8301900E-01
       -2   -1    0    0    0  501  0.00000000000E+00  0.00000000000E+00  0.15006077219E+04  0.15006077219E+04  0.25500000920E-02 0. -1.
        2   -1    0    0  501    0  0.00000000000E+00  0.00000000000E+00 -0.13102571028E+04  0.13102571028E+04  0.25500000920E-02 0.  1.
    10030    2    1    2    0    0  0.00000000000E+00  0.00000000000E+00  0.19035061902E+03  0.28108648247E+04  0.28044121852E+04 0.  0.
        2    1    3    3  502    0 -0.25189839875E+03  0.13146106157E+04  0.51390208790E+03  0.14337884189E+04  0.25500000920E-02 0. -1.
       -2    1    3    3    0  502  0.25189839875E+03 -0.13146106157E+04 -0.32355146888E+03  0.13770764058E+04  0.25500000920E-02 0.  1.
</event>
<event>
 5   0  0.1263513E-06  0.2776989E+04  0.7818609E-02  0.8310448E-01
        1   -1    0    0  501    0  0.00000000000E+00  0.00000000000E+00  0.18873187442E+04  0.18873187442E+04  0.50400001928E-02 0. -1.
       -1   -1    0    0    0  501  0.00000000000E+00  0.00000000000E+00 -0.10215113303E+04  0.10215113303E+04  0.50400001928E-02 0.  1.
    10030    2    1    2    0    0  0.00000000000E+00  0.00000000000E+00  0.86580741389E+03  0.29088300745E+04  0.27769893633E+04 0.  0.
        3    1    3    3  502    0 -0.45658853065E+03 -0.48262178749E+03 -0.84421010170E+03  0.10742846839E+04  0.10100000352E+00 0.  1.
       -3    1    3    3    0  502  0.45658853065E+03  0.48262178749E+03  0.17100175156E+04  0.18345453905E+04  0.10100000352E+00 0. -1.
</event>
<event>
 5   0  0.3162695E-06  0.2797833E+04  0.7818609E-02  0.8303941E-01
        2   -1    0    0  501    0  0.00000000000E+00  0.00000000000E+00  0.12990561922E+04  0.12990561922E+04  0.25500000920E-02 0.  1.
       -2   -1    0    0    0  501  0.00000000000E+00  0.00000000000E+00 -0.15064535889E+04  0.15064535889E+04  0.25500000920E-02 0. -1.
    10030    2    1    2    0    0  0.00000000000E+00  0.00000000000E+00 -0.20739739672E+03  0.28055097811E+04  0.27978333495E+04 0.  0.
        1    1    3    3  502    0  0.16006553104E+02 -0.11694744045E+04 -0.87329470701E+03  0.14596472991E+04  0.50400001928E-02 0. -1.
       -1    1    3    3    0  502 -0.16006553104E+02  0.11694744045E+04  0.66589731029E+03  0.13458624820E+04  0.50400001928E-02 0.  1.
</event>
<event>
 5   0  0.1235252E-06  0.2798631E+04  0.7818609E-02  0.8303693E-01
        1   -1    0    0  501    0  0.00000000000E+00  0.00000000000E+00  0.17605148736E+04  0.17605148736E+04  0.50400001928E-02 0.  1.
       -1   -1    0    0    0  501  0.00000000000E+00  0.00000000000E+00 -0.11122224391E+04  0.11122224391E+04  0.50400001928E-02 0. -1.
    10030    2    1    2    0    0  0.00000000000E+00  0.00000000000E+00  0.64829243447E+03  0.28727373128E+04  0.27986311989E+04 0.  0.
        1    1    3    3  502    0  0.11483571268E+04  0.70119404252E+03  0.71862289826E+03  0.15253904569E+04  0.50400001928E-02 0.  1.
       -1    1    3    3    0  502 -0.11483571268E+04 -0.70119404252E+03 -0.70330463787E+02  0.13473468559E+04  0.50400001928E-02 0. -1.
</event>
<event>
 5   0  0.1263513E-06  0.2800077E+04  0.7818609E-02  0.8303245E-01
       -1   -1    0    0    0  501  0.00000000000E+00  0.00000000000E+00  0.82623826151E+03  0.82623826152E+03  0.50400001928E-02 0. -1.
        1   -1    0    0  501    0  0.00000000000E+00  0.00000000000E+00 -0.23723271378E+04  0.23723271378E+04  0.50400001928E-02 0.  1.
    10030    2    1    2    0    0  0.00000000000E+00  0.00000000000E+00 -0.15460888763E+04  0.31985653994E+04  0.28000767490E+04 0.  0.
        3    1    3    3  502    0 -0.23783032682E+03 -0.14257884537E+03  0.79455573812E+03  0.84155262621E+03  0.10100000352E+00 0. -1.
       -3    1    3    3    0  502  0.23783032682E+03  0.14257884537E+03 -0.23406446144E+04  0.23570127732E+04  0.10100000352E+00 0.  1.
</event>
<event>
 5   0  0.3212679E-06  0.2781763E+04  0.7818609E-02  0.8308953E-01
        2   -1    0    0  501    0  0.00000000000E+00  0.00000000000E+00  0.19034658034E+04  0.19034658034E+04  0.25500000920E-02 0.  1.
       -2   -1    0    0    0  501  0.00000000000E+00  0.00000000000E+00 -0.10163309900E+04  0.10163309900E+04  0.25500000920E-02 0. -1.
    10030    2    1    2    0    0  0.00000000000E+00  0.00000000000E+00  0.88713481347E+03  0.29197967934E+04  0.27817629549E+04 0.  0.
        4    1    3    3  502    0  0.11958685622E+04  0.68186877266E+03  0.23495135865E+03  0.13965136573E+04  0.12699999809E+01 0.  1.
       -4    1    3    3    0  502 -0.11958685622E+04 -0.68186877266E+03  0.65218345482E+03  0.15232831361E+04  0.12699999809E+01 0. -1.
</event>
<event>
 5   0  0.1065675E-06  0.2791991E+04  0.7818609E-02  0.8305759E-01
       -4   -1    0    0    0  501  0.00000000000E+00  0.00000000000E+00  0.10207350893E+04  0.10207358794E+04  0.12699999809E+01 0. -1.
        4   -1    0    0  501    0  0.00000000000E+00  0.00000000000E+00 -0.19092146140E+04  0.19092150364E+04  0.12699999809E+01 0.  1.
    10030    2    1    2    0    0  0.00000000000E+00  0.00000000000E+00 -0.88847952467E+03  0.29299509158E+04  0.27919914941E+04 0.  0.
        3    1    3    3  502    0 -0.88064621368E+03  0.76933099589E+03  0.35593037858E+03  0.12223315342E+04  0.10100000352E+00 0. -1.
       -3    1    3    3    0  502  0.88064621368E+03 -0.76933099589E+03 -0.12444099033E+04  0.17076193816E+04  0.10100000352E+00 0.  1.
</event>
<event>
 5   0  0.3162695E-06  0.2801903E+04  0.7818609E-02  0.8302678E-01
        2   -1    0    0  501    0  0.00000000000E+00  0.00000000000E+00  0.15967311045E+04  0.15967311045E+04  0.25500000920E-02 0.  1.
       -2   -1    0    0    0  501  0.00000000000E+00  0.00000000000E+00 -0.12291771561E+04  0.12291771561E+04  0.25500000920E-02 0. -1.
    10030    2    1    2    0    0  0.00000000000E+00  0.00000000000E+00  0.36755394841E+03  0.28259082606E+04  0.28019032089E+04 0.  0.
        1    1    3    3  502    0  0.72700286545E+03  0.10229173422E+04 -0.44427176126E+03  0.13312664847E+04  0.50400001928E-02 0. -1.
       -1    1    3    3    0  502 -0.72700286545E+03 -0.10229173422E+04  0.81182570967E+03  0.14946417759E+04  0.50400001928E-02 0.  1.
</event>
<event>
 5   0  0.3226364E-06  0.2814468E+04  0.7818609E-02  0.8298791E-01
        2   -1    0    0  501    0  0.00000000000E+00  0.00000000000E+00  0.20480309003E+04  0.20480309003E+04  0.25500000920E-02 0. -1.
       -2   -1    0    0    0  501  0.00000000000E+00  0.00000000000E+00 -0.96693240877E+03  0.96693240878E+03  0.25500000920E-02 0.  1.
    10030    2    1    2    0    0  0.00000000000E+00  0.00000000000E+00  0.10810984915E+04  0.30149633091E+04  0.28144679438E+04 0.  0.
        5    1    3    3  502    0 -0.11001675888E+04 -0.67172438004E+03  0.11453033126E+04  0.17243329533E+04  0.46999998093E+01 0. -1.
       -5    1    3    3    0  502  0.11001675888E+04  0.67172438004E+03 -0.64204821024E+02  0.12906303558E+04  0.46999998093E+01 0.  1.
</event>
<event>
 5   0  0.3212679E-06  0.2765632E+04  0.7818609E-02  0.8314018E-01
       -2   -1    0    0    0  501  0.00000000000E+00  0.00000000000E+00  0.20735817935E+04  0.20735817935E+04  0.25500000920E-02 0. -1.
        2   -1    0    0  501    0  0.00000000000E+00  0.00000000000E+00 -0.92216275013E+03  0.92216275014E+03  0.25500000920E-02 0.  1.
    10030    2    1    2    0    0  0.00000000000E+00  0.00000000000E+00  0.11514190434E+04  0.29957445436E+04  0.27656318550E+04 0.  0.
        4    1    3    3  502    0  0.84431959850E+03 -0.92060589622E+03 -0.66757137834E+02  0.12509392187E+04  0.12699999809E+01 0.  1.
       -4    1    3    3    0  502 -0.84431959850E+03  0.92060589622E+03  0.12181761812E+04  0.17448053249E+04  0.12699999809E+01 0. -1.
</event>
<event>
 5   0  0.1263513E-06  0.2743881E+04  0.7818609E-02  0.8320906E-01
        1   -1    0    0  501    0  0.00000000000E+00  0.00000000000E+00  0.16224951161E+04  0.16224951161E+04  0.50400001928E-02 0.  1.
       -1   -1    0    0    0  501  0.00000000000E+00  0.00000000000E+00 -0.11600780760E+04  0.11600780760E+04  0.50400001928E-02 0. -1.
    10030    2    1    2    0    0  0.00000000000E+00  0.00000000000E+00  0.46241704011E+03  0.27825731921E+04  0.27438812019E+04 0.  0.
        3    1    3    3  502    0 -0.17264609769E+03 -0.55217663382E+03  0.14927419600E+04  0.16009323157E+04  0.10100000352E+00 0.  1.
       -3    1    3    3    0  502  0.17264609769E+03  0.55217663382E+03 -0.10303249199E+04  0.11816408764E+04  0.10100000352E+00 0. -1.
</event>
<event>
 5   0  0.1263513E-06  0.2797409E+04  0.7818609E-02  0.8304073E-01
       -1   -1    0    0    0  501  0.00000000000E+00  0.00000000000E+00  0.11480695337E+04  0.11480695337E+04  0.50400001928E-02 0.  1.
        1   -1    0    0  501    0  0.00000000000E+00  0.00000000000E+00 -0.17040558072E+04  0.17040558072E+04  0.50400001928E-02 0. -1.
    10030    2    1    2    0    0  0.00000000000E+00  0.00000000000E+00 -0.55598627352E+03  0.28521253409E+04  0.27974091985E+04 0.  0.
        3    1    3    3  502    0  0.56124072742E+03  0.91424686838E+03  0.63707851344E+03  0.12476808618E+04  0.10100000352E+00 0.  1.
       -3    1    3    3    0  502 -0.56124072742E+03 -0.91424686838E+03 -0.11930647870E+04  0.16044444791E+04  0.10100000352E+00 0. -1.
</event>
<event>
 5   0  0.3167616E-06  0.2799429E+04  0.7818609E-02  0.8303446E-01
       -2   -1    0    0    0  501  0.00000000000E+00  0.00000000000E+00  0.10427425921E+04  0.10427425921E+04  0.25500000920E-02 0.  1.
        2   -1    0    0  501    0  0.00000000000E+00  0.00000000000E+00 -0.18788918320E+04  0.18788918320E+04  0.25500000920E-02 0. -1.
    10030    2    1    2    0    0  0.00000000000E+00  0.00000000000E+00 -0.83614923990E+03  0.29216344241E+04  0.27994288983E+04 0.  0.
        3    1    3    3  502    0  0.32104760474E+03 -0.97492482990E+03  0.57512548501E+03  0.11765710018E+04  0.10100000352E+00 0.  1.
       -3    1    3    3    0  502 -0.32104760474E+03  0.97492482990E+03 -0.14112747249E+04  0.17450634223E+04  0.10100000352E+00 0. -1.
</event>
<event>
 5   0  0.3212679E-06  0.2752619E+04  0.7818609E-02  0.8318131E-01
        2   -1    0    0  501    0  0.00000000000E+00  0.00000000000E+00  0.19986291650E+04  0.19986291650E+04  0.25500000920E-02 0.  1.
       -2   -1    0    0    0  501  0.00000000000E+00  0.00000000000E+00 -0.94776359623E+03  0.94776359623E+03  0.25500000920E-02 0. -1.
    10030    2    1    2    0    0  0.00000000000E+00  0.00000000000E+00  0.10508655688E+04  0.29463927613E+04  0.27526190910E+04 0.  0.
        4    1    3    3  502    0  0.76647655665E+03  0.66140653421E+02  0.17469819606E+04  0.19088762353E+04  0.12699999809E+01 0.  1.
       -4    1    3    3    0  502 -0.76647655665E+03 -0.66140653421E+02 -0.69611639180E+03  0.10375165260E+04  0.12699999809E+01 0. -1.
</event>
<event>
 5   0  0.1220265E-06  0.2795486E+04  0.7818609E-02  0.8304671E-01
       -1   -1    0    0    0  501  0.00000000000E+00  0.00000000000E+00  0.10544178845E+04  0.10544178845E+04  0.50400001928E-02 0. -1.
        1   -1    0    0  501    0  0.00000000000E+00  0.00000000000E+00 -0.18528574628E+04  0.18528574628E+04  0.50400001928E-02 0.  1.
    10030    2    1    2    0    0  0.00000000000E+00  0.00000000000E+00 -0.79843957829E+03  0.29072753472E+04  0.27954863950E+04 0.  0.
        4    1    3    3  502    0 -0.10710582655E+04 -0.15572056293E+03  0.52060910089E+03  0.12010204622E+04  0.12699999809E+01 0. -1.
       -4    1    3    3    0  502  0.10710582655E+04  0.15572056293E+03 -0.13190486792E+04  0.17062548850E+04  0.12699999809E+01 0.  1.
</event>
<event>
 5   0  0.1235252E-06  0.2808004E+04  0.7818609E-02  0.8300788E-01
        1   -1    0    0  501    0  0.00000000000E+00  0.00000000000E+00  0.14162356574E+04  0.14162356574E+04  0.50400001928E-02 0. -1.
       -1   -1    0    0    0  501  0.00000000000E+00  0.00000000000E+00 -0.13918741607E+04  0.13918741608E+04  0.50400001928E-02 0.  1.
    10030    2    1    2    0    0  0.00000000000E+00  0.00000000000E+00  0.24361496659E+02  0.28081098182E+04  0.28080041432E+04 0.  0.
        1    1    3    3  502    0  0.12629540324E+04 -0.58755272206E+03 -0.16375406246E+03  0.14025286029E+04  0.50400001928E-02 0.  1.
       -1    1    3    3    0  502 -0.12629540324E+04  0.58755272206E+03  0.18811555912E+03  0.14055812152E+04  0.50400001928E-02 0. -1.
</event>
<event>
 5   0  0.1246044E-06  0.2792788E+04  0.7818609E-02  0.8305511E-01
       -1   -1    0    0    0  501  0.00000000000E+00  0.00000000000E+00  0.11477877221E+04  0.11477877221E+04  0.50400001928E-02 0.  1.
        1   -1    0    0  501    0  0.00000000000E+00  0.00000000000E+00 -0.16988468293E+04  0.16988468293E+04  0.50400001928E-02 0. -1.
    10030    2    1    2    0    0  0.00000000000E+00  0.00000000000E+00 -0.55105910725E+03  0.28466345514E+04  0.27927875196E+04 0.  0.
        2    1    3    3  502    0 -0.93067431352E+03  0.68756015895E+03  0.52122068688E+03  0.12690802396E+04  0.25500000920E-02 0. -1.
       -2    1    3    3    0  502  0.93067431352E+03 -0.68756015895E+03 -0.10722797941E+04  0.15775543119E+04  0.25500000920E-02 0.  1.
</event>
<event>
 5   0  0.3212679E-06  0.2787936E+04  0.7818609E-02  0.8307023E-01
        2   -1    0    0  501    0  0.00000000000E+00  0.00000000000E+00  0.13818246125E+04  0.13818246125E+04  0.25500000920E-02 0. -1.
       -2   -1    0    0    0  501  0.00000000000E+00  0.00000000000E+00 -0.14062185264E+04  0.14062185264E+04  0.25500000920E-02 0.  1.
    10030    2    1    2    0    0  0.00000000000E+00  0.00000000000E+00 -0.24393913836E+02  0.27880431389E+04  0.27879364199E+04 0.  0.
        4    1    3    3  502    0 -0.10696866774E+03  0.13747673160E+04  0.19206141433E+03  0.13922344159E+04  0.12699999809E+01 0. -1.
       -4    1    3    3    0  502  0.10696866774E+03 -0.13747673160E+04 -0.21645532817E+03  0.13958087230E+04  0.12699999809E+01 0.  1.
</event>
<event>
 5   0  0.3212679E-06  0.2797488E+04  0.7818609E-02  0.8304049E-01
       -2   -1    0    0    0  501  0.00000000000E+00  0.00000000000E+00  0.15952656206E+04  0.15952656206E+04  0.25500000920E-02 0. -1.
        2   -1    0    0  501    0  0.00000000000E+00  0.00000000000E+00 -0.12264322025E+04  0.12264322025E+04  0.25500000920E-02 0.  1.
    10030    2    1    2    0    0  0.00000000000E+00  0.00000000000E+00  0.36883341808E+03  0.28216978231E+04  0.27974882510E+04 0.  0.
        4    1    3    3  502    0 -0.10935594797E+04  0.39559928162E+03  0.96838970347E+03  0.15133246043E+04  0.12699999809E+01 0. -1.
       -4    1    3    3    0  502  0.10935594797E+04 -0.39559928162E+03 -0.59955628539E+03  0.13083732188E+04  0.12699999809E+01 0.  1.
</event>
<event>
 5   0  0.3226364E-06  0.2793523E+04  0.7818609E-02  0.8305282E-01
        2   -1    0    0  501    0  0.00000000000E+00  0.00000000000E+00  0.16401108189E+04  0.16401108189E+04  0.25500000920E-02 0.  1.
       -2   -1    0    0    0  501  0.00000000000E+00  0.00000000000E+00 -0.11895184638E+04  0.11895184638E+04  0.25500000920E-02 0. -1.
    10030    2    1    2    0    0  0.00000000000E+00  0.00000000000E+00  0.45059235508E+03  0.28296292828E+04  0.27935225804E+04 0.  0.
        5    1    3    3  502    0  0.56412338609E+03  0.12560314769E+04  0.46299875589E+03  0.14526665838E+04  0.46999998093E+01 0.  1.
       -5    1    3    3    0  502 -0.56412338609E+03 -0.12560314769E+04 -0.12406400809E+02  0.13769626990E+04  0.46999998093E+01 0. -1.
</event>
<event>
 5   0  0.1263513E-06  0.2804893E+04  0.7818609E-02  0.8301751E-01
       -1   -1    0    0    0  501  0.00000000000E+00  0.00000000000E+00  0.15552588891E+04  0.15552588891E+04  0.50400001928E-02 0.  1.
        1   -1    0    0  501    0  0.00000000000E+00  0.00000000000E+00 -0.12646485638E+04  0.12646485638E+04  0.50400001928E-02 0. -1.
    10030    2    1    2    0    0  0.00000000000E+00  0.00000000000E+00  0.29061032536E+03  0.28199074529E+04  0.28048928111E+04 0.  0.
        3    1    3    3  502    0  0.70282593693E+03 -0.11755257946E+04  0.44863321189E+03  0.14412137109E+04  0.10100000352E+00 0.  1.
       -3    1    3    3    0  502 -0.70282593693E+03  0.11755257946E+04 -0.15802288653E+03  0.13786937420E+04  0.10100000352E+00 0. -1.
</event>
<event>
 5   0  0.1246044E-06  0.2795226E+04  0.7818609E-02  0.8304752E-01
        1   -1    0    0  501    0  0.00000000000E+00  0.00000000000E+00  0.22887240341E+04  0.22887240341E+04  0.50400001928E-02 0. -1.
       -1   -1    0    0    0  501  0.00000000000E+00  0.00000000000E+00 -0.85345435920E+03  0.85345435921E+03  0.50400001928E-02 0.  1.
    10030    2    1    2    0    0  0.00000000000E+00  0.00000000000E+00  0.14352696749E+04  0.31421783934E+04  0.27952255751E+04 0.  0.
        2    1    3    3  502    0 -0.47814685997E+03  0.67474546623E+03 -0.54889638097E+03  0.99256894015E+03  0.25500000920E-02 0.  1.
       -2    1    3    3    0  502  0.47814685997E+03 -0.67474546623E+03  0.19841660559E+04  0.21496094532E+04  0.25500000920E-02 0. -1.
</event>
<event>
 5   0  0.3162695E-06  0.2807233E+04  0.7818609E-02  0.8301026E-01
        2   -1    0    0  501    0  0.00000000000E+00  0.00000000000E+00  0.18458545844E+04  0.18458545844E+04  0.25500000920E-02 0.  1.
       -2   -1    0    0    0  501  0.00000000000E+00  0.00000000000E+00 -0.10673319429E+04  0.10673319429E+04  0.25500000920E-02 0. -1.
    10030    2    1    2    0    0  0.00000000000E+00  0.00000000000E+00  0.77852264154E+03  0.29131865273E+04  0.28072332000E+04 0.  0.
        1    1    3    3  502    0  0.87135404270E+03  0.10330299532E+04  0.78268884013E+03  0.15617331950E+04  0.50400001928E-02 0.  1.
       -1    1    3    3    0  502 -0.87135404270E+03 -0.10330299532E+04 -0.41661985933E+01  0.13514533322E+04  0.50400001928E-02 0. -1.
</event>
<event>
 5   0  0.1220265E-06  0.2788865E+04  0.7818609E-02  0.8306734E-01
        1   -1    0    0  501    0  0.00000000000E+00  0.00000000000E+00  0.26914222115E+04  0.26914222115E+04  0.50400001928E-02 0.  1.
       -1   -1    0    0    0  501  0.00000000000E+00  0.00000000000E+00 -0.72245869866E+03  0.72245869867E+03  0.50400001928E-02 0. -1.
    10030    2    1    2    0    0  0.00000000000E+00  0.00000000000E+00  0.19689635129E+04  0.34138809102E+04  0.27888645636E+04 0.  0.
        4    1    3    3  502    0 -0.10585199080E+04  0.19643954476E+03 -0.10035093849E+03  0.10812607521E+04  0.12699999809E+01 0. -1.
       -4    1    3    3    0  502  0.10585199080E+04 -0.19643954476E+03  0.20693144514E+04  0.23326201581E+04  0.12699999809E+01 0.  1.
</event>
<event>
 5   0  0.3162695E-06  0.2810412E+04  0.7818609E-02  0.8300043E-01
       -2   -1    0    0    0  501  0.00000000000E+00  0.00000000000E+00  0.11762859870E+04  0.11762859870E+04  0.25500000920E-02 0.  1.
        2   -1    0    0  501    0  0.00000000000E+00  0.00000000000E+00 -0.16786763349E+04  0.16786763349E+04  0.25500000920E-02 0. -1.
    10030    2    1    2    0    0  0.00000000000E+00  0.00000000000E+00 -0.50239034794E+03  0.28549623219E+04  0.28104116777E+04 0.  0.
        1    1    3    3  502    0 -0.42826361252E+03  0.10133149788E+04 -0.11393464387E+04  0.15837699566E+04  0.50400001928E-02 0. -1.
       -1    1    3    3    0  502  0.42826361252E+03 -0.10133149788E+04  0.63695609075E+03  0.12711923653E+04  0.50400001928E-02 0.  1.
</event>
<event>
 5   0  0.3345919E-06  0.2790595E+04  0.7818609E-02  0.8306194E-01
       -2   -1    0    0    0  501  0.00000000000E+00  0.00000000000E+00  0.94521988381E+03  0.94521988381E+03  0.25500000920E-02 0. -1.
        2   -1    0    0  501    0  0.00000000000E+00  0.00000000000E+00 -0.20596856222E+04  0.20596856222E+04  0.25500000920E-02 0.  1.
    10030    2    1    2    0    0  0.00000000000E+00  0.00000000000E+00 -0.11144657384E+04  0.30049055060E+04  0.27905954952E+04 0.  0.
        2    1    3    3  502    0 -0.11642489563E+03  0.60557428177E+03  0.79052021892E+03  0.10025952242E+04  0.25500000920E-02 0. -1.
       -2    1    3    3    0  502  0.11642489563E+03 -0.60557428177E+03 -0.19049859573E+04  0.20023102818E+04  0.25500000920E-02 0.  1.
</event>
<event>
 5   0  0.1220265E-06  0.2780194E+04  0.7818609E-02  0.8309444E-01
        1   -1    0    0  501    0  0.00000000000E+00  0.00000000000E+00  0.13281634014E+04  0.13281634014E+04  0.50400001928E-02 0. -1.
       -1   -1    0    0    0  501  0.00000000000E+00  0.00000000000E+00 -0.14549189132E+04  0.14549189132E+04  0.50400001928E-02 0.  1.
    10030    2    1    2    0    0  0.00000000000E+00  0.00000000000E+00 -0.12675551183E+03  0.27830823147E+04  0.27801942757E+04 0.  0.
        4    1    3    3  502    0  0.44611051074E+03 -0.22189818564E+03 -0.13624604128E+04  0.14507078899E+04  0.12699999809E+01 0.  1.
       -4    1    3    3    0  502 -0.44611051074E+03  0.22189818564E+03  0.12357049009E+04  0.13323744247E+04  0.12699999809E+01 0. -1.
</event>
<event>
 5   0  0.3212679E-06  0.2798062E+04  0.7818609E-02  0.8303870E-01
       -2   -1    0    0    0  501  0.00000000000E+00  0.00000000000E+00  0.11962812047E+04  0.11962812047E+04  0.25500000920E-02 0. -1.
        2   -1    0    0  501    0  0.00000000000E+00  0.00000000000E+00 -0.16361431644E+04  0.16361431644E+04  0.25500000920E-02 0.  1.
    10030    2    1    2    0    0  0.00000000000E+00  0.00000000000E+00 -0.43986195970E+03  0.28324243691E+04  0.27980616975E+04 0.  0.
        4    1    3    3  502    0  0.55715340661E+03 -0.36843900348E+03  0.10244412049E+04  0.12229671349E+04  0.12699999809E+01 0. -1.
       -4    1    3    3    0  502 -0.55715340661E+03  0.36843900348E+03 -0.14643031646E+04  0.16094572342E+04  0.12699999809E+01 0.  1.
</event>
<event>
 5   0  0.1263513E-06  0.2793338E+04  0.7818609E-02  0.8305340E-01
        1   -1    0    0  501    0  0.00000000000E+00  0.00000000000E+00  0.22518706428E+04  0.22518706428E+04  0.50400001928E-02 0. -1.
       -1   -1    0    0    0  501  0.00000000000E+00  0.00000000000E+00 -0.86625030361E+03  0.86625030363E+03  0.50400001928E-02 0.  1.
    10030    2    1    2    0    0  0.00000000000E+00  0.00000000000E+00  0.13856203392E+04  0.31181209465E+04  0.27933375221E+04 0.  0.
        3    1    3    3  502    0 -0.44996582394E+03  0.51428182799E+03 -0.66690133506E+03  0.95483634316E+03  0.10100000352E+00 0.  1.
       -3    1    3    3    0  502  0.44996582394E+03 -0.51428182799E+03  0.20525216743E+04  0.21632846033E+04  0.10100000352E+00 0. -1.
</event>
<event>
 5   0  0.3226364E-06  0.2795671E+04  0.7818609E-02  0.8304614E-01
        2   -1    0    0  501    0  0.00000000000E+00  0.00000000000E+00  0.17218568489E+04  0.17218568489E+04  0.25500000920E-02 0.  1.
       -2   -1    0    0    0  501  0.00000000000E+00  0.00000000000E+00 -0.11347890646E+04  0.11347890646E+04  0.25500000920E-02 0. -1.
    10030    2    1    2    0    0  0.00000000000E+00  0.00000000000E+00  0.58706778438E+03  0.28566459135E+04  0.27956711702E+04 0.  0.
        5    1    3    3  502    0  0.50043692535E+03  0.15695637193E+03  0.16174981097E+04  0.17004101399E+04  0.46999998093E+01 0.  1.
       -5    1    3    3    0  502 -0.50043692535E+03 -0.15695637193E+03 -0.10304303253E+04  0.11562357736E+04  0.46999998093E+01 0. -1.
</event>
<event>
 5   0  0.3226364E-06  0.2806693E+04  0.7818609E-02  0.8301193E-01
       -2   -1    0    0    0  501  0.00000000000E+00  0.00000000000E+00  0.11682234600E+04  0.11682234600E+04  0.25500000920E-02 0.  1.
        2   -1    0    0  501    0  0.00000000000E+00  0.00000000000E+00 -0.16857920160E+04  0.16857920160E+04  0.25500000920E-02 0. -1.
    10030    2    1    2    0    0  0.00000000000E+00  0.00000000000E+00 -0.51756855594E+03  0.28540154760E+04  0.28066932727E+04 0.  0.
        5    1    3    3  502    0 -0.15019372137E+03  0.43188043153E+03  0.10903412184E+04  0.11823472094E+04  0.46999998093E+01 0.  1.
       -5    1    3    3    0  502  0.15019372137E+03 -0.43188043153E+03 -0.16079097743E+04  0.16716682666E+04  0.46999998093E+01 0. -1.
</event>
<event>
 5   0  0.3162695E-06  0.2794955E+04  0.7818609E-02  0.8304836E-01
        2   -1    0    0  501    0  0.00000000000E+00  0.00000000000E+00  0.13901812147E+04  0.13901812147E+04  0.25500000920E-02 0. -1.
       -2   -1    0    0    0  501  0.00000000000E+00  0.00000000000E+00 -0.14048119561E+04  0.14048119561E+04  0.25500000920E-02 0.  1.
    10030    2    1    2    0    0  0.00000000000E+00  0.00000000000E+00 -0.14630741388E+02  0.27949931708E+04  0.27949548773E+04 0.  0.
        1    1    3    3  502    0  0.60735547469E+03 -0.77932877841E+03 -0.99561488902E+03  0.14026699629E+04  0.50400001928E-02 0.  1.
       -1    1    3    3    0  502 -0.60735547469E+03  0.77932877841E+03  0.98098414763E+03  0.13923232080E+04  0.50400001928E-02 0. -1.
</event>
<event>
 5   0  0.1220265E-06  0.2798672E+04  0.7818609E-02  0.8303681E-01
       -1   -1    0    0    0  501  0.00000000000E+00  0.00000000000E+00  0.14295932395E+04  0.14295932395E+04  0.50400001928E-02 0.  1.
        1   -1    0    0  501    0  0.00000000000E+00  0.00000000000E+00 -0.13697195630E+04  0.13697195631E+04  0.50400001928E-02 0. -1.
    10030    2    1    2    0    0  0.00000000000E+00  0.00000000000E+00  0.59873676457E+02  0.27993128026E+04  0.27986724191E+04 0.  0.
        4    1    3    3  502    0 -0.10946040903E+04 -0.56516441266E+03  0.69384415855E+03  0.14138565193E+04  0.12699999809E+01 0.  1.
       -4    1    3    3    0  502  0.10946040903E+04  0.56516441266E+03 -0.63397048210E+03  0.13854562833E+04  0.12699999809E+01 0. -1.
</event>
<event>
 5   0  0.1263513E-06  0.2804180E+04  0.7818609E-02  0.8301972E-01
       -1   -1    0    0    0  501  0.00000000000E+00  0.00000000000E+00  0.10529437036E+04  0.10529437036E+04  0.50400001928E-02 0. -1.
        1   -1    0    0  501    0  0.00000000000E+00  0.00000000000E+00 -0.18670094803E+04  0.18670094803E+04  0.50400001928E-02 0.  1.
    10030    2    1    2    0    0  0.00000000000E+00  0.00000000000E+00 -0.81406577665E+03  0.29199531839E+04  0.28041796497E+04 0.  0.
        3    1    3    3  502    0  0.39922626147E+03 -0.63111652303E+03 -0.16426872656E+04  0.18044697660E+04  0.10100000352E+00 0.  1.
       -3    1    3    3    0  502 -0.39922626147E+03  0.63111652303E+03  0.82862148898E+03  0.11154834179E+04  0.10100000352E+00 0. -1.
</event>
<event>
 5   0  0.1263513E-06  0.2799579E+04  0.7818609E-02  0.8303399E-01
       -1   -1    0    0    0  501  0.00000000000E+00  0.00000000000E+00  0.13313120605E+04  0.13313120605E+04  0.50400001928E-02 0.  1.
        1   -1    0    0  501    0  0.00000000000E+00  0.00000000000E+00 -0.14717889888E+04  0.14717889888E+04  0.50400001928E-02 0. -1.
    10030    2    1    2    0    0  0.00000000000E+00  0.00000000000E+00 -0.14047692829E+03  0.28031010494E+04  0.27995788479E+04 0.  0.
        3    1    3    3  502    0  0.85041520156E+03  0.56076321337E+03  0.89104704099E+03  0.13533758665E+04  0.10100000352E+00 0. -1.
       -3    1    3    3    0  502 -0.85041520156E+03 -0.56076321337E+03 -0.10315239693E+04  0.14497251829E+04  0.10100000352E+00 0.  1.
</event>
<event>
 5   0  0.3212679E-06  0.2796636E+04  0.7818609E-02  0.8304313E-01
       -2   -1    0    0    0  501  0.00000000000E+00  0.00000000000E+00  0.10029994516E+04  0.10029994516E+04  0.25500000920E-02 0. -1.
        2   -1    0    0  501    0  0.00000000000E+00  0.00000000000E+00 -0.19494460098E+04  0.19494460098E+04  0.25500000920E-02 0.  1.
    10030    2    1    2    0    0  0.00000000000E+00  0.00000000000E+00 -0.94644655819E+03  0.29524454613E+04  0.27966360354E+04 0.  0.
        4    1    3    3  502    0  0.10219683793E+04  0.95374361405E+03 -0.43596668265E+03  0.14642796218E+04  0.12699999809E+01 0.  1.
       -4    1    3    3    0  502 -0.10219683793E+04 -0.95374361405E+03 -0.51047987554E+03  0.14881658395E+04  0.12699999809E+01 0. -1.
</event>
<event>
 5   0  0.1243055E-06  0.2799614E+04  0.7818609E-02  0.8303388E-01
        1   -1    0    0  501    0  0.00000000000E+00  0.00000000000E+00  0.94136946912E+03  0.94136946914E+03  0.50400001928E-02 0. -1.
       -1   -1    0    0    0  501  0.00000000000E+00  0.00000000000E+00 -0.20814984261E+04  0.20814984261E+04  0.50400001928E-02 0.  1.
    10030    2    1    2    0    0  0.00000000000E+00  0.00000000000E+00 -0.11401289570E+04  0.30228678952E+04  0.27996135936E+04 0.  0.
        5    1    3    3  502    0 -0.24486225281E+03 -0.85356313263E+03 -0.17384407468E+04  0.19521080566E+04  0.46999998093E+01 0.  1.
       -5    1    3    3    0  502  0.24486225281E+03  0.85356313263E+03  0.59831178987E+03  0.10707598387E+04  0.46999998093E+01 0. -1.
</event>
<event>
 5   0  0.1220265E-06  0.2798802E+04  0.7818609E-02  0.8303640E-01
        1   -1    0    0  501    0  0.00000000000E+00  0.00000000000E+00  0.14024170492E+04  0.14024170492E+04  0.50400001928E-02 0.  1.
       -1   -1    0    0    0  501  0.00000000000E+00  0.00000000000E+00 -0.13963919233E+04  0.13963919233E+04  0.50400001928E-02 0. -1.
    10030    2    1    2    0    0  0.00000000000E+00  0.00000000000E+00  0.60251258421E+01  0.27988089725E+04  0.27988024872E+04 0.  0.
        4    1    3    3  502    0  0.12691694255E+04  0.17655981969E+03 -0.55944569619E+03  0.13981936563E+04  0.12699999809E+01 0. -1.
       -4    1    3    3    0  502 -0.12691694255E+04 -0.17655981969E+03  0.56547082203E+03  0.14006153162E+04  0.12699999809E+01 0.  1.
</event>
<event>
 5   0  0.1246044E-06  0.2834354E+04  0.7818609E-02  0.8292682E-01
        1   -1    0    0  501    0  0.00000000000E+00  0.00000000000E+00  0.20612417883E+04  0.20612417883E+04  0.50400001928E-02 0. -1.
       -1   -1    0    0    0  501  0.00000000000E+00  0.00000000000E+00 -0.97435926648E+03  0.97435926650E+03  0.50400001928E-02 0.  1.
    10030    2    1    2    0    0  0.00000000000E+00  0.00000000000E+00  0.10868825218E+04  0.30356010548E+04  0.28343535679E+04 0.  0.
        2    1    3    3  502    0  0.12027675163E+04  0.79684211227E+02  0.13416013310E+04  0.18035779448E+04  0.25500000920E-02 0. -1.
       -2    1    3    3    0  502 -0.12027675163E+04 -0.79684211227E+02 -0.25471880922E+03  0.12320231100E+04  0.25500000920E-02 0.  1.
</event>
<event>
 5   0  0.3167616E-06  0.2800759E+04  0.7818609E-02  0.8303033E-01
        2   -1    0    0  501    0  0.00000000000E+00  0.00000000000E+00  0.13831096569E+04  0.13831096569E+04  0.25500000920E-02 0.  1.
       -2   -1    0    0    0  501  0.00000000000E+00  0.00000000000E+00 -0.14178651879E+04  0.14178651879E+04  0.25500000920E-02 0. -1.
    10030    2    1    2    0    0  0.00000000000E+00  0.00000000000E+00 -0.34755530966E+02  0.28009748448E+04  0.28007592068E+04 0.  0.
        3    1    3    3  502    0  0.86300645446E+03  0.11005631324E+04 -0.88402064903E+02  0.14013687181E+04  0.10100000352E+00 0. -1.
       -3    1    3    3    0  502 -0.86300645446E+03 -0.11005631324E+04  0.53646533937E+02  0.13996061266E+04  0.10100000352E+00 0.  1.
</event>
<event>
 5   0  0.3212679E-06  0.2811662E+04  0.7818609E-02  0.8299657E-01
        2   -1    0    0  501    0  0.00000000000E+00  0.00000000000E+00  0.13692780272E+04  0.13692780272E+04  0.25500000920E-02 0. -1.
       -2   -1    0    0    0  501  0.00000000000E+00  0.00000000000E+00 -0.14433595015E+04  0.14433595015E+04  0.25500000920E-02 0.  1.
    10030    2    1    2    0    0  0.00000000000E+00  0.00000000000E+00 -0.74081474327E+02  0.28126375288E+04  0.28116617512E+04 0.  0.
        4    1    3    3  502    0  0.12069214273E+04  0.32310472326E+03 -0.68170433395E+03  0.14232984246E+04  0.12699999809E+01 0. -1.
       -4    1    3    3    0  502 -0.12069214273E+04 -0.32310472326E+03  0.60762285962E+03  0.13893391041E+04  0.12699999809E+01 0.  1.
</event>
<event>
 5   0  0.3162695E-06  0.2798878E+04  0.7818609E-02  0.8303617E-01
       -2   -1    0    0    0  501  0.00000000000E+00  0.00000000000E+00  0.97443761319E+03  0.97443761320E+03  0.25500000920E-02 0.  1.
        2   -1    0    0  501    0  0.00000000000E+00  0.00000000000E+00 -0.20098052078E+04  0.20098052078E+04  0.25500000920E-02 0. -1.
    10030    2    1    2    0    0  0.00000000000E+00  0.00000000000E+00 -0.10353675946E+04  0.29842428210E+04  0.27988781965E+04 0.  0.
        1    1    3    3  502    0 -0.94805292121E+02 -0.13017609228E+04 -0.10559550770E+04  0.16788718439E+04  0.50400001928E-02 0.  1.
       -1    1    3    3    0  502  0.94805292121E+02  0.13017609228E+04  0.20587482395E+02  0.13053709771E+04  0.50400001928E-02 0. -1.
</event>
<event>
 5   0  0.3167616E-06  0.2800189E+04  0.7818609E-02  0.8303210E-01
        2   -1    0    0  501    0  0.00000000000E+00  0.00000000000E+00  0.15848484250E+04  0.15848484250E+04  0.25500000920E-02 0.  1.
       -2   -1    0    0    0  501  0.00000000000E+00  0.00000000000E+00 -0.12368780357E+04  0.12368780357E+04  0.25500000920E-02 0. -1.
    10030    2    1    2    0    0  0.00000000000E+00  0.00000000000E+00  0.34797038921E+03  0.28217264607E+04  0.28001887128E+04 0.  0.
        3    1    3    3  502    0  0.27558508577E+03  0.70150279465E+03 -0.10150100640E+04  0.12642384073E+04  0.10100000352E+00 0. -1.
       -3    1    3    3    0  502 -0.27558508577E+03 -0.70150279465E+03  0.13629804532E+04  0.15574880534E+04  0.10100000352E+00 0.  1.
</event>
<event>
 5   0  0.1243055E-06  0.2792049E+04  0.7818609E-02  0.8305741E-01
       -1   -1    0    0    0  501  0.00000000000E+00  0.00000000000E+00  0.95181831713E+03  0.95181831714E+03  0.50400001928E-02 0. -1.
        1   -1    0    0  501    0  0.00000000000E+00  0.00000000000E+00 -0.20475378672E+04  0.20475378672E+04  0.50400001928E-02 0.  1.
    10030    2    1    2    0    0  0.00000000000E+00  0.00000000000E+00 -0.10957195501E+04  0.29993561844E+04  0.27920487439E+04 0.  0.
        5    1    3    3  502    0  0.62711394406E+03  0.12433745587E+04 -0.44255175926E+03  0.14612071522E+04  0.46999998093E+01 0.  1.
       -5    1    3    3    0  502 -0.62711394406E+03 -0.12433745587E+04 -0.65316779082E+03  0.15381490321E+04  0.46999998093E+01 0. -1.
</event>
<event>
 5   0  0.1220265E-06  0.2787915E+04  0.7818609E-02  0.8307030E-01
        1   -1    0    0  501    0  0.00000000000E+00  0.00000000000E+00  0.22486822130E+04  0.22486822130E+04  0.50400001928E-02 0.  1.
       -1   -1    0    0    0  501  0.00000000000E+00  0.00000000000E+00 -0.86411394507E+03  0.86411394508E+03  0.50400001928E-02 0. -1.
    10030    2    1    2    0    0  0.00000000000E+00  0.00000000000E+00  0.13845682680E+04  0.31127961581E+04  0.27879151051E+04 0.  0.
        4    1    3    3  502    0 -0.25200760263E+03 -0.47833184437E+02  0.22221040605E+04  0.22368602804E+04  0.12699999809E+01 0.  1.
       -4    1    3    3    0  502  0.25200760263E+03  0.47833184437E+02 -0.83753579251E+03  0.87593587777E+03  0.12699999809E+01 0. -1.
</event>
<event>
 5   0  0.1243055E-06  0.2783786E+04  0.7818609E-02  0.8308320E-01
       -1   -1    0    0    0  501  0.00000000000E+00  0.00000000000E+00  0.93416070430E+03  0.93416070431E+03  0.50400001928E-02 0. -1.
        1   -1    0    0  501    0  0.00000000000E+00  0.00000000000E+00 -0.20739116001E+04  0.20739116001E+04  0.50400001928E-02 0.  1.
    10030    2    1    2    0    0  0.00000000000E+00  0.00000000000E+00 -0.11397508958E+04  0.30080723044E+04  0.27837864293E+04 0.  0.
        5    1    3    3  502    0 -0.32526633758E+03  0.65851442765E+03 -0.18474646019E+04  0.19881114122E+04  0.46999998093E+01 0.  1.
       -5    1    3    3    0  502  0.32526633758E+03 -0.65851442765E+03  0.70771370616E+03  0.10199608922E+04  0.46999998093E+01 0. -1.
</event>
<event>
 5   0  0.1263513E-06  0.2799464E+04  0.7818609E-02  0.8303435E-01
        1   -1    0    0  501    0  0.00000000000E+00  0.00000000000E+00  0.11202737836E+04  0.11202737836E+04  0.50400001928E-02 0. -1.
       -1   -1    0    0    0  501  0.00000000000E+00  0.00000000000E+00 -0.17489024643E+04  0.17489024643E+04  0.50400001928E-02 0.  1.
    10030    2    1    2    0    0  0.00000000000E+00  0.00000000000E+00 -0.62862868077E+03  0.28691762479E+04  0.27994639350E+04 0.  0.
        3    1    3    3  502    0 -0.28081111085E+03 -0.87195363012E+03  0.77038434032E+03  0.11969336051E+04  0.10100000352E+00 0. -1.
       -3    1    3    3    0  502  0.28081111085E+03  0.87195363012E+03 -0.13990130211E+04  0.16722426428E+04  0.10100000352E+00 0.  1.
</event>
<event>
 5   0  0.3212679E-06  0.2792479E+04  0.7818609E-02  0.8305607E-01
       -2   -1    0    0    0  501  0.00000000000E+00  0.00000000000E+00  0.76602682004E+03  0.76602682004E+03  0.25500000920E-02 0. -1.
        2   -1    0    0  501    0  0.00000000000E+00  0.00000000000E+00 -0.25449298460E+04  0.25449298460E+04  0.25500000920E-02 0.  1.
    10030    2    1    2    0    0  0.00000000000E+00  0.00000000000E+00 -0.17789030259E+04  0.33109566660E+04  0.27924788394E+04 0.  0.
        4    1    3    3  502    0 -0.57470920077E+03 -0.48396848223E+03 -0.22848019057E+04  0.24051689168E+04  0.12699999809E+01 0.  1.
       -4    1    3    3    0  502  0.57470920077E+03  0.48396848223E+03  0.50589887973E+03  0.90578774923E+03  0.12699999809E+01 0. -1.
</event>
<event>
 5   0  0.3162695E-06  0.2791374E+04  0.7818609E-02  0.8305951E-01
       -2   -1    0    0    0  501  0.00000000000E+00  0.00000000000E+00  0.17439436958E+04  0.17439436958E+04  0.25500000920E-02 0. -1.
        2   -1    0    0  501    0  0.00000000000E+00  0.00000000000E+00 -0.11169753611E+04  0.11169753611E+04  0.25500000920E-02 0.  1.
    10030    2    1    2    0    0  0.00000000000E+00  0.00000000000E+00  0.62696833470E+03  0.28609190568E+04  0.27913739551E+04 0.  0.
        1    1    3    3  502    0  0.99207885061E+03  0.83892015596E+03 -0.20905596320E+03  0.13159452381E+04  0.50400001928E-02 0.  1.
       -1    1    3    3    0  502 -0.99207885061E+03 -0.83892015596E+03  0.83602429790E+03  0.15449738187E+04  0.50400001928E-02 0. -1.
</event>
<event>
 5   0  0.3212679E-06  0.2795584E+04  0.7818609E-02  0.8304641E-01
        2   -1    0    0  501    0  0.00000000000E+00  0.00000000000E+00  0.21002056275E+04  0.21002056275E+04  0.25500000920E-02 0. -1.
       -2   -1    0    0    0  501  0.00000000000E+00  0.00000000000E+00 -0.93030058387E+03  0.93030058387E+03  0.25500000920E-02 0.  1.
    10030    2    1    2    0    0  0.00000000000E+00  0.00000000000E+00  0.11699050436E+04  0.30305062114E+04  0.27955840331E+04 0.  0.
        4    1    3    3  502    0  0.97033043804E+03 -0.46558329214E+03  0.15518178361E+04  0.18885044798E+04  0.12699999809E+01 0. -1.
       -4    1    3    3    0  502 -0.97033043804E+03  0.46558329214E+03 -0.38191279249E+03  0.11420017316E+04  0.12699999809E+01 0.  1.
</event>
<event>
 5   0  0.1263513E-06  0.2801399E+04  0.7818609E-02  0.8302834E-01
        1   -1    0    0  501    0  0.00000000000E+00  0.00000000000E+00  0.21607483797E+04  0.21607483798E+04  0.50400001928E-02 0.  1.
       -1   -1    0    0    0  501  0.00000000000E+00  0.00000000000E+00 -0.90799951978E+03  0.90799951980E+03  0.50400001928E-02 0. -1.
    10030    2    1    2    0    0  0.00000000000E+00  0.00000000000E+00  0.12527488600E+04  0.30687478996E+04  0.28013985730E+04 0.  0.
        3    1    3    3  502    0 -0.12937442370E+04  0.35690319779E+03  0.10656482531E+04  0.17136978301E+04  0.10100000352E+00 0.  1.
       -3    1    3    3    0  502  0.12937442370E+04 -0.35690319779E+03  0.18710060684E+03  0.13550500694E+04  0.10100000352E+00 0. -1.
</event>
<event>
 5   0  0.3167616E-06  0.2788264E+04  0.7818609E-02  0.8306921E-01
       -2   -1    0    0    0  501  0.00000000000E+00  0.00000000000E+00  0.11872887878E+04  0.11872887878E+04  0.25500000920E-02 0.  1.
        2   -1    0    0  501    0  0.00000000000E+00  0.00000000000E+00 -0.16370103815E+04  0.16370103815E+04  0.25500000920E-02 0. -1.
    10030    2    1    2    0    0  0.00000000000E+00  0.00000000000E+00 -0.44972159363E+03  0.28242991693E+04  0.27882640273E+04 0.  0.
        3    1    3    3  502    0 -0.52137833922E+03  0.12831401838E+04 -0.63681859802E+02  0.13864845810E+04  0.10100000352E+00 0.  1.
       -3    1    3    3    0  502  0.52137833922E+03 -0.12831401838E+04 -0.38603973383E+03  0.14378145883E+04  0.10100000352E+00 0. -1.
</event>
<event>
 5   0  0.3226364E-06  0.2783071E+04  0.7818609E-02  0.8308543E-01
       -2   -1    0    0    0  501  0.00000000000E+00  0.00000000000E+00  0.18817048908E+04  0.18817048908E+04  0.25500000920E-02 0. -1.
        2   -1    0    0  501    0  0.00000000000E+00  0.00000000000E+00 -0.10290515890E+04  0.10290515890E+04  0.25500000920E-02 0.  1.
    10030    2    1    2    0    0  0.00000000000E+00  0.00000000000E+00  0.85265330173E+03  0.29107564798E+04  0.27830712588E+04 0.  0.
        5    1    3    3  502    0  0.61083740398E+02 -0.66506841954E+03  0.17031143859E+04  0.18293900425E+04  0.46999998093E+01 0. -1.
       -5    1    3    3    0  502 -0.61083740398E+02  0.66506841954E+03 -0.85046108419E+03  0.10813664373E+04  0.46999998093E+01 0.  1.
</event>
<event>
 5   0  0.3162695E-06  0.2789065E+04  0.7818609E-02  0.8306671E-01
        2   -1    0    0  501    0  0.00000000000E+00  0.00000000000E+00  0.24989566342E+04  0.24989566342E+04  0.25500000920E-02 0. -1.
       -2   -1    0    0    0  501  0.00000000000E+00  0.00000000000E+00 -0.77821315129E+03  0.77821315130E+03  0.25500000920E-02 0.  1.
    10030    2    1    2    0    0  0.00000000000E+00  0.00000000000E+00  0.17207434829E+04  0.32771697855E+04  0.27890650170E+04 0.  0.
        1    1    3    3  502    0 -0.35645559840E+03  0.36310854681E+03 -0.66524322134E+03  0.83753027047E+03  0.50400001928E-02 0.  1.
       -1    1    3    3    0  502  0.35645559840E+03 -0.36310854681E+03  0.23859867042E+04  0.24396395150E+04  0.50400001928E-02 0. -1.
</event>
<event>
 5   0  0.1263513E-06  0.2824077E+04  0.7818609E-02  0.8295832E-01
       -1   -1    0    0    0  501  0.00000000000E+00  0.00000000000E+00  0.99578087000E+03  0.99578087002E+03  0.50400001928E-02 0.  1.
        1   -1    0    0  501    0  0.00000000000E+00  0.00000000000E+00 -0.20023002312E+04  0.20023002313E+04  0.50400001928E-02 0. -1.
    10030    2    1    2    0    0  0.00000000000E+00  0.00000000000E+00 -0.10065193612E+04  0.29980811013E+04  0.28240766748E+04 0.  0.
        3    1    3    3  502    0  0.15333121373E+03 -0.49214397221E+03  0.89232394410E+03  0.10305135525E+04  0.10100000352E+00 0.  1.
       -3    1    3    3    0  502 -0.15333121373E+03  0.49214397221E+03 -0.18988433053E+04  0.19675675488E+04  0.10100000352E+00 0. -1.
</event>
<event>
 5   0  0.1220265E-06  0.2804820E+04  0.7818609E-02  0.8301773E-01
       -1   -1    0    0    0  501  0.00000000000E+00  0.00000000000E+00  0.88124730666E+03  0.88124730668E+03  0.50400001928E-02 0. -1.
        1   -1    0    0  501    0  0.00000000000E+00  0.00000000000E+00 -0.22317845472E+04  0.22317845472E+04  0.50400001928E-02 0.  1.
    10030    2    1    2    0    0  0.00000000000E+00  0.00000000000E+00 -0.13505372405E+04  0.31130318538E+04  0.28048202233E+04 0.  0.
        4    1    3    3  502    0 -0.19542203103E+03 -0.10954213411E+04 -0.16226558705E+04  0.19675241731E+04  0.12699999809E+01 0.  1.
       -4    1    3    3    0  502  0.19542203103E+03  0.10954213411E+04  0.27211863004E+03  0.11455076807E+04  0.12699999809E+01 0. -1.
</event>
<event>
 5   0  0.1263513E-06  0.2796796E+04  0.7818609E-02  0.8304264E-01
       -1   -1    0    0    0  501  0.00000000000E+00  0.00000000000E+00  0.18517051501E+04  0.18517051501E+04  0.50400001928E-02 0. -1.
        1   -1    0    0  501    0  0.00000000000E+00  0.00000000000E+00 -0.10560624700E+04  0.10560624700E+04  0.50400001928E-02 0.  1.
    10030    2    1    2    0    0  0.00000000000E+00  0.00000000000E+00  0.79564268008E+03  0.29077676200E+04  0.27967955338E+04 0.  0.
        3    1    3    3  502    0 -0.23366594385E+03 -0.49036602464E+03 -0.94189509749E+03  0.10873017044E+04  0.10100000352E+00 0.  1.
       -3    1    3    3    0  502  0.23366594385E+03  0.49036602464E+03  0.17375377776E+04  0.18204659157E+04  0.10100000352E+00 0. -1.
</event>
<event>
 5   0  0.3162695E-06  0.2810073E+04  0.7818609E-02  0.8300148E-01
       -2   -1    0    0    0  501  0.00000000000E+00  0.00000000000E+00  0.13666546282E+04  0.13666546282E+04  0.25500000920E-02 0.  1.
        2   -1    0    0  501    0  0.00000000000E+00  0.00000000000E+00 -0.14444964085E+04  0.14444964085E+04  0.25500000920E-02 0. -1.
    10030    2    1    2    0    0  0.00000000000E+00  0.00000000000E+00 -0.77841780335E+02  0.28111510367E+04  0.28100730967E+04 0.  0.
        1    1    3    3  502    0  0.50344322530E+03 -0.32021604118E+02  0.12729353518E+04  0.13692497486E+04  0.50400001928E-02 0.  1.
       -1    1    3    3    0  502 -0.50344322530E+03  0.32021604118E+02 -0.13507771321E+04  0.14419012882E+04  0.50400001928E-02 0. -1.
</event>
<event>
 5   0  0.3226364E-06  0.2795478E+04  0.7818609E-02  0.8304674E-01
        2   -1    0    0  501    0  0.00000000000E+00  0.00000000000E+00  0.20183039138E+04  0.20183039138E+04  0.25500000920E-02 0. -1.
       -2   -1    0    0    0  501  0.00000000000E+00  0.00000000000E+00 -0.96797829227E+03  0.96797829227E+03  0.25500000920E-02 0.  1.
    10030    2    1    2    0    0  0.00000000000E+00  0.00000000000E+00  0.10503256215E+04  0.29862822061E+04  0.27954780455E+04 0.  0.
        5    1    3    3  502    0 -0.20663640945E+03 -0.77673341014E+03  0.17467337002E+04  0.19227881073E+04  0.46999998093E+01 0. -1.
       -5    1    3    3    0  502  0.20663640945E+03  0.77673341014E+03 -0.69640807866E+03  0.10634940988E+04  0.46999998093E+01 0.  1.
</event>
<event>
 5   0  0.3345919E-06  0.2778431E+04  0.7818609E-02  0.8309996E-01
        2   -1    0    0  501    0  0.00000000000E+00  0.00000000000E+00  0.68919911346E+03  0.68919911347E+03  0.25500000920E-02 0.  1.
       -2   -1    0    0    0  501  0.00000000000E+00  0.00000000000E+00 -0.28002353101E+04  0.28002353101E+04  0.25500000920E-02 0. -1.
    10030    2    1    2    0    0  0.00000000000E+00  0.00000000000E+00 -0.21110361967E+04  0.34894344236E+04  0.27784309912E+04 0.  0.
        2    1    3    3  502    0  0.25570800647E+03 -0.13481744265E+04 -0.78336452937E+03  0.15800698892E+04  0.25500000920E-02 0.  1.
       -2    1    3    3    0  502 -0.25570800647E+03  0.13481744265E+04 -0.13276716673E+04  0.19093645344E+04  0.25500000920E-02 0. -1.
</event>
<event>
 5   0  0.3167616E-06  0.2798150E+04  0.7818609E-02  0.8303843E-01
       -2   -1    0    0    0  501  0.00000000000E+00  0.00000000000E+00  0.14210851418E+04  0.14210851418E+04  0.25500000920E-02 0.  1.
        2   -1    0    0  501    0  0.00000000000E+00  0.00000000000E+00 -0.13774061878E+04  0.13774061879E+04  0.25500000920E-02 0. -1.
    10030    2    1    2    0    0  0.00000000000E+00  0.00000000000E+00  0.43678953958E+02  0.27984913297E+04  0.27981504376E+04 0.  0.
        3    1    3    3  502    0 -0.61505952768E+03 -0.11689743556E+04 -0.43931559272E+03  0.13920479398E+04  0.10100000352E+00 0. -1.
       -3    1    3    3    0  502  0.61505952768E+03  0.11689743556E+04  0.48299454667E+03  0.14064433898E+04  0.10100000352E+00 0.  1.
</event>
<event>
 5   0  0.3345919E-06  0.2797670E+04  0.7818609E-02  0.8303992E-01
       -2   -1    0    0    0  501  0.00000000000E+00  0.00000000000E+00  0.63161278779E+03  0.63161278780E+03  0.25500000920E-02 0. -1.
        2   -1    0    0  501    0  0.00000000000E+00  0.00000000000E+00 -0.30980055388E+04  0.30980055388E+04  0.25500000920E-02 0.  1.
    10030    2    1    2    0    0  0.00000000000E+00  0.00000000000E+00 -0.24663927510E+04  0.37296183266E+04  0.27976703987E+04 0.  0.
        2    1    3    3  502    0  0.47783903359E+03 -0.12663566566E+04 -0.17040535029E+04  0.21761864958E+04  0.25500000920E-02 0.  1.
       -2    1    3    3    0  502 -0.47783903359E+03  0.12663566566E+04 -0.76233924812E+03  0.15534318308E+04  0.25500000920E-02 0. -1.
</event>
<event>
 5   0  0.3167616E-06  0.2800525E+04  0.7818609E-02  0.8303105E-01
        2   -1    0    0  501    0  0.00000000000E+00  0.00000000000E+00  0.15674701287E+04  0.15674701287E+04  0.25500000920E-02 0. -1.
       -2   -1    0    0    0  501  0.00000000000E+00  0.00000000000E+00 -0.12508918276E+04  0.12508918276E+04  0.25500000920E-02 0.  1.
    10030    2    1    2    0    0  0.00000000000E+00  0.00000000000E+00  0.31657830113E+03  0.28183619563E+04  0.28005253607E+04 0.  0.
        3    1    3    3  502    0  0.13148504438E+04 -0.36997420158E+03  0.46851040197E+03  0.14440272180E+04  0.10100000352E+00 0. -1.
       -3    1    3    3    0  502 -0.13148504438E+04  0.36997420158E+03 -0.15193210083E+03  0.13743347383E+04  0.10100000352E+00 0.  1.
</event>
<event>
 5   0  0.3167616E-06  0.2790758E+04  0.7818609E-02  0.8306143E-01
       -2   -1    0    0    0  501  0.00000000000E+00  0.00000000000E+00  0.12057208153E+04  0.12057208153E+04  0.25500000920E-02 0.  1.
        2   -1    0    0  501    0  0.00000000000E+00  0.00000000000E+00 -0.16148699266E+04  0.16148699266E+04  0.25500000920E-02 0. -1.
    10030    2    1    2    0    0  0.00000000000E+00  0.00000000000E+00 -0.40914911129E+03  0.28205907419E+04  0.27907578071E+04 0.  0.
        3    1    3    3  502    0  0.72155314942E+03 -0.76486476656E+03 -0.11316726515E+04  0.15447783203E+04  0.10100000352E+00 0. -1.
       -3    1    3    3    0  502 -0.72155314942E+03  0.76486476656E+03  0.72252354023E+03  0.12758124215E+04  0.10100000352E+00 0.  1.
</event>
<event>
 5   0  0.3212679E-06  0.2819218E+04  0.7818609E-02  0.8297327E-01
        2   -1    0    0  501    0  0.00000000000E+00  0.00000000000E+00  0.22361667359E+04  0.22361667359E+04  0.25500000920E-02 0.  1.
       -2   -1    0    0    0  501  0.00000000000E+00  0.00000000000E+00 -0.88857322489E+03  0.88857322490E+03  0.25500000920E-02 0. -1.
    10030    2    1    2    0    0  0.00000000000E+00  0.00000000000E+00  0.13475935111E+04  0.31247399608E+04  0.28192182519E+04 0.  0.
        4    1    3    3  502    0 -0.11020261547E+04  0.11571435676E+03 -0.29191495692E+03  0.11458915363E+04  0.12699999809E+01 0. -1.
       -4    1    3    3    0  502  0.11020261547E+04 -0.11571435676E+03  0.16395084680E+04  0.19788484246E+04  0.12699999809E+01 0.  1.
</event>
<event>
 5   0  0.1243055E-06  0.2799404E+04  0.7818609E-02  0.8303454E-01
        1   -1    0    0  501    0  0.00000000000E+00  0.00000000000E+00  0.13246562699E+04  0.13246562699E+04  0.50400001928E-02 0.  1.
       -1   -1    0    0    0  501  0.00000000000E+00  0.00000000000E+00 -0.14789988140E+04  0.14789988140E+04  0.50400001928E-02 0. -1.
    10030    2    1    2    0    0  0.00000000000E+00  0.00000000000E+00 -0.15434254414E+03  0.28036550840E+04  0.27994035452E+04 0.  0.
        5    1    3    3  502    0  0.94681918669E+03  0.79295748932E+03  0.58253604878E+03  0.13655103406E+04  0.46999998093E+01 0.  1.
       -5    1    3    3    0  502 -0.94681918669E+03 -0.79295748932E+03 -0.73687859292E+03  0.14381447434E+04  0.46999998093E+01 0. -1.
</event>
<event>
 5   0  0.1246044E-06  0.2783407E+04  0.7818609E-02  0.8308438E-01
        1   -1    0    0  501    0  0.00000000000E+00  0.00000000000E+00  0.13256683025E+04  0.13256683025E+04  0.50400001928E-02 0.  1.
       -1   -1    0    0    0  501  0.00000000000E+00  0.00000000000E+00 -0.14610283211E+04  0.14610283211E+04  0.50400001928E-02 0. -1.
    10030    2    1    2    0    0  0.00000000000E+00  0.00000000000E+00 -0.13536001866E+03  0.27866966236E+04  0.27834072173E+04 0.  0.
        2    1    3    3  502    0  0.25993784584E+03  0.41925475223E+03  0.12352020988E+04  0.13300625759E+04  0.25500000920E-02 0.  1.
       -2    1    3    3    0  502 -0.25993784584E+03 -0.41925475223E+03 -0.13705621175E+04  0.14566340477E+04  0.25500000920E-02 0. -1.
</event>
<event>
 5   0  0.1246044E-06  0.2817581E+04  0.7818609E-02  0.8297831E-01
        1   -1    0    0  501    0  0.00000000000E+00  0.00000000000E+00  0.12255289465E+04  0.12255289465E+04  0.50400001928E-02 0.  1.
       -1   -1    0    0    0  501  0.00000000000E+00  0.00000000000E+00 -0.16194568775E+04  0.16194568775E+04  0.50400001928E-02 0. -1.
    10030    2    1    2    0    0  0.00000000000E+00  0.00000000000E+00 -0.39392793099E+03  0.28449858241E+04  0.28175814317E+04 0.  0.
        2    1    3    3  502    0  0.36832677348E+02  0.10940047294E+04 -0.10924313243E+04  0.15464828458E+04  0.25500000920E-02 0. -1.
       -2    1    3    3    0  502 -0.36832677348E+02 -0.10940047294E+04  0.69850339331E+03  0.12985029783E+04  0.25500000920E-02 0.  1.
</event>
<event>
 5   0  0.1263513E-06  0.2817665E+04  0.7818609E-02  0.8297805E-01
       -1   -1    0    0    0  501  0.00000000000E+00  0.00000000000E+00  0.94908106636E+03  0.94908106637E+03  0.50400001928E-02 0.  1.
        1   -1    0    0  501    0  0.00000000000E+00  0.00000000000E+00 -0.20912949923E+04  0.20912949923E+04  0.50400001928E-02 0. -1.
    10030    2    1    2    0    0  0.00000000000E+00  0.00000000000E+00 -0.11422139260E+04  0.30403760587E+04  0.28176646226E+04 0.  0.
        3    1    3    3  502    0  0.29610574657E+03 -0.11591919805E+04  0.23160378380E+03  0.12186242176E+04  0.10100000352E+00 0.  1.
       -3    1    3    3    0  502 -0.29610574657E+03  0.11591919805E+04 -0.13738177097E+04  0.18217518411E+04  0.10100000352E+00 0. -1.
</event>
<event>
 5   0  0.3162695E-06  0.2800611E+04  0.7818609E-02  0.8303079E-01
       -2   -1    0    0    0  501  0.00000000000E+00  0.00000000000E+00  0.24298020783E+04  0.24298020783E+04  0.25500000920E-02 0.  1.
        2   -1    0    0  501    0  0.00000000000E+00  0.00000000000E+00 -0.80700229467E+03  0.80700229467E+03  0.25500000920E-02 0. -1.
    10030    2    1    2    0    0  0.00000000000E+00  0.00000000000E+00  0.16227997836E+04  0.32368043729E+04  0.28006112567E+04 0.  0.
        1    1    3    3  502    0 -0.33768454408E+02 -0.11642848494E+04  0.17097348254E+04  0.20687901518E+04  0.50400001928E-02 0. -1.
       -1    1    3    3    0  502  0.33768454408E+02  0.11642848494E+04 -0.86935041819E+02  0.11680142211E+04  0.50400001928E-02 0.  1.
</event>
<event>
 5   0  0.1263513E-06  0.2801697E+04  0.7818609E-02  0.8302742E-01
        1   -1    0    0  501    0  0.00000000000E+00  0.00000000000E+00  0.13271971977E+04  0.13271971977E+04  0.50400001928E-02 0.  1.
       -1   -1    0    0    0  501  0.00000000000E+00  0.00000000000E+00 -0.14785869598E+04  0.14785869598E+04  0.50400001928E-02 0. -1.
    10030    2    1    2    0    0  0.00000000000E+00  0.00000000000E+00 -0.15138976214E+03  0.28057841575E+04  0.28016969640E+04 0.  0.
        3    1    3    3  502    0  0.95397795766E+03  0.88518580149E+03 -0.59486084716E+03  0.14309043590E+04  0.10100000352E+00 0. -1.
       -3    1    3    3    0  502 -0.95397795766E+03 -0.88518580149E+03  0.44347108502E+03  0.13748797985E+04  0.10100000352E+00 0.  1.
</event>
<event>
 5   0  0.3167616E-06  0.2796638E+04  0.7818609E-02  0.8304313E-01
        2   -1    0    0  501    0  0.00000000000E+00  0.00000000000E+00  0.25662695832E+04  0.25662695832E+04  0.25500000920E-02 0.  1.
       -2   -1    0    0    0  501  0.00000000000E+00  0.00000000000E+00 -0.76192169577E+03  0.76192169577E+03  0.25500000920E-02 0. -1.
    10030    2    1    2    0    0  0.00000000000E+00  0.00000000000E+00  0.18043478875E+04  0.33281912790E+04  0.27966383196E+04 0.  0.
        3    1    3    3  502    0 -0.49722905273E+03 -0.88816987975E+03  0.20431598723E+04  0.22826705281E+04  0.10100000352E+00 0.  1.
       -3    1    3    3    0  502  0.49722905273E+03  0.88816987975E+03 -0.23881198483E+03  0.10455207509E+04  0.10100000352E+00 0. -1.
</event>
<event>
 5   0  0.1235252E-06  0.2807648E+04  0.7818609E-02  0.8300898E-01
        1   -1    0    0  501    0  0.00000000000E+00  0.00000000000E+00  0.20408018450E+04  0.20408018450E+04  0.50400001928E-02 0. -1.
       -1   -1    0    0    0  501  0.00000000000E+00  0.00000000000E+00 -0.96566039522E+03  0.96566039523E+03  0.50400001928E-02 0.  1.
    10030    2    1    2    0    0  0.00000000000E+00  0.00000000000E+00  0.10751414497E+04  0.30064622402E+04  0.28076477815E+04 0.  0.
        1    1    3    3  502    0 -0.28459832909E+03  0.83768828421E+03  0.17047082047E+04  0.19206113437E+04  0.50400001928E-02 0. -1.
       -1    1    3    3    0  502  0.28459832909E+03 -0.83768828421E+03 -0.62956675495E+03  0.10858508965E+04  0.50400001928E-02 0.  1.
</event>
<event>
 5   0  0.3212679E-06  0.2815035E+04  0.7818609E-02  0.8298616E-01
        2   -1    0    0  501    0  0.00000000000E+00  0.00000000000E+00  0.76257557603E+03  0.76257557604E+03  0.25500000920E-02 0.  1.
       -2   -1    0    0    0  501  0.00000000000E+00  0.00000000000E+00 -0.25979134623E+04  0.25979134623E+04  0.25500000920E-02 0. -1.
    10030    2    1    2    0    0  0.00000000000E+00  0.00000000000E+00 -0.18353378863E+04  0.33604890383E+04  0.28150348879E+04 0.  0.
        4    1    3    3  502    0 -0.13440690365E+04 -0.30543786778E+03 -0.57731018322E+03  0.14943568939E+04  0.12699999809E+01 0. -1.
       -4    1    3    3    0  502  0.13440690365E+04  0.30543786778E+03 -0.12580277031E+04  0.18661321444E+04  0.12699999809E+01 0.  1.
</event>
<event>
 5   0  0.3212679E-06  0.2817788E+04  0.7818609E-02  0.8297767E-01
       -2   -1    0    0    0  501  0.00000000000E+00  0.00000000000E+00  0.11481453973E+04  0.11481453973E+04  0.25500000920E-02 0.  1.
        2   -1    0    0  501    0  0.00000000000E+00  0.00000000000E+00 -0.17288601423E+04  0.17288601423E+04  0.25500000920E-02 0. -1.
    10030    2    1    2    0    0  0.00000000000E+00  0.00000000000E+00 -0.58071474501E+03  0.28770055396E+04  0.28177883632E+04 0.  0.
        4    1    3    3  502    0 -0.13812604984E+04  0.34626904604E+02 -0.90650783214E+01  0.13817247829E+04  0.12699999809E+01 0.  1.
       -4    1    3    3    0  502  0.13812604984E+04 -0.34626904604E+02 -0.57164966669E+03  0.14952807567E+04  0.12699999809E+01 0. -1.
</event>
<event>
 5   0  0.1243055E-06  0.2815706E+04  0.7818609E-02  0.8298409E-01
        1   -1    0    0  501    0  0.00000000000E+00  0.00000000000E+00  0.18919741157E+04  0.18919741157E+04  0.50400001928E-02 0.  1.
       -1   -1    0    0    0  501  0.00000000000E+00  0.00000000000E+00 -0.10476091729E+04  0.10476091729E+04  0.50400001928E-02 0. -1.
    10030    2    1    2    0    0  0.00000000000E+00  0.00000000000E+00  0.84436494279E+03  0.29395832887E+04  0.28157055518E+04 0.  0.
        5    1    3    3  502    0  0.22250281737E+03  0.67992373490E+03  0.16880557183E+04  0.18334006619E+04  0.46999998093E+01 0.  1.
       -5    1    3    3    0  502 -0.22250281737E+03 -0.67992373490E+03 -0.84369077553E+03  0.11061826268E+04  0.46999998093E+01 0. -1.
</event>
<event>
 5   0  0.1263513E-06  0.2808016E+04  0.7818609E-02  0.8300784E-01
       -1   -1    0    0    0  501  0.00000000000E+00  0.00000000000E+00  0.12855845692E+04  0.12855845692E+04  0.50400001928E-02 0. -1.
        1   -1    0    0  501    0  0.00000000000E+00  0.00000000000E+00 -0.15333403228E+04  0.15333403228E+04  0.50400001928E-02 0.  1.
    10030    2    1    2    0    0  0.00000000000E+00  0.00000000000E+00 -0.24775575363E+03  0.28189248920E+04  0.28080161383E+04 0.  0.
        3    1    3    3  502    0  0.99443203797E+03  0.66046064909E+03 -0.86575850285E+03  0.14746664513E+04  0.10100000352E+00 0.  1.
       -3    1    3    3    0  502 -0.99443203797E+03 -0.66046064909E+03  0.61800274922E+03  0.13442584407E+04  0.10100000352E+00 0. -1.
</event>
<event>
 5   0  0.1246044E-06  0.2802290E+04  0.7818609E-02  0.8302558E-01
        1   -1    0    0  501    0  0.00000000000E+00  0.00000000000E+00  0.25960436287E+04  0.25960436287E+04  0.50400001928E-02 0. -1.
       -1   -1    0    0    0  501  0.00000000000E+00  0.00000000000E+00 -0.75623046989E+03  0.75623046991E+03  0.50400001928E-02 0.  1.
    10030    2    1    2    0    0  0.00000000000E+00  0.00000000000E+00  0.18398131588E+04  0.33522740986E+04  0.28022899873E+04 0.  0.
        2    1    3    3  502    0 -0.94587979961E+03  0.75483423832E+03  0.17647286978E+04  0.21397968828E+04  0.25500000920E-02 0. -1.
       -2    1    3    3    0  502  0.94587979961E+03 -0.75483423832E+03  0.75084461002E+02  0.12124772158E+04  0.25500000920E-02 0.  1.
</event>
<event>
 5   0  0.3212679E-06  0.2799399E+04  0.7818609E-02  0.8303455E-01
       -2   -1    0    0    0  501  0.00000000000E+00  0.00000000000E+00  0.12680007576E+04  0.12680007576E+04  0.25500000920E-02 0.  1.
        2   -1    0    0  501    0  0.00000000000E+00  0.00000000000E+00 -0.15450768163E+04  0.15450768163E+04  0.25500000920E-02 0. -1.
    10030    2    1    2    0    0  0.00000000000E+00  0.00000000000E+00 -0.27707605874E+03  0.28130775739E+04  0.27993989166E+04 0.  0.
        4    1    3    3  502    0 -0.11527206963E+04 -0.93022840109E+02  0.65381892062E+03  0.13284950306E+04  0.12699999809E+01 0.  1.
       -4    1    3    3    0  502  0.11527206963E+04  0.93022840109E+02 -0.93089497936E+03  0.14845825433E+04  0.12699999809E+01 0. -1.
</event>
<event>
 5   0  0.1263513E-06  0.2796360E+04  0.7818609E-02  0.8304399E-01
        1   -1    0    0  501    0  0.00000000000E+00  0.00000000000E+00  0.14090652658E+04  0.14090652659E+04  0.50400001928E-02 0. -1.
       -1   -1    0    0    0  501  0.00000000000E+00  0.00000000000E+00 -0.13873792616E+04  0.13873792616E+04  0.50400001928E-02 0.  1.
    10030    2    1    2    0    0  0.00000000000E+00  0.00000000000E+00  0.21686004280E+02  0.27964445274E+04  0.27963604403E+04 0.  0.
        3    1    3    3  502    0  0.72050407384E+03  0.11225374739E+04 -0.40832520213E+03  0.13949716777E+04  0.10100000352E+00 0. -1.
       -3    1    3    3    0  502 -0.72050407384E+03 -0.11225374739E+04  0.43001120641E+03  0.14014728497E+04  0.10100000352E+00 0.  1.
</event>
<event>
 5   0  0.3345919E-06  0.2806635E+04  0.7818609E-02  0.8301211E-01
       -2   -1    0    0    0  501  0.00000000000E+00  0.00000000000E+00  0.11796488317E+04  0.11796488317E+04  0.25500000920E-02 0.  1.
        2   -1    0    0  501    0  0.00000000000E+00  0.00000000000E+00 -0.16693953346E+04  0.16693953346E+04  0.25500000920E-02 0. -1.
    10030    2    1    2    0    0  0.00000000000E+00  0.00000000000E+00 -0.48974650294E+03  0.28490441663E+04  0.28066351784E+04 0.  0.
        2    1    3    3  502    0  0.11033863170E+04 -0.82764242866E+03  0.17581149564E+02  0.13794065576E+04  0.25500000920E-02 0. -1.
       -2    1    3    3    0  502 -0.11033863170E+04  0.82764242866E+03 -0.50732765250E+03  0.14696376088E+04  0.25500000920E-02 0.  1.
</event>
<event>
 5   0  0.3212679E-06  0.2818999E+04  0.7818609E-02  0.8297394E-01
       -2   -1    0    0    0  501  0.00000000000E+00  0.00000000000E+00  0.14295279966E+04  0.14295279966E+04  0.25500000920E-02 0. -1.
        2   -1    0    0  501    0  0.00000000000E+00  0.00000000000E+00 -0.13897511372E+04  0.13897511372E+04  0.25500000920E-02 0.  1.
    10030    2    1    2    0    0  0.00000000000E+00  0.00000000000E+00  0.39776859412E+02  0.28192791337E+04  0.28189985164E+04 0.  0.
        4    1    3    3  502    0  0.12987072918E+04  0.24824301751E+03 -0.46844423356E+03  0.14027497419E+04  0.12699999809E+01 0.  1.
       -4    1    3    3    0  502 -0.12987072918E+04 -0.24824301751E+03  0.50822109298E+03  0.14165293918E+04  0.12699999809E+01 0. -1.
</event>
<event>
 5   0  0.1243055E-06  0.2844953E+04  0.7818609E-02  0.8289447E-01
        1   -1    0    0  501    0  0.00000000000E+00  0.00000000000E+00  0.13540667168E+04  0.13540667168E+04  0.50400001928E-02 0.  1.
       -1   -1    0    0    0  501  0.00000000000E+00  0.00000000000E+00 -0.14943419666E+04  0.14943419666E+04  0.50400001928E-02 0. -1.
    10030    2    1    2    0    0  0.00000000000E+00  0.00000000000E+00 -0.14027524984E+03  0.28484086834E+04  0.28449525272E+04 0.  0.
        5    1    3    3  502    0  0.29965149281E+03 -0.90122025449E+03  0.99012367635E+03  0.13719897772E+04  0.46999998093E+01 0.  1.
       -5    1    3    3    0  502 -0.29965149281E+03  0.90122025449E+03 -0.11303989262E+04  0.14764189062E+04  0.46999998093E+01 0. -1.
</event>
<event>
 5   0  0.1246044E-06  0.2605472E+04  0.7818609E-02  0.8366345E-01
       -1   -1    0    0    0  501  0.00000000000E+00  0.00000000000E+00  0.13910627612E+04  0.13910627612E+04  0.50400001928E-02 0. -1.
        1   -1    0    0  501    0  0.00000000000E+00  0.00000000000E+00 -0.12200173487E+04  0.12200173487E+04  0.50400001928E-02 0.  1.
    10030    2    1    2    0    0  0.00000000000E+00  0.00000000000E+00  0.17104541253E+03  0.26110801099E+04  0.26054717053E+04 0.  0.
        2    1    3    3  502    0 -0.64540898738E+03  0.82457922030E+03 -0.69115330998E+03  0.12546619264E+04  0.25500000920E-02 0.  1.
       -2    1    3    3    0  502  0.64540898738E+03 -0.82457922030E+03  0.86219872250E+03  0.13564181835E+04  0.25500000920E-02 0. -1.
</event>
<event>
 5   0  0.3345919E-06  0.2820176E+04  0.7818609E-02  0.8297032E-01
       -2   -1    0    0    0  501  0.00000000000E+00  0.00000000000E+00  0.76472059766E+03  0.76472059766E+03  0.25500000920E-02 0. -1.
        2   -1    0    0  501    0  0.00000000000E+00  0.00000000000E+00 -0.26000979871E+04  0.26000979871E+04  0.25500000920E-02 0.  1.
    10030    2    1    2    0    0  0.00000000000E+00  0.00000000000E+00 -0.18353773894E+04  0.33648185847E+04  0.28201762262E+04 0.  0.
        2    1    3    3  502    0  0.14096642192E+04 -0.28131013981E+02 -0.94166785733E+03  0.16954889910E+04  0.25500000920E-02 0. -1.
       -2    1    3    3    0  502 -0.14096642192E+04  0.28131013981E+02 -0.89370953208E+03  0.16693295938E+04  0.25500000920E-02 0.  1.
</event>
<event>
 5   0  0.3167616E-06  0.2819757E+04  0.7818609E-02  0.8297161E-01
       -2   -1    0    0    0  501  0.00000000000E+00  0.00000000000E+00  0.87938496852E+03  0.87938496852E+03  0.25500000920E-02 0. -1.
        2   -1    0    0  501    0  0.00000000000E+00  0.00000000000E+00 -0.22603946067E+04  0.22603946067E+04  0.25500000920E-02 0.  1.
    10030    2    1    2    0    0  0.00000000000E+00  0.00000000000E+00 -0.13810096381E+04  0.31397795752E+04  0.28197567555E+04 0.  0.
        3    1    3    3  502    0 -0.13753400808E+04 -0.11154699620E+03 -0.36825685032E+03  0.14281513184E+04  0.10100000352E+00 0.  1.
       -3    1    3    3    0  502  0.13753400808E+04  0.11154699620E+03 -0.10127527878E+04  0.17116282568E+04  0.10100000352E+00 0. -1.
</event>
<event>
 5   0  0.3226364E-06  0.2787566E+04  0.7818609E-02  0.8307139E-01
       -2   -1    0    0    0  501  0.00000000000E+00  0.00000000000E+00  0.10708774446E+04  0.10708774446E+04  0.25500000920E-02 0. -1.
        2   -1    0    0  501    0  0.00000000000E+00  0.00000000000E+00 -0.18140551246E+04  0.18140551246E+04  0.25500000920E-02 0.  1.
    10030    2    1    2    0    0  0.00000000000E+00  0.00000000000E+00 -0.74317767997E+03  0.28849325692E+04  0.27875657597E+04 0.  0.
        5    1    3    3  502    0 -0.76278311644E+03 -0.11622294023E+04 -0.26813030817E+03  0.14158146836E+04  0.46999998093E+01 0. -1.
       -5    1    3    3    0  502  0.76278311644E+03  0.11622294023E+04 -0.47504737180E+03  0.14691178856E+04  0.46999998093E+01 0.  1.
</event>
<event>
 5   0  0.1246044E-06  0.2810869E+04  0.7818609E-02  0.8299902E-01
       -1   -1    0    0    0  501  0.00000000000E+00  0.00000000000E+00  0.11090500928E+04  0.11090500929E+04  0.50400001928E-02 0.  1.
        1   -1    0    0  501    0  0.00000000000E+00  0.00000000000E+00 -0.17810248631E+04  0.17810248631E+04  0.50400001928E-02 0. -1.
    10030    2    1    2    0    0  0.00000000000E+00  0.00000000000E+00 -0.67197477024E+03  0.28900749559E+04  0.28108687552E+04 0.  0.
        2    1    3    3  502    0  0.11176457407E+04 -0.94549870304E+02 -0.12067120367E+04  0.16474907038E+04  0.25500000920E-02 0. -1.
       -2    1    3    3    0  502 -0.11176457407E+04  0.94549870304E+02  0.53473726643E+03  0.12425842522E+04  0.25500000920E-02 0.  1.
</event>
<event>
 5   0  0.3345919E-06  0.2808610E+04  0.7818609E-02  0.8300600E-01
        2   -1    0    0  501    0  0.00000000000E+00  0.00000000000E+00  0.18045270636E+04  0.18045270636E+04  0.25500000920E-02 0.  1.
       -2   -1    0    0    0  501  0.00000000000E+00  0.00000000000E+00 -0.10928469868E+04  0.10928469868E+04  0.25500000920E-02 0. -1.
    10030    2    1    2    0    0  0.00000000000E+00  0.00000000000E+00  0.71168007677E+03  0.28973740504E+04  0.28086095948E+04 0.  0.
        2    1    3    3  502    0 -0.21267324114E+03  0.10165557500E+04 -0.61926160538E+03  0.12091734517E+04  0.25500000920E-02 0. -1.
       -2    1    3    3    0  502  0.21267324114E+03 -0.10165557500E+04  0.13309416821E+04  0.16882005987E+04  0.25500000920E-02 0.  1.
</event>
<event>
 5   0  0.1246044E-06  0.2785922E+04  0.7818609E-02  0.8307652E-01
        1   -1    0    0  501    0  0.00000000000E+00  0.00000000000E+00  0.12337122395E+04  0.12337122395E+04  0.50400001928E-02 0. -1.
       -1   -1    0    0    0  501  0.00000000000E+00  0.00000000000E+00 -0.15727657678E+04  0.15727657678E+04  0.50400001928E-02 0.  1.
    10030    2    1    2    0    0  0.00000000000E+00  0.00000000000E+00 -0.33905352836E+03  0.28064780073E+04  0.27859220216E+04 0.  0.
        2    1    3    3  502    0 -0.35799766651E+03 -0.79567387724E+03  0.92434026281E+03  0.12710877899E+04  0.25500000920E-02 0. -1.
       -2    1    3    3    0  502  0.35799766651E+03  0.79567387724E+03 -0.12633937912E+04  0.15353902174E+04  0.25500000920E-02 0.  1.
</event>
<event>
 5   0  0.3226364E-06  0.2820719E+04  0.7818609E-02  0.8296865E-01
       -2   -1    0    0    0  501  0.00000000000E+00  0.00000000000E+00  0.11189313342E+04  0.11189313342E+04  0.25500000920E-02 0.  1.
        2   -1    0    0  501    0  0.00000000000E+00  0.00000000000E+00 -0.17776902658E+04  0.17776902658E+04  0.25500000920E-02 0. -1.
    10030    2    1    2    0    0  0.00000000000E+00  0.00000000000E+00 -0.65875893158E+03  0.28966215999E+04  0.28207185899E+04 0.  0.
        5    1    3    3  502    0 -0.99789922045E+03  0.44075688623E+03  0.58855422194E+03  0.12395513903E+04  0.46999998093E+01 0.  1.
       -5    1    3    3    0  502  0.99789922045E+03 -0.44075688623E+03 -0.12473131535E+04  0.16570702097E+04  0.46999998093E+01 0. -1.
</event>
<event>
 5   0  0.1235252E-06  0.2737246E+04  0.7818609E-02  0.8323020E-01
        1   -1    0    0  501    0  0.00000000000E+00  0.00000000000E+00  0.92513758780E+03  0.92513758782E+03  0.50400001928E-02 0. -1.
       -1   -1    0    0    0  501  0.00000000000E+00  0.00000000000E+00 -0.20247029519E+04  0.20247029519E+04  0.50400001928E-02 0.  1.
    10030    2    1    2    0    0  0.00000000000E+00  0.00000000000E+00 -0.10995653641E+04  0.29498405397E+04  0.27372459188E+04 0.  0.
        1    1    3    3  502    0  0.20037321121E+03 -0.91234243387E+03  0.52821365855E+03  0.10730926379E+04  0.50400001928E-02 0. -1.
       -1    1    3    3    0  502 -0.20037321121E+03  0.91234243387E+03 -0.16277790226E+04  0.18767479018E+04  0.50400001928E-02 0.  1.
</event>
<event>
 5   0  0.1220265E-06  0.2783110E+04  0.7818609E-02  0.8308531E-01
       -1   -1    0    0    0  501  0.00000000000E+00  0.00000000000E+00  0.11833722814E+04  0.11833722814E+04  0.50400001928E-02 0.  1.
        1   -1    0    0  501    0  0.00000000000E+00  0.00000000000E+00 -0.16363624336E+04  0.16363624336E+04  0.50400001928E-02 0. -1.
    10030    2    1    2    0    0  0.00000000000E+00  0.00000000000E+00 -0.45299015216E+03  0.28197347150E+04  0.27831104514E+04 0.  0.
        4    1    3    3  502    0  0.95729050044E+03  0.48578682322E+03 -0.11236021026E+04  0.15539875282E+04  0.12699999809E+01 0. -1.
       -4    1    3    3    0  502 -0.95729050044E+03 -0.48578682322E+03  0.67061195047E+03  0.12657471868E+04  0.12699999809E+01 0.  1.
</event>
<event>
 5   0  0.1235252E-06  0.2799722E+04  0.7818609E-02  0.8303355E-01
        1   -1    0    0  501    0  0.00000000000E+00  0.00000000000E+00  0.15735511072E+04  0.15735511072E+04  0.50400001928E-02 0. -1.
       -1   -1    0    0    0  501  0.00000000000E+00  0.00000000000E+00 -0.12453430041E+04  0.12453430042E+04  0.50400001928E-02 0.  1.
    10030    2    1    2    0    0  0.00000000000E+00  0.00000000000E+00  0.32820810305E+03  0.28188941114E+04  0.27997220312E+04 0.  0.
        1    1    3    3  502    0  0.45603030957E+03 -0.55122462753E+03  0.13755887361E+04  0.15505020490E+04  0.50400001928E-02 0. -1.
       -1    1    3    3    0  502 -0.45603030957E+03  0.55122462753E+03 -0.10473806330E+04  0.12683920623E+04  0.50400001928E-02 0.  1.
</event>
<event>
 5   0  0.3226364E-06  0.2792606E+04  0.7818609E-02  0.8305568E-01
       -2   -1    0    0    0  501  0.00000000000E+00  0.00000000000E+00  0.19850633673E+04  0.19850633673E+04  0.25500000920E-02 0.  1.
        2   -1    0    0  501    0  0.00000000000E+00  0.00000000000E+00 -0.98216613594E+03  0.98216613594E+03  0.25500000920E-02 0. -1.
    10030    2    1    2    0    0  0.00000000000E+00  0.00000000000E+00  0.10028972314E+04  0.29672295033E+04  0.27926059637E+04 0.  0.
        5    1    3    3  502    0  0.13548391575E+03  0.82957680921E+02 -0.97252389418E+03  0.98542512806E+03  0.46999998093E+01 0. -1.
       -5    1    3    3    0  502 -0.13548391575E+03 -0.82957680921E+02  0.19754211256E+04  0.19818043752E+04  0.46999998093E+01 0.  1.
</event>
<event>
 5   0  0.1243055E-06  0.2805165E+04  0.7818609E-02  0.8301667E-01
       -1   -1    0    0    0  501  0.00000000000E+00  0.00000000000E+00  0.11003693052E+04  0.11003693052E+04  0.50400001928E-02 0.  1.
        1   -1    0    0  501    0  0.00000000000E+00  0.00000000000E+00 -0.17877980745E+04  0.17877980745E+04  0.50400001928E-02 0. -1.
    10030    2    1    2    0    0  0.00000000000E+00  0.00000000000E+00 -0.68742876925E+03  0.28881673797E+04  0.28051653250E+04 0.  0.
        5    1    3    3  502    0  0.40437035055E+03 -0.47794044811E+02 -0.17255963559E+04  0.17729930978E+04  0.46999998093E+01 0. -1.
       -5    1    3    3    0  502 -0.40437035055E+03  0.47794044811E+02  0.10381675867E+04  0.11151742820E+04  0.46999998093E+01 0.  1.
</event>
<event>
 5   0  0.1263513E-06  0.2808476E+04  0.7818609E-02  0.8300642E-01
       -1   -1    0    0    0  501  0.00000000000E+00  0.00000000000E+00  0.72824251912E+03  0.72824251914E+03  0.50400001928E-02 0.  1.
        1   -1    0    0  501    0  0.00000000000E+00  0.00000000000E+00 -0.27077302517E+04  0.27077302518E+04  0.50400001928E-02 0. -1.
    10030    2    1    2    0    0  0.00000000000E+00  0.00000000000E+00 -0.19794877326E+04  0.34359727709E+04  0.28084759566E+04 0.  0.
        3    1    3    3  502    0  0.98142728742E+03  0.83531730838E+03 -0.30754632255E+03  0.13249676513E+04  0.10100000352E+00 0. -1.
       -3    1    3    3    0  502 -0.98142728742E+03 -0.83531730838E+03 -0.16719414101E+04  0.21110051196E+04  0.10100000352E+00 0.  1.
</event>
<event>
 5   0  0.3162695E-06  0.2800524E+04  0.7818609E-02  0.8303106E-01
       -2   -1    0    0    0  501  0.00000000000E+00  0.00000000000E+00  0.17854817221E+04  0.17854817221E+04  0.25500000920E-02 0.  1.
        2   -1    0    0  501    0  0.00000000000E+00  0.00000000000E+00 -0.10981536113E+04  0.10981536113E+04  0.25500000920E-02 0. -1.
    10030    2    1    2    0    0  0.00000000000E+00  0.00000000000E+00  0.68732811086E+03  0.28836353334E+04  0.28005236661E+04 0.  0.
        1    1    3    3  502    0 -0.55380253887E+01 -0.11210699080E+03 -0.10935139628E+04  0.10992594934E+04  0.50400001928E-02 0. -1.
       -1    1    3    3    0  502  0.55380253887E+01  0.11210699080E+03  0.17808420736E+04  0.17843758400E+04  0.50400001928E-02 0.  1.
</event>
<event>
 5   0  0.1263513E-06  0.2810126E+04  0.7818609E-02  0.8300132E-01
        1   -1    0    0  501    0  0.00000000000E+00  0.00000000000E+00  0.13306919862E+04  0.13306919863E+04  0.50400001928E-02 0.  1.
       -1   -1    0    0    0  501  0.00000000000E+00  0.00000000000E+00 -0.14835900889E+04  0.14835900889E+04  0.50400001928E-02 0. -1.
    10030    2    1    2    0    0  0.00000000000E+00  0.00000000000E+00 -0.15289810268E+03  0.28142820752E+04  0.28101255789E+04 0.  0.
        3    1    3    3  502    0 -0.84625567641E+03  0.90540141192E+02  0.10431738032E+04  0.13463126609E+04  0.10100000352E+00 0.  1.
       -3    1    3    3    0  502  0.84625567641E+03 -0.90540141192E+02 -0.11960719059E+04  0.14679694143E+04  0.10100000352E+00 0. -1.
</event>
<event>
 5   0  0.3167616E-06  0.2799312E+04  0.7818609E-02  0.8303482E-01
        2   -1    0    0  501    0  0.00000000000E+00  0.00000000000E+00  0.19493887644E+04  0.19493887644E+04  0.25500000920E-02 0.  1.
       -2   -1    0    0    0  501  0.00000000000E+00  0.00000000000E+00 -0.10049495593E+04  0.10049495593E+04  0.25500000920E-02 0. -1.
    10030    2    1    2    0    0  0.00000000000E+00  0.00000000000E+00  0.94443920509E+03  0.29543383238E+04  0.27993123297E+04 0.  0.
        3    1    3    3  502    0  0.88252314166E+02  0.11075025629E+04  0.13706492980E+04  0.17643780508E+04  0.10100000352E+00 0.  1.
       -3    1    3    3    0  502 -0.88252314166E+02 -0.11075025629E+04 -0.42621009292E+03  0.11899602730E+04  0.10100000352E+00 0. -1.
</event>
<event>
 5   0  0.1235252E-06  0.2883649E+04  0.7818609E-02  0.8277759E-01
        1   -1    0    0  501    0  0.00000000000E+00  0.00000000000E+00  0.18296330708E+04  0.18296330708E+04  0.50400001928E-02 0.  1.
       -1   -1    0    0    0  501  0.00000000000E+00  0.00000000000E+00 -0.11362160913E+04  0.11362160913E+04  0.50400001928E-02 0. -1.
    10030    2    1    2    0    0  0.00000000000E+00  0.00000000000E+00  0.69341697946E+03  0.29658491621E+04  0.28836494490E+04 0.  0.
        1    1    3    3  502    0  0.93719464417E+03  0.10848743619E+04  0.50461792217E+03  0.15198438833E+04  0.50400001928E-02 0. -1.
       -1    1    3    3    0  502 -0.93719464417E+03 -0.10848743619E+04  0.18879905729E+03  0.14460052788E+04  0.50400001928E-02 0.  1.
</event>
<event>
 5   0  0.1235252E-06  0.2808543E+04  0.7818609E-02  0.8300621E-01
       -1   -1    0    0    0  501  0.00000000000E+00  0.00000000000E+00  0.82146796676E+03  0.82146796677E+03  0.50400001928E-02 0.  1.
        1   -1    0    0  501    0  0.00000000000E+00  0.00000000000E+00 -0.24005543182E+04  0.24005543182E+04  0.50400001928E-02 0. -1.
    10030    2    1    2    0    0  0.00000000000E+00  0.00000000000E+00 -0.15790863514E+04  0.32220222849E+04  0.28085430208E+04 0.  0.
        1    1    3    3  502    0 -0.34105491311E+03  0.13583922077E+04 -0.90670948523E+03  0.16684333773E+04  0.50400001928E-02 0.  1.
       -1    1    3    3    0  502  0.34105491311E+03 -0.13583922077E+04 -0.67237686618E+03  0.15535889077E+04  0.50400001928E-02 0. -1.
</event>
<event>
 5   0  0.3162695E-06  0.2814423E+04  0.7818609E-02  0.8298804E-01
        2   -1    0    0  501    0  0.00000000000E+00  0.00000000000E+00  0.90769136310E+03  0.90769136311E+03  0.25500000920E-02 0. -1.
       -2   -1    0    0    0  501  0.00000000000E+00  0.00000000000E+00 -0.21816279527E+04  0.21816279527E+04  0.25500000920E-02 0.  1.
    10030    2    1    2    0    0  0.00000000000E+00  0.00000000000E+00 -0.12739365896E+04  0.30893193158E+04  0.28144234580E+04 0.  0.
        1    1    3    3  502    0 -0.10930550852E+04 -0.36908373284E+03 -0.15214324082E+04  0.19093844018E+04  0.50400001928E-02 0.  1.
       -1    1    3    3    0  502  0.10930550852E+04  0.36908373284E+03  0.24749581857E+03  0.11799349140E+04  0.50400001928E-02 0. -1.
</event>
<event>
 5   0  0.1263513E-06  0.2799047E+04  0.7818609E-02  0.8303564E-01
        1   -1    0    0  501    0  0.00000000000E+00  0.00000000000E+00  0.21797466289E+04  0.21797466289E+04  0.50400001928E-02 0. -1.
       -1   -1    0    0    0  501  0.00000000000E+00  0.00000000000E+00 -0.89857503369E+03  0.89857503370E+03  0.50400001928E-02 0.  1.
    10030    2    1    2    0    0  0.00000000000E+00  0.00000000000E+00  0.12811715952E+04  0.30783216626E+04  0.27990469096E+04 0.  0.
        3    1    3    3  502    0 -0.35218091546E+03 -0.91741008972E+03  0.17365010299E+04  0.19952715371E+04  0.10100000352E+00 0. -1.
       -3    1    3    3    0  502  0.35218091546E+03  0.91741008972E+03 -0.45532943469E+03  0.10830501254E+04  0.10100000352E+00 0.  1.
</event>
<event>
 5   0  0.1235252E-06  0.2808384E+04  0.7818609E-02  0.8300670E-01
        1   -1    0    0  501    0  0.00000000000E+00  0.00000000000E+00  0.16410503714E+04  0.16410503714E+04  0.50400001928E-02 0. -1.
       -1   -1    0    0    0  501  0.00000000000E+00  0.00000000000E+00 -0.12015199808E+04  0.12015199808E+04  0.50400001928E-02 0.  1.
    10030    2    1    2    0    0  0.00000000000E+00  0.00000000000E+00  0.43953039053E+03  0.28425703522E+04  0.28083837421E+04 0.  0.
        1    1    3    3  502    0 -0.12019895700E+04 -0.70790099517E+03  0.38250822416E+03  0.14464491996E+04  0.50400001928E-02 0. -1.
       -1    1    3    3    0  502  0.12019895700E+04  0.70790099517E+03  0.57022166373E+02  0.13961211526E+04  0.50400001928E-02 0.  1.
</event>
<event>
 5   0  0.3167616E-06  0.2641520E+04  0.7818609E-02  0.8354233E-01
       -2   -1    0    0    0  501  0.00000000000E+00  0.00000000000E+00  0.13470591896E+04  0.13470591896E+04  0.25500000920E-02 0. -1.
        2   -1    0    0  501    0  0.00000000000E+00  0.00000000000E+00 -0.12949738593E+04  0.12949738593E+04  0.25500000920E-02 0.  1.
    10030    2    1    2    0    0  0.00000000000E+00  0.00000000000E+00  0.52085330368E+02  0.26420330489E+04  0.26415195911E+04 0.  0.
        3    1    3    3  502    0  0.11092812991E+04 -0.49181208911E+03 -0.49561628213E+03  0.13107324825E+04  0.10100000352E+00 0.  1.
       -3    1    3    3    0  502 -0.11092812991E+04  0.49181208911E+03  0.54770161250E+03  0.13313005664E+04  0.10100000352E+00 0. -1.
</event>
<event>
 5   0  0.3226364E-06  0.2798297E+04  0.7818609E-02  0.8303797E-01
        2   -1    0    0  501    0  0.00000000000E+00  0.00000000000E+00  0.31150249538E+04  0.31150249538E+04  0.25500000920E-02 0. -1.
       -2   -1    0    0    0  501  0.00000000000E+00  0.00000000000E+00 -0.62844337385E+03  0.62844337386E+03  0.25500000920E-02 0.  1.
    10030    2    1    2    0    0  0.00000000000E+00  0.00000000000E+00  0.24865815799E+04  0.37434683276E+04  0.27982971905E+04 0.  0.
        5    1    3    3  502    0  0.51397243694E+03  0.12949880448E+04  0.14147807690E+04  0.19856455918E+04  0.46999998093E+01 0.  1.
       -5    1    3    3    0  502 -0.51397243694E+03 -0.12949880448E+04  0.10718008110E+04  0.17578227358E+04  0.46999998093E+01 0. -1.
</event>
<event>
 5   0  0.3212679E-06  0.2800965E+04  0.7818609E-02  0.8302969E-01
        2   -1    0    0  501    0  0.00000000000E+00  0.00000000000E+00  0.13532504023E+04  0.13532504023E+04  0.25500000920E-02 0. -1.
       -2   -1    0    0    0  501  0.00000000000E+00  0.00000000000E+00 -0.14493631877E+04  0.14493631877E+04  0.25500000920E-02 0.  1.
    10030    2    1    2    0    0  0.00000000000E+00  0.00000000000E+00 -0.96112785390E+02  0.28026135900E+04  0.28009650600E+04 0.  0.
        4    1    3    3  502    0  0.84319132732E+03 -0.11147047797E+04  0.40377430861E+02  0.13982740469E+04  0.12699999809E+01 0.  1.
       -4    1    3    3    0  502 -0.84319132732E+03  0.11147047797E+04 -0.13649021625E+03  0.14043395431E+04  0.12699999809E+01 0. -1.
</event>
<event>
 5   0  0.3345919E-06  0.2818649E+04  0.7818609E-02  0.8297502E-01
        2   -1    0    0  501    0  0.00000000000E+00  0.00000000000E+00  0.13821126120E+04  0.13821126120E+04  0.25500000920E-02 0.  1.
       -2   -1    0    0    0  501  0.00000000000E+00  0.00000000000E+00 -0.14370717475E+04  0.14370717475E+04  0.25500000920E-02 0. -1.
    10030    2    1    2    0    0  0.00000000000E+00  0.00000000000E+00 -0.54959135509E+02  0.28191843595E+04  0.28186486028E+04 0.  0.
        2    1    3    3  502    0 -0.43775480503E+03 -0.48865892918E+03  0.12200658846E+04  0.13852716633E+04  0.25500000920E-02 0.  1.
       -2    1    3    3    0  502  0.43775480503E+03  0.48865892918E+03 -0.12750250201E+04  0.14339126962E+04  0.25500000920E-02 0. -1.
</event>
<event>
 5   0  0.3167616E-06  0.2803360E+04  0.7818609E-02  0.8302226E-01
        2   -1    0    0  501    0  0.00000000000E+00  0.00000000000E+00  0.19405916485E+04  0.19405916485E+04  0.25500000920E-02 0.  1.
       -2   -1    0    0    0  501  0.00000000000E+00  0.00000000000E+00 -0.10124268461E+04  0.10124268461E+04  0.25500000920E-02 0. -1.
    10030    2    1    2    0    0  0.00000000000E+00  0.00000000000E+00  0.92816480246E+03  0.29530184946E+04  0.28033601854E+04 0.  0.
        3    1    3    3  502    0 -0.42944186897E+03 -0.12586155661E+04 -0.24776587470E+01  0.13298645085E+04  0.10100000352E+00 0. -1.
       -3    1    3    3    0  502  0.42944186897E+03  0.12586155661E+04  0.93064246121E+03  0.16231539861E+04  0.10100000352E+00 0.  1.
</event>
<event>
 5   0  0.1246044E-06  0.2795355E+04  0.7818609E-02  0.8304712E-01
       -1   -1    0    0    0  501  0.00000000000E+00  0.00000000000E+00  0.15871624494E+04  0.15871624494E+04  0.50400001928E-02 0. -1.
        1   -1    0    0  501    0  0.00000000000E+00  0.00000000000E+00 -0.12308147520E+04  0.12308147520E+04  0.50400001928E-02 0.  1.
    10030    2    1    2    0    0  0.00000000000E+00  0.00000000000E+00  0.35634769746E+03  0.28179772014E+04  0.27953554025E+04 0.  0.
        2    1    3    3  502    0  0.85347045095E+03  0.97568660796E+03 -0.34867082342E+03  0.13423663847E+04  0.25500000920E-02 0.  1.
       -2    1    3    3    0  502 -0.85347045095E+03 -0.97568660796E+03  0.70501852088E+03  0.14756108167E+04  0.25500000920E-02 0. -1.
</event>
<event>
 5   0  0.3162695E-06  0.2657892E+04  0.7818609E-02  0.8348798E-01
        2   -1    0    0  501    0  0.00000000000E+00  0.00000000000E+00  0.22599992708E+04  0.22599992708E+04  0.25500000920E-02 0. -1.
       -2   -1    0    0    0  501  0.00000000000E+00  0.00000000000E+00 -0.78145920864E+03  0.78145920864E+03  0.25500000920E-02 0.  1.
    10030    2    1    2    0    0  0.00000000000E+00  0.00000000000E+00  0.14785400621E+04  0.30414584794E+04  0.26578918275E+04 0.  0.
        1    1    3    3  502    0  0.12196842211E+04 -0.30904220414E+03  0.12287369320E+04  0.17586731166E+04  0.50400001928E-02 0. -1.
       -1    1    3    3    0  502 -0.12196842211E+04  0.30904220414E+03  0.24980313013E+03  0.12827853628E+04  0.50400001928E-02 0.  1.
</event>
<event>
 5   0  0.1263513E-06  0.2747896E+04  0.7818609E-02  0.8319630E-01
        1   -1    0    0  501    0  0.00000000000E+00  0.00000000000E+00  0.34219821662E+04  0.34219821663E+04  0.50400001928E-02 0. -1.
       -1   -1    0    0    0  501  0.00000000000E+00  0.00000000000E+00 -0.55164905166E+03  0.55164905169E+03  0.50400001928E-02 0.  1.
    10030    2    1    2    0    0  0.00000000000E+00  0.00000000000E+00  0.28703331146E+04  0.39736312179E+04  0.27478960802E+04 0.  0.
        3    1    3    3  502    0 -0.93425614236E+03 -0.49878520980E+03  0.16945897537E+03  0.10725379152E+04  0.10100000352E+00 0.  1.
       -3    1    3    3    0  502  0.93425614236E+03  0.49878520980E+03  0.27008741392E+04  0.29010933027E+04  0.10100000352E+00 0. -1.
</event>
<event>
 5   0  0.1263513E-06  0.2831085E+04  0.7818609E-02  0.8293682E-01
        1   -1    0    0  501    0  0.00000000000E+00  0.00000000000E+00  0.19960954012E+04  0.19960954012E+04  0.50400001928E-02 0. -1.
       -1   -1    0    0    0  501  0.00000000000E+00  0.00000000000E+00 -0.10038401044E+04  0.10038401045E+04  0.50400001928E-02 0.  1.
    10030    2    1    2    0    0  0.00000000000E+00  0.00000000000E+00  0.99225529672E+03  0.29999355056E+04  0.28310850330E+04 0.  0.
        3    1    3    3  502    0 -0.12508864714E+04  0.61146752268E+03  0.22565714162E+03  0.14105072319E+04  0.10100000352E+00 0.  1.
       -3    1    3    3    0  502  0.12508864714E+04 -0.61146752268E+03  0.76659815509E+03  0.15894282737E+04  0.10100000352E+00 0. -1.
</event>
<event>
 5   0  0.1220265E-06  0.2772902E+04  0.7818609E-02  0.8311731E-01
       -1   -1    0    0    0  501  0.00000000000E+00  0.00000000000E+00  0.11027016869E+04  0.11027016870E+04  0.50400001928E-02 0.  1.
        1   -1    0    0  501    0  0.00000000000E+00  0.00000000000E+00 -0.17432156872E+04  0.17432156872E+04  0.50400001928E-02 0. -1.
    10030    2    1    2    0    0  0.00000000000E+00  0.00000000000E+00 -0.64051400028E+03  0.28459173742E+04  0.27729023633E+04 0.  0.
        4    1    3    3  502    0  0.53303462520E+02  0.10945169444E+04  0.55148267929E+03  0.12267613293E+04  0.12699999809E+01 0.  1.
       -4    1    3    3    0  502 -0.53303462520E+02 -0.10945169444E+04 -0.11919966796E+04  0.16191560449E+04  0.12699999809E+01 0. -1.
</event>
<event>
 5   0  0.3212679E-06  0.2798183E+04  0.7818609E-02  0.8303833E-01
        2   -1    0    0  501    0  0.00000000000E+00  0.00000000000E+00  0.27172996386E+04  0.27172996386E+04  0.25500000920E-02 0.  1.
       -2   -1    0    0    0  501  0.00000000000E+00  0.00000000000E+00 -0.72036833232E+03  0.72036833232E+03  0.25500000920E-02 0. -1.
    10030    2    1    2    0    0  0.00000000000E+00  0.00000000000E+00  0.19969313063E+04  0.34376679709E+04  0.27981827025E+04 0.  0.
        4    1    3    3  502    0 -0.75631715264E+03 -0.54316882318E+03 -0.28440294217E+03  0.97361935697E+03  0.12699999809E+01 0. -1.
       -4    1    3    3    0  502  0.75631715264E+03  0.54316882318E+03  0.22813342485E+04  0.24640486140E+04  0.12699999809E+01 0.  1.
</event>
<event>
 5   0  0.1263513E-06  0.2670841E+04  0.7818609E-02  0.8344528E-01
        1   -1    0    0  501    0  0.00000000000E+00  0.00000000000E+00  0.10852439834E+04  0.10852439834E+04  0.50400001928E-02 0. -1.
       -1   -1    0    0    0  501  0.00000000000E+00  0.00000000000E+00 -0.16432690888E+04  0.16432690888E+04  0.50400001928E-02 0.  1.
    10030    2    1    2    0    0  0.00000000000E+00  0.00000000000E+00 -0.55802510533E+03  0.27285130722E+04  0.26708409850E+04 0.  0.
        3    1    3    3  502    0 -0.60622133567E+02  0.78969227302E+03  0.81940634834E+03  0.11396120845E+04  0.10100000352E+00 0. -1.
       -3    1    3    3    0  502  0.60622133567E+02 -0.78969227302E+03 -0.13774314537E+04  0.15889009878E+04  0.10100000352E+00 0.  1.
</event>
<event>
 5   0  0.3226364E-06  0.2799150E+04  0.7818609E-02  0.8303532E-01
        2   -1    0    0  501    0  0.00000000000E+00  0.00000000000E+00  0.18180776729E+04  0.18180776729E+04  0.25500000920E-02 0. -1.
       -2   -1    0    0    0  501  0.00000000000E+00  0.00000000000E+00 -0.10774074576E+04  0.10774074576E+04  0.25500000920E-02 0.  1.
    10030    2    1    2    0    0  0.00000000000E+00  0.00000000000E+00  0.74067021526E+03  0.28954851305E+04  0.27991501877E+04 0.  0.
        5    1    3    3  502    0  0.62664131628E+03 -0.11763909891E+04 -0.71220211626E+02  0.13347919340E+04  0.46999998093E+01 0.  1.
       -5    1    3    3    0  502 -0.62664131628E+03  0.11763909891E+04  0.81189042689E+03  0.15606931965E+04  0.46999998093E+01 0. -1.
</event>
<event>
 5   0  0.1263513E-06  0.2796915E+04  0.7818609E-02  0.8304227E-01
       -1   -1    0    0    0  501  0.00000000000E+00  0.00000000000E+00  0.13160607563E+04  0.13160607563E+04  0.50400001928E-02 0.  1.
        1   -1    0    0  501    0  0.00000000000E+00  0.00000000000E+00 -0.14860132926E+04  0.14860132926E+04  0.50400001928E-02 0. -1.
    10030    2    1    2    0    0  0.00000000000E+00  0.00000000000E+00 -0.16995253627E+03  0.28020740489E+04  0.27969152849E+04 0.  0.
        3    1    3    3  502    0  0.35771788658E+03  0.13350261509E+04  0.12855262232E+03  0.13880859832E+04  0.10100000352E+00 0. -1.
       -3    1    3    3    0  502 -0.35771788658E+03 -0.13350261509E+04 -0.29850515858E+03  0.14139880657E+04  0.10100000352E+00 0.  1.
</event>
<event>
 5   0  0.3162695E-06  0.2798649E+04  0.7818609E-02  0.8303688E-01
        2   -1    0    0  501    0  0.00000000000E+00  0.00000000000E+00  0.23367669156E+04  0.23367669156E+04  0.25500000920E-02 0.  1.
       -2   -1    0    0    0  501  0.00000000000E+00  0.00000000000E+00 -0.83795668796E+03  0.83795668797E+03  0.25500000920E-02 0. -1.
    10030    2    1    2    0    0  0.00000000000E+00  0.00000000000E+00  0.14988102276E+04  0.31747236036E+04  0.27986492922E+04 0.  0.
        1    1    3    3  502    0  0.37354814975E+02  0.64753998515E+03  0.21559439720E+04  0.22513990817E+04  0.50400001928E-02 0.  1.
       -1    1    3    3    0  502 -0.37354814975E+02 -0.64753998515E+03 -0.65713374441E+03  0.92332452184E+03  0.50400001928E-02 0. -1.
</event>
<event>
 5   0  0.1263513E-06  0.2798310E+04  0.7818609E-02  0.8303793E-01
       -1   -1    0    0    0  501  0.00000000000E+00  0.00000000000E+00  0.76477366492E+03  0.76477366494E+03  0.50400001928E-02 0. -1.
        1   -1    0    0  501    0  0.00000000000E+00  0.00000000000E+00 -0.25597569595E+04  0.25597569595E+04  0.50400001928E-02 0.  1.
    10030    2    1    2    0    0  0.00000000000E+00  0.00000000000E+00 -0.17949832945E+04  0.33245306244E+04  0.27983099980E+04 0.  0.
        3    1    3    3  502    0 -0.68022945403E+03  0.72223308206E+02 -0.23475479097E+04  0.24451808757E+04  0.10100000352E+00 0.  1.
       -3    1    3    3    0  502  0.68022945403E+03 -0.72223308206E+02  0.55256461517E+03  0.87934974869E+03  0.10100000352E+00 0. -1.
</event>
<event>
 5   0  0.3226364E-06  0.2792576E+04  0.7818609E-02  0.8305577E-01
       -2   -1    0    0    0  501  0.00000000000E+00  0.00000000000E+00  0.13456040773E+04  0.13456040773E+04  0.25500000920E-02 0.  1.
        2   -1    0    0  501    0  0.00000000000E+00  0.00000000000E+00 -0.14488812257E+04  0.14488812257E+04  0.25500000920E-02 0. -1.
    10030    2    1    2    0    0  0.00000000000E+00  0.00000000000E+00 -0.10327714841E+03  0.27944853030E+04  0.27925762191E+04 0.  0.
        5    1    3    3  502    0 -0.51687213501E+03 -0.92938592071E+03 -0.95706838045E+03  0.14307050599E+04  0.46999998093E+01 0. -1.
       -5    1    3    3    0  502  0.51687213501E+03  0.92938592071E+03  0.85379123203E+03  0.13637802431E+04  0.46999998093E+01 0.  1.
</event>
<event>
 5   0  0.3167616E-06  0.2802743E+04  0.7818609E-02  0.8302417E-01
       -2   -1    0    0    0  501  0.00000000000E+00  0.00000000000E+00  0.10704084438E+04  0.10704084439E+04  0.25500000920E-02 0. -1.
        2   -1    0    0  501    0  0.00000000000E+00  0.00000000000E+00 -0.18346664248E+04  0.18346664248E+04  0.25500000920E-02 0.  1.
    10030    2    1    2    0    0  0.00000000000E+00  0.00000000000E+00 -0.76425798092E+03  0.29050748686E+04  0.28027432510E+04 0.  0.
        3    1    3    3  502    0 -0.65735937570E+03 -0.96562547519E+03  0.42027298909E+03  0.12414440393E+04  0.10100000352E+00 0. -1.
       -3    1    3    3    0  502  0.65735937570E+03  0.96562547519E+03 -0.11845309700E+04  0.16636308293E+04  0.10100000352E+00 0.  1.
</event>
<event>
 5   0  0.3167616E-06  0.2796248E+04  0.7818609E-02  0.8304434E-01
       -2   -1    0    0    0  501  0.00000000000E+00  0.00000000000E+00  0.17623675563E+04  0.17623675563E+04  0.25500000920E-02 0.  1.
        2   -1    0    0  501    0  0.00000000000E+00  0.00000000000E+00 -0.11091615634E+04  0.11091615634E+04  0.25500000920E-02 0. -1.
    10030    2    1    2    0    0  0.00000000000E+00  0.00000000000E+00  0.65320599285E+03  0.28715291197E+04  0.27962477387E+04 0.  0.
        3    1    3    3  502    0 -0.90750092269E+03  0.15800744223E+03  0.14066919462E+04  0.16814596392E+04  0.10100000352E+00 0.  1.
       -3    1    3    3    0  502  0.90750092269E+03 -0.15800744223E+03 -0.75348595331E+03  0.11900694805E+04  0.10100000352E+00 0. -1.
</event>
<event>
 5   0  0.1235252E-06  0.2754933E+04  0.7818609E-02  0.8317398E-01
        1   -1    0    0  501    0  0.00000000000E+00  0.00000000000E+00  0.22562346518E+04  0.22562346518E+04  0.50400001928E-02 0. -1.
       -1   -1    0    0    0  501  0.00000000000E+00  0.00000000000E+00 -0.84096510331E+03  0.84096510333E+03  0.50400001928E-02 0.  1.
    10030    2    1    2    0    0  0.00000000000E+00  0.00000000000E+00  0.14152695485E+04  0.30971997551E+04  0.27549334708E+04 0.  0.
        1    1    3    3  502    0  0.11060581202E+04  0.74518790818E+03  0.32022924995E+03  0.13715744079E+04  0.50400001928E-02 0. -1.
       -1    1    3    3    0  502 -0.11060581202E+04 -0.74518790818E+03  0.10950402985E+04  0.17256253473E+04  0.50400001928E-02 0.  1.
</event>
<event>
 5   0  0.1220265E-06  0.2807415E+04  0.7818609E-02  0.8300970E-01
        1   -1    0    0  501    0  0.00000000000E+00  0.00000000000E+00  0.18181156591E+04  0.18181156591E+04  0.50400001928E-02 0. -1.
       -1   -1    0    0    0  501  0.00000000000E+00  0.00000000000E+00 -0.10837567094E+04  0.10837567094E+04  0.50400001928E-02 0.  1.
    10030    2    1    2    0    0  0.00000000000E+00  0.00000000000E+00  0.73435894973E+03  0.29018723686E+04  0.28074152127E+04 0.  0.
        4    1    3    3  502    0 -0.98048616615E+03 -0.90607040675E+03 -0.81090022009E+02  0.13374953864E+04  0.12699999809E+01 0.  1.
       -4    1    3    3    0  502  0.98048616615E+03  0.90607040675E+03  0.81544897174E+03  0.15643769822E+04  0.12699999809E+01 0. -1.
</event>
<event>
 5   0  0.1235252E-06  0.2783153E+04  0.7818609E-02  0.8308518E-01
       -1   -1    0    0    0  501  0.00000000000E+00  0.00000000000E+00  0.13501062019E+04  0.13501062019E+04  0.50400001928E-02 0. -1.
        1   -1    0    0  501    0  0.00000000000E+00  0.00000000000E+00 -0.14343203869E+04  0.14343203869E+04  0.50400001928E-02 0.  1.
    10030    2    1    2    0    0  0.00000000000E+00  0.00000000000E+00 -0.84214185036E+02  0.27844265888E+04  0.27831527805E+04 0.  0.
        1    1    3    3  502    0  0.12048657135E+04 -0.50495865572E+03 -0.52170131563E+03  0.14067184844E+04  0.50400001928E-02 0.  1.
       -1    1    3    3    0  502 -0.12048657135E+04  0.50495865572E+03  0.43748713059E+03  0.13777081044E+04  0.50400001928E-02 0. -1.
</event>
<event>
 5   0  0.1065675E-06  0.2806273E+04  0.7818609E-02  0.8301324E-01
       -3   -1    0    0    0  501  0.00000000000E+00  0.00000000000E+00  0.87776057957E+03  0.87776058538E+03  0.10100000352E+00 0. -1.
        3   -1    0    0  501    0  0.00000000000E+00  0.00000000000E+00 -0.22429713018E+04  0.22429713041E+04  0.10100000352E+00 0.  1.
    10030    2    1    2    0    0  0.00000000000E+00  0.00000000000E+00 -0.13652107222E+04  0.31207318895E+04  0.28062728324E+04 0.  0.
        5    1    3    3  502    0 -0.91848130377E+03  0.94660681648E+03 -0.15032971928E+03  0.13275140244E+04  0.46999998093E+01 0. -1.
       -5    1    3    3    0  502  0.91848130377E+03 -0.94660681648E+03 -0.12148810030E+04  0.17932178651E+04  0.46999998093E+01 0.  1.
</event>
<event>
 5   0  0.1243055E-06  0.2787737E+04  0.7818609E-02  0.8307086E-01
       -1   -1    0    0    0  501  0.00000000000E+00  0.00000000000E+00  0.15214788653E+04  0.15214788653E+04  0.50400001928E-02 0.  1.
        1   -1    0    0  501    0  0.00000000000E+00  0.00000000000E+00 -0.12769610700E+04  0.12769610700E+04  0.50400001928E-02 0. -1.
    10030    2    1    2    0    0  0.00000000000E+00  0.00000000000E+00  0.24451779530E+03  0.27984399353E+04  0.27877369172E+04 0.  0.
        5    1    3    3  502    0 -0.10383172842E+04  0.47387036375E+03  0.92545035835E+03  0.14694000000E+04  0.46999998093E+01 0.  1.
       -5    1    3    3    0  502  0.10383172842E+04 -0.47387036375E+03 -0.68093256305E+03  0.13290399353E+04  0.46999998093E+01 0. -1.
</event>
<event>
 5   0  0.1220265E-06  0.2797976E+04  0.7818609E-02  0.8303897E-01
        1   -1    0    0  501    0  0.00000000000E+00  0.00000000000E+00  0.19158425541E+04  0.19158425541E+04  0.50400001928E-02 0.  1.
       -1   -1    0    0    0  501  0.00000000000E+00  0.00000000000E+00 -0.10215702452E+04  0.10215702452E+04  0.50400001928E-02 0. -1.
    10030    2    1    2    0    0  0.00000000000E+00  0.00000000000E+00  0.89427230885E+03  0.29374127993E+04  0.27979762313E+04 0.  0.
        4    1    3    3  502    0 -0.43568773723E+03  0.11173955212E+04  0.12032866006E+04  0.16989104777E+04  0.12699999809E+01 0. -1.
       -4    1    3    3    0  502  0.43568773723E+03 -0.11173955212E+04 -0.30901429178E+03  0.12385023216E+04  0.12699999809E+01 0.  1.
</event>
<event>
 5   0  0.1246044E-06  0.2799565E+04  0.7818609E-02  0.8303403E-01
        1   -1    0    0  501    0  0.00000000000E+00  0.00000000000E+00  0.10651796856E+04  0.10651796856E+04  0.50400001928E-02 0. -1.
       -1   -1    0    0    0  501  0.00000000000E+00  0.00000000000E+00 -0.18394935956E+04  0.18394935956E+04  0.50400001928E-02 0.  1.
    10030    2    1    2    0    0  0.00000000000E+00  0.00000000000E+00 -0.77431391003E+03  0.29046732812E+04  0.27995651161E+04 0.  0.
        2    1    3    3  502    0  0.82964762375E+03  0.43083863784E+02  0.78173706719E+03  0.11407384631E+04  0.25500000920E-02 0. -1.
       -2    1    3    3    0  502 -0.82964762375E+03 -0.43083863784E+02 -0.15560509772E+04  0.17639348181E+04  0.25500000920E-02 0.  1.
</event>
<event>
 5   0  0.3345919E-06  0.2806092E+04  0.7818609E-02  0.8301380E-01
       -2   -1    0    0    0  501  0.00000000000E+00  0.00000000000E+00  0.17052626936E+04  0.17052626936E+04  0.25500000920E-02 0.  1.
        2   -1    0    0  501    0  0.00000000000E+00  0.00000000000E+00 -0.11543897386E+04  0.11543897386E+04  0.25500000920E-02 0. -1.
    10030    2    1    2    0    0  0.00000000000E+00  0.00000000000E+00  0.55087295500E+03  0.28596524321E+04  0.28060917697E+04 0.  0.
        2    1    3    3  502    0 -0.20489440365E+03  0.59711810102E+03  0.15523516255E+04  0.16758064663E+04  0.25500000920E-02 0.  1.
       -2    1    3    3    0  502  0.20489440365E+03 -0.59711810102E+03 -0.10014786705E+04  0.11838459658E+04  0.25500000920E-02 0. -1.
</event>
<event>
 5   0  0.1243055E-06  0.2798866E+04  0.7818609E-02  0.8303620E-01
        1   -1    0    0  501    0  0.00000000000E+00  0.00000000000E+00  0.17722164567E+04  0.17722164568E+04  0.50400001928E-02 0.  1.
       -1   -1    0    0    0  501  0.00000000000E+00  0.00000000000E+00 -0.11050640868E+04  0.11050640868E+04  0.50400001928E-02 0. -1.
    10030    2    1    2    0    0  0.00000000000E+00  0.00000000000E+00  0.66715236997E+03  0.28772805435E+04  0.27988660278E+04 0.  0.
        5    1    3    3  502    0  0.13575535105E+04  0.31591180597E+03  0.46213526176E+03  0.14684491456E+04  0.46999998093E+01 0.  1.
       -5    1    3    3    0  502 -0.13575535105E+04 -0.31591180597E+03  0.20501710821E+03  0.14088313979E+04  0.46999998093E+01 0. -1.
</event>
<event>
 5   0  0.1263513E-06  0.2773128E+04  0.7818609E-02  0.8311660E-01
       -1   -1    0    0    0  501  0.00000000000E+00  0.00000000000E+00  0.74243810845E+03  0.74243810846E+03  0.50400001928E-02 0. -1.
        1   -1    0    0  501    0  0.00000000000E+00  0.00000000000E+00 -0.25895221877E+04  0.25895221877E+04  0.50400001928E-02 0.  1.
    10030    2    1    2    0    0  0.00000000000E+00  0.00000000000E+00 -0.18470840792E+04  0.33319602961E+04  0.27731281650E+04 0.  0.
        3    1    3    3  502    0 -0.23575015930E+03  0.88116995084E+03 -0.21782624342E+04  0.23615388759E+04  0.10100000352E+00 0.  1.
       -3    1    3    3    0  502  0.23575015930E+03 -0.88116995084E+03  0.33117835498E+03  0.97042142025E+03  0.10100000352E+00 0. -1.
</event>
<event>
 5   0  0.3345919E-06  0.2784708E+04  0.7818609E-02  0.8308032E-01
       -2   -1    0    0    0  501  0.00000000000E+00  0.00000000000E+00  0.85225370035E+03  0.85225370035E+03  0.25500000920E-02 0.  1.
        2   -1    0    0  501    0  0.00000000000E+00  0.00000000000E+00 -0.22747328607E+04  0.22747328607E+04  0.25500000920E-02 0. -1.
    10030    2    1    2    0    0  0.00000000000E+00  0.00000000000E+00 -0.14224791604E+04  0.31269865611E+04  0.27847078826E+04 0.  0.
        2    1    3    3  502    0 -0.29556355410E+03 -0.72480014081E+03 -0.20042767191E+04  0.21517012398E+04  0.25500000920E-02 0. -1.
       -2    1    3    3    0  502  0.29556355410E+03  0.72480014081E+03  0.58179755870E+03  0.97528532130E+03  0.25500000920E-02 0.  1.
</event>
<event>
 5   0  0.1246044E-06  0.2871908E+04  0.7818609E-02  0.8281285E-01
        1   -1    0    0  501    0  0.00000000000E+00  0.00000000000E+00  0.23943021463E+04  0.23943021464E+04  0.50400001928E-02 0. -1.
       -1   -1    0    0    0  501  0.00000000000E+00  0.00000000000E+00 -0.86119590499E+03  0.86119590500E+03  0.50400001928E-02 0.  1.
    10030    2    1    2    0    0  0.00000000000E+00  0.00000000000E+00  0.15331062414E+04  0.32554980514E+04  0.28719075220E+04 0.  0.
        2    1    3    3  502    0  0.11248324952E+04  0.85835309832E+03  0.48901442441E+03  0.14970481926E+04  0.25500000920E-02 0. -1.
       -2    1    3    3    0  502 -0.11248324952E+04 -0.85835309832E+03  0.10440918169E+04  0.17584498588E+04  0.25500000920E-02 0.  1.
</event>
<event>
 5   0  0.1243055E-06  0.2807687E+04  0.7818609E-02  0.8300886E-01
        1   -1    0    0  501    0  0.00000000000E+00  0.00000000000E+00  0.18312753268E+04  0.18312753268E+04  0.50400001928E-02 0.  1.
       -1   -1    0    0    0  501  0.00000000000E+00  0.00000000000E+00 -0.10761772990E+04  0.10761772990E+04  0.50400001928E-02 0. -1.
    10030    2    1    2    0    0  0.00000000000E+00  0.00000000000E+00  0.75509802775E+03  0.29074526258E+04  0.28076872582E+04 0.  0.
        5    1    3    3  502    0  0.75894214769E+03 -0.72138250505E+03  0.13458520143E+04  0.17052054529E+04  0.46999998093E+01 0.  1.
       -5    1    3    3    0  502 -0.75894214769E+03  0.72138250505E+03 -0.59075398660E+03  0.12022471729E+04  0.46999998093E+01 0. -1.
</event>
<event>
 5   0  0.3162695E-06  0.2800156E+04  0.7818609E-02  0.8303220E-01
        2   -1    0    0  501    0  0.00000000000E+00  0.00000000000E+00  0.16241112386E+04  0.16241112386E+04  0.25500000920E-02 0.  1.
       -2   -1    0    0    0  501  0.00000000000E+00  0.00000000000E+00 -0.12069483706E+04  0.12069483706E+04  0.25500000920E-02 0. -1.
    10030    2    1    2    0    0  0.00000000000E+00  0.00000000000E+00  0.41716286807E+03  0.28310596092E+04  0.28001560050E+04 0.  0.
        1    1    3    3  502    0 -0.64757768344E+03  0.58403334072E+02  0.14622056482E+04  0.16002540933E+04  0.50400001928E-02 0.  1.
       -1    1    3    3    0  502  0.64757768344E+03 -0.58403334072E+02 -0.10450427802E+04  0.12308055159E+04  0.50400001928E-02 0. -1.
</event>
<event>
 5   0  0.3345919E-06  0.2756832E+04  0.7818609E-02  0.8316797E-01
        2   -1    0    0  501    0  0.00000000000E+00  0.00000000000E+00  0.14560133925E+04  0.14560133925E+04  0.25500000920E-02 0. -1.
       -2   -1    0    0    0  501  0.00000000000E+00  0.00000000000E+00 -0.13049541091E+04  0.13049541091E+04  0.25500000920E-02 0.  1.
    10030    2    1    2    0    0  0.00000000000E+00  0.00000000000E+00  0.15105928339E+03  0.27609675016E+04  0.27568319931E+04 0.  0.
        2    1    3    3  502    0 -0.49241168630E+03 -0.10665088014E+03 -0.12094332204E+04  0.13101802905E+04  0.25500000920E-02 0.  1.
       -2    1    3    3    0  502  0.49241168630E+03  0.10665088014E+03  0.13604925038E+04  0.14507872111E+04  0.25500000920E-02 0. -1.
</event>
<event>
 5   0  0.3162695E-06  0.2782571E+04  0.7818609E-02  0.8308700E-01
        2   -1    0    0  501    0  0.00000000000E+00  0.00000000000E+00  0.28209287366E+04  0.28209287366E+04  0.25500000920E-02 0. -1.
       -2   -1    0    0    0  501  0.00000000000E+00  0.00000000000E+00 -0.68618382270E+03  0.68618382270E+03  0.25500000920E-02 0.  1.
    10030    2    1    2    0    0  0.00000000000E+00  0.00000000000E+00  0.21347449139E+04  0.35071125593E+04  0.27825712311E+04 0.  0.
        1    1    3    3  502    0 -0.51992446316E+03 -0.11599429056E+04  0.17802279279E+04  0.21874643921E+04  0.50400001928E-02 0. -1.
       -1    1    3    3    0  502  0.51992446316E+03  0.11599429056E+04  0.35451698605E+03  0.13196481672E+04  0.50400001928E-02 0.  1.
</event>
<event>
 5   0  0.3226364E-06  0.2848371E+04  0.7818609E-02  0.8288406E-01
        2   -1    0    0  501    0  0.00000000000E+00  0.00000000000E+00  0.20596724223E+04  0.20596724223E+04  0.25500000920E-02 0. -1.
       -2   -1    0    0    0  501  0.00000000000E+00  0.00000000000E+00 -0.98477064141E+03  0.98477064141E+03  0.25500000920E-02 0.  1.
    10030    2    1    2    0    0  0.00000000000E+00  0.00000000000E+00  0.10749017809E+04  0.30444430637E+04  0.28483714171E+04 0.  0.
        5    1    3    3  502    0  0.21899403012E+03  0.98241209715E+03  0.16143750043E+04  0.19024512237E+04  0.46999998093E+01 0. -1.
       -5    1    3    3    0  502 -0.21899403012E+03 -0.98241209715E+03 -0.53947322345E+03  0.11419918400E+04  0.46999998093E+01 0.  1.
</event>
<event>
 5   0  0.3212679E-06  0.2793667E+04  0.7818609E-02  0.8305237E-01
       -2   -1    0    0    0  501  0.00000000000E+00  0.00000000000E+00  0.93988965399E+03  0.93988965400E+03  0.25500000920E-02 0.  1.
        2   -1    0    0  501    0  0.00000000000E+00  0.00000000000E+00 -0.20759280055E+04  0.20759280055E+04  0.25500000920E-02 0. -1.
    10030    2    1    2    0    0  0.00000000000E+00  0.00000000000E+00 -0.11360383515E+04  0.30158176595E+04  0.27936665906E+04 0.  0.
        4    1    3    3  502    0 -0.10696333382E+04 -0.41842059430E+03 -0.14261865353E+04  0.18311747372E+04  0.12699999809E+01 0. -1.
       -4    1    3    3    0  502  0.10696333382E+04  0.41842059430E+03  0.29014818373E+03  0.11846429223E+04  0.12699999809E+01 0.  1.
</event>
<event>
 5   0  0.3162695E-06  0.2830428E+04  0.7818609E-02  0.8293883E-01
       -2   -1    0    0    0  501  0.00000000000E+00  0.00000000000E+00  0.14613382115E+04  0.14613382115E+04  0.25500000920E-02 0.  1.
        2   -1    0    0  501    0  0.00000000000E+00  0.00000000000E+00 -0.13705458062E+04  0.13705458062E+04  0.25500000920E-02 0. -1.
    10030    2    1    2    0    0  0.00000000000E+00  0.00000000000E+00  0.90792405337E+02  0.28318840177E+04  0.28304282060E+04 0.  0.
        1    1    3    3  502    0 -0.12895003365E+04 -0.39096643680E+03  0.47824452314E+03  0.14298194629E+04  0.50400001928E-02 0.  1.
       -1    1    3    3    0  502  0.12895003365E+04  0.39096643680E+03 -0.38745211780E+03  0.14020645549E+04  0.50400001928E-02 0. -1.
</event>
<event>
 5   0  0.1220265E-06  0.2831819E+04  0.7818609E-02  0.8293457E-01
        1   -1    0    0  501    0  0.00000000000E+00  0.00000000000E+00  0.13725305753E+04  0.13725305753E+04  0.50400001928E-02 0. -1.
       -1   -1    0    0    0  501  0.00000000000E+00  0.00000000000E+00 -0.14606594829E+04  0.14606594829E+04  0.50400001928E-02 0.  1.
    10030    2    1    2    0    0  0.00000000000E+00  0.00000000000E+00 -0.88128907633E+02  0.28331900582E+04  0.28318190623E+04 0.  0.
        4    1    3    3  502    0  0.11821966550E+02 -0.65542737784E+03  0.12115624259E+04  0.13775376334E+04  0.12699999809E+01 0. -1.
       -4    1    3    3    0  502 -0.11821966550E+02  0.65542737784E+03 -0.12996913336E+04  0.14556524249E+04  0.12699999809E+01 0.  1.
</event>
<event>
 5   0  0.3345919E-06  0.2793650E+04  0.7818609E-02  0.8305243E-01
        2   -1    0    0  501    0  0.00000000000E+00  0.00000000000E+00  0.18106619748E+04  0.18106619748E+04  0.25500000920E-02 0. -1.
       -2   -1    0    0    0  501  0.00000000000E+00  0.00000000000E+00 -0.10775727151E+04  0.10775727151E+04  0.25500000920E-02 0.  1.
    10030    2    1    2    0    0  0.00000000000E+00  0.00000000000E+00  0.73308925974E+03  0.28882346899E+04  0.27936498996E+04 0.  0.
        2    1    3    3  502    0 -0.25330431809E+03 -0.11301516572E+04 -0.44073430060E+03  0.12392144970E+04  0.25500000920E-02 0.  1.
       -2    1    3    3    0  502  0.25330431809E+03  0.11301516572E+04  0.11738235603E+04  0.16490201929E+04  0.25500000920E-02 0. -1.
</event>
<event>
 5   0  0.3167616E-06  0.2810501E+04  0.7818609E-02  0.8300016E-01
       -2   -1    0    0    0  501  0.00000000000E+00  0.00000000000E+00  0.89965734986E+03  0.89965734986E+03  0.25500000920E-02 0.  1.
        2   -1    0    0  501    0  0.00000000000E+00  0.00000000000E+00 -0.21949791965E+04  0.21949791965E+04  0.25500000920E-02 0. -1.
    10030    2    1    2    0    0  0.00000000000E+00  0.00000000000E+00 -0.12953218466E+04  0.30946365464E+04  0.28105011417E+04 0.  0.
        3    1    3    3  502    0  0.10333832258E+04  0.42252188822E+03 -0.15873583798E+04  0.19406473851E+04  0.10100000352E+00 0. -1.
       -3    1    3    3    0  502 -0.10333832258E+04 -0.42252188822E+03  0.29203653311E+03  0.11539891612E+04  0.10100000352E+00 0.  1.
</event>
<event>
 5   0  0.1065675E-06  0.2781051E+04  0.7818609E-02  0.8309175E-01
       -4   -1    0    0    0  501  0.00000000000E+00  0.00000000000E+00  0.14746629769E+04  0.14746635238E+04  0.12699999809E+01 0.  1.
        4   -1    0    0  501    0  0.00000000000E+00  0.00000000000E+00 -0.13111878358E+04  0.13111884509E+04  0.12699999809E+01 0. -1.
    10030    2    1    2    0    0  0.00000000000E+00  0.00000000000E+00  0.16347514111E+03  0.27858519747E+04  0.27810514384E+04 0.  0.
        4    1    3    3  502    0  0.16078620940E+03 -0.11938027803E+04  0.77758971616E+03  0.14337589278E+04  0.12699999809E+01 0.  1.
       -4    1    3    3    0  502 -0.16078620940E+03  0.11938027803E+04 -0.61411457505E+03  0.13520930469E+04  0.12699999809E+01 0. -1.
</event>
<event>
 5   0  0.3162695E-06  0.2802761E+04  0.7818609E-02  0.8302412E-01
       -2   -1    0    0    0  501  0.00000000000E+00  0.00000000000E+00  0.10981022373E+04  0.10981022373E+04  0.25500000920E-02 0. -1.
        2   -1    0    0  501    0  0.00000000000E+00  0.00000000000E+00 -0.17884191902E+04  0.17884191902E+04  0.25500000920E-02 0.  1.
    10030    2    1    2    0    0  0.00000000000E+00  0.00000000000E+00 -0.69031695288E+03  0.28865214275E+04  0.28027608632E+04 0.  0.
        1    1    3    3  502    0 -0.30742641084E+02 -0.13954523758E+04 -0.47393393744E+03  0.14740576041E+04  0.50400001928E-02 0.  1.
       -1    1    3    3    0  502  0.30742641084E+02  0.13954523758E+04 -0.21638301544E+03  0.14124638234E+04  0.50400001928E-02 0. -1.
</event>
<event>
 5   0  0.1235252E-06  0.2813104E+04  0.7818609E-02  0.8299212E-01
       -1   -1    0    0    0  501  0.00000000000E+00  0.00000000000E+00  0.17208139559E+04  0.17208139559E+04  0.50400001928E-02 0.  1.
        1   -1    0    0  501    0  0.00000000000E+00  0.00000000000E+00 -0.11496819108E+04  0.11496819108E+04  0.50400001928E-02 0. -1.
    10030    2    1    2    0    0  0.00000000000E+00  0.00000000000E+00  0.57113204514E+03  0.28704958667E+04  0.28131041054E+04 0.  0.
        1    1    3    3  502    0 -0.38977117137E+02  0.13771861871E+03 -0.11422317892E+04  0.11511642342E+04  0.50400001928E-02 0. -1.
       -1    1    3    3    0  502  0.38977117137E+02 -0.13771861871E+03  0.17133638344E+04  0.17193316325E+04  0.50400001928E-02 0.  1.
</event>
<event>
 5   0  0.3345919E-06  0.2798497E+04  0.7818609E-02  0.8303735E-01
       -2   -1    0    0    0  501  0.00000000000E+00  0.00000000000E+00  0.25101600836E+04  0.25101600836E+04  0.25500000920E-02 0. -1.
        2   -1    0    0  501    0  0.00000000000E+00  0.00000000000E+00 -0.77998877275E+03  0.77998877275E+03  0.25500000920E-02 0.  1.
    10030    2    1    2    0    0  0.00000000000E+00  0.00000000000E+00  0.17301713109E+04  0.32901488564E+04  0.27984972275E+04 0.  0.
        2    1    3    3  502    0  0.16033282318E+03 -0.13185531711E+04  0.13823968434E+04  0.19171098331E+04  0.25500000920E-02 0. -1.
       -2    1    3    3    0  502 -0.16033282318E+03  0.13185531711E+04  0.34777446746E+03  0.13730390233E+04  0.25500000920E-02 0.  1.
</event>
<event>
 5   0  0.1243055E-06  0.2808201E+04  0.7818609E-02  0.8300727E-01
       -1   -1    0    0    0  501  0.00000000000E+00  0.00000000000E+00  0.15288557907E+04  0.15288557907E+04  0.50400001928E-02 0.  1.
        1   -1    0    0  501    0  0.00000000000E+00  0.00000000000E+00 -0.12895253634E+04  0.12895253634E+04  0.50400001928E-02 0. -1.
    10030    2    1    2    0    0  0.00000000000E+00  0.00000000000E+00  0.23933042728E+03  0.28183811542E+04  0.28082010748E+04 0.  0.
        5    1    3    3  502    0  0.37698950282E+03 -0.97613280370E+03  0.10592855627E+04  0.14889809700E+04  0.46999998093E+01 0.  1.
       -5    1    3    3    0  502 -0.37698950282E+03  0.97613280370E+03 -0.81995513538E+03  0.13294001842E+04  0.46999998093E+01 0. -1.
</event>
<event>
 5   0  0.3226364E-06  0.2785563E+04  0.7818609E-02  0.8307764E-01
        2   -1    0    0  501    0  0.00000000000E+00  0.00000000000E+00  0.19113013340E+04  0.19113013340E+04  0.25500000920E-02 0.  1.
       -2   -1    0    0    0  501  0.00000000000E+00  0.00000000000E+00 -0.10149318256E+04  0.10149318256E+04  0.25500000920E-02 0. -1.
    10030    2    1    2    0    0  0.00000000000E+00  0.00000000000E+00  0.89636950839E+03  0.29262331596E+04  0.27855631762E+04 0.  0.
        5    1    3    3  502    0 -0.86821910765E+03  0.73627616902E+03 -0.39477916713E+03  0.12048982101E+04  0.46999998093E+01 0. -1.
       -5    1    3    3    0  502  0.86821910765E+03 -0.73627616902E+03  0.12911486755E+04  0.17213349495E+04  0.46999998093E+01 0.  1.
</event>
<event>
 5   0  0.1220265E-06  0.2795530E+04  0.7818609E-02  0.8304657E-01
       -1   -1    0    0    0  501  0.00000000000E+00  0.00000000000E+00  0.12552906585E+04  0.12552906585E+04  0.50400001928E-02 0.  1.
        1   -1    0    0  501    0  0.00000000000E+00  0.00000000000E+00 -0.15564104219E+04  0.15564104219E+04  0.50400001928E-02 0. -1.
    10030    2    1    2    0    0  0.00000000000E+00  0.00000000000E+00 -0.30111976344E+03  0.28117010804E+04  0.27955303350E+04 0.  0.
        4    1    3    3  502    0  0.76590090139E+03 -0.11619554986E+04 -0.28170229823E+03  0.14198952670E+04  0.12699999809E+01 0.  1.
       -4    1    3    3    0  502 -0.76590090139E+03  0.11619554986E+04 -0.19417465204E+02  0.13918058134E+04  0.12699999809E+01 0. -1.
</event>
<event>
 5   0  0.3212679E-06  0.2825356E+04  0.7818609E-02  0.8295439E-01
       -2   -1    0    0    0  501  0.00000000000E+00  0.00000000000E+00  0.10530881913E+04  0.10530881913E+04  0.25500000920E-02 0.  1.
        2   -1    0    0  501    0  0.00000000000E+00  0.00000000000E+00 -0.18950539719E+04  0.18950539719E+04  0.25500000920E-02 0. -1.
    10030    2    1    2    0    0  0.00000000000E+00  0.00000000000E+00 -0.84196578065E+03  0.29481421633E+04  0.28253558783E+04 0.  0.
        4    1    3    3  502    0 -0.45264239334E+03 -0.13328885767E+04 -0.29672692434E+03  0.14385845733E+04  0.12699999809E+01 0.  1.
       -4    1    3    3    0  502  0.45264239334E+03  0.13328885767E+04 -0.54523885631E+03  0.15095575899E+04  0.12699999809E+01 0. -1.
</event>
<event>
 5   0  0.1235252E-06  0.2814180E+04  0.7818609E-02  0.8298879E-01
        1   -1    0    0  501    0  0.00000000000E+00  0.00000000000E+00  0.13696542484E+04  0.13696542484E+04  0.50400001928E-02 0.  1.
       -1   -1    0    0    0  501  0.00000000000E+00  0.00000000000E+00 -0.14455493041E+04  0.14455493041E+04  0.50400001928E-02 0. -1.
    10030    2    1    2    0    0  0.00000000000E+00  0.00000000000E+00 -0.75895055647E+02  0.28152035525E+04  0.28141803394E+04 0.  0.
        1    1    3    3  502    0  0.88148732786E+01 -0.38105794557E+03 -0.13929214147E+04  0.14441305091E+04  0.50400001928E-02 0. -1.
       -1    1    3    3    0  502 -0.88148732786E+01  0.38105794557E+03  0.13170263590E+04  0.13710730434E+04  0.50400001928E-02 0.  1.
</event>
<event>
 5   0  0.3162695E-06  0.2789622E+04  0.7818609E-02  0.8306498E-01
       -2   -1    0    0    0  501  0.00000000000E+00  0.00000000000E+00  0.15013374455E+04  0.15013374455E+04  0.25500000920E-02 0.  1.
        2   -1    0    0  501    0  0.00000000000E+00  0.00000000000E+00 -0.12958431421E+04  0.12958431421E+04  0.25500000920E-02 0. -1.
    10030    2    1    2    0    0  0.00000000000E+00  0.00000000000E+00  0.20549430340E+03  0.27971805876E+04  0.27896220767E+04 0.  0.
        1    1    3    3  502    0  0.52476801979E+03  0.17906237194E+03 -0.11805851105E+04  0.13043105500E+04  0.50400001928E-02 0. -1.
       -1    1    3    3    0  502 -0.52476801979E+03 -0.17906237194E+03  0.13860794139E+04  0.14928700376E+04  0.50400001928E-02 0.  1.
</event>
<event>
 5   0  0.1220265E-06  0.2799338E+04  0.7818609E-02  0.8303474E-01
       -1   -1    0    0    0  501  0.00000000000E+00  0.00000000000E+00  0.16994359863E+04  0.16994359863E+04  0.50400001928E-02 0. -1.
        1   -1    0    0  501    0  0.00000000000E+00  0.00000000000E+00 -0.11527781571E+04  0.11527781571E+04  0.50400001928E-02 0.  1.
    10030    2    1    2    0    0  0.00000000000E+00  0.00000000000E+00  0.54665782927E+03  0.28522141434E+04  0.27993375533E+04 0.  0.
        4    1    3    3  502    0 -0.63312530924E+03 -0.11377669551E+04 -0.24989787108E+03  0.13258249735E+04  0.12699999809E+01 0. -1.
       -4    1    3    3    0  502  0.63312530924E+03  0.11377669551E+04  0.79655570036E+03  0.15263891699E+04  0.12699999809E+01 0.  1.
</event>
<event>
 5   0  0.3167616E-06  0.2817911E+04  0.7818609E-02  0.8297729E-01
       -2   -1    0    0    0  501  0.00000000000E+00  0.00000000000E+00  0.61697370377E+03  0.61697370378E+03  0.25500000920E-02 0.  1.
        2   -1    0    0  501    0  0.00000000000E+00  0.00000000000E+00 -0.32175699239E+04  0.32175699239E+04  0.25500000920E-02 0. -1.
    10030    2    1    2    0    0  0.00000000000E+00  0.00000000000E+00 -0.26005962202E+04  0.38345436277E+04  0.28179113067E+04 0.  0.
        3    1    3    3  502    0 -0.92113666884E+03  0.81666358019E+03 -0.22329244412E+04  0.25497811154E+04  0.10100000352E+00 0.  1.
       -3    1    3    3    0  502  0.92113666884E+03 -0.81666358019E+03 -0.36767177893E+03  0.12847625123E+04  0.10100000352E+00 0. -1.
</event>
<event>
 5   0  0.1263513E-06  0.2939022E+04  0.7818609E-02  0.8261361E-01
       -1   -1    0    0    0  501  0.00000000000E+00  0.00000000000E+00  0.12588454156E+04  0.12588454156E+04  0.50400001928E-02 0. -1.
        1   -1    0    0  501    0  0.00000000000E+00  0.00000000000E+00 -0.17154310280E+04  0.17154310280E+04  0.50400001928E-02 0.  1.
    10030    2    1    2    0    0  0.00000000000E+00  0.00000000000E+00 -0.45658561233E+03  0.29742764436E+04  0.29390219362E+04 0.  0.
        3    1    3    3  502    0 -0.56586375758E+03 -0.12841719304E+04  0.21301506091E+03  0.14193923930E+04  0.10100000352E+00 0.  1.
       -3    1    3    3    0  502  0.56586375758E+03  0.12841719304E+04 -0.66960067324E+03  0.15548840506E+04  0.10100000352E+00 0. -1.
</event>
<event>
 5   0  0.3162695E-06  0.2802287E+04  0.7818609E-02  0.8302559E-01
       -2   -1    0    0    0  501  0.00000000000E+00  0.00000000000E+00  0.98675302235E+03  0.98675302235E+03  0.25500000920E-02 0.  1.
        2   -1    0    0  501    0  0.00000000000E+00  0.00000000000E+00 -0.19895592267E+04  0.19895592267E+04  0.25500000920E-02 0. -1.
    10030    2    1    2    0    0  0.00000000000E+00  0.00000000000E+00 -0.10028062044E+04  0.29763122491E+04  0.28022873373E+04 0.  0.
        1    1    3    3  502    0 -0.61514088587E+03 -0.51806732407E+03  0.71719827381E+03  0.10775738609E+04  0.50400001928E-02 0.  1.
       -1    1    3    3    0  502  0.61514088587E+03  0.51806732407E+03 -0.17200044782E+04  0.18987383882E+04  0.50400001928E-02 0. -1.
</event>
<event>
 5   0  0.1220265E-06  0.2792288E+04  0.7818609E-02  0.8305667E-01
        1   -1    0    0  501    0  0.00000000000E+00  0.00000000000E+00  0.10522992296E+04  0.10522992296E+04  0.50400001928E-02 0.  1.
       -1   -1    0    0    0  501  0.00000000000E+00  0.00000000000E+00 -0.18523418031E+04  0.18523418031E+04  0.50400001928E-02 0. -1.
    10030    2    1    2    0    0  0.00000000000E+00  0.00000000000E+00 -0.80004257350E+03  0.29046410327E+04  0.27922878450E+04 0.  0.
        4    1    3    3  502    0  0.69127919867E+03 -0.10219864163E+04 -0.10796814832E+04  0.16395233709E+04  0.12699999809E+01 0. -1.
       -4    1    3    3    0  502 -0.69127919867E+03  0.10219864163E+04  0.27963890968E+03  0.12651176619E+04  0.12699999809E+01 0.  1.
</event>
<event>
 5   0  0.3167616E-06  0.2792892E+04  0.7818609E-02  0.8305479E-01
       -2   -1    0    0    0  501  0.00000000000E+00  0.00000000000E+00  0.18301525751E+04  0.18301525751E+04  0.25500000920E-02 0.  1.
        2   -1    0    0  501    0  0.00000000000E+00  0.00000000000E+00 -0.10655184804E+04  0.10655184804E+04  0.25500000920E-02 0. -1.
    10030    2    1    2    0    0  0.00000000000E+00  0.00000000000E+00  0.76463409468E+03  0.28956710555E+04  0.27928919712E+04 0.  0.
        3    1    3    3  502    0 -0.77814619662E+03  0.11540254922E+04  0.49950318248E+03  0.14787798279E+04  0.10100000352E+00 0. -1.
       -3    1    3    3    0  502  0.77814619662E+03 -0.11540254922E+04  0.26513091220E+03  0.14168912276E+04  0.10100000352E+00 0.  1.
</event>
<event>
 5   0  0.1220265E-06  0.2804599E+04  0.7818609E-02  0.8301842E-01
       -1   -1    0    0    0  501  0.00000000000E+00  0.00000000000E+00  0.16752941267E+04  0.16752941267E+04  0.50400001928E-02 0. -1.
        1   -1    0    0  501    0  0.00000000000E+00  0.00000000000E+00 -0.11737900315E+04  0.11737900315E+04  0.50400001928E-02 0.  1.
    10030    2    1    2    0    0  0.00000000000E+00  0.00000000000E+00  0.50150409522E+03  0.28490841583E+04  0.28045987562E+04 0.  0.
        4    1    3    3  502    0  0.11356256527E+04 -0.81511944418E+03  0.36376682795E+03  0.14444352701E+04  0.12699999809E+01 0. -1.
       -4    1    3    3    0  502 -0.11356256527E+04  0.81511944418E+03  0.13773726727E+03  0.14046488882E+04  0.12699999809E+01 0.  1.
</event>
<event>
 5   0  0.1065675E-06  0.2799749E+04  0.7818609E-02  0.8303346E-01
        3   -1    0    0  501    0  0.00000000000E+00  0.00000000000E+00  0.11082153713E+04  0.11082153759E+04  0.10100000352E+00 0. -1.
       -3   -1    0    0    0  501  0.00000000000E+00  0.00000000000E+00 -0.17682920234E+04  0.17682920263E+04  0.10100000352E+00 0.  1.
    10030    2    1    2    0    0  0.00000000000E+00  0.00000000000E+00 -0.66007665215E+03  0.28765074022E+04  0.27997488545E+04 0.  0.
        5    1    3    3  502    0 -0.88726297774E+03  0.10825418135E+04 -0.30720395940E+03  0.14330138633E+04  0.46999998093E+01 0.  1.
       -5    1    3    3    0  502  0.88726297774E+03 -0.10825418135E+04 -0.35287269276E+03  0.14434935389E+04  0.46999998093E+01 0. -1.
</event>
<event>
 5   0  0.1220265E-06  0.2791219E+04  0.7818609E-02  0.8306000E-01
        1   -1    0    0  501    0  0.00000000000E+00  0.00000000000E+00  0.17525628803E+04  0.17525628803E+04  0.50400001928E-02 0.  1.
       -1   -1    0    0    0  501  0.00000000000E+00  0.00000000000E+00 -0.11113590128E+04  0.11113590128E+04  0.50400001928E-02 0. -1.
    10030    2    1    2    0    0  0.00000000000E+00  0.00000000000E+00  0.64120386751E+03  0.28639218931E+04  0.27912194844E+04 0.  0.
        4    1    3    3  502    0  0.74899182347E+03  0.34005328922E+03  0.14773986093E+04  0.16909563137E+04  0.12699999809E+01 0.  1.
       -4    1    3    3    0  502 -0.74899182347E+03 -0.34005328922E+03 -0.83619474183E+03  0.11729655793E+04  0.12699999809E+01 0. -1.
</event>
<event>
 5   0  0.1243055E-06  0.2812650E+04  0.7818609E-02  0.8299352E-01
       -1   -1    0    0    0  501  0.00000000000E+00  0.00000000000E+00  0.21073322925E+04  0.21073322925E+04  0.50400001928E-02 0. -1.
        1   -1    0    0  501    0  0.00000000000E+00  0.00000000000E+00 -0.93850883372E+03  0.93850883373E+03  0.50400001928E-02 0.  1.
    10030    2    1    2    0    0  0.00000000000E+00  0.00000000000E+00  0.11688234587E+04  0.30458411262E+04  0.28126499761E+04 0.  0.
        5    1    3    3  502    0  0.84209836457E+03  0.30072922810E+02 -0.63485507022E+03  0.10550341637E+04  0.46999998093E+01 0.  1.
       -5    1    3    3    0  502 -0.84209836457E+03 -0.30072922810E+02  0.18036785290E+04  0.19908069625E+04  0.46999998093E+01 0. -1.
</event>
<event>
 5   0  0.3345919E-06  0.2796466E+04  0.7818609E-02  0.8304366E-01
        2   -1    0    0  501    0  0.00000000000E+00  0.00000000000E+00  0.12931035597E+04  0.12931035597E+04  0.25500000920E-02 0.  1.
       -2   -1    0    0    0  501  0.00000000000E+00  0.00000000000E+00 -0.15119092801E+04  0.15119092801E+04  0.25500000920E-02 0. -1.
    10030    2    1    2    0    0  0.00000000000E+00  0.00000000000E+00 -0.21880572034E+03  0.28050128398E+04  0.27964658210E+04 0.  0.
        2    1    3    3  502    0 -0.51886492295E+03  0.10914729467E+04  0.59596850617E+03  0.13474837520E+04  0.25500000920E-02 0.  1.
       -2    1    3    3    0  502  0.51886492295E+03 -0.10914729467E+04 -0.81477422651E+03  0.14575290878E+04  0.25500000920E-02 0. -1.
</event>
<event>
 5   0  0.3212679E-06  0.2796266E+04  0.7818609E-02  0.8304428E-01
       -2   -1    0    0    0  501  0.00000000000E+00  0.00000000000E+00  0.10510817607E+04  0.10510817607E+04  0.25500000920E-02 0.  1.
        2   -1    0    0  501    0  0.00000000000E+00  0.00000000000E+00 -0.18597757425E+04  0.18597757425E+04  0.25500000920E-02 0. -1.
    10030    2    1    2    0    0  0.00000000000E+00  0.00000000000E+00 -0.80869398186E+03  0.29108575032E+04  0.27962663406E+04 0.  0.
        4    1    3    3  502    0 -0.59192180320E+03 -0.60514481373E+03 -0.15626931184E+04  0.17772402938E+04  0.12699999809E+01 0. -1.
       -4    1    3    3    0  502  0.59192180320E+03  0.60514481373E+03  0.75399913654E+03  0.11336172094E+04  0.12699999809E+01 0.  1.
</event>
<event>
 5   0  0.3226364E-06  0.2787602E+04  0.7818609E-02  0.8307128E-01
       -2   -1    0    0    0  501  0.00000000000E+00  0.00000000000E+00  0.75671668813E+03  0.75671668813E+03  0.25500000920E-02 0. -1.
        2   -1    0    0  501    0  0.00000000000E+00  0.00000000000E+00 -0.25672506709E+04  0.25672506709E+04  0.25500000920E-02 0.  1.
    10030    2    1    2    0    0  0.00000000000E+00  0.00000000000E+00 -0.18105339828E+04  0.33239673590E+04  0.27876021418E+04 0.  0.
        5    1    3    3  502    0 -0.12449148872E+04 -0.15188342396E+03 -0.18016965443E+03  0.12670299307E+04  0.46999998093E+01 0. -1.
       -5    1    3    3    0  502  0.12449148872E+04  0.15188342396E+03 -0.16303643283E+04  0.20569374283E+04  0.46999998093E+01 0.  1.
</event>
<event>
 5   0  0.3226364E-06  0.2804998E+04  0.7818609E-02  0.8301718E-01
        2   -1    0    0  501    0  0.00000000000E+00  0.00000000000E+00  0.10712889470E+04  0.10712889470E+04  0.25500000920E-02 0.  1.
       -2   -1    0    0    0  501  0.00000000000E+00  0.00000000000E+00 -0.18361091669E+04  0.18361091669E+04  0.25500000920E-02 0. -1.
    10030    2    1    2    0    0  0.00000000000E+00  0.00000000000E+00 -0.76482021987E+03  0.29073981139E+04  0.28049980078E+04 0.  0.
        5    1    3    3  502    0 -0.63965620595E+03  0.26792418283E+02 -0.16758036382E+04  0.17939391905E+04  0.46999998093E+01 0. -1.
       -5    1    3    3    0  502  0.63965620595E+03 -0.26792418283E+02  0.91098341835E+03  0.11134589234E+04  0.46999998093E+01 0.  1.
</event>
<event>
 5   0  0.1220265E-06  0.2781573E+04  0.7818609E-02  0.8309012E-01
       -1   -1    0    0    0  501  0.00000000000E+00  0.00000000000E+00  0.13470664612E+04  0.13470664612E+04  0.50400001928E-02 0. -1.
        1   -1    0    0  501    0  0.00000000000E+00  0.00000000000E+00 -0.14359257000E+04  0.14359257000E+04  0.50400001928E-02 0.  1.
    10030    2    1    2    0    0  0.00000000000E+00  0.00000000000E+00 -0.88859238826E+02  0.27829921612E+04  0.27815731888E+04 0.  0.
        4    1    3    3  502    0  0.41561407329E+03 -0.13083468521E+03  0.12770139871E+04  0.13493031939E+04  0.12699999809E+01 0. -1.
       -4    1    3    3    0  502 -0.41561407329E+03  0.13083468521E+03 -0.13658732259E+04  0.14336889673E+04  0.12699999809E+01 0.  1.
</event>
<event>
 5   0  0.1235252E-06  0.2765537E+04  0.7818609E-02  0.8314048E-01
       -1   -1    0    0    0  501  0.00000000000E+00  0.00000000000E+00  0.16982336245E+04  0.16982336246E+04  0.50400001928E-02 0. -1.
        1   -1    0    0  501    0  0.00000000000E+00  0.00000000000E+00 -0.11259043436E+04  0.11259043436E+04  0.50400001928E-02 0.  1.
    10030    2    1    2    0    0  0.00000000000E+00  0.00000000000E+00  0.57232928098E+03  0.28241379681E+04  0.27655369202E+04 0.  0.
        1    1    3    3  502    0 -0.12020546034E+04  0.15384889896E+03 -0.39386175810E+03  0.12742573672E+04  0.50400001928E-02 0.  1.
       -1    1    3    3    0  502  0.12020546034E+04 -0.15384889896E+03  0.96619103908E+03  0.15498806010E+04  0.50400001928E-02 0. -1.
</event>
<event>
 5   0  0.3167616E-06  0.2827545E+04  0.7818609E-02  0.8294767E-01
       -2   -1    0    0    0  501  0.00000000000E+00  0.00000000000E+00  0.16301847268E+04  0.16301847268E+04  0.25500000920E-02 0.  1.
        2   -1    0    0  501    0  0.00000000000E+00  0.00000000000E+00 -0.12260895366E+04  0.12260895367E+04  0.25500000920E-02 0. -1.
    10030    2    1    2    0    0  0.00000000000E+00  0.00000000000E+00  0.40409519018E+03  0.28562742635E+04  0.28275448264E+04 0.  0.
        3    1    3    3  502    0 -0.12304738077E+04  0.57310041623E+03 -0.19724390358E+03  0.13716468373E+04  0.10100000352E+00 0. -1.
       -3    1    3    3    0  502  0.12304738077E+04 -0.57310041623E+03  0.60133909376E+03  0.14846274262E+04  0.10100000352E+00 0.  1.
</event>
<event>
 5   0  0.3162695E-06  0.2794077E+04  0.7818609E-02  0.8305110E-01
        2   -1    0    0  501    0  0.00000000000E+00  0.00000000000E+00  0.15883408476E+04  0.15883408476E+04  0.25500000920E-02 0.  1.
       -2   -1    0    0    0  501  0.00000000000E+00  0.00000000000E+00 -0.12287766936E+04  0.12287766936E+04  0.25500000920E-02 0. -1.
    10030    2    1    2    0    0  0.00000000000E+00  0.00000000000E+00  0.35956415398E+03  0.28171175412E+04  0.27940767455E+04 0.  0.
        1    1    3    3  502    0  0.95361067269E+03 -0.42671721733E+01  0.12091441199E+04  0.15399418906E+04  0.50400001928E-02 0.  1.
       -1    1    3    3    0  502 -0.95361067269E+03  0.42671721733E+01 -0.84957996590E+03  0.12771756505E+04  0.50400001928E-02 0. -1.
</event>
<event>
 5   0  0.3226364E-06  0.2803788E+04  0.7818609E-02  0.8302093E-01
       -2   -1    0    0    0  501  0.00000000000E+00  0.00000000000E+00  0.89156212824E+03  0.89156212825E+03  0.25500000920E-02 0. -1.
        2   -1    0    0  501    0  0.00000000000E+00  0.00000000000E+00 -0.22043402908E+04  0.22043402908E+04  0.25500000920E-02 0.  1.
    10030    2    1    2    0    0  0.00000000000E+00  0.00000000000E+00 -0.13127781625E+04  0.30959024190E+04  0.28037876674E+04 0.  0.
        5    1    3    3  502    0  0.70037006603E+03  0.88846145952E+03 -0.15705336873E+04  0.19355826377E+04  0.46999998093E+01 0.  1.
       -5    1    3    3    0  502 -0.70037006603E+03 -0.88846145952E+03  0.25775552474E+03  0.11603197813E+04  0.46999998093E+01 0. -1.
</event>
<event>
 5   0  0.1263513E-06  0.2811316E+04  0.7818609E-02  0.8299764E-01
       -1   -1    0    0    0  501  0.00000000000E+00  0.00000000000E+00  0.11653320650E+04  0.11653320650E+04  0.50400001928E-02 0. -1.
        1   -1    0    0  501    0  0.00000000000E+00  0.00000000000E+00 -0.16955465424E+04  0.16955465424E+04  0.50400001928E-02 0.  1.
    10030    2    1    2    0    0  0.00000000000E+00  0.00000000000E+00 -0.53021447737E+03  0.28608786074E+04  0.28113162424E+04 0.  0.
        3    1    3    3  502    0  0.59051877877E+03  0.12226416533E+04  0.10504942821E+03  0.13618371536E+04  0.10100000352E+00 0. -1.
       -3    1    3    3    0  502 -0.59051877877E+03 -0.12226416533E+04 -0.63526390558E+03  0.14990414538E+04  0.10100000352E+00 0.  1.
</event>
<event>
 5   0  0.3345919E-06  0.2794554E+04  0.7818609E-02  0.8304961E-01
        2   -1    0    0  501    0  0.00000000000E+00  0.00000000000E+00  0.11875151998E+04  0.11875151998E+04  0.25500000920E-02 0. -1.
       -2   -1    0    0    0  501  0.00000000000E+00  0.00000000000E+00 -0.16440915518E+04  0.16440915518E+04  0.25500000920E-02 0.  1.
    10030    2    1    2    0    0  0.00000000000E+00  0.00000000000E+00 -0.45657635202E+03  0.28316067516E+04  0.27945544959E+04 0.  0.
        2    1    3    3  502    0 -0.53520304308E+03 -0.12269015112E+04  0.17784292860E+03  0.13503176377E+04  0.25500000920E-02 0. -1.
       -2    1    3    3    0  502  0.53520304308E+03  0.12269015112E+04 -0.63441928062E+03  0.14812891139E+04  0.25500000920E-02 0.  1.
</event>
<event>
 5   0  0.1235252E-06  0.2798167E+04  0.7818609E-02  0.8303838E-01
       -1   -1    0    0    0  501  0.00000000000E+00  0.00000000000E+00  0.17735514516E+04  0.17735514516E+04  0.50400001928E-02 0.  1.
        1   -1    0    0  501    0  0.00000000000E+00  0.00000000000E+00 -0.11036810728E+04  0.11036810728E+04  0.50400001928E-02 0. -1.
    10030    2    1    2    0    0  0.00000000000E+00  0.00000000000E+00  0.66987037875E+03  0.28772325244E+04  0.27981673780E+04 0.  0.
        1    1    3    3  502    0  0.11747470886E+03  0.95417860224E+03  0.13801098177E+04  0.16819513136E+04  0.50400001928E-02 0.  1.
       -1    1    3    3    0  502 -0.11747470886E+03 -0.95417860224E+03 -0.71023943899E+03  0.11952812108E+04  0.50400001928E-02 0. -1.
</event>
<event>
 5   0  0.3167616E-06  0.2810427E+04  0.7818609E-02  0.8300039E-01
        2   -1    0    0  501    0  0.00000000000E+00  0.00000000000E+00  0.14430537914E+04  0.14430537914E+04  0.25500000920E-02 0. -1.
       -2   -1    0    0    0  501  0.00000000000E+00  0.00000000000E+00 -0.13683654492E+04  0.13683654492E+04  0.25500000920E-02 0.  1.
    10030    2    1    2    0    0  0.00000000000E+00  0.00000000000E+00  0.74688342229E+02  0.28114192406E+04  0.28104269779E+04 0.  0.
        3    1    3    3  502    0 -0.13092282188E+04  0.22868719306E+03 -0.41915955780E+03  0.13935821132E+04  0.10100000352E+00 0.  1.
       -3    1    3    3    0  502  0.13092282188E+04 -0.22868719306E+03  0.49384790003E+03  0.14178371274E+04  0.10100000352E+00 0. -1.
</event>
<event>
 5   0  0.3345919E-06  0.2791068E+04  0.7818609E-02  0.8306047E-01
       -2   -1    0    0    0  501  0.00000000000E+00  0.00000000000E+00  0.96820618646E+03  0.96820618647E+03  0.25500000920E-02 0.  1.
        2   -1    0    0  501    0  0.00000000000E+00  0.00000000000E+00 -0.20114680332E+04  0.20114680332E+04  0.25500000920E-02 0. -1.
    10030    2    1    2    0    0  0.00000000000E+00  0.00000000000E+00 -0.10432618468E+04  0.29796742197E+04  0.27910684647E+04 0.  0.
        2    1    3    3  502    0  0.12971984965E+04 -0.25578590581E+03 -0.44955001954E+02  0.13229404072E+04  0.25500000920E-02 0.  1.
       -2    1    3    3    0  502 -0.12971984965E+04  0.25578590581E+03 -0.99830684481E+03  0.16567338124E+04  0.25500000920E-02 0. -1.
</event>
<event>
 5   0  0.1235252E-06  0.2791781E+04  0.7818609E-02  0.8305824E-01
        1   -1    0    0  501    0  0.00000000000E+00  0.00000000000E+00  0.23936589419E+04  0.23936589419E+04  0.50400001928E-02 0.  1.
       -1   -1    0    0    0  501  0.00000000000E+00  0.00000000000E+00 -0.81403020760E+03  0.81403020762E+03  0.50400001928E-02 0. -1.
    10030    2    1    2    0    0  0.00000000000E+00  0.00000000000E+00  0.15796287343E+04  0.32076891495E+04  0.27917812847E+04 0.  0.
        1    1    3    3  502    0  0.12178550785E+04  0.14673981169E+03  0.24379896075E+02  0.12269058415E+04  0.50400001928E-02 0. -1.
       -1    1    3    3    0  502 -0.12178550785E+04 -0.14673981169E+03  0.15552488382E+04  0.19807833080E+04  0.50400001928E-02 0.  1.
</event>
<event>
 5   0  0.3226364E-06  0.2807948E+04  0.7818609E-02  0.8300805E-01
       -2   -1    0    0    0  501  0.00000000000E+00  0.00000000000E+00  0.82989702239E+03  0.82989702240E+03  0.25500000920E-02 0.  1.
        2   -1    0    0  501    0  0.00000000000E+00  0.00000000000E+00 -0.23751663914E+04  0.23751663914E+04  0.25500000920E-02 0. -1.
    10030    2    1    2    0    0  0.00000000000E+00  0.00000000000E+00 -0.15452693690E+04  0.32050634138E+04  0.28079483727E+04 0.  0.
        5    1    3    3  502    0  0.11201229458E+04 -0.72804690232E+03 -0.27984325479E+03  0.13649403075E+04  0.46999998093E+01 0.  1.
       -5    1    3    3    0  502 -0.11201229458E+04  0.72804690232E+03 -0.12654261142E+04  0.18401231063E+04  0.46999998093E+01 0. -1.
</event>
<event>
 5   0  0.3345919E-06  0.2785209E+04  0.7818609E-02  0.8307875E-01
        2   -1    0    0  501    0  0.00000000000E+00  0.00000000000E+00  0.29247281728E+04  0.29247281728E+04  0.25500000920E-02 0. -1.
       -2   -1    0    0    0  501  0.00000000000E+00  0.00000000000E+00 -0.66308616101E+03  0.66308616102E+03  0.25500000920E-02 0.  1.
    10030    2    1    2    0    0  0.00000000000E+00  0.00000000000E+00  0.22616420118E+04  0.35878143338E+04  0.27852086285E+04 0.  0.
        2    1    3    3  502    0 -0.28725709315E+03  0.14334138864E+03  0.28764103454E+04  0.28942701785E+04  0.25500000920E-02 0. -1.
       -2    1    3    3    0  502  0.28725709315E+03 -0.14334138864E+03 -0.61476833363E+03  0.69354415526E+03  0.25500000920E-02 0.  1.
</event>
<event>
 5   0  0.3226364E-06  0.2797390E+04  0.7818609E-02  0.8304079E-01
       -2   -1    0    0    0  501  0.00000000000E+00  0.00000000000E+00  0.29608592729E+04  0.29608592729E+04  0.25500000920E-02 0. -1.
        2   -1    0    0  501    0  0.00000000000E+00  0.00000000000E+00 -0.66073668913E+03  0.66073668913E+03  0.25500000920E-02 0.  1.
    10030    2    1    2    0    0  0.00000000000E+00  0.00000000000E+00  0.23001225838E+04  0.36215959621E+04  0.27973904647E+04 0.  0.
        5    1    3    3  502    0  0.10170898726E+04  0.40035901871E+03  0.22798598004E+04  0.25283476723E+04  0.46999998093E+01 0. -1.
       -5    1    3    3    0  502 -0.10170898726E+04 -0.40035901871E+03  0.20262783464E+02  0.10932482898E+04  0.46999998093E+01 0.  1.
</event>
<event>
 5   0  0.1235252E-06  0.2813484E+04  0.7818609E-02  0.8299094E-01
        1   -1    0    0  501    0  0.00000000000E+00  0.00000000000E+00  0.17151283572E+04  0.17151283572E+04  0.50400001928E-02 0. -1.
       -1   -1    0    0    0  501  0.00000000000E+00  0.00000000000E+00 -0.11538043336E+04  0.11538043336E+04  0.50400001928E-02 0.  1.
    10030    2    1    2    0    0  0.00000000000E+00  0.00000000000E+00  0.56132402355E+03  0.28689326908E+04  0.28134836280E+04 0.  0.
        1    1    3    3  502    0 -0.94123078920E+03  0.29780384348E+03 -0.74124651599E+03  0.12345237645E+04  0.50400001928E-02 0.  1.
       -1    1    3    3    0  502  0.94123078920E+03 -0.29780384348E+03  0.13025705395E+04  0.16344089263E+04  0.50400001928E-02 0. -1.
</event>
<event>
 5   0  0.3212679E-06  0.2795685E+04  0.7818609E-02  0.8304609E-01
        2   -1    0    0  501    0  0.00000000000E+00  0.00000000000E+00  0.16845095242E+04  0.16845095242E+04  0.25500000920E-02 0. -1.
       -2   -1    0    0    0  501  0.00000000000E+00  0.00000000000E+00 -0.11599598264E+04  0.11599598264E+04  0.25500000920E-02 0.  1.
    10030    2    1    2    0    0  0.00000000000E+00  0.00000000000E+00  0.52454969788E+03  0.28444693506E+04  0.27956848000E+04 0.  0.
        4    1    3    3  502    0  0.68790191922E+03 -0.80326550563E+03 -0.66774188067E+03  0.12507299289E+04  0.12699999809E+01 0.  1.
       -4    1    3    3    0  502 -0.68790191922E+03  0.80326550563E+03  0.11922915785E+04  0.15937394217E+04  0.12699999809E+01 0. -1.
</event>
<event>
 5   0  0.3167616E-06  0.2783401E+04  0.7818609E-02  0.8308440E-01
        2   -1    0    0  501    0  0.00000000000E+00  0.00000000000E+00  0.26468781578E+04  0.26468781578E+04  0.25500000920E-02 0.  1.
       -2   -1    0    0    0  501  0.00000000000E+00  0.00000000000E+00 -0.73174134883E+03  0.73174134883E+03  0.25500000920E-02 0. -1.
    10030    2    1    2    0    0  0.00000000000E+00  0.00000000000E+00  0.19151368090E+04  0.33786195067E+04  0.27834009365E+04 0.  0.
        3    1    3    3  502    0  0.61963798443E+03  0.92607102957E+03 -0.54571851672E+02  0.11155881322E+04  0.10100000352E+00 0. -1.
       -3    1    3    3    0  502 -0.61963798443E+03 -0.92607102957E+03  0.19697086607E+04  0.22630313744E+04  0.10100000352E+00 0.  1.
</event>
<event>
 5   0  0.3226364E-06  0.2695658E+04  0.7818609E-02  0.8336415E-01
        2   -1    0    0  501    0  0.00000000000E+00  0.00000000000E+00  0.27473192657E+04  0.27473192657E+04  0.25500000920E-02 0. -1.
       -2   -1    0    0    0  501  0.00000000000E+00  0.00000000000E+00 -0.66124222253E+03  0.66124222254E+03  0.25500000920E-02 0.  1.
    10030    2    1    2    0    0  0.00000000000E+00  0.00000000000E+00  0.20860770432E+04  0.34085614883E+04  0.26956583591E+04 0.  0.
        5    1    3    3  502    0 -0.70729574281E+03 -0.11414965767E+04  0.11890810666E+04  0.17936603846E+04  0.46999998093E+01 0.  1.
       -5    1    3    3    0  502  0.70729574281E+03  0.11414965767E+04  0.89699597664E+03  0.16149011037E+04  0.46999998093E+01 0. -1.
</event>
<event>
 5   0  0.3167616E-06  0.2795885E+04  0.7818609E-02  0.8304547E-01
       -2   -1    0    0    0  501  0.00000000000E+00  0.00000000000E+00  0.10319955440E+04  0.10319955440E+04  0.25500000920E-02 0.  1.
        2   -1    0    0  501    0  0.00000000000E+00  0.00000000000E+00 -0.18936550637E+04  0.18936550637E+04  0.25500000920E-02 0. -1.
    10030    2    1    2    0    0  0.00000000000E+00  0.00000000000E+00 -0.86165951970E+03  0.29256506077E+04  0.27958852535E+04 0.  0.
        3    1    3    3  502    0  0.31041293390E+03  0.13294826340E+04 -0.11627287829E+03  0.13701823441E+04  0.10100000352E+00 0.  1.
       -3    1    3    3    0  502 -0.31041293390E+03 -0.13294826340E+04 -0.74538664141E+03  0.15554682636E+04  0.10100000352E+00 0. -1.
</event>
<event>
 5   0  0.1263513E-06  0.2795326E+04  0.7818609E-02  0.8304721E-01
       -1   -1    0    0    0  501  0.00000000000E+00  0.00000000000E+00  0.29790974181E+04  0.29790974181E+04  0.50400001928E-02 0. -1.
        1   -1    0    0  501    0  0.00000000000E+00  0.00000000000E+00 -0.65572248922E+03  0.65572248924E+03  0.50400001928E-02 0.  1.
    10030    2    1    2    0    0  0.00000000000E+00  0.00000000000E+00  0.23233749289E+04  0.36348199073E+04  0.27953255085E+04 0.  0.
        3    1    3    3  502    0  0.28803874435E+03  0.56159726205E+03  0.27832367020E+04  0.28539033538E+04  0.10100000352E+00 0. -1.
       -3    1    3    3    0  502 -0.28803874435E+03 -0.56159726205E+03 -0.45986177317E+03  0.78091655355E+03  0.10100000352E+00 0.  1.
</event>
<event>
 5   0  0.1263513E-06  0.2814544E+04  0.7818609E-02  0.8298767E-01
       -1   -1    0    0    0  501  0.00000000000E+00  0.00000000000E+00  0.76487966886E+03  0.76487966888E+03  0.50400001928E-02 0. -1.
        1   -1    0    0  501    0  0.00000000000E+00  0.00000000000E+00 -0.25891842673E+04  0.25891842673E+04  0.50400001928E-02 0.  1.
    10030    2    1    2    0    0  0.00000000000E+00  0.00000000000E+00 -0.18243045984E+04  0.33540639361E+04  0.28145439453E+04 0.  0.
        3    1    3    3  502    0 -0.10839062286E+04 -0.48439196590E+03 -0.18125891364E+04  0.21667874092E+04  0.10100000352E+00 0.  1.
       -3    1    3    3    0  502  0.10839062286E+04  0.48439196590E+03 -0.11715461950E+02  0.11872765269E+04  0.10100000352E+00 0. -1.
</event>
<event>
 5   0  0.3212679E-06  0.2797727E+04  0.7818609E-02  0.8303974E-01
        2   -1    0    0  501    0  0.00000000000E+00  0.00000000000E+00  0.17850335303E+04  0.17850335303E+04  0.25500000920E-02 0.  1.
       -2   -1    0    0    0  501  0.00000000000E+00  0.00000000000E+00 -0.10962366180E+04  0.10962366180E+04  0.25500000920E-02 0. -1.
    10030    2    1    2    0    0  0.00000000000E+00  0.00000000000E+00  0.68879691230E+03  0.28812701483E+04  0.27977270205E+04 0.  0.
        4    1    3    3  502    0 -0.13985162225E+04 -0.18037970430E+02  0.31825307482E+03  0.14343847550E+04  0.12699999809E+01 0.  1.
       -4    1    3    3    0  502  0.13985162225E+04  0.18037970430E+02  0.37054383748E+03  0.14468853933E+04  0.12699999809E+01 0. -1.
</event>
<event>
 5   0  0.1243055E-06  0.2832146E+04  0.7818609E-02  0.8293357E-01
       -1   -1    0    0    0  501  0.00000000000E+00  0.00000000000E+00  0.14260984202E+04  0.14260984202E+04  0.50400001928E-02 0.  1.
        1   -1    0    0  501    0  0.00000000000E+00  0.00000000000E+00 -0.14061178398E+04  0.14061178398E+04  0.50400001928E-02 0. -1.
    10030    2    1    2    0    0  0.00000000000E+00  0.00000000000E+00  0.19980580385E+02  0.28322162601E+04  0.28321457802E+04 0.  0.
        5    1    3    3  502    0 -0.10523721585E+04  0.69798696838E+03 -0.63078096921E+03  0.14115876484E+04  0.46999998093E+01 0. -1.
       -5    1    3    3    0  502  0.10523721585E+04 -0.69798696838E+03  0.65076154960E+03  0.14206286117E+04  0.46999998093E+01 0.  1.
</event>
<event>
 5   0  0.1243055E-06  0.2809105E+04  0.7818609E-02  0.8300447E-01
        1   -1    0    0  501    0  0.00000000000E+00  0.00000000000E+00  0.13221339231E+04  0.13221339231E+04  0.50400001928E-02 0.  1.
       -1   -1    0    0    0  501  0.00000000000E+00  0.00000000000E+00 -0.14921083415E+04  0.14921083415E+04  0.50400001928E-02 0. -1.
    10030    2    1    2    0    0  0.00000000000E+00  0.00000000000E+00 -0.16997441840E+03  0.28142422646E+04  0.28091045229E+04 0.  0.
        5    1    3    3  502    0 -0.72842778511E+03  0.11892952822E+04  0.81794473134E+02  0.13970478633E+04  0.46999998093E+01 0.  1.
       -5    1    3    3    0  502  0.72842778511E+03 -0.11892952822E+04 -0.25176889154E+03  0.14171944013E+04  0.46999998093E+01 0. -1.
</event>
<event>
 5   0  0.1263513E-06  0.2806537E+04  0.7818609E-02  0.8301242E-01
       -1   -1    0    0    0  501  0.00000000000E+00  0.00000000000E+00  0.85653685901E+03  0.85653685903E+03  0.50400001928E-02 0.  1.
        1   -1    0    0  501    0  0.00000000000E+00  0.00000000000E+00 -0.22989814036E+04  0.22989814036E+04  0.50400001928E-02 0. -1.
    10030    2    1    2    0    0  0.00000000000E+00  0.00000000000E+00 -0.14424445445E+04  0.31555182626E+04  0.28065368769E+04 0.  0.
        3    1    3    3  502    0 -0.10124603197E+04  0.69138750951E+03 -0.14888053395E+04  0.19286352523E+04  0.10100000352E+00 0.  1.
       -3    1    3    3    0  502  0.10124603197E+04 -0.69138750951E+03  0.46360794994E+02  0.12268830103E+04  0.10100000352E+00 0. -1.
</event>
<event>
 5   0  0.3162695E-06  0.2798599E+04  0.7818609E-02  0.8303704E-01
        2   -1    0    0  501    0  0.00000000000E+00  0.00000000000E+00  0.13781175619E+04  0.13781175619E+04  0.25500000920E-02 0. -1.
       -2   -1    0    0    0  501  0.00000000000E+00  0.00000000000E+00 -0.14208066653E+04  0.14208066653E+04  0.25500000920E-02 0.  1.
    10030    2    1    2    0    0  0.00000000000E+00  0.00000000000E+00 -0.42689103434E+02  0.27989242272E+04  0.27985986618E+04 0.  0.
        1    1    3    3  502    0  0.65622419277E+02  0.23468737329E+03  0.13567323420E+04  0.13784437286E+04  0.50400001928E-02 0. -1.
       -1    1    3    3    0  502 -0.65622419277E+02 -0.23468737329E+03 -0.13994214454E+04  0.14204804986E+04  0.50400001928E-02 0.  1.
</event>
<event>
 5   0  0.1246044E-06  0.2800484E+04  0.7818609E-02  0.8303118E-01
       -1   -1    0    0    0  501  0.00000000000E+00  0.00000000000E+00  0.66124769029E+03  0.66124769031E+03  0.50400001928E-02 0.  1.
        1   -1    0    0  501    0  0.00000000000E+00  0.00000000000E+00 -0.29651183931E+04  0.29651183931E+04  0.50400001928E-02 0. -1.
    10030    2    1    2    0    0  0.00000000000E+00  0.00000000000E+00 -0.23038707028E+04  0.36263660834E+04  0.28004840217E+04 0.  0.
        2    1    3    3  502    0 -0.13192396668E+04 -0.44527533289E+03 -0.13440633562E+04  0.19352440999E+04  0.25500000920E-02 0. -1.
       -2    1    3    3    0  502  0.13192396668E+04  0.44527533289E+03 -0.95980734656E+03  0.16911219835E+04  0.25500000920E-02 0.  1.
</event>
<event>
 5   0  0.1263513E-06  0.2800426E+04  0.7818609E-02  0.8303136E-01
       -1   -1    0    0    0  501  0.00000000000E+00  0.00000000000E+00  0.95966136749E+03  0.95966136751E+03  0.50400001928E-02 0.  1.
        1   -1    0    0  501    0  0.00000000000E+00  0.00000000000E+00 -0.20430091193E+04  0.20430091193E+04  0.50400001928E-02 0. -1.
    10030    2    1    2    0    0  0.00000000000E+00  0.00000000000E+00 -0.10833477518E+04  0.30026704868E+04  0.28004263427E+04 0.  0.
        3    1    3    3  502    0 -0.10904901382E+04 -0.52320985291E+02 -0.14817420092E+04  0.18405068918E+04  0.10100000352E+00 0. -1.
       -3    1    3    3    0  502  0.10904901382E+04  0.52320985291E+02  0.39839425738E+03  0.11621635950E+04  0.10100000352E+00 0.  1.
</event>
<event>
 5   0  0.1246044E-06  0.2798374E+04  0.7818609E-02  0.8303773E-01
        1   -1    0    0  501    0  0.00000000000E+00  0.00000000000E+00  0.12404077034E+04  0.12404077034E+04  0.50400001928E-02 0. -1.
       -1   -1    0    0    0  501  0.00000000000E+00  0.00000000000E+00 -0.15782907269E+04  0.15782907269E+04  0.50400001928E-02 0.  1.
    10030    2    1    2    0    0  0.00000000000E+00  0.00000000000E+00 -0.33788302350E+03  0.28186984303E+04  0.27983737962E+04 0.  0.
        2    1    3    3  502    0 -0.94332229141E+03  0.32033557229E+03  0.82066667022E+03  0.12907229013E+04  0.25500000920E-02 0. -1.
       -2    1    3    3    0  502  0.94332229141E+03 -0.32033557229E+03 -0.11585496937E+04  0.15279755290E+04  0.25500000920E-02 0.  1.
</event>
<event>
 5   0  0.1263513E-06  0.2820905E+04  0.7818609E-02  0.8296808E-01
       -1   -1    0    0    0  501  0.00000000000E+00  0.00000000000E+00  0.91761734602E+03  0.91761734604E+03  0.50400001928E-02 0.  1.
        1   -1    0    0  501    0  0.00000000000E+00  0.00000000000E+00 -0.21679795528E+04  0.21679795528E+04  0.50400001928E-02 0. -1.
    10030    2    1    2    0    0  0.00000000000E+00  0.00000000000E+00 -0.12503622068E+04  0.30855968989E+04  0.28209045666E+04 0.  0.
        3    1    3    3  502    0 -0.12345605410E+04  0.49300872106E+03 -0.11407677014E+04  0.17517272297E+04  0.10100000352E+00 0. -1.
       -3    1    3    3    0  502  0.12345605410E+04 -0.49300872106E+03 -0.10959450536E+03  0.13338696692E+04  0.10100000352E+00 0.  1.
</event>
<event>
 5   0  0.3226364E-06  0.2781179E+04  0.7818609E-02  0.8309135E-01
        2   -1    0    0  501    0  0.00000000000E+00  0.00000000000E+00  0.89724201977E+03  0.89724201977E+03  0.25500000920E-02 0.  1.
       -2   -1    0    0    0  501  0.00000000000E+00  0.00000000000E+00 -0.21552037849E+04  0.21552037849E+04  0.25500000920E-02 0. -1.
    10030    2    1    2    0    0  0.00000000000E+00  0.00000000000E+00 -0.12579617651E+04  0.30524458047E+04  0.27811791722E+04 0.  0.
        5    1    3    3  502    0  0.79882760987E+02  0.11250722130E+04 -0.15216692182E+04  0.18941140514E+04  0.46999998093E+01 0. -1.
       -5    1    3    3    0  502 -0.79882760987E+02 -0.11250722130E+04  0.26370745305E+03  0.11583317533E+04  0.46999998093E+01 0.  1.
</event>
<event>
 5   0  0.3162695E-06  0.2795064E+04  0.7818609E-02  0.8304803E-01
        2   -1    0    0  501    0  0.00000000000E+00  0.00000000000E+00  0.13697876741E+04  0.13697876741E+04  0.25500000920E-02 0.  1.
       -2   -1    0    0    0  501  0.00000000000E+00  0.00000000000E+00 -0.14258378446E+04  0.14258378446E+04  0.25500000920E-02 0. -1.
    10030    2    1    2    0    0  0.00000000000E+00  0.00000000000E+00 -0.56050170478E+02  0.27956255187E+04  0.27950635806E+04 0.  0.
        1    1    3    3  502    0 -0.14252014051E+03  0.37123096033E+03 -0.13680596022E+04  0.14246794347E+04  0.50400001928E-02 0. -1.
       -1    1    3    3    0  502  0.14252014051E+03 -0.37123096033E+03  0.13120094317E+04  0.13709460840E+04  0.50400001928E-02 0.  1.
</event>
<event>
 5   0  0.1235252E-06  0.2798102E+04  0.7818609E-02  0.8303858E-01
       -1   -1    0    0    0  501  0.00000000000E+00  0.00000000000E+00  0.13096780012E+04  0.13096780013E+04  0.50400001928E-02 0.  1.
        1   -1    0    0  501    0  0.00000000000E+00  0.00000000000E+00 -0.14945231908E+04  0.14945231908E+04  0.50400001928E-02 0. -1.
    10030    2    1    2    0    0  0.00000000000E+00  0.00000000000E+00 -0.18484518960E+03  0.28042011921E+04  0.27981023179E+04 0.  0.
        1    1    3    3  502    0 -0.65784110762E+03  0.86474660037E+02  0.11419728428E+04  0.13207326616E+04  0.50400001928E-02 0.  1.
       -1    1    3    3    0  502  0.65784110762E+03 -0.86474660037E+02 -0.13268180324E+04  0.14834685305E+04  0.50400001928E-02 0. -1.
</event>
<event>
 5   0  0.3345919E-06  0.2796878E+04  0.7818609E-02  0.8304238E-01
        2   -1    0    0  501    0  0.00000000000E+00  0.00000000000E+00  0.15808438617E+04  0.15808438617E+04  0.25500000920E-02 0. -1.
       -2   -1    0    0    0  501  0.00000000000E+00  0.00000000000E+00 -0.12370806373E+04  0.12370806373E+04  0.25500000920E-02 0.  1.
    10030    2    1    2    0    0  0.00000000000E+00  0.00000000000E+00  0.34376322441E+03  0.28179244989E+04  0.27968777820E+04 0.  0.
        2    1    3    3  502    0 -0.79702749747E+03 -0.10013842017E+04 -0.39592664496E+03  0.13396943903E+04  0.25500000920E-02 0.  1.
       -2    1    3    3    0  502  0.79702749747E+03  0.10013842017E+04  0.73968986937E+03  0.14782301086E+04  0.25500000920E-02 0. -1.
</event>
<event>
 5   0  0.3226364E-06  0.2803612E+04  0.7818609E-02  0.8302148E-01
        2   -1    0    0  501    0  0.00000000000E+00  0.00000000000E+00  0.13318676945E+04  0.13318676945E+04  0.25500000920E-02 0.  1.
       -2   -1    0    0    0  501  0.00000000000E+00  0.00000000000E+00 -0.14754165327E+04  0.14754165327E+04  0.25500000920E-02 0. -1.
    10030    2    1    2    0    0  0.00000000000E+00  0.00000000000E+00 -0.14354883826E+03  0.28072842272E+04  0.28036116820E+04 0.  0.
        5    1    3    3  502    0  0.96141953560E+03 -0.37772082553E+03  0.87711506811E+03  0.13551212042E+04  0.46999998093E+01 0.  1.
       -5    1    3    3    0  502 -0.96141953560E+03  0.37772082553E+03 -0.10206639064E+04  0.14521630230E+04  0.46999998093E+01 0. -1.
</event>
<event>
 5   0  0.1246044E-06  0.2882242E+04  0.7818609E-02  0.8278181E-01
       -1   -1    0    0    0  501  0.00000000000E+00  0.00000000000E+00  0.14086097107E+04  0.14086097107E+04  0.50400001928E-02 0. -1.
        1   -1    0    0  501    0  0.00000000000E+00  0.00000000000E+00 -0.14743830123E+04  0.14743830123E+04  0.50400001928E-02 0.  1.
    10030    2    1    2    0    0  0.00000000000E+00  0.00000000000E+00 -0.65773301592E+02  0.28829927230E+04  0.28822423412E+04 0.  0.
        2    1    3    3  502    0  0.12149403939E+04 -0.22161262505E+03  0.71003002254E+03  0.14245472787E+04  0.25500000920E-02 0. -1.
       -2    1    3    3    0  502 -0.12149403939E+04  0.22161262505E+03 -0.77580332414E+03  0.14584454443E+04  0.25500000920E-02 0.  1.
</event>
<event>
 5   0  0.3345919E-06  0.2788500E+04  0.7818609E-02  0.8306848E-01
        2   -1    0    0  501    0  0.00000000000E+00  0.00000000000E+00  0.22245872696E+04  0.22245872696E+04  0.25500000920E-02 0. -1.
       -2   -1    0    0    0  501  0.00000000000E+00  0.00000000000E+00 -0.87383972165E+03  0.87383972166E+03  0.25500000920E-02 0.  1.
    10030    2    1    2    0    0  0.00000000000E+00  0.00000000000E+00  0.13507475480E+04  0.30984269913E+04  0.27884997547E+04 0.  0.
        2    1    3    3  502    0 -0.12565546398E+04  0.55402543613E+03  0.94310888846E+03  0.16659316079E+04  0.25500000920E-02 0. -1.
       -2    1    3    3    0  502  0.12565546398E+04 -0.55402543613E+03  0.40763865950E+03  0.14324953834E+04  0.25500000920E-02 0.  1.
</event>
<event>
 5   0  0.3167616E-06  0.2788694E+04  0.7818609E-02  0.8306787E-01
        2   -1    0    0  501    0  0.00000000000E+00  0.00000000000E+00  0.18865134352E+04  0.18865134352E+04  0.25500000920E-02 0.  1.
       -2   -1    0    0    0  501  0.00000000000E+00  0.00000000000E+00 -0.10305803507E+04  0.10305803507E+04  0.25500000920E-02 0. -1.
    10030    2    1    2    0    0  0.00000000000E+00  0.00000000000E+00  0.85593308449E+03  0.29170937859E+04  0.27886940869E+04 0.  0.
        3    1    3    3  502    0  0.52094056042E+03 -0.10842660080E+03 -0.92019910846E+03  0.10629683931E+04  0.10100000352E+00 0. -1.
       -3    1    3    3    0  502 -0.52094056042E+03  0.10842660080E+03  0.17761321929E+04  0.18541253928E+04  0.10100000352E+00 0.  1.
</event>
<event>
 5   0  0.1065675E-06  0.2704909E+04  0.7818609E-02  0.8333414E-01
        3   -1    0    0  501    0  0.00000000000E+00  0.00000000000E+00  0.17051418033E+04  0.17051418063E+04  0.10100000352E+00 0.  1.
       -3   -1    0    0    0  501  0.00000000000E+00  0.00000000000E+00 -0.10727165229E+04  0.10727165276E+04  0.10100000352E+00 0. -1.
    10030    2    1    2    0    0  0.00000000000E+00  0.00000000000E+00  0.63242528045E+03  0.27778583339E+04  0.27049094602E+04 0.  0.
        5    1    3    3  502    0  0.61405552533E+03 -0.91160861474E+03 -0.49308671344E+03  0.12046788168E+04  0.46999998093E+01 0. -1.
       -5    1    3    3    0  502 -0.61405552533E+03  0.91160861474E+03  0.11255119939E+04  0.15731795171E+04  0.46999998093E+01 0.  1.
</event>
<event>
 5   0  0.1243055E-06  0.2800983E+04  0.7818609E-02  0.8302963E-01
       -1   -1    0    0    0  501  0.00000000000E+00  0.00000000000E+00  0.16439008531E+04  0.16439008531E+04  0.50400001928E-02 0. -1.
        1   -1    0    0  501    0  0.00000000000E+00  0.00000000000E+00 -0.11931233783E+04  0.11931233783E+04  0.50400001928E-02 0.  1.
    10030    2    1    2    0    0  0.00000000000E+00  0.00000000000E+00  0.45077747472E+03  0.28370242314E+04  0.28009830699E+04 0.  0.
        5    1    3    3  502    0  0.99529659893E+03  0.39780828862E+03  0.11383680935E+04  0.15635762728E+04  0.46999998093E+01 0. -1.
       -5    1    3    3    0  502 -0.99529659893E+03 -0.39780828862E+03 -0.68759061882E+03  0.12734479587E+04  0.46999998093E+01 0.  1.
</event>
<event>
 5   0  0.3162695E-06  0.2800777E+04  0.7818609E-02  0.8303027E-01
        2   -1    0    0  501    0  0.00000000000E+00  0.00000000000E+00  0.13253240782E+04  0.13253240782E+04  0.25500000920E-02 0.  1.
       -2   -1    0    0    0  501  0.00000000000E+00  0.00000000000E+00 -0.14797044548E+04  0.14797044548E+04  0.25500000920E-02 0. -1.
    10030    2    1    2    0    0  0.00000000000E+00  0.00000000000E+00 -0.15438037653E+03  0.28050285330E+04  0.28007769940E+04 0.  0.
        1    1    3    3  502    0  0.10967229769E+03  0.73098573423E+03  0.11140352708E+04  0.13369527819E+04  0.50400001928E-02 0.  1.
       -1    1    3    3    0  502 -0.10967229769E+03 -0.73098573423E+03 -0.12684156473E+04  0.14680757511E+04  0.50400001928E-02 0. -1.
</event>
<event>
 5   0  0.1220265E-06  0.2812056E+04  0.7818609E-02  0.8299535E-01
        1   -1    0    0  501    0  0.00000000000E+00  0.00000000000E+00  0.18802417500E+04  0.18802417500E+04  0.50400001928E-02 0. -1.
       -1   -1    0    0    0  501  0.00000000000E+00  0.00000000000E+00 -0.10514155573E+04  0.10514155573E+04  0.50400001928E-02 0.  1.
    10030    2    1    2    0    0  0.00000000000E+00  0.00000000000E+00  0.82882619271E+03  0.29316573072E+04  0.28120564911E+04 0.  0.
        4    1    3    3  502    0 -0.25044788912E+03  0.44898472350E+03 -0.94991063741E+03  0.10801126141E+04  0.12699999809E+01 0.  1.
       -4    1    3    3    0  502  0.25044788912E+03 -0.44898472350E+03  0.17787368301E+04  0.18515446932E+04  0.12699999809E+01 0. -1.
</event>
<event>
 5   0  0.1246044E-06  0.2798280E+04  0.7818609E-02  0.8303803E-01
        1   -1    0    0  501    0  0.00000000000E+00  0.00000000000E+00  0.14658181827E+04  0.14658181827E+04  0.50400001928E-02 0.  1.
       -1   -1    0    0    0  501  0.00000000000E+00  0.00000000000E+00 -0.13354946450E+04  0.13354946450E+04  0.50400001928E-02 0. -1.
    10030    2    1    2    0    0  0.00000000000E+00  0.00000000000E+00  0.13032353763E+03  0.28013128277E+04  0.27982797098E+04 0.  0.
        2    1    3    3  502    0 -0.79756305254E+02 -0.40785079121E+03 -0.12722837279E+04  0.13384353628E+04  0.25500000920E-02 0. -1.
       -2    1    3    3    0  502  0.79756305254E+02  0.40785079121E+03  0.14026072655E+04  0.14628774649E+04  0.25500000920E-02 0.  1.
</event>
<event>
 5   0  0.3212679E-06  0.2791441E+04  0.7818609E-02  0.8305931E-01
        2   -1    0    0  501    0  0.00000000000E+00  0.00000000000E+00  0.17728077396E+04  0.17728077396E+04  0.25500000920E-02 0. -1.
       -2   -1    0    0    0  501  0.00000000000E+00  0.00000000000E+00 -0.10988417548E+04  0.10988417548E+04  0.25500000920E-02 0.  1.
    10030    2    1    2    0    0  0.00000000000E+00  0.00000000000E+00  0.67396598477E+03  0.28716494944E+04  0.27914406084E+04 0.  0.
        4    1    3    3  502    0  0.30055400871E+03 -0.12716733216E+04  0.84153244292E+03  0.15542407196E+04  0.12699999809E+01 0.  1.
       -4    1    3    3    0  502 -0.30055400871E+03  0.12716733216E+04 -0.16756645815E+03  0.13174087748E+04  0.12699999809E+01 0. -1.
</event>
<event>
 5   0  0.3345919E-06  0.2813761E+04  0.7818609E-02  0.8299009E-01
        2   -1    0    0  501    0  0.00000000000E+00  0.00000000000E+00  0.20393080113E+04  0.20393080113E+04  0.25500000920E-02 0.  1.
       -2   -1    0    0    0  501  0.00000000000E+00  0.00000000000E+00 -0.97058079718E+03  0.97058079718E+03  0.25500000920E-02 0. -1.
    10030    2    1    2    0    0  0.00000000000E+00  0.00000000000E+00  0.10687272141E+04  0.30098888085E+04  0.28137613227E+04 0.  0.
        2    1    3    3  502    0 -0.66069597519E+03 -0.76054607051E+03  0.15848335329E+04  0.18779368531E+04  0.25500000920E-02 0.  1.
       -2    1    3    3    0  502  0.66069597519E+03  0.76054607051E+03 -0.51610631883E+03  0.11319519554E+04  0.25500000920E-02 0. -1.
</event>
<event>
 5   0  0.3226364E-06  0.2794373E+04  0.7818609E-02  0.8305017E-01
       -2   -1    0    0    0  501  0.00000000000E+00  0.00000000000E+00  0.10244864613E+04  0.10244864614E+04  0.25500000920E-02 0. -1.
        2   -1    0    0  501    0  0.00000000000E+00  0.00000000000E+00 -0.19054722120E+04  0.19054722120E+04  0.25500000920E-02 0.  1.
    10030    2    1    2    0    0  0.00000000000E+00  0.00000000000E+00 -0.88098575062E+03  0.29299586733E+04  0.27943732633E+04 0.  0.
        5    1    3    3  502    0  0.13803794453E+04 -0.84029019021E+02 -0.64914616872E+03  0.15277176203E+04  0.46999998093E+01 0.  1.
       -5    1    3    3    0  502 -0.13803794453E+04  0.84029019021E+02 -0.23183958190E+03  0.14022410530E+04  0.46999998093E+01 0. -1.
</event>
<event>
 5   0  0.1246044E-06  0.2800471E+04  0.7818609E-02  0.8303122E-01
       -1   -1    0    0    0  501  0.00000000000E+00  0.00000000000E+00  0.12597547871E+04  0.12597547871E+04  0.50400001928E-02 0.  1.
        1   -1    0    0  501    0  0.00000000000E+00  0.00000000000E+00 -0.15563813157E+04  0.15563813157E+04  0.50400001928E-02 0. -1.
    10030    2    1    2    0    0  0.00000000000E+00  0.00000000000E+00 -0.29662652859E+03  0.28161361027E+04  0.28004705411E+04 0.  0.
        2    1    3    3  502    0  0.13628241932E+04  0.30198931313E+03 -0.37371660947E+02  0.13963824575E+04  0.25500000920E-02 0.  1.
       -2    1    3    3    0  502 -0.13628241932E+04 -0.30198931313E+03 -0.25925486764E+03  0.14197536452E+04  0.25500000920E-02 0. -1.
</event>
<event>
 5   0  0.3212679E-06  0.2795279E+04  0.7818609E-02  0.8304736E-01
        2   -1    0    0  501    0  0.00000000000E+00  0.00000000000E+00  0.23493753975E+04  0.23493753975E+04  0.25500000920E-02 0.  1.
       -2   -1    0    0    0  501  0.00000000000E+00  0.00000000000E+00 -0.83145332472E+03  0.83145332472E+03  0.25500000920E-02 0. -1.
    10030    2    1    2    0    0  0.00000000000E+00  0.00000000000E+00  0.15179220728E+04  0.31808287222E+04  0.27952788664E+04 0.  0.
        4    1    3    3  502    0 -0.13482693561E+04 -0.35527931072E+03  0.64898311949E+03  0.15379318409E+04  0.12699999809E+01 0. -1.
       -4    1    3    3    0  502  0.13482693561E+04  0.35527931072E+03  0.86893895331E+03  0.16428968813E+04  0.12699999809E+01 0.  1.
</event>
<event>
 5   0  0.3167616E-06  0.2805064E+04  0.7818609E-02  0.8301698E-01
        2   -1    0    0  501    0  0.00000000000E+00  0.00000000000E+00  0.11876468537E+04  0.11876468537E+04  0.25500000920E-02 0.  1.
       -2   -1    0    0    0  501  0.00000000000E+00  0.00000000000E+00 -0.16562967986E+04  0.16562967986E+04  0.25500000920E-02 0. -1.
    10030    2    1    2    0    0  0.00000000000E+00  0.00000000000E+00 -0.46864994496E+03  0.28439436523E+04  0.28050637652E+04 0.  0.
        3    1    3    3  502    0  0.96164598593E+02 -0.74445399787E+03 -0.14354979203E+04  0.16199116255E+04  0.10100000352E+00 0. -1.
       -3    1    3    3    0  502 -0.96164598593E+02  0.74445399787E+03  0.96684797538E+03  0.12240320268E+04  0.10100000352E+00 0.  1.
</event>
<event>
 5   0  0.1243055E-06  0.2699599E+04  0.7818609E-02  0.8335135E-01
        1   -1    0    0  501    0  0.00000000000E+00  0.00000000000E+00  0.20018602285E+04  0.20018602285E+04  0.50400001928E-02 0.  1.
       -1   -1    0    0    0  501  0.00000000000E+00  0.00000000000E+00 -0.91013279276E+03  0.91013279277E+03  0.50400001928E-02 0. -1.
    10030    2    1    2    0    0  0.00000000000E+00  0.00000000000E+00  0.10917274357E+04  0.29119930212E+04  0.26995989632E+04 0.  0.
        5    1    3    3  502    0  0.57076839832E+03 -0.86319424977E+03 -0.38895444670E+03  0.11055263583E+04  0.46999998093E+01 0. -1.
       -5    1    3    3    0  502 -0.57076839832E+03  0.86319424977E+03  0.14806818824E+04  0.18064666629E+04  0.46999998093E+01 0.  1.
</event>
<event>
 5   0  0.3167616E-06  0.2759902E+04  0.7818609E-02  0.8315826E-01
       -2   -1    0    0    0  501  0.00000000000E+00  0.00000000000E+00  0.89490934081E+03  0.89490934082E+03  0.25500000920E-02 0.  1.
        2   -1    0    0  501    0  0.00000000000E+00  0.00000000000E+00 -0.21278860254E+04  0.21278860254E+04  0.25500000920E-02 0. -1.
    10030    2    1    2    0    0  0.00000000000E+00  0.00000000000E+00 -0.12329766846E+04  0.30227953662E+04  0.27599022304E+04 0.  0.
        3    1    3    3  502    0 -0.44430653461E+03  0.42176754723E+03  0.73781009573E+03  0.95898900315E+03  0.10100000352E+00 0.  1.
       -3    1    3    3    0  502  0.44430653461E+03 -0.42176754723E+03 -0.19707867803E+04  0.20638063631E+04  0.10100000352E+00 0. -1.
</event>
<event>
 5   0  0.1246044E-06  0.2847968E+04  0.7818609E-02  0.8288529E-01
       -1   -1    0    0    0  501  0.00000000000E+00  0.00000000000E+00  0.13217832688E+04  0.13217832689E+04  0.50400001928E-02 0. -1.
        1   -1    0    0  501    0  0.00000000000E+00  0.00000000000E+00 -0.15340867143E+04  0.15340867143E+04  0.50400001928E-02 0.  1.
    10030    2    1    2    0    0  0.00000000000E+00  0.00000000000E+00 -0.21230344542E+03  0.28558699831E+04  0.28479678031E+04 0.  0.
        2    1    3    3  502    0  0.12206422905E+04 -0.15468794758E+03  0.61265951062E+03  0.13744990500E+04  0.25500000920E-02 0. -1.
       -2    1    3    3    0  502 -0.12206422905E+04  0.15468794758E+03 -0.82496295604E+03  0.14813709331E+04  0.25500000920E-02 0.  1.
</event>
<event>
 5   0  0.1235252E-06  0.2794214E+04  0.7818609E-02  0.8305067E-01
       -1   -1    0    0    0  501  0.00000000000E+00  0.00000000000E+00  0.11164110886E+04  0.11164110886E+04  0.50400001928E-02 0.  1.
        1   -1    0    0  501    0  0.00000000000E+00  0.00000000000E+00 -0.17483771574E+04  0.17483771574E+04  0.50400001928E-02 0. -1.
    10030    2    1    2    0    0  0.00000000000E+00  0.00000000000E+00 -0.63196606880E+03  0.28647882459E+04  0.27942137681E+04 0.  0.
        1    1    3    3  502    0  0.16573494428E+03  0.10054220229E+04  0.66396465396E+03  0.12162197900E+04  0.50400001928E-02 0.  1.
       -1    1    3    3    0  502 -0.16573494428E+03 -0.10054220229E+04 -0.12959307228E+04  0.16485684560E+04  0.50400001928E-02 0. -1.
</event>
<event>
 5   0  0.3212679E-06  0.2799920E+04  0.7818609E-02  0.8303293E-01
       -2   -1    0    0    0  501  0.00000000000E+00  0.00000000000E+00  0.12427564364E+04  0.12427564364E+04  0.25500000920E-02 0. -1.
        2   -1    0    0  501    0  0.00000000000E+00  0.00000000000E+00 -0.15770492767E+04  0.15770492767E+04  0.25500000920E-02 0.  1.
    10030    2    1    2    0    0  0.00000000000E+00  0.00000000000E+00 -0.33429284036E+03  0.28198057131E+04  0.27999200982E+04 0.  0.
        4    1    3    3  502    0 -0.13360585610E+04 -0.58672924937E+02  0.24978846392E+03  0.13604745055E+04  0.12699999809E+01 0. -1.
       -4    1    3    3    0  502  0.13360585610E+04  0.58672924937E+02 -0.58408130429E+03  0.14593312076E+04  0.12699999809E+01 0.  1.
</event>
<event>
 5   0  0.3212679E-06  0.2797016E+04  0.7818609E-02  0.8304195E-01
       -2   -1    0    0    0  501  0.00000000000E+00  0.00000000000E+00  0.14920246840E+04  0.14920246840E+04  0.25500000920E-02 0. -1.
        2   -1    0    0  501    0  0.00000000000E+00  0.00000000000E+00 -0.13108524179E+04  0.13108524179E+04  0.25500000920E-02 0.  1.
    10030    2    1    2    0    0  0.00000000000E+00  0.00000000000E+00  0.18117226608E+03  0.28028771019E+04  0.27970156700E+04 0.  0.
        4    1    3    3  502    0  0.47828294816E+03 -0.12582373044E+04  0.47073167623E+03  0.14260103845E+04  0.12699999809E+01 0. -1.
       -4    1    3    3    0  502 -0.47828294816E+03  0.12582373044E+04 -0.28955941015E+03  0.13768667175E+04  0.12699999809E+01 0.  1.
</event>
<event>
 5   0  0.3212679E-06  0.2794202E+04  0.7818609E-02  0.8305071E-01
        2   -1    0    0  501    0  0.00000000000E+00  0.00000000000E+00  0.11539320793E+04  0.11539320793E+04  0.25500000920E-02 0.  1.
       -2   -1    0    0    0  501  0.00000000000E+00  0.00000000000E+00 -0.16915124938E+04  0.16915124938E+04  0.25500000920E-02 0. -1.
    10030    2    1    2    0    0  0.00000000000E+00  0.00000000000E+00 -0.53758041452E+03  0.28454445732E+04  0.27942015169E+04 0.  0.
        4    1    3    3  502    0 -0.96173410749E+03 -0.14014081366E+03 -0.12908480676E+04  0.16158162914E+04  0.12699999809E+01 0. -1.
       -4    1    3    3    0  502  0.96173410749E+03  0.14014081366E+03  0.75326765307E+03  0.12296282817E+04  0.12699999809E+01 0.  1.
</event>
<event>
 5   0  0.1235252E-06  0.2779799E+04  0.7818609E-02  0.8309568E-01
        1   -1    0    0  501    0  0.00000000000E+00  0.00000000000E+00  0.13127232734E+04  0.13127232735E+04  0.50400001928E-02 0.  1.
       -1   -1    0    0    0  501  0.00000000000E+00  0.00000000000E+00 -0.14716129209E+04  0.14716129209E+04  0.50400001928E-02 0. -1.
    10030    2    1    2    0    0  0.00000000000E+00  0.00000000000E+00 -0.15888964747E+03  0.27843361944E+04  0.27797989358E+04 0.  0.
        1    1    3    3  502    0  0.73813355277E+03  0.10021763269E+04 -0.69901892669E+03  0.14275244277E+04  0.50400001928E-02 0. -1.
       -1    1    3    3    0  502 -0.73813355277E+03 -0.10021763269E+04  0.54012927922E+03  0.13568117667E+04  0.50400001928E-02 0.  1.
</event>
<event>
 5   0  0.3167616E-06  0.2815787E+04  0.7818609E-02  0.8298384E-01
        2   -1    0    0  501    0  0.00000000000E+00  0.00000000000E+00  0.19047286173E+04  0.19047286173E+04  0.25500000920E-02 0.  1.
       -2   -1    0    0    0  501  0.00000000000E+00  0.00000000000E+00 -0.10406546060E+04  0.10406546060E+04  0.25500000920E-02 0. -1.
    10030    2    1    2    0    0  0.00000000000E+00  0.00000000000E+00  0.86407401132E+03  0.29453832233E+04  0.28157873561E+04 0.  0.
        3    1    3    3  502    0  0.42356302982E+03  0.10828238561E+04 -0.39838506417E+03  0.12290743725E+04  0.10100000352E+00 0. -1.
       -3    1    3    3    0  502 -0.42356302982E+03 -0.10828238561E+04  0.12624590755E+04  0.17163088507E+04  0.10100000352E+00 0.  1.
</event>
<event>
 5   0  0.3162695E-06  0.2801745E+04  0.7818609E-02  0.8302727E-01
       -2   -1    0    0    0  501  0.00000000000E+00  0.00000000000E+00  0.28113943072E+04  0.28113943072E+04  0.25500000920E-02 0. -1.
        2   -1    0    0  501    0  0.00000000000E+00  0.00000000000E+00 -0.69803209872E+03  0.69803209873E+03  0.25500000920E-02 0.  1.
    10030    2    1    2    0    0  0.00000000000E+00  0.00000000000E+00  0.21133622085E+04  0.35094264059E+04  0.28017447911E+04 0.  0.
        1    1    3    3  502    0 -0.50195362168E+03 -0.13058668194E+04  0.11469879547E+04  0.18090956185E+04  0.50400001928E-02 0. -1.
       -1    1    3    3    0  502  0.50195362168E+03  0.13058668194E+04  0.96637425376E+03  0.17003307875E+04  0.50400001928E-02 0.  1.
</event>
<event>
 5   0  0.1246044E-06  0.2767459E+04  0.7818609E-02  0.8313443E-01
       -1   -1    0    0    0  501  0.00000000000E+00  0.00000000000E+00  0.15354380836E+04  0.15354380836E+04  0.50400001928E-02 0. -1.
        1   -1    0    0  501    0  0.00000000000E+00  0.00000000000E+00 -0.12470108454E+04  0.12470108454E+04  0.50400001928E-02 0.  1.
    10030    2    1    2    0    0  0.00000000000E+00  0.00000000000E+00  0.28842723818E+03  0.27824489290E+04  0.27674594434E+04 0.  0.
        2    1    3    3  502    0  0.11191266038E+04  0.80738509975E+03  0.24671130545E+03  0.14018493224E+04  0.25500000920E-02 0. -1.
       -2    1    3    3    0  502 -0.11191266038E+04 -0.80738509975E+03  0.41715932731E+02  0.13805996066E+04  0.25500000920E-02 0.  1.
</event>
<event>
 5   0  0.1235252E-06  0.2804042E+04  0.7818609E-02  0.8302015E-01
       -1   -1    0    0    0  501  0.00000000000E+00  0.00000000000E+00  0.11330573123E+04  0.11330573123E+04  0.50400001928E-02 0.  1.
        1   -1    0    0  501    0  0.00000000000E+00  0.00000000000E+00 -0.17348308566E+04  0.17348308566E+04  0.50400001928E-02 0. -1.
    10030    2    1    2    0    0  0.00000000000E+00  0.00000000000E+00 -0.60177354428E+03  0.28678881689E+04  0.28040419310E+04 0.  0.
        1    1    3    3  502    0  0.98086714003E+02  0.46905082118E+03 -0.16484734557E+04  0.17167103456E+04  0.50400001928E-02 0. -1.
       -1    1    3    3    0  502 -0.98086714003E+02 -0.46905082118E+03  0.10466999115E+04  0.11511778234E+04  0.50400001928E-02 0.  1.
</event>
<event>
 5   0  0.1246044E-06  0.2821086E+04  0.7818609E-02  0.8296752E-01
        1   -1    0    0  501    0  0.00000000000E+00  0.00000000000E+00  0.14355182602E+04  0.14355182602E+04  0.50400001928E-02 0. -1.
       -1   -1    0    0    0  501  0.00000000000E+00  0.00000000000E+00 -0.13860027178E+04  0.13860027178E+04  0.50400001928E-02 0.  1.
    10030    2    1    2    0    0  0.00000000000E+00  0.00000000000E+00  0.49515542388E+02  0.28215209780E+04  0.28210864645E+04 0.  0.
        2    1    3    3  502    0 -0.13987561039E+04 -0.18012420569E+03 -0.11082018242E+01  0.14103065609E+04  0.25500000920E-02 0.  1.
       -2    1    3    3    0  502  0.13987561039E+04  0.18012420569E+03  0.50623744212E+02  0.14112144171E+04  0.25500000920E-02 0. -1.
</event>
<event>
 5   0  0.3167616E-06  0.2796109E+04  0.7818609E-02  0.8304477E-01
        2   -1    0    0  501    0  0.00000000000E+00  0.00000000000E+00  0.32104810115E+04  0.32104810115E+04  0.25500000920E-02 0.  1.
       -2   -1    0    0    0  501  0.00000000000E+00  0.00000000000E+00 -0.60880477476E+03  0.60880477477E+03  0.25500000920E-02 0. -1.
    10030    2    1    2    0    0  0.00000000000E+00  0.00000000000E+00  0.26016762367E+04  0.38192857863E+04  0.27961088456E+04 0.  0.
        3    1    3    3  502    0 -0.61579920385E+03 -0.83577400319E+03  0.21793738452E+02  0.10383649749E+04  0.10100000352E+00 0. -1.
       -3    1    3    3    0  502  0.61579920385E+03  0.83577400319E+03  0.25798824983E+04  0.27809208113E+04  0.10100000352E+00 0.  1.
</event>
<event>
 5   0  0.1246044E-06  0.2803764E+04  0.7818609E-02  0.8302101E-01
        1   -1    0    0  501    0  0.00000000000E+00  0.00000000000E+00  0.88710194599E+03  0.88710194600E+03  0.50400001928E-02 0.  1.
       -1   -1    0    0    0  501  0.00000000000E+00  0.00000000000E+00 -0.22153851935E+04  0.22153851935E+04  0.50400001928E-02 0. -1.
    10030    2    1    2    0    0  0.00000000000E+00  0.00000000000E+00 -0.13282832475E+04  0.31024871395E+04  0.28037635537E+04 0.  0.
        2    1    3    3  502    0  0.41525908687E+03  0.20757382269E+02  0.81730585046E+03  0.91698409547E+03  0.25500000920E-02 0.  1.
       -2    1    3    3    0  502 -0.41525908687E+03 -0.20757382269E+02 -0.21455890979E+04  0.21855030440E+04  0.25500000920E-02 0. -1.
</event>
<event>
 5   0  0.3212679E-06  0.2798038E+04  0.7818609E-02  0.8303878E-01
        2   -1    0    0  501    0  0.00000000000E+00  0.00000000000E+00  0.15385059606E+04  0.15385059606E+04  0.25500000920E-02 0.  1.
       -2   -1    0    0    0  501  0.00000000000E+00  0.00000000000E+00 -0.12721789119E+04  0.12721789119E+04  0.25500000920E-02 0. -1.
    10030    2    1    2    0    0  0.00000000000E+00  0.00000000000E+00  0.26632704869E+03  0.28106848724E+04  0.27980384835E+04 0.  0.
        4    1    3    3  502    0 -0.35763617648E+03  0.76711326082E+03  0.12521492889E+04  0.15113721726E+04  0.12699999809E+01 0.  1.
       -4    1    3    3    0  502  0.35763617648E+03 -0.76711326082E+03 -0.98582224021E+03  0.12993126998E+04  0.12699999809E+01 0. -1.
</event>
<event>
 5   0  0.1263513E-06  0.2801884E+04  0.7818609E-02  0.8302684E-01
       -1   -1    0    0    0  501  0.00000000000E+00  0.00000000000E+00  0.17332483114E+04  0.17332483114E+04  0.50400001928E-02 0.  1.
        1   -1    0    0  501    0  0.00000000000E+00  0.00000000000E+00 -0.11323470956E+04  0.11323470956E+04  0.50400001928E-02 0. -1.
    10030    2    1    2    0    0  0.00000000000E+00  0.00000000000E+00  0.60090121577E+03  0.28655954070E+04  0.28018841456E+04 0.  0.
        3    1    3    3  502    0  0.21545576836E+03 -0.73480272371E+03 -0.89937598841E+03  0.11811999871E+04  0.10100000352E+00 0. -1.
       -3    1    3    3    0  502 -0.21545576836E+03  0.73480272371E+03  0.15002772042E+04  0.16843954199E+04  0.10100000352E+00 0.  1.
</event>
<event>
 5   0  0.1235252E-06  0.2800359E+04  0.7818609E-02  0.8303157E-01
        1   -1    0    0  501    0  0.00000000000E+00  0.00000000000E+00  0.17110775612E+04  0.17110775612E+04  0.50400001928E-02 0.  1.
       -1   -1    0    0    0  501  0.00000000000E+00  0.00000000000E+00 -0.11457705667E+04  0.11457705667E+04  0.50400001928E-02 0. -1.
    10030    2    1    2    0    0  0.00000000000E+00  0.00000000000E+00  0.56530699447E+03  0.28568481279E+04  0.28003587677E+04 0.  0.
        1    1    3    3  502    0 -0.66626265895E+03  0.63533281192E+03 -0.79359121753E+03  0.12154590627E+04  0.50400001928E-02 0. -1.
       -1    1    3    3    0  502  0.66626265895E+03 -0.63533281192E+03  0.13588982120E+04  0.16413890652E+04  0.50400001928E-02 0.  1.
</event>
<event>
 5   0  0.3212679E-06  0.2793765E+04  0.7818609E-02  0.8305207E-01
        2   -1    0    0  501    0  0.00000000000E+00  0.00000000000E+00  0.10377029333E+04  0.10377029333E+04  0.25500000920E-02 0. -1.
       -2   -1    0    0    0  501  0.00000000000E+00  0.00000000000E+00 -0.18803844458E+04  0.18803844458E+04  0.25500000920E-02 0.  1.
    10030    2    1    2    0    0  0.00000000000E+00  0.00000000000E+00 -0.84268151251E+03  0.29180873791E+04  0.27937648112E+04 0.  0.
        4    1    3    3  502    0  0.11402374586E+04 -0.73490734120E+03 -0.76940944278E+03  0.15595585162E+04  0.12699999809E+01 0.  1.
       -4    1    3    3    0  502 -0.11402374586E+04  0.73490734120E+03 -0.73272069726E+02  0.13585288628E+04  0.12699999809E+01 0. -1.
</event>
<event>
 5   0  0.3226364E-06  0.2790148E+04  0.7818609E-02  0.8306333E-01
       -2   -1    0    0    0  501  0.00000000000E+00  0.00000000000E+00  0.75080450557E+03  0.75080450557E+03  0.25500000920E-02 0. -1.
        2   -1    0    0  501    0  0.00000000000E+00  0.00000000000E+00 -0.25921951757E+04  0.25921951757E+04  0.25500000920E-02 0.  1.
    10030    2    1    2    0    0  0.00000000000E+00  0.00000000000E+00 -0.18413906701E+04  0.33429996813E+04  0.27901482521E+04 0.  0.
        5    1    3    3  502    0  0.71405358251E+03 -0.36743732962E+03  0.44609619441E+03  0.91864389976E+03  0.46999998093E+01 0. -1.
       -5    1    3    3    0  502 -0.71405358251E+03  0.36743732962E+03 -0.22874868645E+04  0.24243557815E+04  0.46999998093E+01 0.  1.
</event>
<event>
 5   0  0.1246044E-06  0.2807269E+04  0.7818609E-02  0.8301015E-01
        1   -1    0    0  501    0  0.00000000000E+00  0.00000000000E+00  0.13045298178E+04  0.13045298178E+04  0.50400001928E-02 0.  1.
       -1   -1    0    0    0  501  0.00000000000E+00  0.00000000000E+00 -0.15102683172E+04  0.15102683172E+04  0.50400001928E-02 0. -1.
    10030    2    1    2    0    0  0.00000000000E+00  0.00000000000E+00 -0.20573849940E+03  0.28147981350E+04  0.28072691732E+04 0.  0.
        2    1    3    3  502    0  0.51713670351E+03 -0.99275911277E+03 -0.95201065055E+03  0.14694642918E+04  0.25500000920E-02 0. -1.
       -2    1    3    3    0  502 -0.51713670351E+03  0.99275911277E+03  0.74627215116E+03  0.13453338432E+04  0.25500000920E-02 0.  1.
</event>
<event>
 5   0  0.1220265E-06  0.2625535E+04  0.7818609E-02  0.8359579E-01
       -1   -1    0    0    0  501  0.00000000000E+00  0.00000000000E+00  0.14412829234E+04  0.14412829234E+04  0.50400001928E-02 0.  1.
        1   -1    0    0  501    0  0.00000000000E+00  0.00000000000E+00 -0.11957117243E+04  0.11957117243E+04  0.50400001928E-02 0. -1.
    10030    2    1    2    0    0  0.00000000000E+00  0.00000000000E+00  0.24557119917E+03  0.26369946477E+04  0.26255352899E+04 0.  0.
        4    1    3    3  502    0 -0.12512027260E+04 -0.45748900139E+02 -0.27359633725E+03  0.12815840948E+04  0.12699999809E+01 0. -1.
       -4    1    3    3    0  502  0.12512027260E+04  0.45748900139E+02  0.51916753642E+03  0.13554105530E+04  0.12699999809E+01 0.  1.
</event>
<event>
 5   0  0.1235252E-06  0.2822480E+04  0.7818609E-02  0.8296323E-01
       -1   -1    0    0    0  501  0.00000000000E+00  0.00000000000E+00  0.12708112863E+04  0.12708112863E+04  0.50400001928E-02 0.  1.
        1   -1    0    0  501    0  0.00000000000E+00  0.00000000000E+00 -0.15671870722E+04  0.15671870722E+04  0.50400001928E-02 0. -1.
    10030    2    1    2    0    0  0.00000000000E+00  0.00000000000E+00 -0.29637578588E+03  0.28379983585E+04  0.28224804829E+04 0.  0.
        1    1    3    3  502    0  0.34104986486E+02 -0.84642953831E+03  0.98673066408E+03  0.13004781878E+04  0.50400001928E-02 0.  1.
       -1    1    3    3    0  502 -0.34104986486E+02  0.84642953831E+03 -0.12831064500E+04  0.15375201707E+04  0.50400001928E-02 0. -1.
</event>
<event>
 5   0  0.1243055E-06  0.2800246E+04  0.7818609E-02  0.8303192E-01
       -1   -1    0    0    0  501  0.00000000000E+00  0.00000000000E+00  0.14564645360E+04  0.14564645360E+04  0.50400001928E-02 0.  1.
        1   -1    0    0  501    0  0.00000000000E+00  0.00000000000E+00 -0.13459609027E+04  0.13459609027E+04  0.50400001928E-02 0. -1.
    10030    2    1    2    0    0  0.00000000000E+00  0.00000000000E+00  0.11050363330E+03  0.28024254387E+04  0.28002459333E+04 0.  0.
        5    1    3    3  502    0  0.91965650753E+03 -0.10479850872E+04 -0.72446073777E+02  0.13961774094E+04  0.46999998093E+01 0. -1.
       -5    1    3    3    0  502 -0.91965650753E+03  0.10479850872E+04  0.18294970707E+03  0.14062480294E+04  0.46999998093E+01 0.  1.
</event>
<event>
 5   0  0.1263513E-06  0.2800471E+04  0.7818609E-02  0.8303122E-01
        1   -1    0    0  501    0  0.00000000000E+00  0.00000000000E+00  0.12787568724E+04  0.12787568724E+04  0.50400001928E-02 0.  1.
       -1   -1    0    0    0  501  0.00000000000E+00  0.00000000000E+00 -0.15332538763E+04  0.15332538763E+04  0.50400001928E-02 0. -1.
    10030    2    1    2    0    0  0.00000000000E+00  0.00000000000E+00 -0.25449700389E+03  0.28120107488E+04  0.28004706258E+04 0.  0.
        3    1    3    3  502    0  0.12942977127E+04  0.13023850260E+03  0.39304720495E+03  0.13589167569E+04  0.10100000352E+00 0.  1.
       -3    1    3    3    0  502 -0.12942977127E+04 -0.13023850260E+03 -0.64754420885E+03  0.14530939919E+04  0.10100000352E+00 0. -1.
</event>
<event>
 5   0  0.3162695E-06  0.2799574E+04  0.7818609E-02  0.8303401E-01
       -2   -1    0    0    0  501  0.00000000000E+00  0.00000000000E+00  0.86688184595E+03  0.86688184595E+03  0.25500000920E-02 0.  1.
        2   -1    0    0  501    0  0.00000000000E+00  0.00000000000E+00 -0.22602897936E+04  0.22602897936E+04  0.25500000920E-02 0. -1.
    10030    2    1    2    0    0  0.00000000000E+00  0.00000000000E+00 -0.13934079476E+04  0.31271716395E+04  0.27995743881E+04 0.  0.
        1    1    3    3  502    0 -0.78936520743E+03  0.44012555178E+03  0.49730091644E+03  0.10315600484E+04  0.50400001928E-02 0.  1.
       -1    1    3    3    0  502  0.78936520743E+03 -0.44012555178E+03 -0.18907088641E+04  0.20956115911E+04  0.50400001928E-02 0. -1.
</event>
<event>
 5   0  0.1243055E-06  0.2799656E+04  0.7818609E-02  0.8303375E-01
        1   -1    0    0  501    0  0.00000000000E+00  0.00000000000E+00  0.11461741984E+04  0.11461741984E+04  0.50400001928E-02 0. -1.
       -1   -1    0    0    0  501  0.00000000000E+00  0.00000000000E+00 -0.17096160571E+04  0.17096160571E+04  0.50400001928E-02 0.  1.
    10030    2    1    2    0    0  0.00000000000E+00  0.00000000000E+00 -0.56344185875E+03  0.28557902556E+04  0.27996555602E+04 0.  0.
        5    1    3    3  502    0  0.25495563584E+01 -0.44192853301E+03  0.10731383315E+04  0.11605840328E+04  0.46999998093E+01 0. -1.
       -5    1    3    3    0  502 -0.25495563584E+01  0.44192853301E+03 -0.16365801903E+04  0.16952062228E+04  0.46999998093E+01 0.  1.
</event>
<event>
 5   0  0.1235252E-06  0.2822376E+04  0.7818609E-02  0.8296355E-01
        1   -1    0    0  501    0  0.00000000000E+00  0.00000000000E+00  0.24485350209E+04  0.24485350209E+04  0.50400001928E-02 0.  1.
       -1   -1    0    0    0  501  0.00000000000E+00  0.00000000000E+00 -0.81332352242E+03  0.81332352244E+03  0.50400001928E-02 0. -1.
    10030    2    1    2    0    0  0.00000000000E+00  0.00000000000E+00  0.16352114985E+04  0.32618585433E+04  0.28223756858E+04 0.  0.
        1    1    3    3  502    0  0.51715646987E+03 -0.84364610284E+02 -0.69672465432E+03  0.87177602959E+03  0.50400001928E-02 0. -1.
       -1    1    3    3    0  502 -0.51715646987E+03  0.84364610284E+02  0.23319361528E+04  0.23900825137E+04  0.50400001928E-02 0.  1.
</event>
<event>
 5   0  0.1263513E-06  0.2805559E+04  0.7818609E-02  0.8301545E-01
        1   -1    0    0  501    0  0.00000000000E+00  0.00000000000E+00  0.16764353561E+04  0.16764353561E+04  0.50400001928E-02 0.  1.
       -1   -1    0    0    0  501  0.00000000000E+00  0.00000000000E+00 -0.11737940223E+04  0.11737940223E+04  0.50400001928E-02 0. -1.
    10030    2    1    2    0    0  0.00000000000E+00  0.00000000000E+00  0.50264133385E+03  0.28502293784E+04  0.28055586252E+04 0.  0.
        3    1    3    3  502    0 -0.27468787613E+03 -0.31230572361E+03 -0.11097123958E+04  0.11850948932E+04  0.10100000352E+00 0. -1.
       -3    1    3    3    0  502  0.27468787613E+03  0.31230572361E+03  0.16123537296E+04  0.16651344853E+04  0.10100000352E+00 0.  1.
</event>
<event>
 5   0  0.1220265E-06  0.2953472E+04  0.7818609E-02  0.8257143E-01
       -1   -1    0    0    0  501  0.00000000000E+00  0.00000000000E+00  0.17667450417E+04  0.17667450417E+04  0.50400001928E-02 0. -1.
        1   -1    0    0  501    0  0.00000000000E+00  0.00000000000E+00 -0.12343315563E+04  0.12343315563E+04  0.50400001928E-02 0.  1.
    10030    2    1    2    0    0  0.00000000000E+00  0.00000000000E+00  0.53241348537E+03  0.30010765980E+04  0.29534719616E+04 0.  0.
        4    1    3    3  502    0  0.77769478888E+03 -0.30770913392E+03  0.15028912359E+04  0.17199353986E+04  0.12699999809E+01 0. -1.
       -4    1    3    3    0  502 -0.77769478888E+03  0.30770913392E+03 -0.97047775049E+03  0.12811411994E+04  0.12699999809E+01 0.  1.
</event>
<event>
 5   0  0.1263513E-06  0.2796161E+04  0.7818609E-02  0.8304461E-01
       -1   -1    0    0    0  501  0.00000000000E+00  0.00000000000E+00  0.10228416567E+04  0.10228416568E+04  0.50400001928E-02 0. -1.
        1   -1    0    0  501    0  0.00000000000E+00  0.00000000000E+00 -0.19109796930E+04  0.19109796930E+04  0.50400001928E-02 0.  1.
    10030    2    1    2    0    0  0.00000000000E+00  0.00000000000E+00 -0.88813803630E+03  0.29338213498E+04  0.27961613939E+04 0.  0.
        3    1    3    3  502    0  0.28797427814E+03  0.90472312828E+02  0.98824386841E+03  0.10333152365E+04  0.10100000352E+00 0. -1.
       -3    1    3    3    0  502 -0.28797427814E+03 -0.90472312828E+02 -0.18763819047E+04  0.19005061133E+04  0.10100000352E+00 0.  1.
</event>
<event>
 5   0  0.3162695E-06  0.2798479E+04  0.7818609E-02  0.8303741E-01
        2   -1    0    0  501    0  0.00000000000E+00  0.00000000000E+00  0.30519712395E+04  0.30519712395E+04  0.25500000920E-02 0.  1.
       -2   -1    0    0    0  501  0.00000000000E+00  0.00000000000E+00 -0.64151047597E+03  0.64151047598E+03  0.25500000920E-02 0. -1.
    10030    2    1    2    0    0  0.00000000000E+00  0.00000000000E+00  0.24104607635E+04  0.36934817155E+04  0.27984792460E+04 0.  0.
        1    1    3    3  502    0  0.76532371130E+03  0.11054635483E+04  0.69389440024E+03  0.15130299001E+04  0.50400001928E-02 0. -1.
       -1    1    3    3    0  502 -0.76532371130E+03 -0.11054635483E+04  0.17165663633E+04  0.21804518154E+04  0.50400001928E-02 0.  1.
</event>
<event>
 5   0  0.3167616E-06  0.2804291E+04  0.7818609E-02  0.8301937E-01
        2   -1    0    0  501    0  0.00000000000E+00  0.00000000000E+00  0.19143442037E+04  0.19143442037E+04  0.25500000920E-02 0. -1.
       -2   -1    0    0    0  501  0.00000000000E+00  0.00000000000E+00 -0.10269898425E+04  0.10269898425E+04  0.25500000920E-02 0.  1.
    10030    2    1    2    0    0  0.00000000000E+00  0.00000000000E+00  0.88735436127E+03  0.29413340462E+04  0.28042910350E+04 0.  0.
        3    1    3    3  502    0  0.10153072559E+04 -0.17244764794E+03  0.14417161837E+04  0.17717597409E+04  0.10100000352E+00 0. -1.
       -3    1    3    3    0  502 -0.10153072559E+04  0.17244764794E+03 -0.55436182239E+03  0.11695743052E+04  0.10100000352E+00 0.  1.
</event>
<event>
 5   0  0.1263513E-06  0.2808871E+04  0.7818609E-02  0.8300520E-01
        1   -1    0    0  501    0  0.00000000000E+00  0.00000000000E+00  0.26677798436E+04  0.26677798436E+04  0.50400001928E-02 0.  1.
       -1   -1    0    0    0  501  0.00000000000E+00  0.00000000000E+00 -0.73935582121E+03  0.73935582123E+03  0.50400001928E-02 0. -1.
    10030    2    1    2    0    0  0.00000000000E+00  0.00000000000E+00  0.19284240224E+04  0.34071356648E+04  0.28088706322E+04 0.  0.
        3    1    3    3  502    0 -0.11691269220E+04  0.76602461622E+02  0.19035661787E+04  0.22352382208E+04  0.10100000352E+00 0.  1.
       -3    1    3    3    0  502  0.11691269220E+04 -0.76602461622E+02  0.24857843713E+02  0.11718974441E+04  0.10100000352E+00 0. -1.
</event>
<event>
 5   0  0.1065675E-06  0.2794846E+04  0.7818609E-02  0.8304870E-01
        4   -1    0    0  501    0  0.00000000000E+00  0.00000000000E+00  0.17748604705E+04  0.17748609249E+04  0.12699999809E+01 0.  1.
       -4   -1    0    0    0  501  0.00000000000E+00  0.00000000000E+00 -0.11002496644E+04  0.11002503974E+04  0.12699999809E+01 0. -1.
    10030    2    1    2    0    0  0.00000000000E+00  0.00000000000E+00  0.67461080608E+03  0.28751113222E+04  0.27948462168E+04 0.  0.
        3    1    3    3  502    0  0.10019685190E+04 -0.17315036784E+03 -0.64880067615E+03  0.12061775535E+04  0.10100000352E+00 0. -1.
       -3    1    3    3    0  502 -0.10019685190E+04  0.17315036784E+03  0.13234114822E+04  0.16689337688E+04  0.10100000352E+00 0.  1.
</event>
<event>
 5   0  0.1220265E-06  0.2796643E+04  0.7818609E-02  0.8304311E-01
       -1   -1    0    0    0  501  0.00000000000E+00  0.00000000000E+00  0.83196016832E+03  0.83196016834E+03  0.50400001928E-02 0. -1.
        1   -1    0    0  501    0  0.00000000000E+00  0.00000000000E+00 -0.23502363337E+04  0.23502363337E+04  0.50400001928E-02 0.  1.
    10030    2    1    2    0    0  0.00000000000E+00  0.00000000000E+00 -0.15182761654E+04  0.31821965021E+04  0.27966429989E+04 0.  0.
        4    1    3    3  502    0  0.53267956405E+03  0.32554273054E+03 -0.21828660466E+04  0.22703813287E+04  0.12699999809E+01 0.  1.
       -4    1    3    3    0  502 -0.53267956405E+03 -0.32554273054E+03  0.66458988118E+03  0.91181517340E+03  0.12699999809E+01 0. -1.
</event>
<event>
 5   0  0.1246044E-06  0.2803129E+04  0.7818609E-02  0.8302298E-01
       -1   -1    0    0    0  501  0.00000000000E+00  0.00000000000E+00  0.13777915389E+04  0.13777915390E+04  0.50400001928E-02 0. -1.
        1   -1    0    0  501    0  0.00000000000E+00  0.00000000000E+00 -0.14257477176E+04  0.14257477176E+04  0.50400001928E-02 0.  1.
    10030    2    1    2    0    0  0.00000000000E+00  0.00000000000E+00 -0.47956178607E+02  0.28035392565E+04  0.28031290673E+04 0.  0.
        2    1    3    3  502    0  0.71094642387E+03 -0.15021751442E+02  0.11839704266E+04  0.13811069624E+04  0.25500000920E-02 0. -1.
       -2    1    3    3    0  502 -0.71094642387E+03  0.15021751442E+02 -0.12319266052E+04  0.14224322941E+04  0.25500000920E-02 0.  1.
</event>
<event>
 5   0  0.1235252E-06  0.2776494E+04  0.7818609E-02  0.8310604E-01
        1   -1    0    0  501    0  0.00000000000E+00  0.00000000000E+00  0.16662474121E+04  0.16662474121E+04  0.50400001928E-02 0.  1.
       -1   -1    0    0    0  501  0.00000000000E+00  0.00000000000E+00 -0.11566284191E+04  0.11566284191E+04  0.50400001928E-02 0. -1.
    10030    2    1    2    0    0  0.00000000000E+00  0.00000000000E+00  0.50961899308E+03  0.28228758312E+04  0.27764935513E+04 0.  0.
        1    1    3    3  502    0  0.69467435361E+03  0.36773978845E+03  0.14182261371E+04  0.16214716728E+04  0.50400001928E-02 0.  1.
       -1    1    3    3    0  502 -0.69467435361E+03 -0.36773978845E+03 -0.90860714406E+03  0.12014041584E+04  0.50400001928E-02 0. -1.
</event>
<event>
 5   0  0.1243055E-06  0.2790631E+04  0.7818609E-02  0.8306183E-01
        1   -1    0    0  501    0  0.00000000000E+00  0.00000000000E+00  0.11213855606E+04  0.11213855606E+04  0.50400001928E-02 0. -1.
       -1   -1    0    0    0  501  0.00000000000E+00  0.00000000000E+00 -0.17361610596E+04  0.17361610596E+04  0.50400001928E-02 0.  1.
    10030    2    1    2    0    0  0.00000000000E+00  0.00000000000E+00 -0.61477549896E+03  0.28575466202E+04  0.27906314290E+04 0.  0.
        5    1    3    3  502    0  0.77554960304E+03  0.53590736975E+03 -0.13607476107E+04  0.16553942267E+04  0.46999998093E+01 0.  1.
       -5    1    3    3    0  502 -0.77554960304E+03 -0.53590736975E+03  0.74597211173E+03  0.12021523935E+04  0.46999998093E+01 0. -1.
</event>
<event>
 5   0  0.3226364E-06  0.2800906E+04  0.7818609E-02  0.8302987E-01
       -2   -1    0    0    0  501  0.00000000000E+00  0.00000000000E+00  0.12219638985E+04  0.12219638985E+04  0.25500000920E-02 0.  1.
        2   -1    0    0  501    0  0.00000000000E+00  0.00000000000E+00 -0.16050137033E+04  0.16050137033E+04  0.25500000920E-02 0. -1.
    10030    2    1    2    0    0  0.00000000000E+00  0.00000000000E+00 -0.38304980477E+03  0.28269776018E+04  0.28009061405E+04 0.  0.
        5    1    3    3  502    0 -0.10587591765E+04  0.24404492865E+03 -0.10833318471E+04  0.15343268563E+04  0.46999998093E+01 0. -1.
       -5    1    3    3    0  502  0.10587591765E+04 -0.24404492865E+03  0.70028204235E+03  0.12926507455E+04  0.46999998093E+01 0.  1.
</event>
<event>
 5   0  0.3212679E-06  0.2809233E+04  0.7818609E-02  0.8300408E-01
        2   -1    0    0  501    0  0.00000000000E+00  0.00000000000E+00  0.98297209923E+03  0.98297209923E+03  0.25500000920E-02 0. -1.
       -2   -1    0    0    0  501  0.00000000000E+00  0.00000000000E+00 -0.20071247462E+04  0.20071247462E+04  0.25500000920E-02 0.  1.
    10030    2    1    2    0    0  0.00000000000E+00  0.00000000000E+00 -0.10241526470E+04  0.29900968454E+04  0.28092330805E+04 0.  0.
        4    1    3    3  502    0 -0.88544755191E+02 -0.21569974729E+03  0.96222880408E+03  0.99007698638E+03  0.12699999809E+01 0. -1.
       -4    1    3    3    0  502  0.88544755191E+02  0.21569974729E+03 -0.19863814510E+04  0.20000198591E+04  0.12699999809E+01 0.  1.
</event>
<event>
 5   0  0.1243055E-06  0.2808794E+04  0.7818609E-02  0.8300543E-01
       -1   -1    0    0    0  501  0.00000000000E+00  0.00000000000E+00  0.11259780797E+04  0.11259780798E+04  0.50400001928E-02 0.  1.
        1   -1    0    0  501    0  0.00000000000E+00  0.00000000000E+00 -0.17516605680E+04  0.17516605680E+04  0.50400001928E-02 0. -1.
    10030    2    1    2    0    0  0.00000000000E+00  0.00000000000E+00 -0.62568248824E+03  0.28776386477E+04  0.28087943340E+04 0.  0.
        5    1    3    3  502    0  0.13723911500E+03 -0.13118173766E+04 -0.80695895698E+03  0.15462549118E+04  0.46999998093E+01 0. -1.
       -5    1    3    3    0  502 -0.13723911500E+03  0.13118173766E+04  0.18127646873E+03  0.13313837359E+04  0.46999998093E+01 0.  1.
</event>
<event>
 5   0  0.3167616E-06  0.2799221E+04  0.7818609E-02  0.8303510E-01
       -2   -1    0    0    0  501  0.00000000000E+00  0.00000000000E+00  0.15211530933E+04  0.15211530933E+04  0.25500000920E-02 0.  1.
        2   -1    0    0  501    0  0.00000000000E+00  0.00000000000E+00 -0.12877793894E+04  0.12877793894E+04  0.25500000920E-02 0. -1.
    10030    2    1    2    0    0  0.00000000000E+00  0.00000000000E+00  0.23337370395E+03  0.28089324827E+04  0.27992210357E+04 0.  0.
        3    1    3    3  502    0 -0.98725846902E+02  0.94990515615E+03  0.11433899735E+04  0.14897675122E+04  0.10100000352E+00 0.  1.
       -3    1    3    3    0  502  0.98725846902E+02 -0.94990515615E+03 -0.91001626958E+03  0.13191649706E+04  0.10100000352E+00 0. -1.
</event>
<event>
 5   0  0.3212679E-06  0.2805795E+04  0.7818609E-02  0.8301472E-01
        2   -1    0    0  501    0  0.00000000000E+00  0.00000000000E+00  0.18614274943E+04  0.18614274943E+04  0.25500000920E-02 0. -1.
       -2   -1    0    0    0  501  0.00000000000E+00  0.00000000000E+00 -0.10573182166E+04  0.10573182166E+04  0.25500000920E-02 0.  1.
    10030    2    1    2    0    0  0.00000000000E+00  0.00000000000E+00  0.80410927772E+03  0.29187457108E+04  0.28057948596E+04 0.  0.
        4    1    3    3  502    0 -0.61860200936E+03  0.11004549120E+04 -0.23450241512E+03  0.12840025136E+04  0.12699999809E+01 0. -1.
       -4    1    3    3    0  502  0.61860200936E+03 -0.11004549120E+04  0.10386116928E+04  0.16347431972E+04  0.12699999809E+01 0.  1.
</event>
<event>
 5   0  0.3212679E-06  0.2811038E+04  0.7818609E-02  0.8299850E-01
       -2   -1    0    0    0  501  0.00000000000E+00  0.00000000000E+00  0.10368035416E+04  0.10368035416E+04  0.25500000920E-02 0.  1.
        2   -1    0    0  501    0  0.00000000000E+00  0.00000000000E+00 -0.19053592501E+04  0.19053592501E+04  0.25500000920E-02 0. -1.
    10030    2    1    2    0    0  0.00000000000E+00  0.00000000000E+00 -0.86855570851E+03  0.29421627917E+04  0.28110376864E+04 0.  0.
        4    1    3    3  502    0  0.23690642623E+03  0.80444055170E+03  0.74626905354E+03  0.11225722111E+04  0.12699999809E+01 0.  1.
       -4    1    3    3    0  502 -0.23690642623E+03 -0.80444055170E+03 -0.16148247621E+04  0.18195905806E+04  0.12699999809E+01 0. -1.
</event>
<event>
 5   0  0.1235252E-06  0.2795815E+04  0.7818609E-02  0.8304569E-01
       -1   -1    0    0    0  501  0.00000000000E+00  0.00000000000E+00  0.17724995697E+04  0.17724995697E+04  0.50400001928E-02 0. -1.
        1   -1    0    0  501    0  0.00000000000E+00  0.00000000000E+00 -0.11024802801E+04  0.11024802801E+04  0.50400001928E-02 0.  1.
    10030    2    1    2    0    0  0.00000000000E+00  0.00000000000E+00  0.67001928963E+03  0.28749798499E+04  0.27958153173E+04 0.  0.
        1    1    3    3  502    0 -0.94488226573E+03  0.62332916191E+01  0.13943763573E+04  0.16843772665E+04  0.50400001928E-02 0. -1.
       -1    1    3    3    0  502  0.94488226573E+03 -0.62332916191E+01 -0.72435706767E+03  0.11906025834E+04  0.50400001928E-02 0.  1.
</event>
<event>
 5   0  0.1243055E-06  0.2790778E+04  0.7818609E-02  0.8306137E-01
        1   -1    0    0  501    0  0.00000000000E+00  0.00000000000E+00  0.13707638128E+04  0.13707638128E+04  0.50400001928E-02 0. -1.
       -1   -1    0    0    0  501  0.00000000000E+00  0.00000000000E+00 -0.14204569125E+04  0.14204569125E+04  0.50400001928E-02 0.  1.
    10030    2    1    2    0    0  0.00000000000E+00  0.00000000000E+00 -0.49693099700E+02  0.27912207253E+04  0.27907783383E+04 0.  0.
        5    1    3    3  502    0  0.45966631277E+03 -0.12989841441E+04  0.19526995286E+03  0.13916915499E+04  0.46999998093E+01 0.  1.
       -5    1    3    3    0  502 -0.45966631277E+03  0.12989841441E+04 -0.24496305256E+03  0.13995291754E+04  0.46999998093E+01 0. -1.
</event>
<event>
 5   0  0.1263513E-06  0.2813698E+04  0.7818609E-02  0.8299028E-01
       -1   -1    0    0    0  501  0.00000000000E+00  0.00000000000E+00  0.94625558336E+03  0.94625558337E+03  0.50400001928E-02 0. -1.
        1   -1    0    0  501    0  0.00000000000E+00  0.00000000000E+00 -0.20916381654E+04  0.20916381654E+04  0.50400001928E-02 0.  1.
    10030    2    1    2    0    0  0.00000000000E+00  0.00000000000E+00 -0.11453825820E+04  0.30378937488E+04  0.28136981305E+04 0.  0.
        3    1    3    3  502    0  0.79425610149E+03  0.66500114174E+03  0.45507962998E+03  0.11314445426E+04  0.10100000352E+00 0. -1.
       -3    1    3    3    0  502 -0.79425610149E+03 -0.66500114174E+03 -0.16004622120E+04  0.19064492061E+04  0.10100000352E+00 0.  1.
</event>
<event>
 5   0  0.3162695E-06  0.2804097E+04  0.7818609E-02  0.8301997E-01
        2   -1    0    0  501    0  0.00000000000E+00  0.00000000000E+00  0.77900107459E+03  0.77900107460E+03  0.25500000920E-02 0.  1.
       -2   -1    0    0    0  501  0.00000000000E+00  0.00000000000E+00 -0.25234117065E+04  0.25234117065E+04  0.25500000920E-02 0. -1.
    10030    2    1    2    0    0  0.00000000000E+00  0.00000000000E+00 -0.17444106319E+04  0.33024127811E+04  0.28040973100E+04 0.  0.
        1    1    3    3  502    0 -0.34387157362E+03 -0.60488393360E+03  0.56131866310E+03  0.89398594722E+03  0.50400001928E-02 0.  1.
       -1    1    3    3    0  502  0.34387157362E+03  0.60488393360E+03 -0.23057292950E+04  0.24084268339E+04  0.50400001928E-02 0. -1.
</event>
<event>
 5   0  0.1220265E-06  0.2795338E+04  0.7818609E-02  0.8304717E-01
        1   -1    0    0  501    0  0.00000000000E+00  0.00000000000E+00  0.16142915196E+04  0.16142915196E+04  0.50400001928E-02 0. -1.
       -1   -1    0    0    0  501  0.00000000000E+00  0.00000000000E+00 -0.12101149881E+04  0.12101149881E+04  0.50400001928E-02 0.  1.
    10030    2    1    2    0    0  0.00000000000E+00  0.00000000000E+00  0.40417653144E+03  0.28244065077E+04  0.27953378065E+04 0.  0.
        4    1    3    3  502    0 -0.22306813712E+02  0.20797769133E+03  0.15983867217E+04  0.16120155207E+04  0.12699999809E+01 0. -1.
       -4    1    3    3    0  502  0.22306813712E+02 -0.20797769133E+03 -0.11942101902E+04  0.12123909870E+04  0.12699999809E+01 0.  1.
</event>
<event>
 5   0  0.3167616E-06  0.2807627E+04  0.7818609E-02  0.8300905E-01
       -2   -1    0    0    0  501  0.00000000000E+00  0.00000000000E+00  0.12983780115E+04  0.12983780115E+04  0.25500000920E-02 0. -1.
        2   -1    0    0  501    0  0.00000000000E+00  0.00000000000E+00 -0.15178104499E+04  0.15178104499E+04  0.25500000920E-02 0.  1.
    10030    2    1    2    0    0  0.00000000000E+00  0.00000000000E+00 -0.21943243837E+03  0.28161884614E+04  0.28076265519E+04 0.  0.
        3    1    3    3  502    0 -0.11976959006E+04  0.11434378309E+03 -0.83520726555E+03  0.14646232136E+04  0.10100000352E+00 0.  1.
       -3    1    3    3    0  502  0.11976959006E+04 -0.11434378309E+03  0.61577482719E+03  0.13515652478E+04  0.10100000352E+00 0. -1.
</event>
<event>
 5   0  0.1243055E-06  0.2688876E+04  0.7818609E-02  0.8338623E-01
       -1   -1    0    0    0  501  0.00000000000E+00  0.00000000000E+00  0.10323573627E+04  0.10323573627E+04  0.50400001928E-02 0.  1.
        1   -1    0    0  501    0  0.00000000000E+00  0.00000000000E+00 -0.17508599171E+04  0.17508599171E+04  0.50400001928E-02 0. -1.
    10030    2    1    2    0    0  0.00000000000E+00  0.00000000000E+00 -0.71850255443E+03  0.27832172798E+04  0.26888756955E+04 0.  0.
        5    1    3    3  502    0 -0.37606310772E+03 -0.36908756472E+03 -0.16395156750E+04  0.17221158004E+04  0.46999998093E+01 0. -1.
       -5    1    3    3    0  502  0.37606310772E+03  0.36908756472E+03  0.92101312053E+03  0.10611014794E+04  0.46999998093E+01 0.  1.
</event>
<event>
 5   0  0.3167616E-06  0.2810711E+04  0.7818609E-02  0.8299951E-01
       -2   -1    0    0    0  501  0.00000000000E+00  0.00000000000E+00  0.12688492397E+04  0.12688492398E+04  0.25500000920E-02 0. -1.
        2   -1    0    0  501    0  0.00000000000E+00  0.00000000000E+00 -0.15565478465E+04  0.15565478465E+04  0.25500000920E-02 0.  1.
    10030    2    1    2    0    0  0.00000000000E+00  0.00000000000E+00 -0.28769860680E+03  0.28253970863E+04  0.28107113347E+04 0.  0.
        3    1    3    3  502    0  0.11633419745E+04 -0.41686962265E+03 -0.81658417774E+03  0.14812003785E+04  0.10100000352E+00 0.  1.
       -3    1    3    3    0  502 -0.11633419745E+04  0.41686962265E+03  0.52888557094E+03  0.13441967078E+04  0.10100000352E+00 0. -1.
</event>
<event>
 5   0  0.3162695E-06  0.2808724E+04  0.7818609E-02  0.8300565E-01
       -2   -1    0    0    0  501  0.00000000000E+00  0.00000000000E+00  0.24876711652E+04  0.24876711652E+04  0.25500000920E-02 0. -1.
        2   -1    0    0  501    0  0.00000000000E+00  0.00000000000E+00 -0.79280257939E+03  0.79280257940E+03  0.25500000920E-02 0.  1.
    10030    2    1    2    0    0  0.00000000000E+00  0.00000000000E+00  0.16948685859E+04  0.32804737446E+04  0.28087236365E+04 0.  0.
        1    1    3    3  502    0  0.29785083576E+03 -0.58898097652E+03  0.22952409613E+04  0.23882514067E+04  0.50400001928E-02 0. -1.
       -1    1    3    3    0  502 -0.29785083576E+03  0.58898097652E+03 -0.60037237547E+03  0.89222233794E+03  0.50400001928E-02 0.  1.
</event>
<event>
 5   0  0.1243055E-06  0.2799471E+04  0.7818609E-02  0.8303432E-01
       -1   -1    0    0    0  501  0.00000000000E+00  0.00000000000E+00  0.19790903944E+04  0.19790903944E+04  0.50400001928E-02 0. -1.
        1   -1    0    0  501    0  0.00000000000E+00  0.00000000000E+00 -0.98998006427E+03  0.98998006428E+03  0.50400001928E-02 0.  1.
    10030    2    1    2    0    0  0.00000000000E+00  0.00000000000E+00  0.98911033017E+03  0.29690704587E+04  0.27994714043E+04 0.  0.
        5    1    3    3  502    0  0.92938491678E+03  0.10679445529E+03  0.15988230621E+04  0.18524088785E+04  0.46999998093E+01 0. -1.
       -5    1    3    3    0  502 -0.92938491678E+03 -0.10679445529E+03 -0.60971273196E+03  0.11166615802E+04  0.46999998093E+01 0.  1.
</event>
<event>
 5   0  0.1246044E-06  0.2752525E+04  0.7818609E-02  0.8318161E-01
       -1   -1    0    0    0  501  0.00000000000E+00  0.00000000000E+00  0.11476392868E+04  0.11476392868E+04  0.50400001928E-02 0.  1.
        1   -1    0    0  501    0  0.00000000000E+00  0.00000000000E+00 -0.16504298076E+04  0.16504298076E+04  0.50400001928E-02 0. -1.
    10030    2    1    2    0    0  0.00000000000E+00  0.00000000000E+00 -0.50279052077E+03  0.27980690944E+04  0.27525247227E+04 0.  0.
        2    1    3    3  502    0  0.33195099232E+03  0.81214101609E+03 -0.13292861472E+04  0.15927228737E+04  0.25500000920E-02 0. -1.
       -2    1    3    3    0  502 -0.33195099232E+03 -0.81214101609E+03  0.82649562640E+03  0.12053462207E+04  0.25500000920E-02 0.  1.
</event>
<event>
 5   0  0.3345919E-06  0.2765843E+04  0.7818609E-02  0.8313952E-01
       -2   -1    0    0    0  501  0.00000000000E+00  0.00000000000E+00  0.75766748077E+03  0.75766748077E+03  0.25500000920E-02 0.  1.
        2   -1    0    0  501    0  0.00000000000E+00  0.00000000000E+00 -0.25241567741E+04  0.25241567741E+04  0.25500000920E-02 0. -1.
    10030    2    1    2    0    0  0.00000000000E+00  0.00000000000E+00 -0.17664892933E+04  0.32818242548E+04  0.27658427317E+04 0.  0.
        2    1    3    3  502    0 -0.10170334056E+04 -0.58603313602E+03 -0.17508749142E+04  0.21079266471E+04  0.25500000920E-02 0. -1.
       -2    1    3    3    0  502  0.10170334056E+04  0.58603313602E+03 -0.15614379128E+02  0.11738976077E+04  0.25500000920E-02 0.  1.
</event>
<event>
 5   0  0.3345919E-06  0.2806601E+04  0.7818609E-02  0.8301222E-01
       -2   -1    0    0    0  501  0.00000000000E+00  0.00000000000E+00  0.87626153557E+03  0.87626153558E+03  0.25500000920E-02 0.  1.
        2   -1    0    0  501    0  0.00000000000E+00  0.00000000000E+00 -0.22473334098E+04  0.22473334098E+04  0.25500000920E-02 0. -1.
    10030    2    1    2    0    0  0.00000000000E+00  0.00000000000E+00 -0.13710718742E+04  0.31235949453E+04  0.28066006660E+04 0.  0.
        2    1    3    3  502    0 -0.35058970152E+03 -0.27842473057E+03  0.79464806355E+03  0.91208498196E+03  0.25500000920E-02 0.  1.
       -2    1    3    3    0  502  0.35058970152E+03  0.27842473057E+03 -0.21657199377E+04  0.22115099634E+04  0.25500000920E-02 0. -1.
</event>
<event>
 5   0  0.1263513E-06  0.2838628E+04  0.7818609E-02  0.8291375E-01
        1   -1    0    0  501    0  0.00000000000E+00  0.00000000000E+00  0.11054049528E+04  0.11054049528E+04  0.50400001928E-02 0. -1.
       -1   -1    0    0    0  501  0.00000000000E+00  0.00000000000E+00 -0.18223659225E+04  0.18223659225E+04  0.50400001928E-02 0.  1.
    10030    2    1    2    0    0  0.00000000000E+00  0.00000000000E+00 -0.71696096970E+03  0.29277708753E+04  0.28386280606E+04 0.  0.
        3    1    3    3  502    0 -0.10104557448E+04  0.34584966129E+03 -0.13226190664E+04  0.16999864721E+04  0.10100000352E+00 0.  1.
       -3    1    3    3    0  502  0.10104557448E+04 -0.34584966129E+03  0.60565809670E+03  0.12277844032E+04  0.10100000352E+00 0. -1.
</event>
<event>
 5   0  0.1246044E-06  0.2793803E+04  0.7818609E-02  0.8305195E-01
        1   -1    0    0  501    0  0.00000000000E+00  0.00000000000E+00  0.11826060322E+04  0.11826060322E+04  0.50400001928E-02 0. -1.
       -1   -1    0    0    0  501  0.00000000000E+00  0.00000000000E+00 -0.16500287111E+04  0.16500287111E+04  0.50400001928E-02 0.  1.
    10030    2    1    2    0    0  0.00000000000E+00  0.00000000000E+00 -0.46742267887E+03  0.28326347434E+04  0.27938030762E+04 0.  0.
        2    1    3    3  502    0  0.90406728963E+03 -0.31644076185E+03 -0.12646337135E+04  0.15864333737E+04  0.25500000920E-02 0.  1.
       -2    1    3    3    0  502 -0.90406728963E+03  0.31644076185E+03  0.79721103463E+03  0.12462013696E+04  0.25500000920E-02 0. -1.
</event>
<event>
 5   0  0.3162695E-06  0.2782950E+04  0.7818609E-02  0.8308581E-01
        2   -1    0    0  501    0  0.00000000000E+00  0.00000000000E+00  0.21363463129E+04  0.21363463129E+04  0.25500000920E-02 0. -1.
       -2   -1    0    0    0  501  0.00000000000E+00  0.00000000000E+00 -0.90631476521E+03  0.90631476522E+03  0.25500000920E-02 0.  1.
    10030    2    1    2    0    0  0.00000000000E+00  0.00000000000E+00  0.12300315477E+04  0.30426610781E+04  0.27829496632E+04 0.  0.
        1    1    3    3  502    0 -0.96075599191E+03  0.90660640764E+02 -0.48099873165E+03  0.10782537770E+04  0.50400001928E-02 0.  1.
       -1    1    3    3    0  502  0.96075599191E+03 -0.90660640764E+02  0.17110302794E+04  0.19644073011E+04  0.50400001928E-02 0. -1.
</event>
<event>
 5   0  0.1220265E-06  0.2797208E+04  0.7818609E-02  0.8304136E-01
       -1   -1    0    0    0  501  0.00000000000E+00  0.00000000000E+00  0.95202645215E+03  0.95202645216E+03  0.50400001928E-02 0.  1.
        1   -1    0    0  501    0  0.00000000000E+00  0.00000000000E+00 -0.20546629205E+04  0.20546629205E+04  0.50400001928E-02 0. -1.
    10030    2    1    2    0    0  0.00000000000E+00  0.00000000000E+00 -0.11026364684E+04  0.30066893727E+04  0.27972082158E+04 0.  0.
        4    1    3    3  502    0  0.34850444978E+03 -0.12677155986E+04 -0.38590769242E+02  0.13153132900E+04  0.12699999809E+01 0.  1.
       -4    1    3    3    0  502 -0.34850444978E+03  0.12677155986E+04 -0.10640456991E+04  0.16913760827E+04  0.12699999809E+01 0. -1.
</event>
<event>
 5   0  0.3162695E-06  0.2803180E+04  0.7818609E-02  0.8302282E-01
       -2   -1    0    0    0  501  0.00000000000E+00  0.00000000000E+00  0.19539190033E+04  0.19539190033E+04  0.25500000920E-02 0.  1.
        2   -1    0    0  501    0  0.00000000000E+00  0.00000000000E+00 -0.10053917376E+04  0.10053917376E+04  0.25500000920E-02 0. -1.
    10030    2    1    2    0    0  0.00000000000E+00  0.00000000000E+00  0.94852726571E+03  0.29593107410E+04  0.28031796389E+04 0.  0.
        1    1    3    3  502    0  0.17870649449E+03 -0.13860040039E+04  0.58752831368E+03  0.15159593100E+04  0.50400001928E-02 0. -1.
       -1    1    3    3    0  502 -0.17870649449E+03  0.13860040039E+04  0.36099895203E+03  0.14433514310E+04  0.50400001928E-02 0.  1.
</event>
<event>
 5   0  0.1235252E-06  0.2807228E+04  0.7818609E-02  0.8301028E-01
        1   -1    0    0  501    0  0.00000000000E+00  0.00000000000E+00  0.20278827827E+04  0.20278827827E+04  0.50400001928E-02 0.  1.
       -1   -1    0    0    0  501  0.00000000000E+00  0.00000000000E+00 -0.97152176548E+03  0.97152176549E+03  0.50400001928E-02 0. -1.
    10030    2    1    2    0    0  0.00000000000E+00  0.00000000000E+00  0.10563610172E+04  0.29994045482E+04  0.28072280002E+04 0.  0.
        1    1    3    3  502    0 -0.89633056534E+03  0.93446677603E+03 -0.50659009591E+02  0.12958406434E+04  0.50400001928E-02 0. -1.
       -1    1    3    3    0  502  0.89633056534E+03 -0.93446677603E+03  0.11070200268E+04  0.17035639048E+04  0.50400001928E-02 0.  1.
</event>
<event>
 5   0  0.3212679E-06  0.2794340E+04  0.7818609E-02  0.8305028E-01
       -2   -1    0    0    0  501  0.00000000000E+00  0.00000000000E+00  0.87585535176E+03  0.87585535177E+03  0.25500000920E-02 0. -1.
        2   -1    0    0  501    0  0.00000000000E+00  0.00000000000E+00 -0.22287739635E+04  0.22287739635E+04  0.25500000920E-02 0.  1.
    10030    2    1    2    0    0  0.00000000000E+00  0.00000000000E+00 -0.13529186117E+04  0.31046293153E+04  0.27943397101E+04 0.  0.
        4    1    3    3  502    0  0.12580868502E+04 -0.36864974046E+03 -0.12132166986E+04  0.17862198981E+04  0.12699999809E+01 0.  1.
       -4    1    3    3    0  502 -0.12580868502E+04  0.36864974046E+03 -0.13970191315E+03  0.13184094172E+04  0.12699999809E+01 0. -1.
</event>
<event>
 5   0  0.3167616E-06  0.2785624E+04  0.7818609E-02  0.8307746E-01
       -2   -1    0    0    0  501  0.00000000000E+00  0.00000000000E+00  0.16055028002E+04  0.16055028002E+04  0.25500000920E-02 0. -1.
        2   -1    0    0  501    0  0.00000000000E+00  0.00000000000E+00 -0.12082975055E+04  0.12082975055E+04  0.25500000920E-02 0.  1.
    10030    2    1    2    0    0  0.00000000000E+00  0.00000000000E+00  0.39720529470E+03  0.28138003056E+04  0.27856238285E+04 0.  0.
        3    1    3    3  502    0  0.66490333547E+03  0.12003671203E+04 -0.42447588354E+02  0.13728727097E+04  0.10100000352E+00 0.  1.
       -3    1    3    3    0  502 -0.66490333547E+03 -0.12003671203E+04  0.43965288305E+03  0.14409275959E+04  0.10100000352E+00 0. -1.
</event>
<event>
 5   0  0.3345919E-06  0.2789695E+04  0.7818609E-02  0.8306475E-01
       -2   -1    0    0    0  501  0.00000000000E+00  0.00000000000E+00  0.14289064206E+04  0.14289064206E+04  0.25500000920E-02 0.  1.
        2   -1    0    0  501    0  0.00000000000E+00  0.00000000000E+00 -0.13616008394E+04  0.13616008394E+04  0.25500000920E-02 0. -1.
    10030    2    1    2    0    0  0.00000000000E+00  0.00000000000E+00  0.67305581143E+02  0.27905072600E+04  0.27896954541E+04 0.  0.
        2    1    3    3  502    0  0.51124230925E+03 -0.99449292542E+03  0.86769114739E+03  0.14153702006E+04  0.25500000920E-02 0.  1.
       -2    1    3    3    0  502 -0.51124230925E+03  0.99449292542E+03 -0.80038556625E+03  0.13751370594E+04  0.25500000920E-02 0. -1.
</event>
<event>
 5   0  0.3162695E-06  0.2796036E+04  0.7818609E-02  0.8304500E-01
       -2   -1    0    0    0  501  0.00000000000E+00  0.00000000000E+00  0.13974780133E+04  0.13974780133E+04  0.25500000920E-02 0.  1.
        2   -1    0    0  501    0  0.00000000000E+00  0.00000000000E+00 -0.13985582664E+04  0.13985582664E+04  0.25500000920E-02 0. -1.
    10030    2    1    2    0    0  0.00000000000E+00  0.00000000000E+00 -0.10802530996E+01  0.27960362796E+04  0.27960360710E+04 0.  0.
        1    1    3    3  502    0 -0.62042559986E+03 -0.84784388115E+03  0.92178702947E+03  0.13976617972E+04  0.50400001928E-02 0.  1.
       -1    1    3    3    0  502  0.62042559986E+03  0.84784388115E+03 -0.92286728257E+03  0.13983744824E+04  0.50400001928E-02 0. -1.
</event>
<event>
 5   0  0.1220265E-06  0.2803395E+04  0.7818609E-02  0.8302215E-01
       -1   -1    0    0    0  501  0.00000000000E+00  0.00000000000E+00  0.10542703296E+04  0.10542703296E+04  0.50400001928E-02 0. -1.
        1   -1    0    0  501    0  0.00000000000E+00  0.00000000000E+00 -0.18636162960E+04  0.18636162960E+04  0.50400001928E-02 0.  1.
    10030    2    1    2    0    0  0.00000000000E+00  0.00000000000E+00 -0.80934596643E+03  0.29178866256E+04  0.28033946327E+04 0.  0.
        4    1    3    3  502    0 -0.47097295708E+03  0.56575473601E+03  0.83687992496E+03  0.11145687818E+04  0.12699999809E+01 0. -1.
       -4    1    3    3    0  502  0.47097295708E+03 -0.56575473601E+03 -0.16462258914E+04  0.18033178439E+04  0.12699999809E+01 0.  1.
</event>
<event>
 5   0  0.3345919E-06  0.2801509E+04  0.7818609E-02  0.8302800E-01
       -2   -1    0    0    0  501  0.00000000000E+00  0.00000000000E+00  0.10680223267E+04  0.10680223268E+04  0.25500000920E-02 0. -1.
        2   -1    0    0  501    0  0.00000000000E+00  0.00000000000E+00 -0.18371463969E+04  0.18371463969E+04  0.25500000920E-02 0.  1.
    10030    2    1    2    0    0  0.00000000000E+00  0.00000000000E+00 -0.76912407011E+03  0.29051687236E+04  0.28015091428E+04 0.  0.
        2    1    3    3  502    0 -0.10481870298E+04  0.75077470964E+03  0.18319468599E+03  0.13022745514E+04  0.25500000920E-02 0.  1.
       -2    1    3    3    0  502  0.10481870298E+04 -0.75077470964E+03 -0.95231875610E+03  0.16028941722E+04  0.25500000920E-02 0. -1.
</event>
<event>
 5   0  0.1243055E-06  0.2802257E+04  0.7818609E-02  0.8302568E-01
        1   -1    0    0  501    0  0.00000000000E+00  0.00000000000E+00  0.21169670454E+04  0.21169670454E+04  0.50400001928E-02 0.  1.
       -1   -1    0    0    0  501  0.00000000000E+00  0.00000000000E+00 -0.92734613573E+03  0.92734613574E+03  0.50400001928E-02 0. -1.
    10030    2    1    2    0    0  0.00000000000E+00  0.00000000000E+00  0.11896209097E+04  0.30443131811E+04  0.28022570967E+04 0.  0.
        5    1    3    3  502    0  0.58332950488E+03 -0.16901585561E+03  0.19665330685E+04  0.20581822247E+04  0.46999998093E+01 0.  1.
       -5    1    3    3    0  502 -0.58332950488E+03  0.16901585561E+03 -0.77691215881E+03  0.98613095643E+03  0.46999998093E+01 0. -1.
</event>
<event>
 5   0  0.1220265E-06  0.2800717E+04  0.7818609E-02  0.8303046E-01
       -1   -1    0    0    0  501  0.00000000000E+00  0.00000000000E+00  0.94893095181E+03  0.94893095182E+03  0.50400001928E-02 0. -1.
        1   -1    0    0  501    0  0.00000000000E+00  0.00000000000E+00 -0.20665402249E+04  0.20665402250E+04  0.50400001928E-02 0.  1.
    10030    2    1    2    0    0  0.00000000000E+00  0.00000000000E+00 -0.11176092731E+04  0.30154711768E+04  0.28007170386E+04 0.  0.
        4    1    3    3  502    0  0.59565079018E+03 -0.10209538018E+04  0.24967668304E+03  0.12080921274E+04  0.12699999809E+01 0. -1.
       -4    1    3    3    0  502 -0.59565079018E+03  0.10209538018E+04 -0.13672859562E+04  0.18073790494E+04  0.12699999809E+01 0.  1.
</event>
<event>
 5   0  0.1246044E-06  0.2815077E+04  0.7818609E-02  0.8298603E-01
        1   -1    0    0  501    0  0.00000000000E+00  0.00000000000E+00  0.18039046940E+04  0.18039046940E+04  0.50400001928E-02 0. -1.
       -1   -1    0    0    0  501  0.00000000000E+00  0.00000000000E+00 -0.10982649303E+04  0.10982649303E+04  0.50400001928E-02 0.  1.
    10030    2    1    2    0    0  0.00000000000E+00  0.00000000000E+00  0.70563976367E+03  0.29021696243E+04  0.28150774505E+04 0.  0.
        2    1    3    3  502    0  0.28021859378E+03  0.13673713653E+04  0.53992401402E+03  0.14965777132E+04  0.25500000920E-02 0.  1.
       -2    1    3    3    0  502 -0.28021859378E+03 -0.13673713653E+04  0.16571574966E+03  0.14055919111E+04  0.25500000920E-02 0. -1.
</event>
<event>
 5   0  0.1243055E-06  0.2807027E+04  0.7818609E-02  0.8301090E-01
       -1   -1    0    0    0  501  0.00000000000E+00  0.00000000000E+00  0.12472749004E+04  0.12472749004E+04  0.50400001928E-02 0.  1.
        1   -1    0    0  501    0  0.00000000000E+00  0.00000000000E+00 -0.15793235246E+04  0.15793235246E+04  0.50400001928E-02 0. -1.
    10030    2    1    2    0    0  0.00000000000E+00  0.00000000000E+00 -0.33204862422E+03  0.28265984250E+04  0.28070273186E+04 0.  0.
        5    1    3    3  502    0 -0.35537604261E+02  0.95992087696E+03 -0.11964464491E+04  0.15343458564E+04  0.46999998093E+01 0. -1.
       -5    1    3    3    0  502  0.35537604261E+02 -0.95992087696E+03  0.86439782492E+03  0.12922525686E+04  0.46999998093E+01 0.  1.
</event>
<event>
 5   0  0.3167616E-06  0.2766737E+04  0.7818609E-02  0.8313670E-01
        2   -1    0    0  501    0  0.00000000000E+00  0.00000000000E+00  0.22714922556E+04  0.22714922556E+04  0.25500000920E-02 0.  1.
       -2   -1    0    0    0  501  0.00000000000E+00  0.00000000000E+00 -0.84248923335E+03  0.84248923335E+03  0.25500000920E-02 0. -1.
    10030    2    1    2    0    0  0.00000000000E+00  0.00000000000E+00  0.14290030223E+04  0.31139814890E+04  0.27667365389E+04 0.  0.
        3    1    3    3  502    0 -0.45728398462E+03  0.23078868502E+03 -0.73182353104E+03  0.89327361458E+03  0.10100000352E+00 0. -1.
       -3    1    3    3    0  502  0.45728398462E+03 -0.23078868502E+03  0.21608265533E+04  0.22207078744E+04  0.10100000352E+00 0.  1.
</event>
<event>
 5   0  0.3212679E-06  0.2805177E+04  0.7818609E-02  0.8301663E-01
       -2   -1    0    0    0  501  0.00000000000E+00  0.00000000000E+00  0.15032337703E+04  0.15032337703E+04  0.25500000920E-02 0.  1.
        2   -1    0    0  501    0  0.00000000000E+00  0.00000000000E+00 -0.13086813209E+04  0.13086813209E+04  0.25500000920E-02 0. -1.
    10030    2    1    2    0    0  0.00000000000E+00  0.00000000000E+00  0.19455244932E+03  0.28119150912E+04  0.28051766120E+04 0.  0.
        4    1    3    3  502    0  0.15134943915E+03 -0.13015249010E+04 -0.40430424318E+03  0.13712538987E+04  0.12699999809E+01 0.  1.
       -4    1    3    3    0  502 -0.15134943915E+03  0.13015249010E+04  0.59885669250E+03  0.14406611925E+04  0.12699999809E+01 0. -1.
</event>
<event>
 5   0  0.3226364E-06  0.2794855E+04  0.7818609E-02  0.8304867E-01
        2   -1    0    0  501    0  0.00000000000E+00  0.00000000000E+00  0.22367902519E+04  0.22367902519E+04  0.25500000920E-02 0. -1.
       -2   -1    0    0    0  501  0.00000000000E+00  0.00000000000E+00 -0.87303856945E+03  0.87303856945E+03  0.25500000920E-02 0.  1.
    10030    2    1    2    0    0  0.00000000000E+00  0.00000000000E+00  0.13637516824E+04  0.31098288213E+04  0.27948553892E+04 0.  0.
        5    1    3    3  502    0  0.67451925523E+03  0.51359740439E+03 -0.55418220737E+03  0.10128664909E+04  0.46999998093E+01 0.  1.
       -5    1    3    3    0  502 -0.67451925523E+03 -0.51359740439E+03  0.19179338898E+04  0.20969623304E+04  0.46999998093E+01 0. -1.
</event>
<event>
 5   0  0.1246044E-06  0.2800562E+04  0.7818609E-02  0.8303094E-01
       -1   -1    0    0    0  501  0.00000000000E+00  0.00000000000E+00  0.10774468804E+04  0.10774468804E+04  0.50400001928E-02 0. -1.
        1   -1    0    0  501    0  0.00000000000E+00  0.00000000000E+00 -0.18198453071E+04  0.18198453071E+04  0.50400001928E-02 0.  1.
    10030    2    1    2    0    0  0.00000000000E+00  0.00000000000E+00 -0.74239842662E+03  0.28972921875E+04  0.28005618358E+04 0.  0.
        2    1    3    3  502    0 -0.11363201013E+04  0.17135248865E+03  0.45656282797E+03  0.12365414121E+04  0.25500000920E-02 0. -1.
       -2    1    3    3    0  502  0.11363201013E+04 -0.17135248865E+03 -0.11989612546E+04  0.16607507754E+04  0.25500000920E-02 0.  1.
</event>
<event>
 5   0  0.1246044E-06  0.2813675E+04  0.7818609E-02  0.8299035E-01
       -1   -1    0    0    0  501  0.00000000000E+00  0.00000000000E+00  0.79339852009E+03  0.79339852010E+03  0.50400001928E-02 0. -1.
        1   -1    0    0  501    0  0.00000000000E+00  0.00000000000E+00 -0.24945740373E+04  0.24945740373E+04  0.50400001928E-02 0.  1.
    10030    2    1    2    0    0  0.00000000000E+00  0.00000000000E+00 -0.17011755172E+04  0.32879725574E+04  0.28136747143E+04 0.  0.
        2    1    3    3  502    0 -0.45442828100E+02  0.41142597780E+03 -0.24218044692E+04  0.24569235382E+04  0.25500000920E-02 0.  1.
       -2    1    3    3    0  502  0.45442828100E+02 -0.41142597780E+03  0.72062895197E+03  0.83104901917E+03  0.25500000920E-02 0. -1.
</event>
<event>
 5   0  0.1220265E-06  0.2792945E+04  0.7818609E-02  0.8305462E-01
       -1   -1    0    0    0  501  0.00000000000E+00  0.00000000000E+00  0.11161326232E+04  0.11161326232E+04  0.50400001928E-02 0. -1.
        1   -1    0    0  501    0  0.00000000000E+00  0.00000000000E+00 -0.17472259180E+04  0.17472259180E+04  0.50400001928E-02 0.  1.
    10030    2    1    2    0    0  0.00000000000E+00  0.00000000000E+00 -0.63109329477E+03  0.28633585412E+04  0.27929452892E+04 0.  0.
        4    1    3    3  502    0 -0.10203666870E+03 -0.87877274475E+03 -0.14232877102E+04  0.16758289106E+04  0.12699999809E+01 0.  1.
       -4    1    3    3    0  502  0.10203666870E+03  0.87877274475E+03  0.79219441544E+03  0.11875296306E+04  0.12699999809E+01 0. -1.
</event>
<event>
 5   0  0.1263513E-06  0.2810978E+04  0.7818609E-02  0.8299868E-01
       -1   -1    0    0    0  501  0.00000000000E+00  0.00000000000E+00  0.11614887143E+04  0.11614887143E+04  0.50400001928E-02 0.  1.
        1   -1    0    0  501    0  0.00000000000E+00  0.00000000000E+00 -0.17007472640E+04  0.17007472640E+04  0.50400001928E-02 0. -1.
    10030    2    1    2    0    0  0.00000000000E+00  0.00000000000E+00 -0.53925854967E+03  0.28622359783E+04  0.28109775901E+04 0.  0.
        3    1    3    3  502    0  0.13827935141E+04  0.19848716391E+03 -0.11226768676E+03  0.14014703352E+04  0.10100000352E+00 0.  1.
       -3    1    3    3    0  502 -0.13827935141E+04 -0.19848716391E+03 -0.42699086291E+03  0.14607656431E+04  0.10100000352E+00 0. -1.
</event>
<event>
 5   0  0.3212679E-06  0.2795466E+04  0.7818609E-02  0.8304677E-01
        2   -1    0    0  501    0  0.00000000000E+00  0.00000000000E+00  0.17237985192E+04  0.17237985192E+04  0.25500000920E-02 0. -1.
       -2   -1    0    0    0  501  0.00000000000E+00  0.00000000000E+00 -0.11333446147E+04  0.11333446147E+04  0.25500000920E-02 0.  1.
    10030    2    1    2    0    0  0.00000000000E+00  0.00000000000E+00  0.59045390451E+03  0.28571431338E+04  0.27954661640E+04 0.  0.
        4    1    3    3  502    0 -0.24209631126E+03 -0.12950930783E+04  0.77219161711E+03  0.15271405344E+04  0.12699999809E+01 0. -1.
       -4    1    3    3    0  502  0.24209631126E+03  0.12950930783E+04 -0.18173771259E+03  0.13300025994E+04  0.12699999809E+01 0.  1.
</event>
<event>
 5   0  0.3226364E-06  0.2801051E+04  0.7818609E-02  0.8302942E-01
       -2   -1    0    0    0  501  0.00000000000E+00  0.00000000000E+00  0.20863709125E+04  0.20863709126E+04  0.25500000920E-02 0.  1.
        2   -1    0    0  501    0  0.00000000000E+00  0.00000000000E+00 -0.94013565471E+03  0.94013565471E+03  0.25500000920E-02 0. -1.
    10030    2    1    2    0    0  0.00000000000E+00  0.00000000000E+00  0.11462352578E+04  0.30265065673E+04  0.28010510055E+04 0.  0.
        5    1    3    3  502    0 -0.10862754025E+03 -0.13562668712E+04  0.93178457184E+03  0.16490919764E+04  0.46999998093E+01 0.  1.
       -5    1    3    3    0  502  0.10862754025E+03  0.13562668712E+04  0.21445068600E+03  0.13774145908E+04  0.46999998093E+01 0. -1.
</event>
<event>
 5   0  0.1243055E-06  0.2765894E+04  0.7818609E-02  0.8313936E-01
       -1   -1    0    0    0  501  0.00000000000E+00  0.00000000000E+00  0.11310730779E+04  0.11310730779E+04  0.50400001928E-02 0.  1.
        1   -1    0    0  501    0  0.00000000000E+00  0.00000000000E+00 -0.16909091933E+04  0.16909091933E+04  0.50400001928E-02 0. -1.
    10030    2    1    2    0    0  0.00000000000E+00  0.00000000000E+00 -0.55983611533E+03  0.28219822712E+04  0.27658936102E+04 0.  0.
        5    1    3    3  502    0  0.30443929905E+03  0.72736633074E+03  0.87924367097E+03  0.11810320016E+04  0.46999998093E+01 0.  1.
       -5    1    3    3    0  502 -0.30443929905E+03 -0.72736633074E+03 -0.14390797863E+04  0.16409502696E+04  0.46999998093E+01 0. -1.
</event>
<event>
 5   0  0.3162695E-06  0.2793873E+04  0.7818609E-02  0.8305173E-01
       -2   -1    0    0    0  501  0.00000000000E+00  0.00000000000E+00  0.13777591572E+04  0.13777591572E+04  0.25500000920E-02 0. -1.
        2   -1    0    0  501    0  0.00000000000E+00  0.00000000000E+00 -0.14163806152E+04  0.14163806152E+04  0.25500000920E-02 0.  1.
    10030    2    1    2    0    0  0.00000000000E+00  0.00000000000E+00 -0.38621457945E+02  0.27941397724E+04  0.27938728408E+04 0.  0.
        1    1    3    3  502    0  0.44730347961E+03 -0.35571605868E+03  0.12554941722E+04  0.13794491414E+04  0.50400001928E-02 0. -1.
       -1    1    3    3    0  502 -0.44730347961E+03  0.35571605868E+03 -0.12941156301E+04  0.14146906310E+04  0.50400001928E-02 0.  1.
</event>
<event>
 5   0  0.3345919E-06  0.2816104E+04  0.7818609E-02  0.8298286E-01
        2   -1    0    0  501    0  0.00000000000E+00  0.00000000000E+00  0.17326669030E+04  0.17326669030E+04  0.25500000920E-02 0.  1.
       -2   -1    0    0    0  501  0.00000000000E+00  0.00000000000E+00 -0.11442534077E+04  0.11442534077E+04  0.25500000920E-02 0. -1.
    10030    2    1    2    0    0  0.00000000000E+00  0.00000000000E+00  0.58841349525E+03  0.28769203107E+04  0.28161036971E+04 0.  0.
        2    1    3    3  502    0 -0.50504284562E+03  0.10431379955E+04 -0.52268997604E+03  0.12713811248E+04  0.25500000920E-02 0. -1.
       -2    1    3    3    0  502  0.50504284562E+03 -0.10431379955E+04  0.11111034713E+04  0.16055391859E+04  0.25500000920E-02 0.  1.
</event>
<event>
 5   0  0.3345919E-06  0.2808154E+04  0.7818609E-02  0.8300741E-01
       -2   -1    0    0    0  501  0.00000000000E+00  0.00000000000E+00  0.10891193247E+04  0.10891193247E+04  0.25500000920E-02 0. -1.
        2   -1    0    0  501    0  0.00000000000E+00  0.00000000000E+00 -0.18101159000E+04  0.18101159000E+04  0.25500000920E-02 0.  1.
    10030    2    1    2    0    0  0.00000000000E+00  0.00000000000E+00 -0.72099657537E+03  0.28992352247E+04  0.28081539891E+04 0.  0.
        2    1    3    3  502    0  0.21695409862E+03  0.13817290332E+04 -0.48773513245E+03  0.14812595187E+04  0.25500000920E-02 0.  1.
       -2    1    3    3    0  502 -0.21695409862E+03 -0.13817290332E+04 -0.23326144292E+03  0.14179757061E+04  0.25500000920E-02 0. -1.
</event>
<event>
 5   0  0.1220265E-06  0.2825123E+04  0.7818609E-02  0.8295511E-01
        1   -1    0    0  501    0  0.00000000000E+00  0.00000000000E+00  0.16065459956E+04  0.16065459957E+04  0.50400001928E-02 0. -1.
       -1   -1    0    0    0  501  0.00000000000E+00  0.00000000000E+00 -0.12419999987E+04  0.12419999987E+04  0.50400001928E-02 0.  1.
    10030    2    1    2    0    0  0.00000000000E+00  0.00000000000E+00  0.36454599693E+03  0.28485459944E+04  0.28251230943E+04 0.  0.
        4    1    3    3  502    0 -0.93232329277E+03 -0.13466625656E+03 -0.87905404905E+03  0.12884484301E+04  0.12699999809E+01 0.  1.
       -4    1    3    3    0  502  0.93232329277E+03  0.13466625656E+03  0.12436000460E+04  0.15600975643E+04  0.12699999809E+01 0. -1.
</event>
<event>
 5   0  0.1235252E-06  0.2794623E+04  0.7818609E-02  0.8304940E-01
        1   -1    0    0  501    0  0.00000000000E+00  0.00000000000E+00  0.26961591269E+04  0.26961591269E+04  0.50400001928E-02 0. -1.
       -1   -1    0    0    0  501  0.00000000000E+00  0.00000000000E+00 -0.72417067006E+03  0.72417067007E+03  0.50400001928E-02 0.  1.
    10030    2    1    2    0    0  0.00000000000E+00  0.00000000000E+00  0.19719884569E+04  0.34203297970E+04  0.27946229524E+04 0.  0.
        1    1    3    3  502    0 -0.59906161896E+03  0.72083287995E+03  0.22543696340E+04  0.24414457419E+04  0.50400001928E-02 0. -1.
       -1    1    3    3    0  502  0.59906161896E+03 -0.72083287995E+03 -0.28238117709E+03  0.97888405510E+03  0.50400001928E-02 0.  1.
</event>
<event>
 5   0  0.3226364E-06  0.2789714E+04  0.7818609E-02  0.8306469E-01
        2   -1    0    0  501    0  0.00000000000E+00  0.00000000000E+00  0.14859682684E+04  0.14859682684E+04  0.25500000920E-02 0.  1.
       -2   -1    0    0    0  501  0.00000000000E+00  0.00000000000E+00 -0.13093325247E+04  0.13093325247E+04  0.25500000920E-02 0. -1.
    10030    2    1    2    0    0  0.00000000000E+00  0.00000000000E+00  0.17663574372E+03  0.27953007931E+04  0.27897143829E+04 0.  0.
        5    1    3    3  502    0  0.90906630176E+03  0.14750101933E+03  0.11380064362E+04  0.14639804748E+04  0.46999998093E+01 0.  1.
       -5    1    3    3    0  502 -0.90906630176E+03 -0.14750101933E+03 -0.96137069246E+03  0.13313203183E+04  0.46999998093E+01 0. -1.
</event>
<event>
 5   0  0.1243055E-06  0.2793747E+04  0.7818609E-02  0.8305212E-01
        1   -1    0    0  501    0  0.00000000000E+00  0.00000000000E+00  0.14908855481E+04  0.14908855481E+04  0.50400001928E-02 0.  1.
       -1   -1    0    0    0  501  0.00000000000E+00  0.00000000000E+00 -0.13087893747E+04  0.13087893747E+04  0.50400001928E-02 0. -1.
    10030    2    1    2    0    0  0.00000000000E+00  0.00000000000E+00  0.18209617343E+03  0.27996749228E+04  0.27937467060E+04 0.  0.
        5    1    3    3  502    0  0.49810276775E+03 -0.12974594364E+04  0.23179438720E+03  0.14089918681E+04  0.46999998093E+01 0.  1.
       -5    1    3    3    0  502 -0.49810276775E+03  0.12974594364E+04 -0.49698213771E+02  0.13906830548E+04  0.46999998093E+01 0. -1.
</event>
<event>
 5   0  0.3345919E-06  0.2791763E+04  0.7818609E-02  0.8305830E-01
       -2   -1    0    0    0  501  0.00000000000E+00  0.00000000000E+00  0.12451174899E+04  0.12451174899E+04  0.25500000920E-02 0. -1.
        2   -1    0    0  501    0  0.00000000000E+00  0.00000000000E+00 -0.15649006604E+04  0.15649006604E+04  0.25500000920E-02 0.  1.
    10030    2    1    2    0    0  0.00000000000E+00  0.00000000000E+00 -0.31978317053E+03  0.28100181503E+04  0.27917630144E+04 0.  0.
        2    1    3    3  502    0 -0.87587510199E+03  0.49103253133E+03 -0.11358788999E+04  0.15160775100E+04  0.25500000920E-02 0.  1.
       -2    1    3    3    0  502  0.87587510199E+03 -0.49103253133E+03  0.81609572936E+03  0.12939406403E+04  0.25500000920E-02 0. -1.
</event>
<event>
 5   0  0.3212679E-06  0.2818025E+04  0.7818609E-02  0.8297694E-01
       -2   -1    0    0    0  501  0.00000000000E+00  0.00000000000E+00  0.15458738883E+04  0.15458738883E+04  0.25500000920E-02 0. -1.
        2   -1    0    0  501    0  0.00000000000E+00  0.00000000000E+00 -0.12842679082E+04  0.12842679082E+04  0.25500000920E-02 0.  1.
    10030    2    1    2    0    0  0.00000000000E+00  0.00000000000E+00  0.26160598006E+03  0.28301417965E+04  0.28180249998E+04 0.  0.
        4    1    3    3  502    0  0.12815056373E+03 -0.13587334625E+04 -0.22103952414E+03  0.13825481088E+04  0.12699999809E+01 0.  1.
       -4    1    3    3    0  502 -0.12815056373E+03  0.13587334625E+04  0.48264550420E+03  0.14475936877E+04  0.12699999809E+01 0. -1.
</event>
<event>
 5   0  0.1220265E-06  0.2801580E+04  0.7818609E-02  0.8302778E-01
        1   -1    0    0  501    0  0.00000000000E+00  0.00000000000E+00  0.23954688247E+04  0.23954688247E+04  0.50400001928E-02 0.  1.
       -1   -1    0    0    0  501  0.00000000000E+00  0.00000000000E+00 -0.81913501321E+03  0.81913501323E+03  0.50400001928E-02 0. -1.
    10030    2    1    2    0    0  0.00000000000E+00  0.00000000000E+00  0.15763338115E+04  0.32146038380E+04  0.28015798310E+04 0.  0.
        4    1    3    3  502    0  0.13806823307E+04 -0.89579726342E+02  0.53703391558E+03  0.14841547308E+04  0.12699999809E+01 0. -1.
       -4    1    3    3    0  502 -0.13806823307E+04  0.89579726342E+02  0.10392998959E+04  0.17304491071E+04  0.12699999809E+01 0.  1.
</event>
<event>
 5   0  0.3226364E-06  0.2799771E+04  0.7818609E-02  0.8303339E-01
        2   -1    0    0  501    0  0.00000000000E+00  0.00000000000E+00  0.17234894938E+04  0.17234894938E+04  0.25500000920E-02 0.  1.
       -2   -1    0    0    0  501  0.00000000000E+00  0.00000000000E+00 -0.11370419779E+04  0.11370419779E+04  0.25500000920E-02 0. -1.
    10030    2    1    2    0    0  0.00000000000E+00  0.00000000000E+00  0.58644751598E+03  0.28605314717E+04  0.27997713499E+04 0.  0.
        5    1    3    3  502    0  0.87348580598E+03  0.30094193784E+03  0.13677676765E+04  0.16505617256E+04  0.46999998093E+01 0.  1.
       -5    1    3    3    0  502 -0.87348580598E+03 -0.30094193784E+03 -0.78132016052E+03  0.12099697461E+04  0.46999998093E+01 0. -1.
</event>
<event>
 5   0  0.3167616E-06  0.2785687E+04  0.7818609E-02  0.8307726E-01
        2   -1    0    0  501    0  0.00000000000E+00  0.00000000000E+00  0.13094925752E+04  0.13094925752E+04  0.25500000920E-02 0. -1.
       -2   -1    0    0    0  501  0.00000000000E+00  0.00000000000E+00 -0.14814998641E+04  0.14814998641E+04  0.25500000920E-02 0.  1.
    10030    2    1    2    0    0  0.00000000000E+00  0.00000000000E+00 -0.17200728890E+03  0.27909924394E+04  0.27856870408E+04 0.  0.
        3    1    3    3  502    0  0.11860474268E+04  0.72385620971E+03  0.10807249498E+02  0.13895298189E+04  0.10100000352E+00 0. -1.
       -3    1    3    3    0  502 -0.11860474268E+04 -0.72385620971E+03 -0.18281453840E+03  0.14014626204E+04  0.10100000352E+00 0.  1.
</event>
<event>
 5   0  0.3212679E-06  0.2799197E+04  0.7818609E-02  0.8303518E-01
        2   -1    0    0  501    0  0.00000000000E+00  0.00000000000E+00  0.31626586259E+04  0.31626586259E+04  0.25500000920E-02 0. -1.
       -2   -1    0    0    0  501  0.00000000000E+00  0.00000000000E+00 -0.61937636236E+03  0.61937636237E+03  0.25500000920E-02 0.  1.
    10030    2    1    2    0    0  0.00000000000E+00  0.00000000000E+00  0.25432822635E+04  0.37820349882E+04  0.27991970242E+04 0.  0.
        4    1    3    3  502    0 -0.25602536373E+03  0.10800195367E+04  0.11971564085E+03  0.11163891052E+04  0.12699999809E+01 0.  1.
       -4    1    3    3    0  502  0.25602536373E+03 -0.10800195367E+04  0.24235666227E+04  0.26656458831E+04  0.12699999809E+01 0. -1.
</event>
<event>
 5   0  0.1246044E-06  0.2803962E+04  0.7818609E-02  0.8302039E-01
       -1   -1    0    0    0  501  0.00000000000E+00  0.00000000000E+00  0.94493252370E+03  0.94493252371E+03  0.50400001928E-02 0. -1.
        1   -1    0    0  501    0  0.00000000000E+00  0.00000000000E+00 -0.20800959127E+04  0.20800959127E+04  0.50400001928E-02 0.  1.
    10030    2    1    2    0    0  0.00000000000E+00  0.00000000000E+00 -0.11351633890E+04  0.30250284365E+04  0.28039616833E+04 0.  0.
        2    1    3    3  502    0 -0.10253900572E+04  0.33482661490E+03 -0.15337417513E+04  0.18750726363E+04  0.25500000920E-02 0.  1.
       -2    1    3    3    0  502  0.10253900572E+04 -0.33482661490E+03  0.39857836226E+03  0.11499558002E+04  0.25500000920E-02 0. -1.
</event>
<event>
 5   0  0.3226364E-06  0.2800284E+04  0.7818609E-02  0.8303180E-01
       -2   -1    0    0    0  501  0.00000000000E+00  0.00000000000E+00  0.93381427678E+03  0.93381427678E+03  0.25500000920E-02 0.  1.
        2   -1    0    0  501    0  0.00000000000E+00  0.00000000000E+00 -0.20993446164E+04  0.20993446164E+04  0.25500000920E-02 0. -1.
    10030    2    1    2    0    0  0.00000000000E+00  0.00000000000E+00 -0.11655303397E+04  0.30331588932E+04  0.28002842532E+04 0.  0.
        5    1    3    3  502    0 -0.12637196812E+04  0.54825780204E+03 -0.31132181829E+03  0.14122738455E+04  0.46999998093E+01 0.  1.
       -5    1    3    3    0  502  0.12637196812E+04 -0.54825780204E+03 -0.85420852136E+03  0.16208850477E+04  0.46999998093E+01 0. -1.
</event>
<event>
 5   0  0.1243055E-06  0.2807305E+04  0.7818609E-02  0.8301004E-01
       -1   -1    0    0    0  501  0.00000000000E+00  0.00000000000E+00  0.13079498070E+04  0.13079498070E+04  0.50400001928E-02 0. -1.
        1   -1    0    0  501    0  0.00000000000E+00  0.00000000000E+00 -0.15063575631E+04  0.15063575631E+04  0.50400001928E-02 0.  1.
    10030    2    1    2    0    0  0.00000000000E+00  0.00000000000E+00 -0.19840775609E+03  0.28143073702E+04  0.28073048171E+04 0.  0.
        5    1    3    3  502    0 -0.51254216149E+03 -0.85416200927E+03 -0.10905719014E+04  0.14770448089E+04  0.46999998093E+01 0.  1.
       -5    1    3    3    0  502  0.51254216149E+03  0.85416200927E+03  0.89216414535E+03  0.13372625612E+04  0.46999998093E+01 0. -1.
</event>
<event>
 5   0  0.3212679E-06  0.2806118E+04  0.7818609E-02  0.8301372E-01
       -2   -1    0    0    0  501  0.00000000000E+00  0.00000000000E+00  0.10443144212E+04  0.10443144213E+04  0.25500000920E-02 0. -1.
        2   -1    0    0  501    0  0.00000000000E+00  0.00000000000E+00 -0.18850400278E+04  0.18850400278E+04  0.25500000920E-02 0.  1.
    10030    2    1    2    0    0  0.00000000000E+00  0.00000000000E+00 -0.84072560656E+03  0.29293544491E+04  0.28061179488E+04 0.  0.
        4    1    3    3  502    0  0.68296527177E+03  0.74652194115E+03 -0.14350782882E+04  0.17559008734E+04  0.12699999809E+01 0.  1.
       -4    1    3    3    0  502 -0.68296527177E+03 -0.74652194115E+03  0.59435268167E+03  0.11734535756E+04  0.12699999809E+01 0. -1.
</event>
<event>
 5   0  0.1235252E-06  0.2800037E+04  0.7818609E-02  0.8303257E-01
       -1   -1    0    0    0  501  0.00000000000E+00  0.00000000000E+00  0.99358799908E+03  0.99358799910E+03  0.50400001928E-02 0. -1.
        1   -1    0    0  501    0  0.00000000000E+00  0.00000000000E+00 -0.19727002514E+04  0.19727002514E+04  0.50400001928E-02 0.  1.
    10030    2    1    2    0    0  0.00000000000E+00  0.00000000000E+00 -0.97911225232E+03  0.29662882505E+04  0.28000366395E+04 0.  0.
        1    1    3    3  502    0 -0.18875567696E+03 -0.71790817509E+03 -0.17470614295E+04  0.18982214023E+04  0.50400001928E-02 0.  1.
       -1    1    3    3    0  502  0.18875567696E+03  0.71790817509E+03  0.76794917722E+03  0.10680668482E+04  0.50400001928E-02 0. -1.
</event>
<event>
 5   0  0.3226364E-06  0.2786694E+04  0.7818609E-02  0.8307411E-01
       -2   -1    0    0    0  501  0.00000000000E+00  0.00000000000E+00  0.14251490335E+04  0.14251490335E+04  0.25500000920E-02 0.  1.
        2   -1    0    0  501    0  0.00000000000E+00  0.00000000000E+00 -0.13622541831E+04  0.13622541831E+04  0.25500000920E-02 0. -1.
    10030    2    1    2    0    0  0.00000000000E+00  0.00000000000E+00  0.62894850396E+02  0.27874032167E+04  0.27866935479E+04 0.  0.
        5    1    3    3  502    0  0.11847264808E+04  0.69451386587E+03  0.26702130483E+03  0.13990170876E+04  0.46999998093E+01 0.  1.
       -5    1    3    3    0  502 -0.11847264808E+04 -0.69451386587E+03 -0.20412645444E+03  0.13883861291E+04  0.46999998093E+01 0. -1.
</event>
<event>
 5   0  0.1243055E-06  0.2830863E+04  0.7818609E-02  0.8293750E-01
       -1   -1    0    0    0  501  0.00000000000E+00  0.00000000000E+00  0.16390764710E+04  0.16390764710E+04  0.50400001928E-02 0.  1.
        1   -1    0    0  501    0  0.00000000000E+00  0.00000000000E+00 -0.12223017559E+04  0.12223017559E+04  0.50400001928E-02 0. -1.
    10030    2    1    2    0    0  0.00000000000E+00  0.00000000000E+00  0.41677471508E+03  0.28613782269E+04  0.28308628004E+04 0.  0.
        5    1    3    3  502    0 -0.73192623015E+03 -0.12496751369E+03 -0.10096297113E+04  0.12532785524E+04  0.46999998093E+01 0. -1.
       -5    1    3    3    0  502  0.73192623015E+03  0.12496751369E+03  0.14264044264E+04  0.16080996746E+04  0.46999998093E+01 0.  1.
</event>
<event>
 5   0  0.1243055E-06  0.2803495E+04  0.7818609E-02  0.8302184E-01
        1   -1    0    0  501    0  0.00000000000E+00  0.00000000000E+00  0.17404972940E+04  0.17404972940E+04  0.50400001928E-02 0.  1.
       -1   -1    0    0    0  501  0.00000000000E+00  0.00000000000E+00 -0.11289279181E+04  0.11289279182E+04  0.50400001928E-02 0. -1.
    10030    2    1    2    0    0  0.00000000000E+00  0.00000000000E+00  0.61156937582E+03  0.28694252121E+04  0.28034949521E+04 0.  0.
        5    1    3    3  502    0  0.67571124850E+03 -0.14366686071E+03 -0.94259078791E+03  0.11686425209E+04  0.46999998093E+01 0. -1.
       -5    1    3    3    0  502 -0.67571124850E+03  0.14366686071E+03  0.15541601637E+04  0.17007826912E+04  0.46999998093E+01 0.  1.
</event>
<event>
 5   0  0.3226364E-06  0.2807156E+04  0.7818609E-02  0.8301050E-01
       -2   -1    0    0    0  501  0.00000000000E+00  0.00000000000E+00  0.12334008050E+04  0.12334008050E+04  0.25500000920E-02 0. -1.
        2   -1    0    0  501    0  0.00000000000E+00  0.00000000000E+00 -0.15972355263E+04  0.15972355263E+04  0.25500000920E-02 0.  1.
    10030    2    1    2    0    0  0.00000000000E+00  0.00000000000E+00 -0.36383472127E+03  0.28306363313E+04  0.28071562720E+04 0.  0.
        5    1    3    3  502    0  0.10139509738E+04  0.97048274155E+03 -0.17311710524E+03  0.14141870283E+04  0.46999998093E+01 0.  1.
       -5    1    3    3    0  502 -0.10139509738E+04 -0.97048274155E+03 -0.19071761603E+03  0.14164493030E+04  0.46999998093E+01 0. -1.
</event>
<event>
 5   0  0.1235252E-06  0.2793710E+04  0.7818609E-02  0.8305224E-01
        1   -1    0    0  501    0  0.00000000000E+00  0.00000000000E+00  0.16659865717E+04  0.16659865717E+04  0.50400001928E-02 0.  1.
       -1   -1    0    0    0  501  0.00000000000E+00  0.00000000000E+00 -0.11712005415E+04  0.11712005415E+04  0.50400001928E-02 0. -1.
    10030    2    1    2    0    0  0.00000000000E+00  0.00000000000E+00  0.49478603020E+03  0.28371871131E+04  0.27937103463E+04 0.  0.
        1    1    3    3  502    0 -0.57725131486E+02  0.63366974758E+03 -0.10154761870E+04  0.11983578039E+04  0.50400001928E-02 0. -1.
       -1    1    3    3    0  502  0.57725131486E+02 -0.63366974758E+03  0.15102622172E+04  0.16388293092E+04  0.50400001928E-02 0.  1.
</event>
<event>
 5   0  0.1220265E-06  0.2806171E+04  0.7818609E-02  0.8301355E-01
        1   -1    0    0  501    0  0.00000000000E+00  0.00000000000E+00  0.26492518273E+04  0.26492518273E+04  0.50400001928E-02 0. -1.
       -1   -1    0    0    0  501  0.00000000000E+00  0.00000000000E+00 -0.74309638431E+03  0.74309638433E+03  0.50400001928E-02 0.  1.
    10030    2    1    2    0    0  0.00000000000E+00  0.00000000000E+00  0.19061554429E+04  0.33923482116E+04  0.28061713804E+04 0.  0.
        4    1    3    3  502    0  0.10183270182E+04  0.52416310146E+03  0.19328823576E+04  0.22467248817E+04  0.12699999809E+01 0. -1.
       -4    1    3    3    0  502 -0.10183270182E+04 -0.52416310146E+03 -0.26726914657E+02  0.11456233298E+04  0.12699999809E+01 0.  1.
</event>
<event>
 5   0  0.1243055E-06  0.2734171E+04  0.7818609E-02  0.8324002E-01
       -1   -1    0    0    0  501  0.00000000000E+00  0.00000000000E+00  0.16820870714E+04  0.16820870714E+04  0.50400001928E-02 0. -1.
        1   -1    0    0  501    0  0.00000000000E+00  0.00000000000E+00 -0.11110740003E+04  0.11110740003E+04  0.50400001928E-02 0.  1.
    10030    2    1    2    0    0  0.00000000000E+00  0.00000000000E+00  0.57101307110E+03  0.27931610717E+04  0.27341713270E+04 0.  0.
        5    1    3    3  502    0 -0.63688320728E+03  0.20497502268E+02 -0.95007596963E+03  0.11439872400E+04  0.46999998093E+01 0.  1.
       -5    1    3    3    0  502  0.63688320728E+03 -0.20497502268E+02  0.15210890407E+04  0.16491738317E+04  0.46999998093E+01 0. -1.
</event>
<event>
 5   0  0.1220265E-06  0.2826430E+04  0.7818609E-02  0.8295109E-01
       -1   -1    0    0    0  501  0.00000000000E+00  0.00000000000E+00  0.12380223120E+04  0.12380223120E+04  0.50400001928E-02 0. -1.
        1   -1    0    0  501    0  0.00000000000E+00  0.00000000000E+00 -0.16131995736E+04  0.16131995736E+04  0.50400001928E-02 0.  1.
    10030    2    1    2    0    0  0.00000000000E+00  0.00000000000E+00 -0.37517726163E+03  0.28512218856E+04  0.28264303040E+04 0.  0.
        4    1    3    3  502    0  0.30484827585E+03  0.77771956842E+03  0.96232010509E+03  0.12743005124E+04  0.12699999809E+01 0. -1.
       -4    1    3    3    0  502 -0.30484827585E+03 -0.77771956842E+03 -0.13374973667E+04  0.15769213732E+04  0.12699999809E+01 0.  1.
</event>
<event>
 5   0  0.1220265E-06  0.2799166E+04  0.7818609E-02  0.8303527E-01
        1   -1    0    0  501    0  0.00000000000E+00  0.00000000000E+00  0.92000458716E+03  0.92000458718E+03  0.50400001928E-02 0.  1.
       -1   -1    0    0    0  501  0.00000000000E+00  0.00000000000E+00 -0.21291544859E+04  0.21291544859E+04  0.50400001928E-02 0. -1.
    10030    2    1    2    0    0  0.00000000000E+00  0.00000000000E+00 -0.12091498987E+04  0.30491590731E+04  0.27991655141E+04 0.  0.
        4    1    3    3  502    0  0.10799394704E+04 -0.80714289721E+03 -0.10137285042E+04  0.16868301661E+04  0.12699999809E+01 0. -1.
       -4    1    3    3    0  502 -0.10799394704E+04  0.80714289721E+03 -0.19542139457E+03  0.13623289069E+04  0.12699999809E+01 0.  1.
</event>
<event>
 5   0  0.1220265E-06  0.2801846E+04  0.7818609E-02  0.8302695E-01
       -1   -1    0    0    0  501  0.00000000000E+00  0.00000000000E+00  0.15093870558E+04  0.15093870558E+04  0.50400001928E-02 0. -1.
        1   -1    0    0  501    0  0.00000000000E+00  0.00000000000E+00 -0.13002531557E+04  0.13002531558E+04  0.50400001928E-02 0.  1.
    10030    2    1    2    0    0  0.00000000000E+00  0.00000000000E+00  0.20913390006E+03  0.28096402116E+04  0.28018460219E+04 0.  0.
        4    1    3    3  502    0  0.11918586602E+04 -0.46492569290E+03  0.67703215453E+03  0.14474312132E+04  0.12699999809E+01 0. -1.
       -4    1    3    3    0  502 -0.11918586602E+04  0.46492569290E+03 -0.46789825447E+03  0.13622089984E+04  0.12699999809E+01 0.  1.
</event>
<event>
 5   0  0.1263513E-06  0.2792312E+04  0.7818609E-02  0.8305659E-01
        1   -1    0    0  501    0  0.00000000000E+00  0.00000000000E+00  0.20112280942E+04  0.20112280942E+04  0.50400001928E-02 0.  1.
       -1   -1    0    0    0  501  0.00000000000E+00  0.00000000000E+00 -0.96918481339E+03  0.96918481341E+03  0.50400001928E-02 0. -1.
    10030    2    1    2    0    0  0.00000000000E+00  0.00000000000E+00  0.10420432808E+04  0.29804129076E+04  0.27923121066E+04 0.  0.
        3    1    3    3  502    0 -0.97915682951E+03 -0.95918568432E+03  0.23768440921E+03  0.13911431136E+04  0.10100000352E+00 0. -1.
       -3    1    3    3    0  502  0.97915682951E+03  0.95918568432E+03  0.80435887159E+03  0.15892697941E+04  0.10100000352E+00 0.  1.
</event>
<event>
 5   0  0.3345919E-06  0.2785056E+04  0.7818609E-02  0.8307923E-01
        2   -1    0    0  501    0  0.00000000000E+00  0.00000000000E+00  0.19130620596E+04  0.19130620596E+04  0.25500000920E-02 0. -1.
       -2   -1    0    0    0  501  0.00000000000E+00  0.00000000000E+00 -0.10136288476E+04  0.10136288476E+04  0.25500000920E-02 0.  1.
    10030    2    1    2    0    0  0.00000000000E+00  0.00000000000E+00  0.89943321193E+03  0.29266909072E+04  0.27850564740E+04 0.  0.
        2    1    3    3  502    0  0.97280664120E+02 -0.10620202696E+04 -0.49124440570E+03  0.11741684917E+04  0.25500000920E-02 0.  1.
       -2    1    3    3    0  502 -0.97280664120E+02  0.10620202696E+04  0.13906776176E+04  0.17525224155E+04  0.25500000920E-02 0. -1.
</event>
<event>
 5   0  0.1235252E-06  0.2799899E+04  0.7818609E-02  0.8303300E-01
       -1   -1    0    0    0  501  0.00000000000E+00  0.00000000000E+00  0.13257432798E+04  0.13257432798E+04  0.50400001928E-02 0. -1.
        1   -1    0    0  501    0  0.00000000000E+00  0.00000000000E+00 -0.14783092002E+04  0.14783092002E+04  0.50400001928E-02 0.  1.
    10030    2    1    2    0    0  0.00000000000E+00  0.00000000000E+00 -0.15256592038E+03  0.28040524800E+04  0.27998989179E+04 0.  0.
        1    1    3    3  502    0  0.64588366724E+03 -0.81090934578E+03  0.86592022843E+03  0.13507618298E+04  0.50400001928E-02 0. -1.
       -1    1    3    3    0  502 -0.64588366724E+03  0.81090934578E+03 -0.10184861488E+04  0.14532906502E+04  0.50400001928E-02 0.  1.
</event>
<event>
 5   0  0.1235252E-06  0.2795532E+04  0.7818609E-02  0.8304657E-01
        1   -1    0    0  501    0  0.00000000000E+00  0.00000000000E+00  0.17452354835E+04  0.17452354835E+04  0.50400001928E-02 0.  1.
       -1   -1    0    0    0  501  0.00000000000E+00  0.00000000000E+00 -0.11194762204E+04  0.11194762204E+04  0.50400001928E-02 0. -1.
    10030    2    1    2    0    0  0.00000000000E+00  0.00000000000E+00  0.62575926311E+03  0.28647117039E+04  0.27955318799E+04 0.  0.
        1    1    3    3  502    0 -0.80058728194E+03 -0.10349003714E+04 -0.19101113743E+03  0.13222874231E+04  0.50400001928E-02 0. -1.
       -1    1    3    3    0  502  0.80058728194E+03  0.10349003714E+04  0.81677040054E+03  0.15424242808E+04  0.50400001928E-02 0.  1.
</event>
<event>
 5   0  0.3226364E-06  0.2780434E+04  0.7818609E-02  0.8309369E-01
       -2   -1    0    0    0  501  0.00000000000E+00  0.00000000000E+00  0.98162351453E+03  0.98162351453E+03  0.25500000920E-02 0. -1.
        2   -1    0    0  501    0  0.00000000000E+00  0.00000000000E+00 -0.19688849815E+04  0.19688849815E+04  0.25500000920E-02 0.  1.
    10030    2    1    2    0    0  0.00000000000E+00  0.00000000000E+00 -0.98726146701E+03  0.29505084961E+04  0.27804343512E+04 0.  0.
        5    1    3    3  502    0  0.74648092494E+03 -0.39636968099E+03  0.67766968696E+03  0.10833286620E+04  0.46999998093E+01 0. -1.
       -5    1    3    3    0  502 -0.74648092494E+03  0.39636968099E+03 -0.16649311540E+04  0.18671798341E+04  0.46999998093E+01 0.  1.
</event>
<event>
 5   0  0.1065675E-06  0.2805707E+04  0.7818609E-02  0.8301499E-01
       -4   -1    0    0    0  501  0.00000000000E+00  0.00000000000E+00  0.15984890800E+04  0.15984895845E+04  0.12699999809E+01 0. -1.
        4   -1    0    0  501    0  0.00000000000E+00  0.00000000000E+00 -0.12311599275E+04  0.12311605825E+04  0.12699999809E+01 0.  1.
    10030    2    1    2    0    0  0.00000000000E+00  0.00000000000E+00  0.36732915251E+03  0.28296501670E+04  0.28057065707E+04 0.  0.
        5    1    3    3  502    0 -0.51779319739E+03 -0.12202347757E+04 -0.27948483198E+03  0.13547016514E+04  0.46999998093E+01 0.  1.
       -5    1    3    3    0  502  0.51779319739E+03  0.12202347757E+04  0.64681398449E+03  0.14749485156E+04  0.46999998093E+01 0. -1.
</event>
<event>
 5   0  0.1243055E-06  0.2802685E+04  0.7818609E-02  0.8302435E-01
        1   -1    0    0  501    0  0.00000000000E+00  0.00000000000E+00  0.61789456866E+03  0.61789456868E+03  0.50400001928E-02 0. -1.
       -1   -1    0    0    0  501  0.00000000000E+00  0.00000000000E+00 -0.31781483624E+04  0.31781483624E+04  0.50400001928E-02 0.  1.
    10030    2    1    2    0    0  0.00000000000E+00  0.00000000000E+00 -0.25602537937E+04  0.37960429311E+04  0.28026848639E+04 0.  0.
        5    1    3    3  502    0  0.63560549979E+02  0.10139679811E+04 -0.25873930424E+04  0.27797114699E+04  0.46999998093E+01 0.  1.
       -5    1    3    3    0  502 -0.63560549979E+02 -0.10139679811E+04  0.27139248682E+02  0.10163314612E+04  0.46999998093E+01 0. -1.
</event>
<event>
 5   0  0.1220265E-06  0.2789531E+04  0.7818609E-02  0.8306526E-01
        1   -1    0    0  501    0  0.00000000000E+00  0.00000000000E+00  0.24027662387E+04  0.24027662387E+04  0.50400001928E-02 0.  1.
       -1   -1    0    0    0  501  0.00000000000E+00  0.00000000000E+00 -0.80963781962E+03  0.80963781964E+03  0.50400001928E-02 0. -1.
    10030    2    1    2    0    0  0.00000000000E+00  0.00000000000E+00  0.15931284190E+04  0.32124040583E+04  0.27895307265E+04 0.  0.
        4    1    3    3  502    0  0.59623471983E+03  0.12453209723E+04  0.10241273796E+04  0.17190574940E+04  0.12699999809E+01 0.  1.
       -4    1    3    3    0  502 -0.59623471983E+03 -0.12453209723E+04  0.56900103942E+03  0.14933465643E+04  0.12699999809E+01 0. -1.
</event>
<event>
 5   0  0.1220265E-06  0.2783713E+04  0.7818609E-02  0.8308343E-01
       -1   -1    0    0    0  501  0.00000000000E+00  0.00000000000E+00  0.13167665645E+04  0.13167665645E+04  0.50400001928E-02 0.  1.
        1   -1    0    0  501    0  0.00000000000E+00  0.00000000000E+00 -0.14712284432E+04  0.14712284432E+04  0.50400001928E-02 0. -1.
    10030    2    1    2    0    0  0.00000000000E+00  0.00000000000E+00 -0.15446187869E+03  0.27879950076E+04  0.27837129325E+04 0.  0.
        4    1    3    3  502    0 -0.87453238158E+03  0.10194672806E+04  0.28821716564E+03  0.13737507671E+04  0.12699999809E+01 0.  1.
       -4    1    3    3    0  502  0.87453238158E+03 -0.10194672806E+04 -0.44267904433E+03  0.14142442405E+04  0.12699999809E+01 0. -1.
</event>
<event>
 5   0  0.3212679E-06  0.2800870E+04  0.7818609E-02  0.8302998E-01
       -2   -1    0    0    0  501  0.00000000000E+00  0.00000000000E+00  0.12740992522E+04  0.12740992522E+04  0.25500000920E-02 0. -1.
        2   -1    0    0  501    0  0.00000000000E+00  0.00000000000E+00 -0.15392975963E+04  0.15392975963E+04  0.25500000920E-02 0.  1.
    10030    2    1    2    0    0  0.00000000000E+00  0.00000000000E+00 -0.26519834403E+03  0.28133968485E+04  0.28008698052E+04 0.  0.
        4    1    3    3  502    0 -0.12217201198E+02  0.46880033710E+02 -0.15384550646E+04  0.15392181770E+04  0.12699999809E+01 0.  1.
       -4    1    3    3    0  502  0.12217201198E+02 -0.46880033710E+02  0.12732567206E+04  0.12741786715E+04  0.12699999809E+01 0. -1.
</event>
<event>
 5   0  0.1263513E-06  0.2809660E+04  0.7818609E-02  0.8300276E-01
        1   -1    0    0  501    0  0.00000000000E+00  0.00000000000E+00  0.17499275502E+04  0.17499275502E+04  0.50400001928E-02 0. -1.
       -1   -1    0    0    0  501  0.00000000000E+00  0.00000000000E+00 -0.11277877205E+04  0.11277877205E+04  0.50400001928E-02 0.  1.
    10030    2    1    2    0    0  0.00000000000E+00  0.00000000000E+00  0.62213982970E+03  0.28777152707E+04  0.28096596255E+04 0.  0.
        3    1    3    3  502    0 -0.59638330681E+03  0.71954848432E+03  0.13853434464E+04  0.16711072810E+04  0.10100000352E+00 0. -1.
       -3    1    3    3    0  502  0.59638330681E+03 -0.71954848432E+03 -0.76320361672E+03  0.12066079897E+04  0.10100000352E+00 0.  1.
</event>
<event>
 5   0  0.3345919E-06  0.2808089E+04  0.7818609E-02  0.8300761E-01
       -2   -1    0    0    0  501  0.00000000000E+00  0.00000000000E+00  0.15141206451E+04  0.15141206451E+04  0.25500000920E-02 0.  1.
        2   -1    0    0  501    0  0.00000000000E+00  0.00000000000E+00 -0.13019709537E+04  0.13019709537E+04  0.25500000920E-02 0. -1.
    10030    2    1    2    0    0  0.00000000000E+00  0.00000000000E+00  0.21214969142E+03  0.28160915987E+04  0.28080891013E+04 0.  0.
        2    1    3    3  502    0 -0.74078305613E+03 -0.99772523098E+03 -0.54933635711E+03  0.13586705289E+04  0.25500000920E-02 0. -1.
       -2    1    3    3    0  502  0.74078305613E+03  0.99772523098E+03  0.76148604853E+03  0.14574210699E+04  0.25500000920E-02 0.  1.
</event>
<event>
 5   0  0.3226364E-06  0.2727908E+04  0.7818609E-02  0.8326006E-01
        2   -1    0    0  501    0  0.00000000000E+00  0.00000000000E+00  0.93295607454E+03  0.93295607455E+03  0.25500000920E-02 0.  1.
       -2   -1    0    0    0  501  0.00000000000E+00  0.00000000000E+00 -0.19940604980E+04  0.19940604980E+04  0.25500000920E-02 0. -1.
    10030    2    1    2    0    0  0.00000000000E+00  0.00000000000E+00 -0.10611044235E+04  0.29270165726E+04  0.27279082497E+04 0.  0.
        5    1    3    3  502    0 -0.98731074647E+03  0.59630175418E+03 -0.13116932479E+04  0.17466881687E+04  0.46999998093E+01 0. -1.
       -5    1    3    3    0  502  0.98731074647E+03 -0.59630175418E+03  0.25058882438E+03  0.11803284039E+04  0.46999998093E+01 0.  1.
</event>
<event>
 5   0  0.3167616E-06  0.2806892E+04  0.7818609E-02  0.8301132E-01
        2   -1    0    0  501    0  0.00000000000E+00  0.00000000000E+00  0.22021015186E+04  0.22021015186E+04  0.25500000920E-02 0. -1.
       -2   -1    0    0    0  501  0.00000000000E+00  0.00000000000E+00 -0.89444568972E+03  0.89444568973E+03  0.25500000920E-02 0.  1.
    10030    2    1    2    0    0  0.00000000000E+00  0.00000000000E+00  0.13076558288E+04  0.30965472083E+04  0.28068916699E+04 0.  0.
        3    1    3    3  502    0  0.16795669918E+03  0.12471851513E+04 -0.31556816410E+02  0.12588391864E+04  0.10100000352E+00 0.  1.
       -3    1    3    3    0  502 -0.16795669918E+03 -0.12471851513E+04  0.13392126452E+04  0.18377080219E+04  0.10100000352E+00 0. -1.
</event>
<event>
 5   0  0.1246044E-06  0.2771104E+04  0.7818609E-02  0.8312296E-01
        1   -1    0    0  501    0  0.00000000000E+00  0.00000000000E+00  0.21148872398E+04  0.21148872398E+04  0.50400001928E-02 0. -1.
       -1   -1    0    0    0  501  0.00000000000E+00  0.00000000000E+00 -0.90773338663E+03  0.90773338664E+03  0.50400001928E-02 0.  1.
    10030    2    1    2    0    0  0.00000000000E+00  0.00000000000E+00  0.12071538531E+04  0.30226206264E+04  0.27711035755E+04 0.  0.
        2    1    3    3  502    0  0.11869480274E+04  0.66500041474E+03  0.31771639316E+03  0.13971452601E+04  0.25500000920E-02 0. -1.
       -2    1    3    3    0  502 -0.11869480274E+04 -0.66500041474E+03  0.88943745999E+03  0.16254753663E+04  0.25500000920E-02 0.  1.
</event>
<event>
 5   0  0.3167616E-06  0.2801239E+04  0.7818609E-02  0.8302884E-01
       -2   -1    0    0    0  501  0.00000000000E+00  0.00000000000E+00  0.13388912436E+04  0.13388912436E+04  0.25500000920E-02 0. -1.
        2   -1    0    0  501    0  0.00000000000E+00  0.00000000000E+00 -0.14651939171E+04  0.14651939171E+04  0.25500000920E-02 0.  1.
    10030    2    1    2    0    0  0.00000000000E+00  0.00000000000E+00 -0.12630267346E+03  0.28040851607E+04  0.28012392299E+04 0.  0.
        3    1    3    3  502    0 -0.13845945641E+04 -0.22836835513E+02  0.14708981996E+03  0.13925728180E+04  0.10100000352E+00 0. -1.
       -3    1    3    3    0  502  0.13845945641E+04  0.22836835513E+02 -0.27339249342E+03  0.14115123427E+04  0.10100000352E+00 0.  1.
</event>
<event>
 5   0  0.1243055E-06  0.2799167E+04  0.7818609E-02  0.8303527E-01
        1   -1    0    0  501    0  0.00000000000E+00  0.00000000000E+00  0.15027870227E+04  0.15027870227E+04  0.50400001928E-02 0. -1.
       -1   -1    0    0    0  501  0.00000000000E+00  0.00000000000E+00 -0.13034672929E+04  0.13034672929E+04  0.50400001928E-02 0.  1.
    10030    2    1    2    0    0  0.00000000000E+00  0.00000000000E+00  0.19931972982E+03  0.28062543156E+04  0.27991668276E+04 0.  0.
        5    1    3    3  502    0  0.12299009317E+03 -0.63998165841E+03 -0.11420676069E+04  0.13149310229E+04  0.46999998093E+01 0.  1.
       -5    1    3    3    0  502 -0.12299009317E+03  0.63998165841E+03  0.13413873368E+04  0.14913232927E+04  0.46999998093E+01 0. -1.
</event>
<event>
 5   0  0.1263513E-06  0.2798037E+04  0.7818609E-02  0.8303878E-01
        1   -1    0    0  501    0  0.00000000000E+00  0.00000000000E+00  0.16303509608E+04  0.16303509608E+04  0.50400001928E-02 0. -1.
       -1   -1    0    0    0  501  0.00000000000E+00  0.00000000000E+00 -0.12005099824E+04  0.12005099824E+04  0.50400001928E-02 0.  1.
    10030    2    1    2    0    0  0.00000000000E+00  0.00000000000E+00  0.42984097841E+03  0.28308609431E+04  0.27980368855E+04 0.  0.
        3    1    3    3  502    0 -0.23538869331E+03 -0.13696787264E+03  0.16032738382E+04  0.16262395413E+04  0.10100000352E+00 0. -1.
       -3    1    3    3    0  502  0.23538869331E+03  0.13696787264E+03 -0.11734328598E+04  0.12046214019E+04  0.10100000352E+00 0.  1.
</event>
<event>
 5   0  0.1235252E-06  0.2803558E+04  0.7818609E-02  0.8302165E-01
        1   -1    0    0  501    0  0.00000000000E+00  0.00000000000E+00  0.18586814608E+04  0.18586814608E+04  0.50400001928E-02 0.  1.
       -1   -1    0    0    0  501  0.00000000000E+00  0.00000000000E+00 -0.10571925436E+04  0.10571925436E+04  0.50400001928E-02 0. -1.
    10030    2    1    2    0    0  0.00000000000E+00  0.00000000000E+00  0.80148891715E+03  0.29158740044E+04  0.28035578691E+04 0.  0.
        1    1    3    3  502    0  0.11042692075E+04  0.53682665475E+03  0.11041454261E+04  0.16512814605E+04  0.50400001928E-02 0.  1.
       -1    1    3    3    0  502 -0.11042692075E+04 -0.53682665475E+03 -0.30265650892E+03  0.12645925439E+04  0.50400001928E-02 0. -1.
</event>
<event>
 5   0  0.3212679E-06  0.2814225E+04  0.7818609E-02  0.8298866E-01
        2   -1    0    0  501    0  0.00000000000E+00  0.00000000000E+00  0.20438839976E+04  0.20438839976E+04  0.25500000920E-02 0. -1.
       -2   -1    0    0    0  501  0.00000000000E+00  0.00000000000E+00 -0.96872678856E+03  0.96872678856E+03  0.25500000920E-02 0.  1.
    10030    2    1    2    0    0  0.00000000000E+00  0.00000000000E+00  0.10751572090E+04  0.30126107862E+04  0.28142247111E+04 0.  0.
        4    1    3    3  502    0  0.13458098667E+04  0.37870249834E+03  0.70799839431E+03  0.15671257508E+04  0.12699999809E+01 0.  1.
       -4    1    3    3    0  502 -0.13458098667E+04 -0.37870249834E+03  0.36715881472E+03  0.14454850354E+04  0.12699999809E+01 0. -1.
</event>
<event>
 5   0  0.1220265E-06  0.2746713E+04  0.7818609E-02  0.8320006E-01
        1   -1    0    0  501    0  0.00000000000E+00  0.00000000000E+00  0.27243676776E+04  0.27243676776E+04  0.50400001928E-02 0.  1.
       -1   -1    0    0    0  501  0.00000000000E+00  0.00000000000E+00 -0.69231021005E+03  0.69231021007E+03  0.50400001928E-02 0. -1.
    10030    2    1    2    0    0  0.00000000000E+00  0.00000000000E+00  0.20320574675E+04  0.34166778876E+04  0.27467126236E+04 0.  0.
        4    1    3    3  502    0  0.73558091849E+02  0.11484601847E+04  0.83727396264E+02  0.11538559176E+04  0.12699999809E+01 0. -1.
       -4    1    3    3    0  502 -0.73558091849E+02 -0.11484601847E+04  0.19483300712E+04  0.22628219700E+04  0.12699999809E+01 0.  1.
</event>
<event>
 5   0  0.1065675E-06  0.2795769E+04  0.7818609E-02  0.8304583E-01
        4   -1    0    0  501    0  0.00000000000E+00  0.00000000000E+00  0.13268509776E+04  0.13268515854E+04  0.12699999809E+01 0. -1.
       -4   -1    0    0    0  501  0.00000000000E+00  0.00000000000E+00 -0.14727200488E+04  0.14727205964E+04  0.12699999809E+01 0.  1.
    10030    2    1    2    0    0  0.00000000000E+00  0.00000000000E+00 -0.14586907124E+03  0.27995721818E+04  0.27957694138E+04 0.  0.
        2    1    3    3  502    0  0.45021997758E+02  0.79041876084E+03 -0.12265835479E+04  0.14598958859E+04  0.25500000920E-02 0.  1.
       -2    1    3    3    0  502 -0.45021997758E+02 -0.79041876084E+03  0.10807144766E+04  0.13396762959E+04  0.25500000920E-02 0. -1.
</event>
<event>
 5   0  0.1243055E-06  0.2793991E+04  0.7818609E-02  0.8305136E-01
       -1   -1    0    0    0  501  0.00000000000E+00  0.00000000000E+00  0.83365071121E+03  0.83365071122E+03  0.50400001928E-02 0.  1.
        1   -1    0    0  501    0  0.00000000000E+00  0.00000000000E+00 -0.23410237894E+04  0.23410237894E+04  0.50400001928E-02 0. -1.
    10030    2    1    2    0    0  0.00000000000E+00  0.00000000000E+00 -0.15073730782E+04  0.31746745007E+04  0.27939907996E+04 0.  0.
        5    1    3    3  502    0 -0.11102330538E+04 -0.79030546473E+03 -0.40462646757E+03  0.14215993914E+04  0.46999998093E+01 0. -1.
       -5    1    3    3    0  502  0.11102330538E+04  0.79030546473E+03 -0.11027466106E+04  0.17530751093E+04  0.46999998093E+01 0.  1.
</event>
<event>
 5   0  0.3345919E-06  0.2801774E+04  0.7818609E-02  0.8302718E-01
        2   -1    0    0  501    0  0.00000000000E+00  0.00000000000E+00  0.19291404444E+04  0.19291404444E+04  0.25500000920E-02 0.  1.
       -2   -1    0    0    0  501  0.00000000000E+00  0.00000000000E+00 -0.10172842738E+04  0.10172842738E+04  0.25500000920E-02 0. -1.
    10030    2    1    2    0    0  0.00000000000E+00  0.00000000000E+00  0.91185617063E+03  0.29464247182E+04  0.28017738924E+04 0.  0.
        2    1    3    3  502    0  0.52298019185E+03  0.91355161977E+03 -0.51613114988E+03  0.11723805726E+04  0.25500000920E-02 0. -1.
       -2    1    3    3    0  502 -0.52298019185E+03 -0.91355161977E+03  0.14279873205E+04  0.17740441456E+04  0.25500000920E-02 0.  1.
</event>
<event>
 5   0  0.3212679E-06  0.2802643E+04  0.7818609E-02  0.8302448E-01
       -2   -1    0    0    0  501  0.00000000000E+00  0.00000000000E+00  0.80449695517E+03  0.80449695518E+03  0.25500000920E-02 0.  1.
        2   -1    0    0  501    0  0.00000000000E+00  0.00000000000E+00 -0.24409071747E+04  0.24409071747E+04  0.25500000920E-02 0. -1.
    10030    2    1    2    0    0  0.00000000000E+00  0.00000000000E+00 -0.16364102195E+04  0.32454041299E+04  0.28026433165E+04 0.  0.
        4    1    3    3  502    0 -0.34060993936E+03 -0.25851733071E+02  0.75554741596E+03  0.82917848112E+03  0.12699999809E+01 0.  1.
       -4    1    3    3    0  502  0.34060993936E+03  0.25851733071E+02 -0.23919576355E+04  0.24162256488E+04  0.12699999809E+01 0. -1.
</event>
<event>
 5   0  0.3345919E-06  0.2808151E+04  0.7818609E-02  0.8300742E-01
        2   -1    0    0  501    0  0.00000000000E+00  0.00000000000E+00  0.22175161870E+04  0.22175161870E+04  0.25500000920E-02 0. -1.
       -2   -1    0    0    0  501  0.00000000000E+00  0.00000000000E+00 -0.88902499415E+03  0.88902499415E+03  0.25500000920E-02 0.  1.
    10030    2    1    2    0    0  0.00000000000E+00  0.00000000000E+00  0.13284911929E+04  0.31065411812E+04  0.28081505054E+04 0.  0.
        2    1    3    3  502    0  0.10319189362E+04 -0.12551564061E+02 -0.38897614900E+03  0.11028674794E+04  0.25500000920E-02 0.  1.
       -2    1    3    3    0  502 -0.10319189362E+04  0.12551564061E+02  0.17174673419E+04  0.20036737018E+04  0.25500000920E-02 0. -1.
</event>
<event>
 5   0  0.1220265E-06  0.2801614E+04  0.7818609E-02  0.8302767E-01
        1   -1    0    0  501    0  0.00000000000E+00  0.00000000000E+00  0.19488319423E+04  0.19488319423E+04  0.50400001928E-02 0. -1.
       -1   -1    0    0    0  501  0.00000000000E+00  0.00000000000E+00 -0.10068907867E+04  0.10068907867E+04  0.50400001928E-02 0.  1.
    10030    2    1    2    0    0  0.00000000000E+00  0.00000000000E+00  0.94194115563E+03  0.29557227290E+04  0.28016144828E+04 0.  0.
        4    1    3    3  502    0  0.27505461338E+03 -0.10785123081E+04 -0.42635328039E+03  0.11918987254E+04  0.12699999809E+01 0.  1.
       -4    1    3    3    0  502 -0.27505461338E+03  0.10785123081E+04  0.13682944360E+04  0.17638240036E+04  0.12699999809E+01 0. -1.
</event>
<event>
 5   0  0.3226364E-06  0.2795034E+04  0.7818609E-02  0.8304812E-01
       -2   -1    0    0    0  501  0.00000000000E+00  0.00000000000E+00  0.80916044864E+03  0.80916044864E+03  0.25500000920E-02 0.  1.
        2   -1    0    0  501    0  0.00000000000E+00  0.00000000000E+00 -0.24136790385E+04  0.24136790385E+04  0.25500000920E-02 0. -1.
    10030    2    1    2    0    0  0.00000000000E+00  0.00000000000E+00 -0.16045185899E+04  0.32228394871E+04  0.27950338915E+04 0.  0.
        5    1    3    3  502    0 -0.28278624384E+03  0.13672264269E+04 -0.87291992002E+03  0.16465987486E+04  0.46999998093E+01 0. -1.
       -5    1    3    3    0  502  0.28278624384E+03 -0.13672264269E+04 -0.73159866983E+03  0.15762407385E+04  0.46999998093E+01 0.  1.
</event>
<event>
 5   0  0.1246044E-06  0.2791176E+04  0.7818609E-02  0.8306013E-01
        1   -1    0    0  501    0  0.00000000000E+00  0.00000000000E+00  0.15812168155E+04  0.15812168155E+04  0.50400001928E-02 0.  1.
       -1   -1    0    0    0  501  0.00000000000E+00  0.00000000000E+00 -0.12317511560E+04  0.12317511560E+04  0.50400001928E-02 0. -1.
    10030    2    1    2    0    0  0.00000000000E+00  0.00000000000E+00  0.34946565951E+03  0.28129679715E+04  0.27911758385E+04 0.  0.
        2    1    3    3  502    0  0.99868763303E+03 -0.89215312100E+03  0.57067609673E+03  0.14556735166E+04  0.25500000920E-02 0.  1.
       -2    1    3    3    0  502 -0.99868763303E+03  0.89215312100E+03 -0.22121043722E+03  0.13572944549E+04  0.25500000920E-02 0. -1.
</event>
<event>
 5   0  0.1235252E-06  0.2763331E+04  0.7818609E-02  0.8314744E-01
        1   -1    0    0  501    0  0.00000000000E+00  0.00000000000E+00  0.13547392290E+04  0.13547392290E+04  0.50400001928E-02 0. -1.
       -1   -1    0    0    0  501  0.00000000000E+00  0.00000000000E+00 -0.14091264724E+04  0.14091264724E+04  0.50400001928E-02 0.  1.
    10030    2    1    2    0    0  0.00000000000E+00  0.00000000000E+00 -0.54387243441E+02  0.27638657014E+04  0.27633305346E+04 0.  0.
        1    1    3    3  502    0  0.88739211949E+03 -0.10563550126E+04 -0.10236284726E+03  0.13834120279E+04  0.50400001928E-02 0.  1.
       -1    1    3    3    0  502 -0.88739211949E+03  0.10563550126E+04  0.47975603821E+02  0.13804536736E+04  0.50400001928E-02 0. -1.
</event>
<event>
 5   0  0.1243055E-06  0.2793908E+04  0.7818609E-02  0.8305162E-01
        1   -1    0    0  501    0  0.00000000000E+00  0.00000000000E+00  0.16410654443E+04  0.16410654443E+04  0.50400001928E-02 0.  1.
       -1   -1    0    0    0  501  0.00000000000E+00  0.00000000000E+00 -0.11891543436E+04  0.11891543436E+04  0.50400001928E-02 0. -1.
    10030    2    1    2    0    0  0.00000000000E+00  0.00000000000E+00  0.45191110076E+03  0.28302197879E+04  0.27939077302E+04 0.  0.
        5    1    3    3  502    0 -0.12701583758E+04 -0.31720200470E+03  0.71966927449E+03  0.14939428925E+04  0.46999998093E+01 0.  1.
       -5    1    3    3    0  502  0.12701583758E+04  0.31720200470E+03 -0.26775817373E+03  0.13362768954E+04  0.46999998093E+01 0. -1.
</event>
<event>
 5   0  0.1220265E-06  0.2785807E+04  0.7818609E-02  0.8307688E-01
        1   -1    0    0  501    0  0.00000000000E+00  0.00000000000E+00  0.15757855492E+04  0.15757855492E+04  0.50400001928E-02 0.  1.
       -1   -1    0    0    0  501  0.00000000000E+00  0.00000000000E+00 -0.12312463592E+04  0.12312463593E+04  0.50400001928E-02 0. -1.
    10030    2    1    2    0    0  0.00000000000E+00  0.00000000000E+00  0.34453918992E+03  0.28070319084E+04  0.27858070431E+04 0.  0.
        4    1    3    3  502    0 -0.32743080733E+03  0.97448797516E+03  0.11192924872E+04  0.15197549250E+04  0.12699999809E+01 0.  1.
       -4    1    3    3    0  502  0.32743080733E+03 -0.97448797516E+03 -0.77475329732E+03  0.12872769834E+04  0.12699999809E+01 0. -1.
</event>
<event>
 5   0  0.3162695E-06  0.2808119E+04  0.7818609E-02  0.8300752E-01
       -2   -1    0    0    0  501  0.00000000000E+00  0.00000000000E+00  0.17911254822E+04  0.17911254822E+04  0.25500000920E-02 0.  1.
        2   -1    0    0  501    0  0.00000000000E+00  0.00000000000E+00 -0.11006389138E+04  0.11006389138E+04  0.25500000920E-02 0. -1.
    10030    2    1    2    0    0  0.00000000000E+00  0.00000000000E+00  0.69048656834E+03  0.28917643960E+04  0.28081185198E+04 0.  0.
        1    1    3    3  502    0 -0.31730776049E+03  0.55827864212E+03 -0.94055770154E+03  0.11388626111E+04  0.50400001928E-02 0. -1.
       -1    1    3    3    0  502  0.31730776049E+03 -0.55827864212E+03  0.16310442699E+04  0.17529017849E+04  0.50400001928E-02 0.  1.
</event>
<event>
 5   0  0.1235252E-06  0.2801537E+04  0.7818609E-02  0.8302791E-01
        1   -1    0    0  501    0  0.00000000000E+00  0.00000000000E+00  0.11666581264E+04  0.11666581264E+04  0.50400001928E-02 0. -1.
       -1   -1    0    0    0  501  0.00000000000E+00  0.00000000000E+00 -0.16818571759E+04  0.16818571759E+04  0.50400001928E-02 0.  1.
    10030    2    1    2    0    0  0.00000000000E+00  0.00000000000E+00 -0.51519904944E+03  0.28485153023E+04  0.28015369651E+04 0.  0.
        1    1    3    3  502    0  0.68389431612E+03  0.10729189612E+04 -0.85333042162E+03  0.15320050070E+04  0.50400001928E-02 0.  1.
       -1    1    3    3    0  502 -0.68389431612E+03 -0.10729189612E+04  0.33813137218E+03  0.13165102953E+04  0.50400001928E-02 0. -1.
</event>
<event>
 5   0  0.3167616E-06  0.2825260E+04  0.7818609E-02  0.8295469E-01
       -2   -1    0    0    0  501  0.00000000000E+00  0.00000000000E+00  0.12130976238E+04  0.12130976238E+04  0.25500000920E-02 0.  1.
        2   -1    0    0  501    0  0.00000000000E+00  0.00000000000E+00 -0.16449813062E+04  0.16449813062E+04  0.25500000920E-02 0. -1.
    10030    2    1    2    0    0  0.00000000000E+00  0.00000000000E+00 -0.43188368238E+03  0.28580789300E+04  0.28252595730E+04 0.  0.
        3    1    3    3  502    0  0.58677468335E+03 -0.82700796280E+03  0.77898492577E+03  0.12786962987E+04  0.10100000352E+00 0.  1.
       -3    1    3    3    0  502 -0.58677468335E+03  0.82700796280E+03 -0.12108686082E+04  0.15793826313E+04  0.10100000352E+00 0. -1.
</event>
<event>
 5   0  0.3162695E-06  0.2809274E+04  0.7818609E-02  0.8300395E-01
       -2   -1    0    0    0  501  0.00000000000E+00  0.00000000000E+00  0.98681080309E+03  0.98681080309E+03  0.25500000920E-02 0.  1.
        2   -1    0    0  501    0  0.00000000000E+00  0.00000000000E+00 -0.19993754532E+04  0.19993754532E+04  0.25500000920E-02 0. -1.
    10030    2    1    2    0    0  0.00000000000E+00  0.00000000000E+00 -0.10125646501E+04  0.29861862563E+04  0.28092741388E+04 0.  0.
        1    1    3    3  502    0 -0.12090031512E+03 -0.13993181393E+04 -0.52460608401E+03  0.14993064012E+04  0.50400001928E-02 0. -1.
       -1    1    3    3    0  502  0.12090031512E+03  0.13993181393E+04 -0.48795856613E+03  0.14868798551E+04  0.50400001928E-02 0.  1.
</event>
<event>
 5   0  0.3162695E-06  0.2829528E+04  0.7818609E-02  0.8294159E-01
       -2   -1    0    0    0  501  0.00000000000E+00  0.00000000000E+00  0.95749904028E+03  0.95749904029E+03  0.25500000920E-02 0.  1.
        2   -1    0    0  501    0  0.00000000000E+00  0.00000000000E+00 -0.20904006646E+04  0.20904006646E+04  0.25500000920E-02 0. -1.
    10030    2    1    2    0    0  0.00000000000E+00  0.00000000000E+00 -0.11329016243E+04  0.30478997049E+04  0.28295276144E+04 0.  0.
        1    1    3    3  502    0  0.44444821938E+03  0.12121405481E+04 -0.11896674662E+04  0.17555989315E+04  0.50400001928E-02 0. -1.
       -1    1    3    3    0  502 -0.44444821938E+03 -0.12121405481E+04  0.56765841898E+02  0.12923007734E+04  0.50400001928E-02 0.  1.
</event>
<event>
 5   0  0.3226364E-06  0.2856279E+04  0.7818609E-02  0.8286006E-01
       -2   -1    0    0    0  501  0.00000000000E+00  0.00000000000E+00  0.88197976069E+03  0.88197976069E+03  0.25500000920E-02 0. -1.
        2   -1    0    0  501    0  0.00000000000E+00  0.00000000000E+00 -0.23125045102E+04  0.23125045102E+04  0.25500000920E-02 0.  1.
    10030    2    1    2    0    0  0.00000000000E+00  0.00000000000E+00 -0.14305247495E+04  0.31944842709E+04  0.28562788201E+04 0.  0.
        5    1    3    3  502    0  0.67214363752E+03  0.11777683337E+03 -0.21183678753E+04  0.22255680167E+04  0.46999998093E+01 0.  1.
       -5    1    3    3    0  502 -0.67214363752E+03 -0.11777683337E+03  0.68784312578E+03  0.96891625418E+03  0.46999998093E+01 0. -1.
</event>
<event>
 5   0  0.1243055E-06  0.2798475E+04  0.7818609E-02  0.8303742E-01
       -1   -1    0    0    0  501  0.00000000000E+00  0.00000000000E+00  0.12704831427E+04  0.12704831427E+04  0.50400001928E-02 0. -1.
        1   -1    0    0  501    0  0.00000000000E+00  0.00000000000E+00 -0.15410396724E+04  0.15410396724E+04  0.50400001928E-02 0.  1.
    10030    2    1    2    0    0  0.00000000000E+00  0.00000000000E+00 -0.27055652970E+03  0.28115228151E+04  0.27984745316E+04 0.  0.
        5    1    3    3  502    0  0.97165966590E+01 -0.52470686439E+02  0.12694525410E+04  0.12705823189E+04  0.46999998093E+01 0. -1.
       -5    1    3    3    0  502 -0.97165966590E+01  0.52470686439E+02 -0.15400090707E+04  0.15409404962E+04  0.46999998093E+01 0.  1.
</event>
<event>
 5   0  0.3167616E-06  0.2814670E+04  0.7818609E-02  0.8298728E-01
       -2   -1    0    0    0  501  0.00000000000E+00  0.00000000000E+00  0.59575931905E+03  0.59575931906E+03  0.25500000920E-02 0. -1.
        2   -1    0    0  501    0  0.00000000000E+00  0.00000000000E+00 -0.33244822083E+04  0.33244822083E+04  0.25500000920E-02 0.  1.
    10030    2    1    2    0    0  0.00000000000E+00  0.00000000000E+00 -0.27287228892E+04  0.39202415273E+04  0.28146696123E+04 0.  0.
        3    1    3    3  502    0  0.47225944269E+03  0.13026725421E+04 -0.17072437310E+04  0.21987873705E+04  0.10100000352E+00 0. -1.
       -3    1    3    3    0  502 -0.47225944269E+03 -0.13026725421E+04 -0.10214791582E+04  0.17214541568E+04  0.10100000352E+00 0.  1.
</event>
<event>
 5   0  0.1246044E-06  0.2792400E+04  0.7818609E-02  0.8305632E-01
       -1   -1    0    0    0  501  0.00000000000E+00  0.00000000000E+00  0.11183684959E+04  0.11183684959E+04  0.50400001928E-02 0.  1.
        1   -1    0    0  501    0  0.00000000000E+00  0.00000000000E+00 -0.17430518856E+04  0.17430518856E+04  0.50400001928E-02 0. -1.
    10030    2    1    2    0    0  0.00000000000E+00  0.00000000000E+00 -0.62468338971E+03  0.28614203816E+04  0.27923999110E+04 0.  0.
        2    1    3    3  502    0  0.50806907193E+03 -0.25048534785E+03  0.99532650352E+03  0.11452300817E+04  0.25500000920E-02 0.  1.
       -2    1    3    3    0  502 -0.50806907193E+03  0.25048534785E+03 -0.16200098932E+04  0.17161902999E+04  0.25500000920E-02 0. -1.
</event>
<event>
 5   0  0.1235252E-06  0.2824168E+04  0.7818609E-02  0.8295804E-01
       -1   -1    0    0    0  501  0.00000000000E+00  0.00000000000E+00  0.15494393133E+04  0.15494393133E+04  0.50400001928E-02 0. -1.
        1   -1    0    0  501    0  0.00000000000E+00  0.00000000000E+00 -0.12869048094E+04  0.12869048094E+04  0.50400001928E-02 0.  1.
    10030    2    1    2    0    0  0.00000000000E+00  0.00000000000E+00  0.26253450390E+03  0.28363441228E+04  0.28241677742E+04 0.  0.
        1    1    3    3  502    0  0.12169033900E+04 -0.71468141309E+03  0.82503596958E+02  0.14136584546E+04  0.50400001928E-02 0.  1.
       -1    1    3    3    0  502 -0.12169033900E+04  0.71468141309E+03  0.18003090694E+03  0.14226856681E+04  0.50400001928E-02 0. -1.
</event>
<event>
 5   0  0.1263513E-06  0.2797853E+04  0.7818609E-02  0.8303935E-01
       -1   -1    0    0    0  501  0.00000000000E+00  0.00000000000E+00  0.13449153790E+04  0.13449153790E+04  0.50400001928E-02 0. -1.
        1   -1    0    0  501    0  0.00000000000E+00  0.00000000000E+00 -0.14551065719E+04  0.14551065719E+04  0.50400001928E-02 0.  1.
    10030    2    1    2    0    0  0.00000000000E+00  0.00000000000E+00 -0.11019119286E+03  0.28000219509E+04  0.27978528958E+04 0.  0.
        3    1    3    3  502    0  0.99528967086E+03  0.93660604568E+03  0.24373727390E+03  0.13882507996E+04  0.10100000352E+00 0. -1.
       -3    1    3    3    0  502 -0.99528967086E+03 -0.93660604568E+03 -0.35392846677E+03  0.14117711513E+04  0.10100000352E+00 0.  1.
</event>
<event>
 5   0  0.1263513E-06  0.2802260E+04  0.7818609E-02  0.8302567E-01
       -1   -1    0    0    0  501  0.00000000000E+00  0.00000000000E+00  0.12641663523E+04  0.12641663523E+04  0.50400001928E-02 0. -1.
        1   -1    0    0  501    0  0.00000000000E+00  0.00000000000E+00 -0.15529327380E+04  0.15529327380E+04  0.50400001928E-02 0.  1.
    10030    2    1    2    0    0  0.00000000000E+00  0.00000000000E+00 -0.28876638571E+03  0.28170990904E+04  0.28022600271E+04 0.  0.
        3    1    3    3  502    0  0.78143292227E+02 -0.27148575915E+03  0.12352375600E+04  0.12671316945E+04  0.10100000352E+00 0. -1.
       -3    1    3    3    0  502 -0.78143292227E+02  0.27148575915E+03 -0.15240039457E+04  0.15499673958E+04  0.10100000352E+00 0.  1.
</event>
<event>
 5   0  0.3345919E-06  0.2795254E+04  0.7818609E-02  0.8304743E-01
       -2   -1    0    0    0  501  0.00000000000E+00  0.00000000000E+00  0.17838414918E+04  0.17838414918E+04  0.25500000920E-02 0. -1.
        2   -1    0    0  501    0  0.00000000000E+00  0.00000000000E+00 -0.10950303608E+04  0.10950303608E+04  0.25500000920E-02 0.  1.
    10030    2    1    2    0    0  0.00000000000E+00  0.00000000000E+00  0.68881113105E+03  0.28788718526E+04  0.27952535429E+04 0.  0.
        2    1    3    3  502    0 -0.12585691814E+04 -0.32493468543E+03  0.87336628668E+03  0.15659973195E+04  0.25500000920E-02 0. -1.
       -2    1    3    3    0  502  0.12585691814E+04  0.32493468543E+03 -0.18455515563E+03  0.13128745331E+04  0.25500000920E-02 0.  1.
</event>
<event>
 5   0  0.1243055E-06  0.2791709E+04  0.7818609E-02  0.8305847E-01
        1   -1    0    0  501    0  0.00000000000E+00  0.00000000000E+00  0.28625258873E+04  0.28625258873E+04  0.50400001928E-02 0. -1.
       -1   -1    0    0    0  501  0.00000000000E+00  0.00000000000E+00 -0.68066117405E+03  0.68066117407E+03  0.50400001928E-02 0.  1.
    10030    2    1    2    0    0  0.00000000000E+00  0.00000000000E+00  0.21818647133E+04  0.35431870614E+04  0.27917093196E+04 0.  0.
        5    1    3    3  502    0  0.18852086573E+03  0.13676747260E+04  0.13520073347E+04  0.19323613006E+04  0.46999998093E+01 0.  1.
       -5    1    3    3    0  502 -0.18852086573E+03 -0.13676747260E+04  0.82985737859E+03  0.16108257608E+04  0.46999998093E+01 0. -1.
</event>
<event>
 5   0  0.3226364E-06  0.2867896E+04  0.7818609E-02  0.8282494E-01
       -2   -1    0    0    0  501  0.00000000000E+00  0.00000000000E+00  0.19144555905E+04  0.19144555905E+04  0.25500000920E-02 0.  1.
        2   -1    0    0  501    0  0.00000000000E+00  0.00000000000E+00 -0.10740425305E+04  0.10740425305E+04  0.25500000920E-02 0. -1.
    10030    2    1    2    0    0  0.00000000000E+00  0.00000000000E+00  0.84041305994E+03  0.29884981210E+04  0.28678959025E+04 0.  0.
        5    1    3    3  502    0 -0.20282197583E+03 -0.48410742256E+03 -0.97033353274E+03  0.11032071452E+04  0.46999998093E+01 0. -1.
       -5    1    3    3    0  502  0.20282197583E+03  0.48410742256E+03  0.18107465927E+04  0.18852909758E+04  0.46999998093E+01 0.  1.
</event>
<event>
 5   0  0.1246044E-06  0.2811913E+04  0.7818609E-02  0.8299579E-01
        1   -1    0    0  501    0  0.00000000000E+00  0.00000000000E+00  0.20899410083E+04  0.20899410083E+04  0.50400001928E-02 0.  1.
       -1   -1    0    0    0  501  0.00000000000E+00  0.00000000000E+00 -0.94582269186E+03  0.94582269188E+03  0.50400001928E-02 0. -1.
    10030    2    1    2    0    0  0.00000000000E+00  0.00000000000E+00  0.11441183165E+04  0.30357637002E+04  0.28119129648E+04 0.  0.
        2    1    3    3  502    0 -0.34087777996E+03 -0.75039980046E+01  0.20446300729E+04  0.20728642276E+04  0.25500000920E-02 0.  1.
       -2    1    3    3    0  502  0.34087777996E+03  0.75039980046E+01 -0.90051175646E+03  0.96289947263E+03  0.25500000920E-02 0. -1.
</event>
<event>
 5   0  0.1246044E-06  0.2768985E+04  0.7818609E-02  0.8312963E-01
        1   -1    0    0  501    0  0.00000000000E+00  0.00000000000E+00  0.12316460135E+04  0.12316460136E+04  0.50400001928E-02 0. -1.
       -1   -1    0    0    0  501  0.00000000000E+00  0.00000000000E+00 -0.15563068596E+04  0.15563068596E+04  0.50400001928E-02 0.  1.
    10030    2    1    2    0    0  0.00000000000E+00  0.00000000000E+00 -0.32466084604E+03  0.27879528731E+04  0.27689847522E+04 0.  0.
        2    1    3    3  502    0 -0.32050419366E+03  0.50615522661E+02 -0.15174828312E+04  0.15517857495E+04  0.25500000920E-02 0.  1.
       -2    1    3    3    0  502  0.32050419366E+03 -0.50615522661E+02  0.11928219852E+04  0.12361671237E+04  0.25500000920E-02 0. -1.
</event>
<event>
 5   0  0.1235252E-06  0.2825272E+04  0.7818609E-02  0.8295465E-01
       -1   -1    0    0    0  501  0.00000000000E+00  0.00000000000E+00  0.19704866322E+04  0.19704866322E+04  0.50400001928E-02 0. -1.
        1   -1    0    0  501    0  0.00000000000E+00  0.00000000000E+00 -0.10127148783E+04  0.10127148783E+04  0.50400001928E-02 0.  1.
    10030    2    1    2    0    0  0.00000000000E+00  0.00000000000E+00  0.95777175388E+03  0.29832015104E+04  0.28252724682E+04 0.  0.
        1    1    3    3  502    0  0.13419045097E+04  0.95397425316E+01  0.12921707128E+02  0.13420006298E+04  0.50400001928E-02 0. -1.
       -1    1    3    3    0  502 -0.13419045097E+04 -0.95397425316E+01  0.94485004676E+03  0.16412008807E+04  0.50400001928E-02 0.  1.
</event>
<event>
 5   0  0.1246044E-06  0.2699253E+04  0.7818609E-02  0.8335247E-01
        1   -1    0    0  501    0  0.00000000000E+00  0.00000000000E+00  0.13957316744E+04  0.13957316744E+04  0.50400001928E-02 0.  1.
       -1   -1    0    0    0  501  0.00000000000E+00  0.00000000000E+00 -0.13050441290E+04  0.13050441290E+04  0.50400001928E-02 0. -1.
    10030    2    1    2    0    0  0.00000000000E+00  0.00000000000E+00  0.90687545370E+02  0.27007758034E+04  0.26992528058E+04 0.  0.
        2    1    3    3  502    0 -0.10512231913E+04 -0.13399621708E+03 -0.79087070688E+03  0.13223092147E+04  0.25500000920E-02 0. -1.
       -2    1    3    3    0  502  0.10512231913E+04  0.13399621708E+03  0.88155825225E+03  0.13784665888E+04  0.25500000920E-02 0.  1.
</event>
<event>
 5   0  0.3162695E-06  0.2799732E+04  0.7818609E-02  0.8303351E-01
       -2   -1    0    0    0  501  0.00000000000E+00  0.00000000000E+00  0.12196013925E+04  0.12196013925E+04  0.25500000920E-02 0.  1.
        2   -1    0    0  501    0  0.00000000000E+00  0.00000000000E+00 -0.16067752266E+04  0.16067752266E+04  0.25500000920E-02 0. -1.
    10030    2    1    2    0    0  0.00000000000E+00  0.00000000000E+00 -0.38717383412E+03  0.28263766191E+04  0.27997323470E+04 0.  0.
        1    1    3    3  502    0  0.56751056237E+03  0.58759787510E+03 -0.13411928989E+04  0.15703941840E+04  0.50400001928E-02 0. -1.
       -1    1    3    3    0  502 -0.56751056237E+03 -0.58759787510E+03  0.95401906475E+03  0.12559824351E+04  0.50400001928E-02 0.  1.
</event>
<event>
 5   0  0.3162695E-06  0.2801042E+04  0.7818609E-02  0.8302945E-01
        2   -1    0    0  501    0  0.00000000000E+00  0.00000000000E+00  0.29412956139E+04  0.29412956139E+04  0.25500000920E-02 0. -1.
       -2   -1    0    0    0  501  0.00000000000E+00  0.00000000000E+00 -0.66686907125E+03  0.66686907125E+03  0.25500000920E-02 0.  1.
    10030    2    1    2    0    0  0.00000000000E+00  0.00000000000E+00  0.22744265426E+04  0.36081646852E+04  0.28010420021E+04 0.  0.
        1    1    3    3  502    0 -0.11503832778E+04  0.79873720685E+03  0.11498517836E+04  0.18120490986E+04  0.50400001928E-02 0.  1.
       -1    1    3    3    0  502  0.11503832778E+04 -0.79873720685E+03  0.11245747591E+04  0.17961155866E+04  0.50400001928E-02 0. -1.
</event>
<event>
 5   0  0.1220265E-06  0.2835773E+04  0.7818609E-02  0.8292248E-01
       -1   -1    0    0    0  501  0.00000000000E+00  0.00000000000E+00  0.11831189645E+04  0.11831189645E+04  0.50400001928E-02 0. -1.
        1   -1    0    0  501    0  0.00000000000E+00  0.00000000000E+00 -0.16992389085E+04  0.16992389085E+04  0.50400001928E-02 0.  1.
    10030    2    1    2    0    0  0.00000000000E+00  0.00000000000E+00 -0.51611994401E+03  0.28823578730E+04  0.28357727539E+04 0.  0.
        4    1    3    3  502    0 -0.10109552258E+04 -0.76944286327E+03  0.38182736026E+03  0.13265996134E+04  0.12699999809E+01 0. -1.
       -4    1    3    3    0  502  0.10109552258E+04  0.76944286327E+03 -0.89794730428E+03  0.15557582597E+04  0.12699999809E+01 0.  1.
</event>
<event>
 5   0  0.3226364E-06  0.2827098E+04  0.7818609E-02  0.8294905E-01
       -2   -1    0    0    0  501  0.00000000000E+00  0.00000000000E+00  0.14363007678E+04  0.14363007678E+04  0.25500000920E-02 0.  1.
        2   -1    0    0  501    0  0.00000000000E+00  0.00000000000E+00 -0.13911572100E+04  0.13911572100E+04  0.25500000920E-02 0. -1.
    10030    2    1    2    0    0  0.00000000000E+00  0.00000000000E+00  0.45143557775E+02  0.28274579778E+04  0.28270975709E+04 0.  0.
        5    1    3    3  502    0  0.38193956946E+03  0.13605677349E+04 -0.10230009989E+02  0.14132052713E+04  0.46999998093E+01 0.  1.
       -5    1    3    3    0  502 -0.38193956946E+03 -0.13605677349E+04  0.55373567764E+02  0.14142527065E+04  0.46999998093E+01 0. -1.
</event>
<event>
 5   0  0.1243055E-06  0.2799286E+04  0.7818609E-02  0.8303490E-01
        1   -1    0    0  501    0  0.00000000000E+00  0.00000000000E+00  0.13914405557E+04  0.13914405557E+04  0.50400001928E-02 0. -1.
       -1   -1    0    0    0  501  0.00000000000E+00  0.00000000000E+00 -0.14078935018E+04  0.14078935018E+04  0.50400001928E-02 0.  1.
    10030    2    1    2    0    0  0.00000000000E+00  0.00000000000E+00 -0.16452946140E+02  0.27993340575E+04  0.27992857064E+04 0.  0.
        5    1    3    3  502    0  0.10432862503E+04 -0.41179500435E+03  0.82901955759E+03  0.13947461570E+04  0.46999998093E+01 0. -1.
       -5    1    3    3    0  502 -0.10432862503E+04  0.41179500435E+03 -0.84547250373E+03  0.14045879005E+04  0.46999998093E+01 0.  1.
</event>
<event>
 5   0  0.1246044E-06  0.2811664E+04  0.7818609E-02  0.8299656E-01
       -1   -1    0    0    0  501  0.00000000000E+00  0.00000000000E+00  0.13216663829E+04  0.13216663829E+04  0.50400001928E-02 0. -1.
        1   -1    0    0  501    0  0.00000000000E+00  0.00000000000E+00 -0.14953577263E+04  0.14953577263E+04  0.50400001928E-02 0.  1.
    10030    2    1    2    0    0  0.00000000000E+00  0.00000000000E+00 -0.17369134337E+03  0.28170241092E+04  0.28116643023E+04 0.  0.
        2    1    3    3  502    0 -0.67684985726E+03 -0.47534449868E+03 -0.12258002439E+04  0.14787374208E+04  0.25500000920E-02 0.  1.
       -2    1    3    3    0  502  0.67684985726E+03  0.47534449868E+03  0.10521089005E+04  0.13382866884E+04  0.25500000920E-02 0. -1.
</event>
<event>
 5   0  0.3226364E-06  0.2795992E+04  0.7818609E-02  0.8304514E-01
        2   -1    0    0  501    0  0.00000000000E+00  0.00000000000E+00  0.14031923898E+04  0.14031923898E+04  0.25500000920E-02 0.  1.
       -2   -1    0    0    0  501  0.00000000000E+00  0.00000000000E+00 -0.13928193452E+04  0.13928193452E+04  0.25500000920E-02 0. -1.
    10030    2    1    2    0    0  0.00000000000E+00  0.00000000000E+00  0.10373044665E+02  0.27960117350E+04  0.27959924933E+04 0.  0.
        5    1    3    3  502    0 -0.13855323766E+04 -0.14607765174E+03  0.12065492511E+03  0.13984342487E+04  0.46999998093E+01 0. -1.
       -5    1    3    3    0  502  0.13855323766E+04  0.14607765174E+03 -0.11028188044E+03  0.13975774863E+04  0.46999998093E+01 0.  1.
</event>
<event>
 5   0  0.3162695E-06  0.2845139E+04  0.7818609E-02  0.8289390E-01
       -2   -1    0    0    0  501  0.00000000000E+00  0.00000000000E+00  0.10406798283E+04  0.10406798283E+04  0.25500000920E-02 0.  1.
        2   -1    0    0  501    0  0.00000000000E+00  0.00000000000E+00 -0.19445982010E+04  0.19445982010E+04  0.25500000920E-02 0. -1.
    10030    2    1    2    0    0  0.00000000000E+00  0.00000000000E+00 -0.90391837273E+03  0.29852780293E+04  0.28451390981E+04 0.  0.
        1    1    3    3  502    0 -0.41750322069E+03 -0.10486537252E+04  0.45655348229E+03  0.12175486261E+04  0.50400001928E-02 0.  1.
       -1    1    3    3    0  502  0.41750322069E+03  0.10486537252E+04 -0.13604718550E+04  0.17677294032E+04  0.50400001928E-02 0. -1.
</event>
<event>
 5   0  0.1220265E-06  0.2833286E+04  0.7818609E-02  0.8293008E-01
        1   -1    0    0  501    0  0.00000000000E+00  0.00000000000E+00  0.21719206801E+04  0.21719206801E+04  0.50400001928E-02 0. -1.
       -1   -1    0    0    0  501  0.00000000000E+00  0.00000000000E+00 -0.92401057698E+03  0.92401057699E+03  0.50400001928E-02 0.  1.
    10030    2    1    2    0    0  0.00000000000E+00  0.00000000000E+00  0.12479101032E+04  0.30959312571E+04  0.28332862057E+04 0.  0.
        4    1    3    3  502    0  0.42492457508E+03 -0.12877646024E+04  0.17611140097E+03  0.13674485015E+04  0.12699999809E+01 0.  1.
       -4    1    3    3    0  502 -0.42492457508E+03  0.12877646024E+04  0.10717987022E+04  0.17284827557E+04  0.12699999809E+01 0. -1.
</event>
<event>
 5   0  0.1065675E-06  0.2750183E+04  0.7818609E-02  0.8318904E-01
       -3   -1    0    0    0  501  0.00000000000E+00  0.00000000000E+00  0.23260928823E+04  0.23260928845E+04  0.10100000352E+00 0.  1.
        3   -1    0    0  501    0  0.00000000000E+00  0.00000000000E+00 -0.81289802624E+03  0.81289803252E+03  0.10100000352E+00 0. -1.
    10030    2    1    2    0    0  0.00000000000E+00  0.00000000000E+00  0.15131948560E+04  0.31389909170E+04  0.27501827766E+04 0.  0.
        4    1    3    3  502    0  0.41694096343E+03 -0.45404822897E+03  0.21595493570E+04  0.22458082285E+04  0.12699999809E+01 0.  1.
       -4    1    3    3    0  502 -0.41694096343E+03  0.45404822897E+03 -0.64635450093E+03  0.89318268847E+03  0.12699999809E+01 0. -1.
</event>
<event>
 5   0  0.1243055E-06  0.2799099E+04  0.7818609E-02  0.8303548E-01
        1   -1    0    0  501    0  0.00000000000E+00  0.00000000000E+00  0.30107664787E+04  0.30107664787E+04  0.50400001928E-02 0.  1.
       -1   -1    0    0    0  501  0.00000000000E+00  0.00000000000E+00 -0.65057800869E+03  0.65057800871E+03  0.50400001928E-02 0. -1.
    10030    2    1    2    0    0  0.00000000000E+00  0.00000000000E+00  0.23601884700E+04  0.36613444874E+04  0.27990987552E+04 0.  0.
        5    1    3    3  502    0 -0.43887588515E+03 -0.12395409384E+04  0.18069225258E+04  0.22347404514E+04  0.46999998093E+01 0. -1.
       -5    1    3    3    0  502  0.43887588515E+03  0.12395409384E+04  0.55326594419E+03  0.14266040360E+04  0.46999998093E+01 0.  1.
</event>
<event>
 5   0  0.1263513E-06  0.2799412E+04  0.7818609E-02  0.8303451E-01
       -1   -1    0    0    0  501  0.00000000000E+00  0.00000000000E+00  0.23160071769E+04  0.23160071770E+04  0.50400001928E-02 0. -1.
        1   -1    0    0  501    0  0.00000000000E+00  0.00000000000E+00 -0.84592889268E+03  0.84592889270E+03  0.50400001928E-02 0.  1.
    10030    2    1    2    0    0  0.00000000000E+00  0.00000000000E+00  0.14700782843E+04  0.31619360697E+04  0.27994123574E+04 0.  0.
        3    1    3    3  502    0 -0.35488867397E+03  0.63006417393E+03  0.20886733230E+04  0.22103128951E+04  0.10100000352E+00 0. -1.
       -3    1    3    3    0  502  0.35488867397E+03 -0.63006417393E+03 -0.61859503869E+03  0.95162317451E+03  0.10100000352E+00 0.  1.
</event>
<event>
 5   0  0.1243055E-06  0.2797245E+04  0.7818609E-02  0.8304124E-01
        1   -1    0    0  501    0  0.00000000000E+00  0.00000000000E+00  0.18647722733E+04  0.18647722733E+04  0.50400001928E-02 0. -1.
       -1   -1    0    0    0  501  0.00000000000E+00  0.00000000000E+00 -0.10489991222E+04  0.10489991222E+04  0.50400001928E-02 0.  1.
    10030    2    1    2    0    0  0.00000000000E+00  0.00000000000E+00  0.81577315117E+03  0.29137713955E+04  0.27972446999E+04 0.  0.
        5    1    3    3  502    0 -0.19158992875E+03  0.41238740240E+03  0.17856151257E+04  0.18426105225E+04  0.46999998093E+01 0. -1.
       -5    1    3    3    0  502  0.19158992875E+03 -0.41238740240E+03 -0.96984197450E+03  0.10711608731E+04  0.46999998093E+01 0.  1.
</event>
<event>
 5   0  0.1220265E-06  0.2797794E+04  0.7818609E-02  0.8303953E-01
       -1   -1    0    0    0  501  0.00000000000E+00  0.00000000000E+00  0.99267748113E+03  0.99267748114E+03  0.50400001928E-02 0.  1.
        1   -1    0    0  501    0  0.00000000000E+00  0.00000000000E+00 -0.19713484969E+04  0.19713484969E+04  0.50400001928E-02 0. -1.
    10030    2    1    2    0    0  0.00000000000E+00  0.00000000000E+00 -0.97867101573E+03  0.29640259780E+04  0.27977943172E+04 0.  0.
        4    1    3    3  502    0 -0.52958905087E+03  0.49303013819E+03  0.77903206388E+03  0.10632195678E+04  0.12699999809E+01 0.  1.
       -4    1    3    3    0  502  0.52958905087E+03 -0.49303013819E+03 -0.17577030796E+04  0.19008064102E+04  0.12699999809E+01 0. -1.
</event>
<event>
 5   0  0.1243055E-06  0.2782816E+04  0.7818609E-02  0.8308623E-01
       -1   -1    0    0    0  501  0.00000000000E+00  0.00000000000E+00  0.11489327405E+04  0.11489327405E+04  0.50400001928E-02 0. -1.
        1   -1    0    0  501    0  0.00000000000E+00  0.00000000000E+00 -0.16850564218E+04  0.16850564218E+04  0.50400001928E-02 0.  1.
    10030    2    1    2    0    0  0.00000000000E+00  0.00000000000E+00 -0.53612368124E+03  0.28339891623E+04  0.27828161942E+04 0.  0.
        5    1    3    3  502    0  0.69648592565E+03 -0.28166613328E+03 -0.14607365500E+04  0.16426204107E+04  0.46999998093E+01 0.  1.
       -5    1    3    3    0  502 -0.69648592565E+03  0.28166613328E+03  0.92461286873E+03  0.11913687516E+04  0.46999998093E+01 0. -1.
</event>
<event>
 5   0  0.3212679E-06  0.2799711E+04  0.7818609E-02  0.8303358E-01
        2   -1    0    0  501    0  0.00000000000E+00  0.00000000000E+00  0.14967847692E+04  0.14967847692E+04  0.25500000920E-02 0. -1.
       -2   -1    0    0    0  501  0.00000000000E+00  0.00000000000E+00 -0.13092027504E+04  0.13092027504E+04  0.25500000920E-02 0.  1.
    10030    2    1    2    0    0  0.00000000000E+00  0.00000000000E+00  0.18758201877E+03  0.28059875196E+04  0.27997105111E+04 0.  0.
        4    1    3    3  502    0  0.60590177821E+03 -0.48152990506E+03 -0.10752739836E+04  0.13248410346E+04  0.12699999809E+01 0.  1.
       -4    1    3    3    0  502 -0.60590177821E+03  0.48152990506E+03  0.12628560024E+04  0.14811464850E+04  0.12699999809E+01 0. -1.
</event>
<event>
 5   0  0.1243055E-06  0.2800465E+04  0.7818609E-02  0.8303124E-01
        1   -1    0    0  501    0  0.00000000000E+00  0.00000000000E+00  0.20122719122E+04  0.20122719122E+04  0.50400001928E-02 0. -1.
       -1   -1    0    0    0  501  0.00000000000E+00  0.00000000000E+00 -0.97434714838E+03  0.97434714839E+03  0.50400001928E-02 0.  1.
    10030    2    1    2    0    0  0.00000000000E+00  0.00000000000E+00  0.10379247638E+04  0.29866190606E+04  0.28004652466E+04 0.  0.
        5    1    3    3  502    0  0.94687567019E+03  0.28300216282E+03 -0.53892537681E+03  0.11256670959E+04  0.46999998093E+01 0.  1.
       -5    1    3    3    0  502 -0.94687567019E+03 -0.28300216282E+03  0.15768501406E+04  0.18609519647E+04  0.46999998093E+01 0. -1.
</event>
<event>
 5   0  0.3167616E-06  0.2804927E+04  0.7818609E-02  0.8301740E-01
       -2   -1    0    0    0  501  0.00000000000E+00  0.00000000000E+00  0.33443495089E+04  0.33443495089E+04  0.25500000920E-02 0.  1.
        2   -1    0    0  501    0  0.00000000000E+00  0.00000000000E+00 -0.58812729692E+03  0.58812729693E+03  0.25500000920E-02 0. -1.
    10030    2    1    2    0    0  0.00000000000E+00  0.00000000000E+00  0.27562222119E+04  0.39324768058E+04  0.28049265492E+04 0.  0.
        3    1    3    3  502    0  0.52169186175E+03  0.59647725945E+03 -0.24417624478E+03  0.82919814783E+03  0.10100000352E+00 0. -1.
       -3    1    3    3    0  502 -0.52169186175E+03 -0.59647725945E+03  0.30003984567E+04  0.31032786580E+04  0.10100000352E+00 0.  1.
</event>
<event>
 5   0  0.3167616E-06  0.2801391E+04  0.7818609E-02  0.8302837E-01
       -2   -1    0    0    0  501  0.00000000000E+00  0.00000000000E+00  0.11065235894E+04  0.11065235894E+04  0.25500000920E-02 0. -1.
        2   -1    0    0  501    0  0.00000000000E+00  0.00000000000E+00 -0.17730732029E+04  0.17730732029E+04  0.25500000920E-02 0.  1.
    10030    2    1    2    0    0  0.00000000000E+00  0.00000000000E+00 -0.66654961350E+03  0.28795967922E+04  0.28013906009E+04 0.  0.
        3    1    3    3  502    0  0.84472880255E+03  0.16324613604E+03  0.80290183793E+03  0.11768039014E+04  0.10100000352E+00 0. -1.
       -3    1    3    3    0  502 -0.84472880255E+03 -0.16324613604E+03 -0.14694514514E+04  0.17027928908E+04  0.10100000352E+00 0.  1.
</event>
<event>
 5   0  0.1246044E-06  0.2802945E+04  0.7818609E-02  0.8302355E-01
        1   -1    0    0  501    0  0.00000000000E+00  0.00000000000E+00  0.20122099834E+04  0.20122099834E+04  0.50400001928E-02 0.  1.
       -1   -1    0    0    0  501  0.00000000000E+00  0.00000000000E+00 -0.97610318269E+03  0.97610318270E+03  0.50400001928E-02 0. -1.
    10030    2    1    2    0    0  0.00000000000E+00  0.00000000000E+00  0.10361068007E+04  0.29883131661E+04  0.28029445725E+04 0.  0.
        2    1    3    3  502    0  0.12023359501E+04 -0.10326758791E+03 -0.24171065710E+03  0.12307314790E+04  0.25500000920E-02 0. -1.
       -2    1    3    3    0  502 -0.12023359501E+04  0.10326758791E+03  0.12778174578E+04  0.17575816872E+04  0.25500000920E-02 0.  1.
</event>
<event>
 5   0  0.3226364E-06  0.2806420E+04  0.7818609E-02  0.8301278E-01
        2   -1    0    0  501    0  0.00000000000E+00  0.00000000000E+00  0.12169644260E+04  0.12169644260E+04  0.25500000920E-02 0. -1.
       -2   -1    0    0    0  501  0.00000000000E+00  0.00000000000E+00 -0.16179593769E+04  0.16179593769E+04  0.25500000920E-02 0.  1.
    10030    2    1    2    0    0  0.00000000000E+00  0.00000000000E+00 -0.40099495086E+03  0.28349238028E+04  0.28064204990E+04 0.  0.
        5    1    3    3  502    0 -0.75171573226E+03 -0.10253493749E+04  0.39929991058E+03  0.13326216235E+04  0.46999998093E+01 0. -1.
       -5    1    3    3    0  502  0.75171573226E+03  0.10253493749E+04 -0.80029486145E+03  0.15023021793E+04  0.46999998093E+01 0.  1.
</event>
<event>
 5   0  0.1243055E-06  0.2780547E+04  0.7818609E-02  0.8309333E-01
        1   -1    0    0  501    0  0.00000000000E+00  0.00000000000E+00  0.13836492538E+04  0.13836492538E+04  0.50400001928E-02 0.  1.
       -1   -1    0    0    0  501  0.00000000000E+00  0.00000000000E+00 -0.13969295779E+04  0.13969295779E+04  0.50400001928E-02 0. -1.
    10030    2    1    2    0    0  0.00000000000E+00  0.00000000000E+00 -0.13280324119E+02  0.27805788316E+04  0.27805471174E+04 0.  0.
        5    1    3    3  502    0  0.10482592595E+04  0.69829392799E+03  0.58190422403E+03  0.13874784686E+04  0.46999998093E+01 0.  1.
       -5    1    3    3    0  502 -0.10482592595E+04 -0.69829392799E+03 -0.59518454814E+03  0.13931003630E+04  0.46999998093E+01 0. -1.
</event>
<event>
 5   0  0.1246044E-06  0.2797678E+04  0.7818609E-02  0.8303989E-01
       -1   -1    0    0    0  501  0.00000000000E+00  0.00000000000E+00  0.12808082533E+04  0.12808082533E+04  0.50400001928E-02 0.  1.
        1   -1    0    0  501    0  0.00000000000E+00  0.00000000000E+00 -0.15277471819E+04  0.15277471819E+04  0.50400001928E-02 0. -1.
    10030    2    1    2    0    0  0.00000000000E+00  0.00000000000E+00 -0.24693892860E+03  0.28085554351E+04  0.27976784658E+04 0.  0.
        2    1    3    3  502    0  0.69183907065E+01  0.88272600099E+03 -0.12128141416E+04  0.15000570652E+04  0.25500000920E-02 0. -1.
       -2    1    3    3    0  502 -0.69183907065E+01 -0.88272600099E+03  0.96587521299E+03  0.13084983699E+04  0.25500000920E-02 0.  1.
</event>
<event>
 5   0  0.3226364E-06  0.2803248E+04  0.7818609E-02  0.8302261E-01
        2   -1    0    0  501    0  0.00000000000E+00  0.00000000000E+00  0.17094453733E+04  0.17094453733E+04  0.25500000920E-02 0.  1.
       -2   -1    0    0    0  501  0.00000000000E+00  0.00000000000E+00 -0.11492320231E+04  0.11492320231E+04  0.25500000920E-02 0. -1.
    10030    2    1    2    0    0  0.00000000000E+00  0.00000000000E+00  0.56021335024E+03  0.28586773964E+04  0.28032476628E+04 0.  0.
        5    1    3    3  502    0 -0.50617754402E+03  0.10809071949E+04  0.10294501608E+04  0.15761871062E+04  0.46999998093E+01 0.  1.
       -5    1    3    3    0  502  0.50617754402E+03 -0.10809071949E+04 -0.46923681061E+03  0.12824902902E+04  0.46999998093E+01 0. -1.
</event>
<event>
 5   0  0.3162695E-06  0.2801740E+04  0.7818609E-02  0.8302728E-01
       -2   -1    0    0    0  501  0.00000000000E+00  0.00000000000E+00  0.90925929840E+03  0.90925929841E+03  0.25500000920E-02 0. -1.
        2   -1    0    0  501    0  0.00000000000E+00  0.00000000000E+00 -0.21582801797E+04  0.21582801797E+04  0.25500000920E-02 0.  1.
    10030    2    1    2    0    0  0.00000000000E+00  0.00000000000E+00 -0.12490208813E+04  0.30675394781E+04  0.28017396895E+04 0.  0.
        1    1    3    3  502    0 -0.59774742997E+03 -0.12158609758E+04 -0.23461323601E+03  0.13750139174E+04  0.50400001928E-02 0. -1.
       -1    1    3    3    0  502  0.59774742997E+03  0.12158609758E+04 -0.10144076453E+04  0.16925255606E+04  0.50400001928E-02 0.  1.
</event>
<event>
 5   0  0.1246044E-06  0.2796257E+04  0.7818609E-02  0.8304431E-01
        1   -1    0    0  501    0  0.00000000000E+00  0.00000000000E+00  0.93305923183E+03  0.93305923184E+03  0.50400001928E-02 0.  1.
       -1   -1    0    0    0  501  0.00000000000E+00  0.00000000000E+00 -0.20950045480E+04  0.20950045480E+04  0.50400001928E-02 0. -1.
    10030    2    1    2    0    0  0.00000000000E+00  0.00000000000E+00 -0.11619453162E+04  0.30280637798E+04  0.27962570227E+04 0.  0.
        2    1    3    3  502    0  0.87800450914E+03  0.51207414596E+03  0.45863936688E+03  0.11151062361E+04  0.25500000920E-02 0.  1.
       -2    1    3    3    0  502 -0.87800450914E+03 -0.51207414596E+03 -0.16205846830E+04  0.19129575437E+04  0.25500000920E-02 0. -1.
</event>
<event>
 5   0  0.3162695E-06  0.2799367E+04  0.7818609E-02  0.8303465E-01
       -2   -1    0    0    0  501  0.00000000000E+00  0.00000000000E+00  0.11376066002E+04  0.11376066002E+04  0.25500000920E-02 0. -1.
        2   -1    0    0  501    0  0.00000000000E+00  0.00000000000E+00 -0.17221365997E+04  0.17221365997E+04  0.25500000920E-02 0.  1.
    10030    2    1    2    0    0  0.00000000000E+00  0.00000000000E+00 -0.58452999944E+03  0.28597431999E+04  0.27993670444E+04 0.  0.
        1    1    3    3  502    0  0.19166561412E+03  0.16233933487E+03 -0.16989249672E+04  0.17173921543E+04  0.50400001928E-02 0.  1.
       -1    1    3    3    0  502 -0.19166561412E+03 -0.16233933487E+03  0.11143949678E+04  0.11423510457E+04  0.50400001928E-02 0. -1.
</event>
<event>
 5   0  0.1220265E-06  0.2807464E+04  0.7818609E-02  0.8300955E-01
        1   -1    0    0  501    0  0.00000000000E+00  0.00000000000E+00  0.19525331790E+04  0.19525331790E+04  0.50400001928E-02 0.  1.
       -1   -1    0    0    0  501  0.00000000000E+00  0.00000000000E+00 -0.10091830106E+04  0.10091830106E+04  0.50400001928E-02 0. -1.
    10030    2    1    2    0    0  0.00000000000E+00  0.00000000000E+00  0.94335016842E+03  0.29617161896E+04  0.28074638462E+04 0.  0.
        4    1    3    3  502    0 -0.43424762243E+02  0.32819995889E+03 -0.96740912563E+03  0.10224886074E+04  0.12699999809E+01 0. -1.
       -4    1    3    3    0  502  0.43424762243E+02 -0.32819995889E+03  0.19107592941E+04  0.19392275822E+04  0.12699999809E+01 0.  1.
</event>
<event>
 5   0  0.3167616E-06  0.2725039E+04  0.7818609E-02  0.8326926E-01
       -2   -1    0    0    0  501  0.00000000000E+00  0.00000000000E+00  0.15816244113E+04  0.15816244113E+04  0.25500000920E-02 0. -1.
        2   -1    0    0  501    0  0.00000000000E+00  0.00000000000E+00 -0.11737671150E+04  0.11737671150E+04  0.25500000920E-02 0.  1.
    10030    2    1    2    0    0  0.00000000000E+00  0.00000000000E+00  0.40785729625E+03  0.27553915263E+04  0.27250385115E+04 0.  0.
        3    1    3    3  502    0  0.41307826653E+03  0.59118976713E+03  0.13727977064E+04  0.15507135609E+04  0.10100000352E+00 0. -1.
       -3    1    3    3    0  502 -0.41307826653E+03 -0.59118976713E+03 -0.96494041013E+03  0.12046779654E+04  0.10100000352E+00 0.  1.
</event>
<event>
 5   0  0.1220265E-06  0.2819201E+04  0.7818609E-02  0.8297332E-01
        1   -1    0    0  501    0  0.00000000000E+00  0.00000000000E+00  0.12118529453E+04  0.12118529453E+04  0.50400001928E-02 0.  1.
       -1   -1    0    0    0  501  0.00000000000E+00  0.00000000000E+00 -0.16396156380E+04  0.16396156380E+04  0.50400001928E-02 0. -1.
    10030    2    1    2    0    0  0.00000000000E+00  0.00000000000E+00 -0.42776269265E+03  0.28514685833E+04  0.28192006244E+04 0.  0.
        4    1    3    3  502    0  0.13126846499E+03 -0.20411699294E+02  0.12055066449E+04  0.12128049848E+04  0.12699999809E+01 0.  1.
       -4    1    3    3    0  502 -0.13126846499E+03  0.20411699294E+02 -0.16332693375E+04  0.16386635985E+04  0.12699999809E+01 0. -1.
</event>
<event>
 5   0  0.3167616E-06  0.2796840E+04  0.7818609E-02  0.8304250E-01
       -2   -1    0    0    0  501  0.00000000000E+00  0.00000000000E+00  0.17260756283E+04  0.17260756283E+04  0.25500000920E-02 0.  1.
        2   -1    0    0  501    0  0.00000000000E+00  0.00000000000E+00 -0.11329618995E+04  0.11329618995E+04  0.25500000920E-02 0. -1.
    10030    2    1    2    0    0  0.00000000000E+00  0.00000000000E+00  0.59311372885E+03  0.28590375278E+04  0.27968395896E+04 0.  0.
        3    1    3    3  502    0  0.28916245293E+03 -0.98658996626E+03 -0.67247104221E+03  0.12284917576E+04  0.10100000352E+00 0. -1.
       -3    1    3    3    0  502 -0.28916245293E+03  0.98658996626E+03  0.12655847711E+04  0.16305457702E+04  0.10100000352E+00 0.  1.
</event>
<event>
 5   0  0.3212679E-06  0.2802061E+04  0.7818609E-02  0.8302629E-01
        2   -1    0    0  501    0  0.00000000000E+00  0.00000000000E+00  0.25181542593E+04  0.25181542593E+04  0.25500000920E-02 0. -1.
       -2   -1    0    0    0  501  0.00000000000E+00  0.00000000000E+00 -0.77949405437E+03  0.77949405437E+03  0.25500000920E-02 0.  1.
    10030    2    1    2    0    0  0.00000000000E+00  0.00000000000E+00  0.17386602050E+04  0.32976483137E+04  0.28020608652E+04 0.  0.
        4    1    3    3  502    0 -0.69324670185E+03  0.11345387545E+04  0.13891736307E+04  0.19229077368E+04  0.12699999809E+01 0. -1.
       -4    1    3    3    0  502  0.69324670185E+03 -0.11345387545E+04  0.34948657425E+03  0.13747405769E+04  0.12699999809E+01 0.  1.
</event>
<event>
 5   0  0.3345919E-06  0.2795658E+04  0.7818609E-02  0.8304617E-01
       -2   -1    0    0    0  501  0.00000000000E+00  0.00000000000E+00  0.10334908694E+04  0.10334908694E+04  0.25500000920E-02 0. -1.
        2   -1    0    0  501    0  0.00000000000E+00  0.00000000000E+00 -0.18906084788E+04  0.18906084788E+04  0.25500000920E-02 0.  1.
    10030    2    1    2    0    0  0.00000000000E+00  0.00000000000E+00 -0.85711760940E+03  0.29240993482E+04  0.27956584917E+04 0.  0.
        2    1    3    3  502    0 -0.10846164128E+03  0.44786809536E+02  0.10283300549E+04  0.10350036173E+04  0.25500000920E-02 0. -1.
       -2    1    3    3    0  502  0.10846164128E+03 -0.44786809536E+02 -0.18854476643E+04  0.18890957310E+04  0.25500000920E-02 0.  1.
</event>
<event>
 5   0  0.3345919E-06  0.2802227E+04  0.7818609E-02  0.8302577E-01
        2   -1    0    0  501    0  0.00000000000E+00  0.00000000000E+00  0.20811588081E+04  0.20811588081E+04  0.25500000920E-02 0.  1.
       -2   -1    0    0    0  501  0.00000000000E+00  0.00000000000E+00 -0.94328138408E+03  0.94328138408E+03  0.25500000920E-02 0. -1.
    10030    2    1    2    0    0  0.00000000000E+00  0.00000000000E+00  0.11378774241E+04  0.30244401922E+04  0.28022265155E+04 0.  0.
        2    1    3    3  502    0 -0.19010094159E+02  0.13693995429E+04  0.24967436081E+03  0.13921040831E+04  0.25500000920E-02 0. -1.
       -2    1    3    3    0  502  0.19010094159E+02 -0.13693995429E+04  0.88820306326E+03  0.16323361092E+04  0.25500000920E-02 0.  1.
</event>
<event>
 5   0  0.1220265E-06  0.2797765E+04  0.7818609E-02  0.8303962E-01
        1   -1    0    0  501    0  0.00000000000E+00  0.00000000000E+00  0.19884576787E+04  0.19884576787E+04  0.50400001928E-02 0. -1.
       -1   -1    0    0    0  501  0.00000000000E+00  0.00000000000E+00 -0.98411595017E+03  0.98411595018E+03  0.50400001928E-02 0.  1.
    10030    2    1    2    0    0  0.00000000000E+00  0.00000000000E+00  0.10043417285E+04  0.29725736289E+04  0.27977654783E+04 0.  0.
        4    1    3    3  502    0 -0.40614042507E+03  0.11811243274E+04 -0.16716420431E+03  0.12601389629E+04  0.12699999809E+01 0.  1.
       -4    1    3    3    0  502  0.40614042507E+03 -0.11811243274E+04  0.11715059328E+04  0.17124346660E+04  0.12699999809E+01 0. -1.
</event>
<event>
 5   0  0.3345919E-06  0.2794632E+04  0.7818609E-02  0.8304937E-01
        2   -1    0    0  501    0  0.00000000000E+00  0.00000000000E+00  0.25941111651E+04  0.25941111651E+04  0.25500000920E-02 0. -1.
       -2   -1    0    0    0  501  0.00000000000E+00  0.00000000000E+00 -0.75266304848E+03  0.75266304848E+03  0.25500000920E-02 0.  1.
    10030    2    1    2    0    0  0.00000000000E+00  0.00000000000E+00  0.18414481166E+04  0.33467742136E+04  0.27946317236E+04 0.  0.
        2    1    3    3  502    0 -0.57930727116E+02  0.51845936682E+03 -0.63166236234E+03  0.81923954017E+03  0.25500000920E-02 0.  1.
       -2    1    3    3    0  502  0.57930727116E+02 -0.51845936682E+03  0.24731104790E+04  0.25275346734E+04  0.25500000920E-02 0. -1.
</event>
<event>
 5   0  0.3226364E-06  0.2800896E+04  0.7818609E-02  0.8302990E-01
        2   -1    0    0  501    0  0.00000000000E+00  0.00000000000E+00  0.20180768633E+04  0.20180768633E+04  0.25500000920E-02 0.  1.
       -2   -1    0    0    0  501  0.00000000000E+00  0.00000000000E+00 -0.97184345108E+03  0.97184345108E+03  0.25500000920E-02 0. -1.
    10030    2    1    2    0    0  0.00000000000E+00  0.00000000000E+00  0.10462334122E+04  0.29899203144E+04  0.28008961304E+04 0.  0.
        5    1    3    3  502    0 -0.44604565092E+03  0.96577439919E+03  0.14953833968E+04  0.18351758788E+04  0.46999998093E+01 0.  1.
       -5    1    3    3    0  502  0.44604565092E+03 -0.96577439919E+03 -0.44914998456E+03  0.11547444356E+04  0.46999998093E+01 0. -1.
</event>
<event>
 5   0  0.3226364E-06  0.2797846E+04  0.7818609E-02  0.8303937E-01
        2   -1    0    0  501    0  0.00000000000E+00  0.00000000000E+00  0.22083786127E+04  0.22083786127E+04  0.25500000920E-02 0.  1.
       -2   -1    0    0    0  501  0.00000000000E+00  0.00000000000E+00 -0.88616404043E+03  0.88616404043E+03  0.25500000920E-02 0. -1.
    10030    2    1    2    0    0  0.00000000000E+00  0.00000000000E+00  0.13222145723E+04  0.30945426532E+04  0.27978461103E+04 0.  0.
        5    1    3    3  502    0 -0.62078407526E+03 -0.27119810853E+03 -0.69263094533E+03  0.96885550966E+03  0.46999998093E+01 0. -1.
       -5    1    3    3    0  502  0.62078407526E+03  0.27119810853E+03  0.20148455176E+04  0.21256871435E+04  0.46999998093E+01 0.  1.
</event>
<event>
 5   0  0.3167616E-06  0.2795053E+04  0.7818609E-02  0.8304806E-01
        2   -1    0    0  501    0  0.00000000000E+00  0.00000000000E+00  0.19464251641E+04  0.19464251641E+04  0.25500000920E-02 0. -1.
       -2   -1    0    0    0  501  0.00000000000E+00  0.00000000000E+00 -0.10034189857E+04  0.10034189857E+04  0.25500000920E-02 0.  1.
    10030    2    1    2    0    0  0.00000000000E+00  0.00000000000E+00  0.94300617844E+03  0.29498441498E+04  0.27950527465E+04 0.  0.
        3    1    3    3  502    0  0.53991594391E+03 -0.11575272976E+04  0.10701013622E+04  0.16662819709E+04  0.10100000352E+00 0. -1.
       -3    1    3    3    0  502 -0.53991594391E+03  0.11575272976E+04 -0.12709518373E+03  0.12835621789E+04  0.10100000352E+00 0.  1.
</event>
<event>
 5   0  0.1243055E-06  0.2810681E+04  0.7818609E-02  0.8299960E-01
       -1   -1    0    0    0  501  0.00000000000E+00  0.00000000000E+00  0.11676397287E+04  0.11676397287E+04  0.50400001928E-02 0. -1.
        1   -1    0    0  501    0  0.00000000000E+00  0.00000000000E+00 -0.16914309916E+04  0.16914309916E+04  0.50400001928E-02 0.  1.
    10030    2    1    2    0    0  0.00000000000E+00  0.00000000000E+00 -0.52379126292E+03  0.28590707203E+04  0.28106810734E+04 0.  0.
        5    1    3    3  502    0  0.53585047050E+02  0.14707692336E+03 -0.16825273726E+04  0.16897998190E+04  0.46999998093E+01 0.  1.
       -5    1    3    3    0  502 -0.53585047050E+02 -0.14707692336E+03  0.11587361097E+04  0.11692709013E+04  0.46999998093E+01 0. -1.
</event>
<event>
 5   0  0.1235252E-06  0.2800176E+04  0.7818609E-02  0.8303214E-01
        1   -1    0    0  501    0  0.00000000000E+00  0.00000000000E+00  0.18414081026E+04  0.18414081026E+04  0.50400001928E-02 0.  1.
       -1   -1    0    0    0  501  0.00000000000E+00  0.00000000000E+00 -0.10645363177E+04  0.10645363177E+04  0.50400001928E-02 0. -1.
    10030    2    1    2    0    0  0.00000000000E+00  0.00000000000E+00  0.77687178494E+03  0.29059444204E+04  0.28001755666E+04 0.  0.
        1    1    3    3  502    0 -0.34092165005E+03  0.12428012152E+04 -0.17946675713E+03  0.13011497796E+04  0.50400001928E-02 0.  1.
       -1    1    3    3    0  502  0.34092165005E+03 -0.12428012152E+04  0.95633854207E+03  0.16047946408E+04  0.50400001928E-02 0. -1.
</event>
<event>
 5   0  0.3167616E-06  0.2804802E+04  0.7818609E-02  0.8301779E-01
        2   -1    0    0  501    0  0.00000000000E+00  0.00000000000E+00  0.11304422215E+04  0.11304422215E+04  0.25500000920E-02 0. -1.
       -2   -1    0    0    0  501  0.00000000000E+00  0.00000000000E+00 -0.17397867355E+04  0.17397867355E+04  0.25500000920E-02 0.  1.
    10030    2    1    2    0    0  0.00000000000E+00  0.00000000000E+00 -0.60934451400E+03  0.28702289570E+04  0.28048018698E+04 0.  0.
        3    1    3    3  502    0  0.78329138565E+03 -0.62935570595E+02 -0.14933279508E+04  0.16874639729E+04  0.10100000352E+00 0.  1.
       -3    1    3    3    0  502 -0.78329138565E+03  0.62935570595E+02  0.88398343680E+03  0.11827649841E+04  0.10100000352E+00 0. -1.
</event>
<event>
 5   0  0.1246044E-06  0.2797902E+04  0.7818609E-02  0.8303920E-01
        1   -1    0    0  501    0  0.00000000000E+00  0.00000000000E+00  0.13185315121E+04  0.13185315122E+04  0.50400001928E-02 0. -1.
       -1   -1    0    0    0  501  0.00000000000E+00  0.00000000000E+00 -0.14842755621E+04  0.14842755621E+04  0.50400001928E-02 0.  1.
    10030    2    1    2    0    0  0.00000000000E+00  0.00000000000E+00 -0.16574404999E+03  0.28028070743E+04  0.27979021437E+04 0.  0.
        2    1    3    3  502    0  0.11940637784E+04 -0.69016691706E+03 -0.31768734964E+03  0.14152893459E+04  0.25500000920E-02 0. -1.
       -2    1    3    3    0  502 -0.11940637784E+04  0.69016691706E+03  0.15194329964E+03  0.13875177284E+04  0.25500000920E-02 0.  1.
</event>
<event>
 5   0  0.3212679E-06  0.2802053E+04  0.7818609E-02  0.8302631E-01
       -2   -1    0    0    0  501  0.00000000000E+00  0.00000000000E+00  0.76305124280E+03  0.76305124280E+03  0.25500000920E-02 0. -1.
        2   -1    0    0  501    0  0.00000000000E+00  0.00000000000E+00 -0.25724038297E+04  0.25724038297E+04  0.25500000920E-02 0.  1.
    10030    2    1    2    0    0  0.00000000000E+00  0.00000000000E+00 -0.18093525869E+04  0.33354550725E+04  0.28020534893E+04 0.  0.
        4    1    3    3  502    0  0.10778820147E+04 -0.34535396147E+03 -0.18875536161E+04  0.22008996485E+04  0.12699999809E+01 0.  1.
       -4    1    3    3    0  502 -0.10778820147E+04  0.34535396147E+03  0.78201029150E+02  0.11345554240E+04  0.12699999809E+01 0. -1.
</event>
<event>
 5   0  0.1220265E-06  0.2785289E+04  0.7818609E-02  0.8307850E-01
        1   -1    0    0  501    0  0.00000000000E+00  0.00000000000E+00  0.13305321852E+04  0.13305321852E+04  0.50400001928E-02 0. -1.
       -1   -1    0    0    0  501  0.00000000000E+00  0.00000000000E+00 -0.14576568154E+04  0.14576568154E+04  0.50400001928E-02 0.  1.
    10030    2    1    2    0    0  0.00000000000E+00  0.00000000000E+00 -0.12712463026E+03  0.27881890006E+04  0.27852894341E+04 0.  0.
        4    1    3    3  502    0  0.45493037056E+03  0.83708579792E+03  0.95326253240E+03  0.13477334097E+04  0.12699999809E+01 0. -1.
       -4    1    3    3    0  502 -0.45493037056E+03 -0.83708579792E+03 -0.10803871627E+04  0.14404555909E+04  0.12699999809E+01 0.  1.
</event>
<event>
 5   0  0.3212679E-06  0.2794547E+04  0.7818609E-02  0.8304963E-01
        2   -1    0    0  501    0  0.00000000000E+00  0.00000000000E+00  0.14345422674E+04  0.14345422674E+04  0.25500000920E-02 0. -1.
       -2   -1    0    0    0  501  0.00000000000E+00  0.00000000000E+00 -0.13609724956E+04  0.13609724956E+04  0.25500000920E-02 0.  1.
    10030    2    1    2    0    0  0.00000000000E+00  0.00000000000E+00  0.73569771809E+02  0.27955147629E+04  0.27945465247E+04 0.  0.
        4    1    3    3  502    0  0.74132588435E+03  0.84604063359E+03  0.86594005207E+03  0.14195783202E+04  0.12699999809E+01 0. -1.
       -4    1    3    3    0  502 -0.74132588435E+03 -0.84604063359E+03 -0.79237028026E+03  0.13759364427E+04  0.12699999809E+01 0.  1.
</event>
<event>
 5   0  0.3162695E-06  0.2803095E+04  0.7818609E-02  0.8302308E-01
        2   -1    0    0  501    0  0.00000000000E+00  0.00000000000E+00  0.13607957606E+04  0.13607957606E+04  0.25500000920E-02 0. -1.
       -2   -1    0    0    0  501  0.00000000000E+00  0.00000000000E+00 -0.14435193247E+04  0.14435193247E+04  0.25500000920E-02 0.  1.
    10030    2    1    2    0    0  0.00000000000E+00  0.00000000000E+00 -0.82723564111E+02  0.28043150853E+04  0.28030947022E+04 0.  0.
        1    1    3    3  502    0  0.31912381350E+03  0.22024880844E+03 -0.13887909210E+04  0.14419049096E+04  0.50400001928E-02 0.  1.
       -1    1    3    3    0  502 -0.31912381350E+03 -0.22024880844E+03  0.13060673569E+04  0.13624101757E+04  0.50400001928E-02 0. -1.
</event>
<event>
 5   0  0.3345919E-06  0.2782030E+04  0.7818609E-02  0.8308869E-01
       -2   -1    0    0    0  501  0.00000000000E+00  0.00000000000E+00  0.14269239687E+04  0.14269239687E+04  0.25500000920E-02 0. -1.
        2   -1    0    0  501    0  0.00000000000E+00  0.00000000000E+00 -0.13560095018E+04  0.13560095018E+04  0.25500000920E-02 0.  1.
    10030    2    1    2    0    0  0.00000000000E+00  0.00000000000E+00  0.70914466958E+02  0.27829334705E+04  0.27820298057E+04 0.  0.
        2    1    3    3  502    0  0.32828559141E+03  0.49366703785E+03  0.12942156410E+04  0.14235423067E+04  0.25500000920E-02 0. -1.
       -2    1    3    3    0  502 -0.32828559141E+03 -0.49366703785E+03 -0.12233011740E+04  0.13593911638E+04  0.25500000920E-02 0.  1.
</event>
<event>
 5   0  0.1263513E-06  0.2814621E+04  0.7818609E-02  0.8298744E-01
        1   -1    0    0  501    0  0.00000000000E+00  0.00000000000E+00  0.11536043285E+04  0.11536043286E+04  0.50400001928E-02 0. -1.
       -1   -1    0    0    0  501  0.00000000000E+00  0.00000000000E+00 -0.17168125839E+04  0.17168125839E+04  0.50400001928E-02 0.  1.
    10030    2    1    2    0    0  0.00000000000E+00  0.00000000000E+00 -0.56320825533E+03  0.28704169124E+04  0.28146207049E+04 0.  0.
        3    1    3    3  502    0  0.15166289833E+03  0.13538581770E+04  0.78364488170E+02  0.13645785435E+04  0.10100000352E+00 0. -1.
       -3    1    3    3    0  502 -0.15166289833E+03 -0.13538581770E+04 -0.64157274350E+03  0.15058383690E+04  0.10100000352E+00 0.  1.
</event>
<event>
 5   0  0.1235252E-06  0.2881841E+04  0.7818609E-02  0.8278301E-01
        1   -1    0    0  501    0  0.00000000000E+00  0.00000000000E+00  0.11274956689E+04  0.11274956689E+04  0.50400001928E-02 0.  1.
       -1   -1    0    0    0  501  0.00000000000E+00  0.00000000000E+00 -0.18414726925E+04  0.18414726925E+04  0.50400001928E-02 0. -1.
    10030    2    1    2    0    0  0.00000000000E+00  0.00000000000E+00 -0.71397702368E+03  0.29689683614E+04  0.28818414149E+04 0.  0.
        1    1    3    3  502    0  0.13380636737E+04  0.51294248524E+03 -0.51230480925E+03  0.15218346184E+04  0.50400001928E-02 0. -1.
       -1    1    3    3    0  502 -0.13380636737E+04 -0.51294248524E+03 -0.20167221443E+03  0.14471337430E+04  0.50400001928E-02 0.  1.
</event>
<event>
 5   0  0.1246044E-06  0.2783336E+04  0.7818609E-02  0.8308461E-01
       -1   -1    0    0    0  501  0.00000000000E+00  0.00000000000E+00  0.14861124275E+04  0.14861124275E+04  0.50400001928E-02 0. -1.
        1   -1    0    0  501    0  0.00000000000E+00  0.00000000000E+00 -0.13032253054E+04  0.13032253054E+04  0.50400001928E-02 0.  1.
    10030    2    1    2    0    0  0.00000000000E+00  0.00000000000E+00  0.18288712213E+03  0.27893377329E+04  0.27833356407E+04 0.  0.
        2    1    3    3  502    0  0.49073997511E+03  0.11951523415E+04 -0.42689949517E+03  0.13606829246E+04  0.25500000920E-02 0.  1.
       -2    1    3    3    0  502 -0.49073997511E+03 -0.11951523415E+04  0.60978661730E+03  0.14286548082E+04  0.25500000920E-02 0. -1.
</event>
<event>
 5   0  0.3345919E-06  0.2805377E+04  0.7818609E-02  0.8301601E-01
        2   -1    0    0  501    0  0.00000000000E+00  0.00000000000E+00  0.29905160370E+04  0.29905160370E+04  0.25500000920E-02 0.  1.
       -2   -1    0    0    0  501  0.00000000000E+00  0.00000000000E+00 -0.65792485253E+03  0.65792485254E+03  0.25500000920E-02 0. -1.
    10030    2    1    2    0    0  0.00000000000E+00  0.00000000000E+00  0.23325911844E+04  0.36484408895E+04  0.28053768536E+04 0.  0.
        2    1    3    3  502    0  0.85865743370E+03 -0.51909231891E+03 -0.10846697498E+03  0.10092147981E+04  0.25500000920E-02 0. -1.
       -2    1    3    3    0  502 -0.85865743370E+03  0.51909231891E+03  0.24410581594E+04  0.26392260914E+04  0.25500000920E-02 0.  1.
</event>
<event>
 5   0  0.3226364E-06  0.2809987E+04  0.7818609E-02  0.8300174E-01
       -2   -1    0    0    0  501  0.00000000000E+00  0.00000000000E+00  0.17891011343E+04  0.17891011343E+04  0.25500000920E-02 0. -1.
        2   -1    0    0  501    0  0.00000000000E+00  0.00000000000E+00 -0.11033513403E+04  0.11033513403E+04  0.25500000920E-02 0.  1.
    10030    2    1    2    0    0  0.00000000000E+00  0.00000000000E+00  0.68574979402E+03  0.28924524747E+04  0.28099872844E+04 0.  0.
        5    1    3    3  502    0 -0.99940185090E+03  0.94228302727E+03  0.64698328924E+03  0.15183250079E+04  0.46999998093E+01 0.  1.
       -5    1    3    3    0  502  0.99940185090E+03 -0.94228302727E+03  0.38766504782E+02  0.13741274668E+04  0.46999998093E+01 0. -1.
</event>
<event>
 5   0  0.1235252E-06  0.2805261E+04  0.7818609E-02  0.8301637E-01
        1   -1    0    0  501    0  0.00000000000E+00  0.00000000000E+00  0.29594557729E+04  0.29594557729E+04  0.50400001928E-02 0.  1.
       -1   -1    0    0    0  501  0.00000000000E+00  0.00000000000E+00 -0.66477480885E+03  0.66477480887E+03  0.50400001928E-02 0. -1.
    10030    2    1    2    0    0  0.00000000000E+00  0.00000000000E+00  0.22946809641E+04  0.36242305818E+04  0.28052605197E+04 0.  0.
        1    1    3    3  502    0  0.48780801131E+02 -0.44715333903E+03  0.28637488832E+04  0.28988589723E+04  0.50400001928E-02 0.  1.
       -1    1    3    3    0  502 -0.48780801131E+02  0.44715333903E+03 -0.56906791917E+03  0.72537160947E+03  0.50400001928E-02 0. -1.
</event>
<event>
 5   0  0.3162695E-06  0.2808186E+04  0.7818609E-02  0.8300731E-01
        2   -1    0    0  501    0  0.00000000000E+00  0.00000000000E+00  0.15612811135E+04  0.15612811135E+04  0.25500000920E-02 0. -1.
       -2   -1    0    0    0  501  0.00000000000E+00  0.00000000000E+00 -0.12627306590E+04  0.12627306590E+04  0.25500000920E-02 0.  1.
    10030    2    1    2    0    0  0.00000000000E+00  0.00000000000E+00  0.29855045453E+03  0.28240117725E+04  0.28081862683E+04 0.  0.
        1    1    3    3  502    0  0.67179763849E+03 -0.98170975446E+03 -0.60085835590E+03  0.13327028450E+04  0.50400001928E-02 0.  1.
       -1    1    3    3    0  502 -0.67179763849E+03  0.98170975446E+03  0.89940881043E+03  0.14913089275E+04  0.50400001928E-02 0. -1.
</event>
<event>
 5   0  0.1235252E-06  0.2788610E+04  0.7818609E-02  0.8306813E-01
       -1   -1    0    0    0  501  0.00000000000E+00  0.00000000000E+00  0.12714070373E+04  0.12714070373E+04  0.50400001928E-02 0.  1.
        1   -1    0    0  501    0  0.00000000000E+00  0.00000000000E+00 -0.15290831380E+04  0.15290831380E+04  0.50400001928E-02 0. -1.
    10030    2    1    2    0    0  0.00000000000E+00  0.00000000000E+00 -0.25767610063E+03  0.28004901753E+04  0.27886104513E+04 0.  0.
        1    1    3    3  502    0  0.27271004272E+03 -0.82993798493E+03 -0.12201685712E+04  0.15006595778E+04  0.50400001928E-02 0. -1.
       -1    1    3    3    0  502 -0.27271004272E+03  0.82993798493E+03  0.96249247059E+03  0.12998305975E+04  0.50400001928E-02 0.  1.
</event>
<event>
 5   0  0.3226364E-06  0.2773926E+04  0.7818609E-02  0.8311409E-01
        2   -1    0    0  501    0  0.00000000000E+00  0.00000000000E+00  0.16000498918E+04  0.16000498918E+04  0.25500000920E-02 0.  1.
       -2   -1    0    0    0  501  0.00000000000E+00  0.00000000000E+00 -0.12022537050E+04  0.12022537050E+04  0.25500000920E-02 0. -1.
    10030    2    1    2    0    0  0.00000000000E+00  0.00000000000E+00  0.39779618673E+03  0.28023035968E+04  0.27739256736E+04 0.  0.
        5    1    3    3  502    0  0.63990364003E+03 -0.32555537777E+03  0.13977059508E+04  0.15713265057E+04  0.46999998093E+01 0.  1.
       -5    1    3    3    0  502 -0.63990364003E+03  0.32555537777E+03 -0.99990976410E+03  0.12309770911E+04  0.46999998093E+01 0. -1.
</event>
<event>
 5   0  0.3162695E-06  0.2698365E+04  0.7818609E-02  0.8335536E-01
        2   -1    0    0  501    0  0.00000000000E+00  0.00000000000E+00  0.20731258641E+04  0.20731258641E+04  0.25500000920E-02 0. -1.
       -2   -1    0    0    0  501  0.00000000000E+00  0.00000000000E+00 -0.87804291921E+03  0.87804291921E+03  0.25500000920E-02 0.  1.
    10030    2    1    2    0    0  0.00000000000E+00  0.00000000000E+00  0.11950829449E+04  0.29511687833E+04  0.26983650499E+04 0.  0.
        1    1    3    3  502    0  0.54838119295E+03 -0.10664797547E+04 -0.78595083755E+02  0.12017812560E+04  0.50400001928E-02 0.  1.
       -1    1    3    3    0  502 -0.54838119295E+03  0.10664797547E+04  0.12736780287E+04  0.17493875273E+04  0.50400001928E-02 0. -1.
</event>
<event>
 5   0  0.3226364E-06  0.2797217E+04  0.7818609E-02  0.8304133E-01
       -2   -1    0    0    0  501  0.00000000000E+00  0.00000000000E+00  0.18665550545E+04  0.18665550545E+04  0.25500000920E-02 0. -1.
        2   -1    0    0  501    0  0.00000000000E+00  0.00000000000E+00 -0.10479765526E+04  0.10479765526E+04  0.25500000920E-02 0.  1.
    10030    2    1    2    0    0  0.00000000000E+00  0.00000000000E+00  0.81857850189E+03  0.29145316070E+04  0.27972171393E+04 0.  0.
        5    1    3    3  502    0  0.11783901516E+03  0.46419112089E+03 -0.95987043521E+03  0.10727221321E+04  0.46999998093E+01 0.  1.
       -5    1    3    3    0  502 -0.11783901516E+03 -0.46419112089E+03  0.17784489371E+04  0.18418094750E+04  0.46999998093E+01 0. -1.
</event>
<event>
 5   0  0.3226364E-06  0.2810021E+04  0.7818609E-02  0.8300164E-01
       -2   -1    0    0    0  501  0.00000000000E+00  0.00000000000E+00  0.82931477812E+03  0.82931477812E+03  0.25500000920E-02 0.  1.
        2   -1    0    0  501    0  0.00000000000E+00  0.00000000000E+00 -0.23803440215E+04  0.23803440215E+04  0.25500000920E-02 0. -1.
    10030    2    1    2    0    0  0.00000000000E+00  0.00000000000E+00 -0.15510292434E+04  0.32096587996E+04  0.28100209779E+04 0.  0.
        5    1    3    3  502    0 -0.62946788366E+03  0.12467434399E+04 -0.60066422956E+03  0.15203350381E+04  0.46999998093E+01 0.  1.
       -5    1    3    3    0  502  0.62946788366E+03 -0.12467434399E+04 -0.95036501382E+03  0.16893237615E+04  0.46999998093E+01 0. -1.
</event>
<event>
 5   0  0.1246044E-06  0.2806116E+04  0.7818609E-02  0.8301372E-01
        1   -1    0    0  501    0  0.00000000000E+00  0.00000000000E+00  0.58595479922E+03  0.58595479924E+03  0.50400001928E-02 0.  1.
       -1   -1    0    0    0  501  0.00000000000E+00  0.00000000000E+00 -0.33595977036E+04  0.33595977036E+04  0.50400001928E-02 0. -1.
    10030    2    1    2    0    0  0.00000000000E+00  0.00000000000E+00 -0.27736429044E+04  0.39455525028E+04  0.28061164608E+04 0.  0.
        2    1    3    3  502    0 -0.77004760899E+03 -0.21501506483E+03 -0.30079769755E+04  0.31124155062E+04  0.25500000920E-02 0. -1.
       -2    1    3    3    0  502  0.77004760899E+03  0.21501506483E+03  0.23433407113E+03  0.83313699661E+03  0.25500000920E-02 0.  1.
</event>
<event>
 5   0  0.3167616E-06  0.2797630E+04  0.7818609E-02  0.8304005E-01
        2   -1    0    0  501    0  0.00000000000E+00  0.00000000000E+00  0.25894049715E+04  0.25894049715E+04  0.25500000920E-02 0. -1.
       -2   -1    0    0    0  501  0.00000000000E+00  0.00000000000E+00 -0.75564977273E+03  0.75564977274E+03  0.25500000920E-02 0.  1.
    10030    2    1    2    0    0  0.00000000000E+00  0.00000000000E+00  0.18337551987E+04  0.33450547442E+04  0.27976299099E+04 0.  0.
        3    1    3    3  502    0  0.52337612915E+03 -0.11341637405E+04  0.16697095352E+04  0.20852289814E+04  0.10100000352E+00 0. -1.
       -3    1    3    3    0  502 -0.52337612915E+03  0.11341637405E+04  0.16404566359E+03  0.12598257628E+04  0.10100000352E+00 0.  1.
</event>
<event>
 5   0  0.1246044E-06  0.2806859E+04  0.7818609E-02  0.8301142E-01
       -1   -1    0    0    0  501  0.00000000000E+00  0.00000000000E+00  0.91101876733E+03  0.91101876735E+03  0.50400001928E-02 0. -1.
        1   -1    0    0  501    0  0.00000000000E+00  0.00000000000E+00 -0.21619906503E+04  0.21619906503E+04  0.50400001928E-02 0.  1.
    10030    2    1    2    0    0  0.00000000000E+00  0.00000000000E+00 -0.12509718829E+04  0.30730094176E+04  0.28068587832E+04 0.  0.
        2    1    3    3  502    0  0.79119048446E+03  0.66890261952E+03 -0.16619303917E+04  0.19584242962E+04  0.25500000920E-02 0.  1.
       -2    1    3    3    0  502 -0.79119048446E+03 -0.66890261952E+03  0.41095850872E+03  0.11145851215E+04  0.25500000920E-02 0. -1.
</event>
<event>
 5   0  0.3212679E-06  0.2800227E+04  0.7818609E-02  0.8303198E-01
       -2   -1    0    0    0  501  0.00000000000E+00  0.00000000000E+00  0.10110984941E+04  0.10110984941E+04  0.25500000920E-02 0.  1.
        2   -1    0    0  501    0  0.00000000000E+00  0.00000000000E+00 -0.19388004136E+04  0.19388004136E+04  0.25500000920E-02 0. -1.
    10030    2    1    2    0    0  0.00000000000E+00  0.00000000000E+00 -0.92770191949E+03  0.29498989078E+04  0.28002272612E+04 0.  0.
        4    1    3    3  502    0 -0.65912513809E+03 -0.12332009151E+04 -0.38872203040E+03  0.14513224571E+04  0.12699999809E+01 0. -1.
       -4    1    3    3    0  502  0.65912513809E+03  0.12332009151E+04 -0.53897988909E+03  0.14985764506E+04  0.12699999809E+01 0.  1.
</event>
<event>
 5   0  0.1263513E-06  0.2800022E+04  0.7818609E-02  0.8303262E-01
        1   -1    0    0  501    0  0.00000000000E+00  0.00000000000E+00  0.15826360542E+04  0.15826360543E+04  0.50400001928E-02 0. -1.
       -1   -1    0    0    0  501  0.00000000000E+00  0.00000000000E+00 -0.12384591643E+04  0.12384591643E+04  0.50400001928E-02 0.  1.
    10030    2    1    2    0    0  0.00000000000E+00  0.00000000000E+00  0.34417688996E+03  0.28210952186E+04  0.28000215179E+04 0.  0.
        3    1    3    3  502    0 -0.65510208097E+03 -0.32605432330E+03 -0.10304438326E+04  0.12638372761E+04  0.10100000352E+00 0.  1.
       -3    1    3    3    0  502  0.65510208097E+03  0.32605432330E+03  0.13746207225E+04  0.15572579424E+04  0.10100000352E+00 0. -1.
</event>
<event>
 5   0  0.3167616E-06  0.2818861E+04  0.7818609E-02  0.8297436E-01
        2   -1    0    0  501    0  0.00000000000E+00  0.00000000000E+00  0.14191784766E+04  0.14191784766E+04  0.25500000920E-02 0. -1.
       -2   -1    0    0    0  501  0.00000000000E+00  0.00000000000E+00 -0.13997499081E+04  0.13997499081E+04  0.25500000920E-02 0.  1.
    10030    2    1    2    0    0  0.00000000000E+00  0.00000000000E+00  0.19428568544E+02  0.28189283847E+04  0.28188614313E+04 0.  0.
        3    1    3    3  502    0  0.12574605776E+04  0.10518426303E+03 -0.61817330604E+03  0.14051366766E+04  0.10100000352E+00 0.  1.
       -3    1    3    3    0  502 -0.12574605776E+04 -0.10518426303E+03  0.63760187459E+03  0.14137917081E+04  0.10100000352E+00 0. -1.
</event>
<event>
 5   0  0.1220265E-06  0.2802415E+04  0.7818609E-02  0.8302519E-01
        1   -1    0    0  501    0  0.00000000000E+00  0.00000000000E+00  0.11137412819E+04  0.11137412819E+04  0.50400001928E-02 0. -1.
       -1   -1    0    0    0  501  0.00000000000E+00  0.00000000000E+00 -0.17628709853E+04  0.17628709853E+04  0.50400001928E-02 0.  1.
    10030    2    1    2    0    0  0.00000000000E+00  0.00000000000E+00 -0.64912970348E+03  0.28766122672E+04  0.28024148094E+04 0.  0.
        4    1    3    3  502    0 -0.92164431412E+03  0.37110156814E+03 -0.13387711655E+04  0.16671695961E+04  0.12699999809E+01 0.  1.
       -4    1    3    3    0  502  0.92164431412E+03 -0.37110156814E+03  0.68964146206E+03  0.12094426711E+04  0.12699999809E+01 0. -1.
</event>
<event>
 5   0  0.3162695E-06  0.2800784E+04  0.7818609E-02  0.8303025E-01
       -2   -1    0    0    0  501  0.00000000000E+00  0.00000000000E+00  0.12265230528E+04  0.12265230528E+04  0.25500000920E-02 0.  1.
        2   -1    0    0  501    0  0.00000000000E+00  0.00000000000E+00 -0.15989086512E+04  0.15989086512E+04  0.25500000920E-02 0. -1.
    10030    2    1    2    0    0  0.00000000000E+00  0.00000000000E+00 -0.37238559838E+03  0.28254317039E+04  0.28007844044E+04 0.  0.
        1    1    3    3  502    0  0.10466673579E+03  0.13689044799E+04  0.92359772032E+02  0.13760032442E+04  0.50400001928E-02 0. -1.
       -1    1    3    3    0  502 -0.10466673579E+03 -0.13689044799E+04 -0.46474537042E+03  0.14494284597E+04  0.50400001928E-02 0.  1.
</event>
<event>
 5   0  0.1243055E-06  0.2799201E+04  0.7818609E-02  0.8303516E-01
        1   -1    0    0  501    0  0.00000000000E+00  0.00000000000E+00  0.10829065456E+04  0.10829065457E+04  0.50400001928E-02 0. -1.
       -1   -1    0    0    0  501  0.00000000000E+00  0.00000000000E+00 -0.18089108473E+04  0.18089108473E+04  0.50400001928E-02 0.  1.
    10030    2    1    2    0    0  0.00000000000E+00  0.00000000000E+00 -0.72600430163E+03  0.28918173929E+04  0.27992008838E+04 0.  0.
        5    1    3    3  502    0  0.10430313344E+04  0.36111908813E+03 -0.12520199531E+04  0.16691007798E+04  0.46999998093E+01 0.  1.
       -5    1    3    3    0  502 -0.10430313344E+04 -0.36111908813E+03  0.52601565146E+03  0.12227166131E+04  0.46999998093E+01 0. -1.
</event>
<event>
 5   0  0.1220265E-06  0.2795541E+04  0.7818609E-02  0.8304654E-01
       -1   -1    0    0    0  501  0.00000000000E+00  0.00000000000E+00  0.11261436603E+04  0.11261436603E+04  0.50400001928E-02 0. -1.
        1   -1    0    0  501    0  0.00000000000E+00  0.00000000000E+00 -0.17349135931E+04  0.17349135931E+04  0.50400001928E-02 0.  1.
    10030    2    1    2    0    0  0.00000000000E+00  0.00000000000E+00 -0.60876993283E+03  0.28610572534E+04  0.27955406947E+04 0.  0.
        4    1    3    3  502    0  0.92524061763E+03 -0.78032476876E+03 -0.10199003042E+04  0.15827745223E+04  0.12699999809E+01 0.  1.
       -4    1    3    3    0  502 -0.92524061763E+03  0.78032476876E+03  0.41113037134E+03  0.12782827310E+04  0.12699999809E+01 0. -1.
</event>
<event>
 5   0  0.3167616E-06  0.2759105E+04  0.7818609E-02  0.8316078E-01
        2   -1    0    0  501    0  0.00000000000E+00  0.00000000000E+00  0.13533559921E+04  0.13533559921E+04  0.25500000920E-02 0. -1.
       -2   -1    0    0    0  501  0.00000000000E+00  0.00000000000E+00 -0.14062561240E+04  0.14062561240E+04  0.25500000920E-02 0.  1.
    10030    2    1    2    0    0  0.00000000000E+00  0.00000000000E+00 -0.52900131895E+02  0.27596121161E+04  0.27591050373E+04 0.  0.
        3    1    3    3  502    0  0.63000607921E+03  0.20073209050E+03 -0.12374426340E+04  0.14030200692E+04  0.10100000352E+00 0.  1.
       -3    1    3    3    0  502 -0.63000607921E+03 -0.20073209050E+03  0.11845425021E+04  0.13565920468E+04  0.10100000352E+00 0. -1.
</event>
<event>
 5   0  0.1065675E-06  0.2795576E+04  0.7818609E-02  0.8304643E-01
       -3   -1    0    0    0  501  0.00000000000E+00  0.00000000000E+00  0.11091854374E+04  0.11091854420E+04  0.10100000352E+00 0.  1.
        3   -1    0    0  501    0  0.00000000000E+00  0.00000000000E+00 -0.17614824979E+04  0.17614825008E+04  0.10100000352E+00 0. -1.
    10030    2    1    2    0    0  0.00000000000E+00  0.00000000000E+00 -0.65229706055E+03  0.28706679428E+04  0.27955756084E+04 0.  0.
        2    1    3    3  502    0 -0.10691365627E+04  0.77526180978E+03 -0.79640931833E+03  0.15421905413E+04  0.25500000920E-02 0. -1.
       -2    1    3    3    0  502  0.10691365627E+04 -0.77526180978E+03  0.14411225778E+03  0.13284774015E+04  0.25500000920E-02 0.  1.
</event>
<event>
 5   0  0.1263513E-06  0.2792665E+04  0.7818609E-02  0.8305549E-01
        1   -1    0    0  501    0  0.00000000000E+00  0.00000000000E+00  0.17975940906E+04  0.17975940906E+04  0.50400001928E-02 0.  1.
       -1   -1    0    0    0  501  0.00000000000E+00  0.00000000000E+00 -0.10846411987E+04  0.10846411987E+04  0.50400001928E-02 0. -1.
    10030    2    1    2    0    0  0.00000000000E+00  0.00000000000E+00  0.71295289195E+03  0.28822352893E+04  0.27926651136E+04 0.  0.
        3    1    3    3  502    0 -0.13899786765E+04  0.10695107869E+03  0.43816910866E+03  0.14613252316E+04  0.10100000352E+00 0. -1.
       -3    1    3    3    0  502  0.13899786765E+04 -0.10695107869E+03  0.27478378329E+03  0.14209100578E+04  0.10100000352E+00 0.  1.
</event>
<event>
 5   0  0.1246044E-06  0.2801049E+04  0.7818609E-02  0.8302943E-01
        1   -1    0    0  501    0  0.00000000000E+00  0.00000000000E+00  0.15985563706E+04  0.15985563707E+04  0.50400001928E-02 0.  1.
       -1   -1    0    0    0  501  0.00000000000E+00  0.00000000000E+00 -0.12270253407E+04  0.12270253407E+04  0.50400001928E-02 0. -1.
    10030    2    1    2    0    0  0.00000000000E+00  0.00000000000E+00  0.37153102999E+03  0.28255817113E+04  0.28010492143E+04 0.  0.
        2    1    3    3  502    0  0.45279411789E+02  0.48424715425E+03  0.15106318631E+04  0.15869953237E+04  0.25500000920E-02 0.  1.
       -2    1    3    3    0  502 -0.45279411789E+02 -0.48424715425E+03 -0.11391008331E+04  0.12385863876E+04  0.25500000920E-02 0. -1.
</event>
<event>
 5   0  0.3345919E-06  0.2809062E+04  0.7818609E-02  0.8300461E-01
        2   -1    0    0  501    0  0.00000000000E+00  0.00000000000E+00  0.12009443200E+04  0.12009443200E+04  0.25500000920E-02 0.  1.
       -2   -1    0    0    0  501  0.00000000000E+00  0.00000000000E+00 -0.16426297954E+04  0.16426297954E+04  0.25500000920E-02 0. -1.
    10030    2    1    2    0    0  0.00000000000E+00  0.00000000000E+00 -0.44168547541E+03  0.28435741155E+04  0.28090617101E+04 0.  0.
        2    1    3    3  502    0 -0.12996137502E+04  0.17732861719E+03  0.28758855816E+03  0.13428136568E+04  0.25500000920E-02 0.  1.
       -2    1    3    3    0  502  0.12996137502E+04 -0.17732861719E+03 -0.72927403357E+03  0.15007604586E+04  0.25500000920E-02 0. -1.
</event>
<event>
 5   0  0.1220265E-06  0.2804919E+04  0.7818609E-02  0.8301743E-01
        1   -1    0    0  501    0  0.00000000000E+00  0.00000000000E+00  0.11114505300E+04  0.11114505300E+04  0.50400001928E-02 0.  1.
       -1   -1    0    0    0  501  0.00000000000E+00  0.00000000000E+00 -0.17696632271E+04  0.17696632271E+04  0.50400001928E-02 0. -1.
    10030    2    1    2    0    0  0.00000000000E+00  0.00000000000E+00 -0.65821269710E+03  0.28811137571E+04  0.28049193441E+04 0.  0.
        4    1    3    3  502    0  0.29407318979E+03 -0.88300411646E+02 -0.17347147273E+04  0.17616789723E+04  0.12699999809E+01 0. -1.
       -4    1    3    3    0  502 -0.29407318979E+03  0.88300411646E+02  0.10765020302E+04  0.11194347848E+04  0.12699999809E+01 0.  1.
</event>
<event>
 5   0  0.1246044E-06  0.2786983E+04  0.7818609E-02  0.8307321E-01
        1   -1    0    0  501    0  0.00000000000E+00  0.00000000000E+00  0.14964864181E+04  0.14964864181E+04  0.50400001928E-02 0.  1.
       -1   -1    0    0    0  501  0.00000000000E+00  0.00000000000E+00 -0.12975854670E+04  0.12975854670E+04  0.50400001928E-02 0. -1.
    10030    2    1    2    0    0  0.00000000000E+00  0.00000000000E+00  0.19890095108E+03  0.27940718851E+04  0.27869833352E+04 0.  0.
        2    1    3    3  502    0  0.13663080134E+04 -0.15731209295E+03  0.32424018048E+03  0.14130379955E+04  0.25500000920E-02 0. -1.
       -2    1    3    3    0  502 -0.13663080134E+04  0.15731209295E+03 -0.12533922940E+03  0.13810338897E+04  0.25500000920E-02 0.  1.
</event>
<event>
 5   0  0.1263513E-06  0.2802715E+04  0.7818609E-02  0.8302426E-01
       -1   -1    0    0    0  501  0.00000000000E+00  0.00000000000E+00  0.11931062630E+04  0.11931062630E+04  0.50400001928E-02 0.  1.
        1   -1    0    0  501    0  0.00000000000E+00  0.00000000000E+00 -0.16459577335E+04  0.16459577336E+04  0.50400001928E-02 0. -1.
    10030    2    1    2    0    0  0.00000000000E+00  0.00000000000E+00 -0.45285147054E+03  0.28390639966E+04  0.28027147415E+04 0.  0.
        3    1    3    3  502    0 -0.95771988021E+02  0.13574773211E+04  0.11240533333E+03  0.13654859648E+04  0.10100000352E+00 0. -1.
       -3    1    3    3    0  502  0.95771988021E+02 -0.13574773211E+04 -0.56525680387E+03  0.14735780317E+04  0.10100000352E+00 0.  1.
</event>
<event>
 5   0  0.3162695E-06  0.2822962E+04  0.7818609E-02  0.8296175E-01
       -2   -1    0    0    0  501  0.00000000000E+00  0.00000000000E+00  0.17828063984E+04  0.17828063984E+04  0.25500000920E-02 0.  1.
        2   -1    0    0  501    0  0.00000000000E+00  0.00000000000E+00 -0.11174958804E+04  0.11174958804E+04  0.25500000920E-02 0. -1.
    10030    2    1    2    0    0  0.00000000000E+00  0.00000000000E+00  0.66531051796E+03  0.29003022788E+04  0.28229621364E+04 0.  0.
        1    1    3    3  502    0 -0.62770152475E+03 -0.97691504255E+02 -0.96232368906E+03  0.11530913740E+04  0.50400001928E-02 0. -1.
       -1    1    3    3    0  502  0.62770152475E+03  0.97691504255E+02  0.16276342070E+04  0.17472109049E+04  0.50400001928E-02 0.  1.
</event>
<event>
 5   0  0.3212679E-06  0.2847973E+04  0.7818609E-02  0.8288528E-01
       -2   -1    0    0    0  501  0.00000000000E+00  0.00000000000E+00  0.16500214608E+04  0.16500214608E+04  0.25500000920E-02 0. -1.
        2   -1    0    0  501    0  0.00000000000E+00  0.00000000000E+00 -0.12289156928E+04  0.12289156928E+04  0.25500000920E-02 0.  1.
    10030    2    1    2    0    0  0.00000000000E+00  0.00000000000E+00  0.42110576794E+03  0.28789371536E+04  0.28479727995E+04 0.  0.
        4    1    3    3  502    0 -0.12862469182E+03 -0.10314888788E+04 -0.77328205953E+03  0.12955617989E+04  0.12699999809E+01 0.  1.
       -4    1    3    3    0  502  0.12862469182E+03  0.10314888788E+04  0.11943878275E+04  0.15833753546E+04  0.12699999809E+01 0. -1.
</event>
<event>
 5   0  0.1235252E-06  0.2803338E+04  0.7818609E-02  0.8302233E-01
       -1   -1    0    0    0  501  0.00000000000E+00  0.00000000000E+00  0.10692320077E+04  0.10692320077E+04  0.50400001928E-02 0. -1.
        1   -1    0    0  501    0  0.00000000000E+00  0.00000000000E+00 -0.18374649423E+04  0.18374649423E+04  0.50400001928E-02 0.  1.
    10030    2    1    2    0    0  0.00000000000E+00  0.00000000000E+00 -0.76823293467E+03  0.29066969500E+04  0.28033382453E+04 0.  0.
        1    1    3    3  502    0  0.33842959213E+03  0.12544013567E+04 -0.92945381073E+03  0.15974798086E+04  0.50400001928E-02 0.  1.
       -1    1    3    3    0  502 -0.33842959213E+03 -0.12544013567E+04  0.16122087607E+03  0.13092171414E+04  0.50400001928E-02 0. -1.
</event>
<event>
 5   0  0.3162695E-06  0.2798899E+04  0.7818609E-02  0.8303610E-01
        2   -1    0    0  501    0  0.00000000000E+00  0.00000000000E+00  0.18994100365E+04  0.18994100365E+04  0.25500000920E-02 0. -1.
       -2   -1    0    0    0  501  0.00000000000E+00  0.00000000000E+00 -0.10310881864E+04  0.10310881864E+04  0.25500000920E-02 0.  1.
    10030    2    1    2    0    0  0.00000000000E+00  0.00000000000E+00  0.86832185011E+03  0.29304982229E+04  0.27988992477E+04 0.  0.
        1    1    3    3  502    0  0.48971389565E+03  0.30049905600E+03  0.17702232724E+04  0.18611313271E+04  0.50400001928E-02 0. -1.
       -1    1    3    3    0  502 -0.48971389565E+03 -0.30049905600E+03 -0.90190142234E+03  0.10693668958E+04  0.50400001928E-02 0.  1.
</event>
<event>
 5   0  0.3212679E-06  0.2783813E+04  0.7818609E-02  0.8308311E-01
        2   -1    0    0  501    0  0.00000000000E+00  0.00000000000E+00  0.19168237077E+04  0.19168237077E+04  0.25500000920E-02 0. -1.
       -2   -1    0    0    0  501  0.00000000000E+00  0.00000000000E+00 -0.10107364668E+04  0.10107364668E+04  0.25500000920E-02 0.  1.
    10030    2    1    2    0    0  0.00000000000E+00  0.00000000000E+00  0.90608724089E+03  0.29275601745E+04  0.27838129404E+04 0.  0.
        4    1    3    3  502    0  0.65153336094E+03  0.63884667094E+03  0.15584040738E+04  0.18058919291E+04  0.12699999809E+01 0. -1.
       -4    1    3    3    0  502 -0.65153336094E+03 -0.63884667094E+03 -0.65231683292E+03  0.11216682454E+04  0.12699999809E+01 0.  1.
</event>
<event>
 5   0  0.3226364E-06  0.2812527E+04  0.7818609E-02  0.8299390E-01
        2   -1    0    0  501    0  0.00000000000E+00  0.00000000000E+00  0.11552291187E+04  0.11552291187E+04  0.25500000920E-02 0. -1.
       -2   -1    0    0    0  501  0.00000000000E+00  0.00000000000E+00 -0.17118482758E+04  0.17118482758E+04  0.25500000920E-02 0.  1.
    10030    2    1    2    0    0  0.00000000000E+00  0.00000000000E+00 -0.55661915712E+03  0.28670773945E+04  0.28125269598E+04 0.  0.
        5    1    3    3  502    0 -0.31817419584E+03  0.44249468494E+03  0.10431819209E+04  0.11769821473E+04  0.46999998093E+01 0. -1.
       -5    1    3    3    0  502  0.31817419584E+03 -0.44249468494E+03 -0.15998010780E+04  0.16900952471E+04  0.46999998093E+01 0.  1.
</event>
<event>
 5   0  0.3162695E-06  0.2802429E+04  0.7818609E-02  0.8302515E-01
       -2   -1    0    0    0  501  0.00000000000E+00  0.00000000000E+00  0.23557681421E+04  0.23557681421E+04  0.25500000920E-02 0.  1.
        2   -1    0    0  501    0  0.00000000000E+00  0.00000000000E+00 -0.83344473015E+03  0.83344473015E+03  0.25500000920E-02 0. -1.
    10030    2    1    2    0    0  0.00000000000E+00  0.00000000000E+00  0.15223234120E+04  0.31892128723E+04  0.28024293344E+04 0.  0.
        1    1    3    3  502    0 -0.12887345253E+04 -0.11460605963E+03  0.13734015632E+04  0.18868500416E+04  0.50400001928E-02 0.  1.
       -1    1    3    3    0  502  0.12887345253E+04  0.11460605963E+03  0.14892184877E+03  0.13023628307E+04  0.50400001928E-02 0. -1.
</event>
<event>
 5   0  0.3226364E-06  0.2804714E+04  0.7818609E-02  0.8301806E-01
        2   -1    0    0  501    0  0.00000000000E+00  0.00000000000E+00  0.28394483582E+04  0.28394483582E+04  0.25500000920E-02 0.  1.
       -2   -1    0    0    0  501  0.00000000000E+00  0.00000000000E+00 -0.69260135758E+03  0.69260135758E+03  0.25500000920E-02 0. -1.
    10030    2    1    2    0    0  0.00000000000E+00  0.00000000000E+00  0.21468470006E+04  0.35320497158E+04  0.28047144508E+04 0.  0.
        5    1    3    3  502    0  0.42186916797E+03  0.43370438165E+03  0.26666129977E+04  0.27343957386E+04  0.46999998093E+01 0.  1.
       -5    1    3    3    0  502 -0.42186916797E+03 -0.43370438165E+03 -0.51976599713E+03  0.79765397718E+03  0.46999998093E+01 0. -1.
</event>
<event>
 5   0  0.3162695E-06  0.2811905E+04  0.7818609E-02  0.8299582E-01
        2   -1    0    0  501    0  0.00000000000E+00  0.00000000000E+00  0.76207217787E+03  0.76207217787E+03  0.25500000920E-02 0.  1.
       -2   -1    0    0    0  501  0.00000000000E+00  0.00000000000E+00 -0.25938528677E+04  0.25938528677E+04  0.25500000920E-02 0. -1.
    10030    2    1    2    0    0  0.00000000000E+00  0.00000000000E+00 -0.18317806898E+04  0.33559250456E+04  0.28119054778E+04 0.  0.
        1    1    3    3  502    0 -0.29301358976E+02 -0.10449900182E+04 -0.20379048158E+04  0.22903970717E+04  0.50400001928E-02 0. -1.
       -1    1    3    3    0  502  0.29301358976E+02  0.10449900182E+04  0.20612412594E+03  0.10655279739E+04  0.50400001928E-02 0.  1.
</event>
<event>
 5   0  0.1220265E-06  0.2799846E+04  0.7818609E-02  0.8303316E-01
       -1   -1    0    0    0  501  0.00000000000E+00  0.00000000000E+00  0.24165609022E+04  0.24165609022E+04  0.50400001928E-02 0.  1.
        1   -1    0    0  501    0  0.00000000000E+00  0.00000000000E+00 -0.81098062676E+03  0.81098062677E+03  0.50400001928E-02 0. -1.
    10030    2    1    2    0    0  0.00000000000E+00  0.00000000000E+00  0.16055802755E+04  0.32275415290E+04  0.27998457637E+04 0.  0.
        4    1    3    3  502    0  0.16256693118E+03  0.52758647126E+03 -0.68019788969E+03  0.87604010970E+03  0.12699999809E+01 0. -1.
       -4    1    3    3    0  502 -0.16256693118E+03 -0.52758647126E+03  0.22857781652E+04  0.23515014193E+04  0.12699999809E+01 0.  1.
</event>
<event>
 5   0  0.1263513E-06  0.2802913E+04  0.7818609E-02  0.8302365E-01
        1   -1    0    0  501    0  0.00000000000E+00  0.00000000000E+00  0.11971876373E+04  0.11971876373E+04  0.50400001928E-02 0.  1.
       -1   -1    0    0    0  501  0.00000000000E+00  0.00000000000E+00 -0.16405779866E+04  0.16405779867E+04  0.50400001928E-02 0. -1.
    10030    2    1    2    0    0  0.00000000000E+00  0.00000000000E+00 -0.44339034936E+03  0.28377656240E+04  0.28029125449E+04 0.  0.
        3    1    3    3  502    0 -0.95643834343E+03  0.69159103238E+03 -0.98674156984E+03  0.15384184726E+04  0.10100000352E+00 0. -1.
       -3    1    3    3    0  502  0.95643834343E+03 -0.69159103238E+03  0.54335122048E+03  0.12993471514E+04  0.10100000352E+00 0.  1.
</event>
<event>
 5   0  0.3162695E-06  0.2798368E+04  0.7818609E-02  0.8303775E-01
        2   -1    0    0  501    0  0.00000000000E+00  0.00000000000E+00  0.20141007886E+04  0.20141007886E+04  0.25500000920E-02 0.  1.
       -2   -1    0    0    0  501  0.00000000000E+00  0.00000000000E+00 -0.97200483801E+03  0.97200483802E+03  0.25500000920E-02 0. -1.
    10030    2    1    2    0    0  0.00000000000E+00  0.00000000000E+00  0.10420959506E+04  0.29861056266E+04  0.27983678892E+04 0.  0.
        1    1    3    3  502    0 -0.99853404293E+03 -0.94888358861E+03  0.25908831478E+03  0.14016337091E+04  0.50400001928E-02 0.  1.
       -1    1    3    3    0  502  0.99853404293E+03  0.94888358861E+03  0.78300763581E+03  0.15844719175E+04  0.50400001928E-02 0. -1.
</event>
<event>
 5   0  0.1246044E-06  0.2817285E+04  0.7818609E-02  0.8297922E-01
        1   -1    0    0  501    0  0.00000000000E+00  0.00000000000E+00  0.23430914449E+04  0.23430914449E+04  0.50400001928E-02 0. -1.
       -1   -1    0    0    0  501  0.00000000000E+00  0.00000000000E+00 -0.84686144081E+03  0.84686144083E+03  0.50400001928E-02 0.  1.
    10030    2    1    2    0    0  0.00000000000E+00  0.00000000000E+00  0.14962300040E+04  0.31899528857E+04  0.28172850740E+04 0.  0.
        2    1    3    3  502    0 -0.66659877533E+03  0.92933937901E+03 -0.18300687722E+03  0.11582388034E+04  0.25500000920E-02 0.  1.
       -2    1    3    3    0  502  0.66659877533E+03 -0.92933937901E+03  0.16792368813E+04  0.20317140823E+04  0.25500000920E-02 0. -1.
</event>
<event>
 5   0  0.3345919E-06  0.2787532E+04  0.7818609E-02  0.8307149E-01
        2   -1    0    0  501    0  0.00000000000E+00  0.00000000000E+00  0.16884774971E+04  0.16884774971E+04  0.25500000920E-02 0. -1.
       -2   -1    0    0    0  501  0.00000000000E+00  0.00000000000E+00 -0.11504946591E+04  0.11504946591E+04  0.25500000920E-02 0.  1.
    10030    2    1    2    0    0  0.00000000000E+00  0.00000000000E+00  0.53798283802E+03  0.28389721562E+04  0.27875324876E+04 0.  0.
        2    1    3    3  502    0  0.16299798508E+03  0.12541477138E+04  0.86557353655E+03  0.15325378881E+04  0.25500000920E-02 0. -1.
       -2    1    3    3    0  502 -0.16299798508E+03 -0.12541477138E+04 -0.32759069853E+03  0.13064342681E+04  0.25500000920E-02 0.  1.
</event>
<event>
 5   0  0.1220265E-06  0.2782065E+04  0.7818609E-02  0.8308858E-01
        1   -1    0    0  501    0  0.00000000000E+00  0.00000000000E+00  0.11673046072E+04  0.11673046072E+04  0.50400001928E-02 0. -1.
       -1   -1    0    0    0  501  0.00000000000E+00  0.00000000000E+00 -0.16576409210E+04  0.16576409210E+04  0.50400001928E-02 0.  1.
    10030    2    1    2    0    0  0.00000000000E+00  0.00000000000E+00 -0.49033631376E+03  0.28249455282E+04  0.27820653365E+04 0.  0.
        4    1    3    3  502    0 -0.83073557456E+03  0.47791778156E+03 -0.12688955521E+04  0.15901649398E+04  0.12699999809E+01 0.  1.
       -4    1    3    3    0  502  0.83073557456E+03 -0.47791778156E+03  0.77855923837E+03  0.12347805883E+04  0.12699999809E+01 0. -1.
</event>
<event>
 5   0  0.3226364E-06  0.2796925E+04  0.7818609E-02  0.8304224E-01
        2   -1    0    0  501    0  0.00000000000E+00  0.00000000000E+00  0.16549840596E+04  0.16549840596E+04  0.25500000920E-02 0.  1.
       -2   -1    0    0    0  501  0.00000000000E+00  0.00000000000E+00 -0.11817015928E+04  0.11817015928E+04  0.25500000920E-02 0. -1.
    10030    2    1    2    0    0  0.00000000000E+00  0.00000000000E+00  0.47328246682E+03  0.28366856523E+04  0.27969249537E+04 0.  0.
        5    1    3    3  502    0 -0.11461566082E+04  0.35098104334E+03  0.96716715896E+03  0.15402263037E+04  0.46999998093E+01 0. -1.
       -5    1    3    3    0  502  0.11461566082E+04 -0.35098104334E+03 -0.49388469214E+03  0.12964593486E+04  0.46999998093E+01 0.  1.
</event>
<event>
 5   0  0.1235252E-06  0.2805343E+04  0.7818609E-02  0.8301611E-01
        1   -1    0    0  501    0  0.00000000000E+00  0.00000000000E+00  0.14400186884E+04  0.14400186884E+04  0.50400001928E-02 0.  1.
       -1   -1    0    0    0  501  0.00000000000E+00  0.00000000000E+00 -0.13662931532E+04  0.13662931532E+04  0.50400001928E-02 0. -1.
    10030    2    1    2    0    0  0.00000000000E+00  0.00000000000E+00  0.73725535177E+02  0.28063118416E+04  0.28053432406E+04 0.  0.
        1    1    3    3  502    0 -0.11352595892E+04 -0.62409617722E+03  0.57480051876E+03  0.14172882592E+04  0.50400001928E-02 0. -1.
       -1    1    3    3    0  502  0.11352595892E+04  0.62409617722E+03 -0.50107498359E+03  0.13890235824E+04  0.50400001928E-02 0.  1.
</event>
<event>
 5   0  0.3162695E-06  0.2786468E+04  0.7818609E-02  0.8307482E-01
       -2   -1    0    0    0  501  0.00000000000E+00  0.00000000000E+00  0.74888023713E+03  0.74888023713E+03  0.25500000920E-02 0. -1.
        2   -1    0    0  501    0  0.00000000000E+00  0.00000000000E+00 -0.25920054610E+04  0.25920054610E+04  0.25500000920E-02 0.  1.
    10030    2    1    2    0    0  0.00000000000E+00  0.00000000000E+00 -0.18431252239E+04  0.33408856982E+04  0.27864684920E+04 0.  0.
        1    1    3    3  502    0  0.79291453321E+03  0.51595310780E+03 -0.21479023787E+04  0.23469992959E+04  0.50400001928E-02 0.  1.
       -1    1    3    3    0  502 -0.79291453321E+03 -0.51595310780E+03  0.30477715484E+03  0.99388640224E+03  0.50400001928E-02 0. -1.
</event>
<event>
 5   0  0.1246044E-06  0.2779069E+04  0.7818609E-02  0.8309796E-01
       -1   -1    0    0    0  501  0.00000000000E+00  0.00000000000E+00  0.10473345574E+04  0.10473345575E+04  0.50400001928E-02 0. -1.
        1   -1    0    0  501    0  0.00000000000E+00  0.00000000000E+00 -0.18435430350E+04  0.18435430350E+04  0.50400001928E-02 0.  1.
    10030    2    1    2    0    0  0.00000000000E+00  0.00000000000E+00 -0.79620847752E+03  0.28908775924E+04  0.27790691454E+04 0.  0.
        2    1    3    3  502    0 -0.97291530525E+03 -0.63487925298E+03  0.39491207302E+03  0.12270254286E+04  0.25500000920E-02 0. -1.
       -2    1    3    3    0  502  0.97291530525E+03  0.63487925298E+03 -0.11911205505E+04  0.16638521638E+04  0.25500000920E-02 0.  1.
</event>
<event>
 5   0  0.1246044E-06  0.2816556E+04  0.7818609E-02  0.8298147E-01
        1   -1    0    0  501    0  0.00000000000E+00  0.00000000000E+00  0.15717170730E+04  0.15717170730E+04  0.50400001928E-02 0.  1.
       -1   -1    0    0    0  501  0.00000000000E+00  0.00000000000E+00 -0.12618345074E+04  0.12618345074E+04  0.50400001928E-02 0. -1.
    10030    2    1    2    0    0  0.00000000000E+00  0.00000000000E+00  0.30988256561E+03  0.28335515804E+04  0.28165559384E+04 0.  0.
        2    1    3    3  502    0  0.57076953749E+02  0.10691664357E+04  0.10752685947E+04  0.15174245275E+04  0.25500000920E-02 0.  1.
       -2    1    3    3    0  502 -0.57076953749E+02 -0.10691664357E+04 -0.76538602906E+03  0.13161270529E+04  0.25500000920E-02 0. -1.
</event>
<event>
 5   0  0.1243055E-06  0.2707113E+04  0.7818609E-02  0.8332701E-01
       -1   -1    0    0    0  501  0.00000000000E+00  0.00000000000E+00  0.27082551388E+04  0.27082551388E+04  0.50400001928E-02 0. -1.
        1   -1    0    0  501    0  0.00000000000E+00  0.00000000000E+00 -0.67649276579E+03  0.67649276581E+03  0.50400001928E-02 0.  1.
    10030    2    1    2    0    0  0.00000000000E+00  0.00000000000E+00  0.20317623730E+04  0.33847479046E+04  0.27071128601E+04 0.  0.
        5    1    3    3  502    0  0.23561600802E+03 -0.40966166624E+03 -0.56997925573E+03  0.74042962257E+03  0.46999998093E+01 0.  1.
       -5    1    3    3    0  502 -0.23561600802E+03  0.40966166624E+03  0.26017416288E+04  0.26443182821E+04  0.46999998093E+01 0. -1.
</event>
<event>
 5   0  0.1243055E-06  0.2779969E+04  0.7818609E-02  0.8309514E-01
        1   -1    0    0  501    0  0.00000000000E+00  0.00000000000E+00  0.15661198434E+04  0.15661198434E+04  0.50400001928E-02 0.  1.
       -1   -1    0    0    0  501  0.00000000000E+00  0.00000000000E+00 -0.12336588247E+04  0.12336588248E+04  0.50400001928E-02 0. -1.
    10030    2    1    2    0    0  0.00000000000E+00  0.00000000000E+00  0.33246101865E+03  0.27997786682E+04  0.27799694714E+04 0.  0.
        5    1    3    3  502    0 -0.11737688445E+04  0.32531085260E+03  0.84068523907E+03  0.14799777743E+04  0.46999998093E+01 0.  1.
       -5    1    3    3    0  502  0.11737688445E+04 -0.32531085260E+03 -0.50822422042E+03  0.13198008939E+04  0.46999998093E+01 0. -1.
</event>
<event>
 5   0  0.1220265E-06  0.2794860E+04  0.7818609E-02  0.8304866E-01
        1   -1    0    0  501    0  0.00000000000E+00  0.00000000000E+00  0.16793674908E+04  0.16793674909E+04  0.50400001928E-02 0.  1.
       -1   -1    0    0    0  501  0.00000000000E+00  0.00000000000E+00 -0.11628251590E+04  0.11628251590E+04  0.50400001928E-02 0. -1.
    10030    2    1    2    0    0  0.00000000000E+00  0.00000000000E+00  0.51654233184E+03  0.28421926499E+04  0.27948601179E+04 0.  0.
        4    1    3    3  502    0  0.62108828944E+03  0.29986356148E+03  0.14942308783E+04  0.16457206170E+04  0.12699999809E+01 0.  1.
       -4    1    3    3    0  502 -0.62108828944E+03 -0.29986356148E+03 -0.97768854641E+03  0.11964720329E+04  0.12699999809E+01 0. -1.
</event>
<event>
 5   0  0.3212679E-06  0.2792079E+04  0.7818609E-02  0.8305732E-01
        2   -1    0    0  501    0  0.00000000000E+00  0.00000000000E+00  0.14616482390E+04  0.14616482390E+04  0.25500000920E-02 0.  1.
       -2   -1    0    0    0  501  0.00000000000E+00  0.00000000000E+00 -0.13333759770E+04  0.13333759770E+04  0.25500000920E-02 0. -1.
    10030    2    1    2    0    0  0.00000000000E+00  0.00000000000E+00  0.12827226204E+03  0.27950242160E+04  0.27920792601E+04 0.  0.
        4    1    3    3  502    0  0.65795167530E+03 -0.76222752338E+03  0.10321275216E+04  0.14419362116E+04  0.12699999809E+01 0.  1.
       -4    1    3    3    0  502 -0.65795167530E+03  0.76222752338E+03 -0.90385525961E+03  0.13530880044E+04  0.12699999809E+01 0. -1.
</event>
<event>
 5   0  0.3162695E-06  0.2794288E+04  0.7818609E-02  0.8305044E-01
        2   -1    0    0  501    0  0.00000000000E+00  0.00000000000E+00  0.14091819425E+04  0.14091819425E+04  0.25500000920E-02 0.  1.
       -2   -1    0    0    0  501  0.00000000000E+00  0.00000000000E+00 -0.13852088483E+04  0.13852088483E+04  0.25500000920E-02 0. -1.
    10030    2    1    2    0    0  0.00000000000E+00  0.00000000000E+00  0.23973094209E+02  0.27943907908E+04  0.27942879562E+04 0.  0.
        1    1    3    3  502    0  0.98728012384E+03 -0.46758052625E+03 -0.85905509650E+03  0.13897227243E+04  0.50400001928E-02 0. -1.
       -1    1    3    3    0  502 -0.98728012384E+03  0.46758052625E+03  0.88302819071E+03  0.14046680665E+04  0.50400001928E-02 0.  1.
</event>
<event>
 5   0  0.3226364E-06  0.2832611E+04  0.7818609E-02  0.8293215E-01
       -2   -1    0    0    0  501  0.00000000000E+00  0.00000000000E+00  0.95727601739E+03  0.95727601739E+03  0.25500000920E-02 0. -1.
        2   -1    0    0  501    0  0.00000000000E+00  0.00000000000E+00 -0.20954469000E+04  0.20954469000E+04  0.25500000920E-02 0.  1.
    10030    2    1    2    0    0  0.00000000000E+00  0.00000000000E+00 -0.11381708826E+04  0.30527229174E+04  0.28326108544E+04 0.  0.
        5    1    3    3  502    0 -0.95702999324E+03 -0.94174291297E+03 -0.10547866376E+04  0.17074492856E+04  0.46999998093E+01 0.  1.
       -5    1    3    3    0  502  0.95702999324E+03  0.94174291297E+03 -0.83384245036E+02  0.13452736318E+04  0.46999998093E+01 0. -1.
</event>
<event>
 5   0  0.3212679E-06  0.2805762E+04  0.7818609E-02  0.8301482E-01
       -2   -1    0    0    0  501  0.00000000000E+00  0.00000000000E+00  0.15886792264E+04  0.15886792264E+04  0.25500000920E-02 0. -1.
        2   -1    0    0  501    0  0.00000000000E+00  0.00000000000E+00 -0.12388125160E+04  0.12388125160E+04  0.25500000920E-02 0.  1.
    10030    2    1    2    0    0  0.00000000000E+00  0.00000000000E+00  0.34986671036E+03  0.28274917424E+04  0.28057624344E+04 0.  0.
        4    1    3    3  502    0 -0.63934014196E+03 -0.11646186608E+04 -0.27909067879E+03  0.13575660802E+04  0.12699999809E+01 0. -1.
       -4    1    3    3    0  502  0.63934014196E+03  0.11646186608E+04  0.62895738915E+03  0.14699256622E+04  0.12699999809E+01 0.  1.
</event>
<event>
 5   0  0.1246044E-06  0.2796553E+04  0.7818609E-02  0.8304339E-01
       -1   -1    0    0    0  501  0.00000000000E+00  0.00000000000E+00  0.76006450145E+03  0.76006450146E+03  0.50400001928E-02 0.  1.
        1   -1    0    0  501    0  0.00000000000E+00  0.00000000000E+00 -0.25723832597E+04  0.25723832597E+04  0.50400001928E-02 0. -1.
    10030    2    1    2    0    0  0.00000000000E+00  0.00000000000E+00 -0.18123187582E+04  0.33324477611E+04  0.27965530210E+04 0.  0.
        2    1    3    3  502    0 -0.49017322151E+03 -0.11831182764E+04 -0.15751053826E+04  0.20300235489E+04  0.25500000920E-02 0. -1.
       -2    1    3    3    0  502  0.49017322151E+03  0.11831182764E+04 -0.23721337563E+03  0.13024242122E+04  0.25500000920E-02 0.  1.
</event>
<event>
 5   0  0.1235252E-06  0.2788813E+04  0.7818609E-02  0.8306750E-01
       -1   -1    0    0    0  501  0.00000000000E+00  0.00000000000E+00  0.10937283200E+04  0.10937283200E+04  0.50400001928E-02 0. -1.
        1   -1    0    0  501    0  0.00000000000E+00  0.00000000000E+00 -0.17777444462E+04  0.17777444462E+04  0.50400001928E-02 0.  1.
    10030    2    1    2    0    0  0.00000000000E+00  0.00000000000E+00 -0.68401612614E+03  0.28714727662E+04  0.27888129708E+04 0.  0.
        1    1    3    3  502    0  0.12978219168E+04  0.69588717899E+02 -0.86213936801E+03  0.15596373319E+04  0.50400001928E-02 0.  1.
       -1    1    3    3    0  502 -0.12978219168E+04 -0.69588717899E+02  0.17812324188E+03  0.13118354343E+04  0.50400001928E-02 0. -1.
</event>
<event>
 5   0  0.3226364E-06  0.2800316E+04  0.7818609E-02  0.8303170E-01
       -2   -1    0    0    0  501  0.00000000000E+00  0.00000000000E+00  0.11739798228E+04  0.11739798228E+04  0.25500000920E-02 0. -1.
        2   -1    0    0  501    0  0.00000000000E+00  0.00000000000E+00 -0.16699110232E+04  0.16699110232E+04  0.25500000920E-02 0.  1.
    10030    2    1    2    0    0  0.00000000000E+00  0.00000000000E+00 -0.49593120040E+03  0.28438908461E+04  0.28003155874E+04 0.  0.
        5    1    3    3  502    0 -0.72404172894E+03  0.90381387080E+03  0.55123872314E+03  0.12825763752E+04  0.46999998093E+01 0. -1.
       -5    1    3    3    0  502  0.72404172894E+03 -0.90381387080E+03 -0.10471699235E+04  0.15613144709E+04  0.46999998093E+01 0.  1.
</event>
<event>
 5   0  0.3162695E-06  0.2807526E+04  0.7818609E-02  0.8300936E-01
        2   -1    0    0  501    0  0.00000000000E+00  0.00000000000E+00  0.21633118125E+04  0.21633118125E+04  0.25500000920E-02 0. -1.
       -2   -1    0    0    0  501  0.00000000000E+00  0.00000000000E+00 -0.91089520019E+03  0.91089520019E+03  0.25500000920E-02 0.  1.
    10030    2    1    2    0    0  0.00000000000E+00  0.00000000000E+00  0.12524166123E+04  0.30742070127E+04  0.28075258478E+04 0.  0.
        1    1    3    3  502    0  0.37461279734E+03 -0.12639915325E+04  0.11542389383E+04  0.17522205537E+04  0.50400001928E-02 0. -1.
       -1    1    3    3    0  502 -0.37461279734E+03  0.12639915325E+04  0.98177674018E+02  0.13219864590E+04  0.50400001928E-02 0.  1.
</event>
<event>
 5   0  0.1065675E-06  0.2781635E+04  0.7818609E-02  0.8308993E-01
       -3   -1    0    0    0  501  0.00000000000E+00  0.00000000000E+00  0.16070877048E+04  0.16070877080E+04  0.10100000352E+00 0.  1.
        3   -1    0    0  501    0  0.00000000000E+00  0.00000000000E+00 -0.12036513758E+04  0.12036513800E+04  0.10100000352E+00 0. -1.
    10030    2    1    2    0    0  0.00000000000E+00  0.00000000000E+00  0.40343632901E+03  0.28107390880E+04  0.27816350136E+04 0.  0.
        2    1    3    3  502    0 -0.42931889016E+03  0.54956559657E+03 -0.10142161393E+04  0.12308417573E+04  0.25500000920E-02 0. -1.
       -2    1    3    3    0  502  0.42931889016E+03 -0.54956559657E+03  0.14176524683E+04  0.15798973306E+04  0.25500000920E-02 0.  1.
</event>
<event>
 5   0  0.1263513E-06  0.2795166E+04  0.7818609E-02  0.8304771E-01
       -1   -1    0    0    0  501  0.00000000000E+00  0.00000000000E+00  0.13882980911E+04  0.13882980911E+04  0.50400001928E-02 0.  1.
        1   -1    0    0  501    0  0.00000000000E+00  0.00000000000E+00 -0.14069297157E+04  0.14069297157E+04  0.50400001928E-02 0. -1.
    10030    2    1    2    0    0  0.00000000000E+00  0.00000000000E+00 -0.18631624608E+02  0.27952278069E+04  0.27951657115E+04 0.  0.
        3    1    3    3  502    0  0.11916919156E+04  0.61848073567E+03  0.37875180721E+03  0.13950272340E+04  0.10100000352E+00 0.  1.
       -3    1    3    3    0  502 -0.11916919156E+04 -0.61848073567E+03 -0.39738343182E+03  0.14002005728E+04  0.10100000352E+00 0. -1.
</event>
<event>
 5   0  0.3226364E-06  0.2789578E+04  0.7818609E-02  0.8306511E-01
       -2   -1    0    0    0  501  0.00000000000E+00  0.00000000000E+00  0.12485715128E+04  0.12485715128E+04  0.25500000920E-02 0.  1.
        2   -1    0    0  501    0  0.00000000000E+00  0.00000000000E+00 -0.15581300369E+04  0.15581300369E+04  0.25500000920E-02 0. -1.
    10030    2    1    2    0    0  0.00000000000E+00  0.00000000000E+00 -0.30955852407E+03  0.28067015497E+04  0.27895783031E+04 0.  0.
        5    1    3    3  502    0  0.75798970024E+03 -0.11425922376E+04  0.10242495357E+03  0.13749830429E+04  0.46999998093E+01 0.  1.
       -5    1    3    3    0  502 -0.75798970024E+03  0.11425922376E+04 -0.41198347764E+03  0.14317185069E+04  0.46999998093E+01 0. -1.
</event>
<event>
 5   0  0.1263513E-06  0.2788731E+04  0.7818609E-02  0.8306775E-01
        1   -1    0    0  501    0  0.00000000000E+00  0.00000000000E+00  0.14797183021E+04  0.14797183021E+04  0.50400001928E-02 0.  1.
       -1   -1    0    0    0  501  0.00000000000E+00  0.00000000000E+00 -0.13139361232E+04  0.13139361233E+04  0.50400001928E-02 0. -1.
    10030    2    1    2    0    0  0.00000000000E+00  0.00000000000E+00  0.16578217888E+03  0.27936544254E+04  0.27887311304E+04 0.  0.
        3    1    3    3  502    0  0.96152064704E+03  0.82181933693E+03  0.67073737066E+03  0.14317114262E+04  0.10100000352E+00 0.  1.
       -3    1    3    3    0  502 -0.96152064704E+03 -0.82181933693E+03 -0.50495519177E+03  0.13619429992E+04  0.10100000352E+00 0. -1.
</event>
<event>
 5   0  0.3226364E-06  0.2809164E+04  0.7818609E-02  0.8300429E-01
       -2   -1    0    0    0  501  0.00000000000E+00  0.00000000000E+00  0.11453613141E+04  0.11453613141E+04  0.25500000920E-02 0.  1.
        2   -1    0    0  501    0  0.00000000000E+00  0.00000000000E+00 -0.17224701079E+04  0.17224701079E+04  0.25500000920E-02 0. -1.
    10030    2    1    2    0    0  0.00000000000E+00  0.00000000000E+00 -0.57710879384E+03  0.28678314220E+04  0.28091640225E+04 0.  0.
        5    1    3    3  502    0 -0.10909143705E+04  0.20267807785E+03  0.59062554131E+03  0.12569937100E+04  0.46999998093E+01 0.  1.
       -5    1    3    3    0  502  0.10909143705E+04 -0.20267807785E+03 -0.11677343352E+04  0.16108377120E+04  0.46999998093E+01 0. -1.
</event>
<event>
 5   0  0.1246044E-06  0.2795158E+04  0.7818609E-02  0.8304773E-01
       -1   -1    0    0    0  501  0.00000000000E+00  0.00000000000E+00  0.12200177959E+04  0.12200177959E+04  0.50400001928E-02 0.  1.
        1   -1    0    0  501    0  0.00000000000E+00  0.00000000000E+00 -0.16009825056E+04  0.16009825056E+04  0.50400001928E-02 0. -1.
    10030    2    1    2    0    0  0.00000000000E+00  0.00000000000E+00 -0.38096470974E+03  0.28210003015E+04  0.27951580619E+04 0.  0.
        2    1    3    3  502    0 -0.12793685544E+03  0.13878197755E+04 -0.85522878624E+02  0.13963257969E+04  0.25500000920E-02 0.  1.
       -2    1    3    3    0  502  0.12793685544E+03 -0.13878197755E+04 -0.29544183112E+03  0.14246745046E+04  0.25500000920E-02 0. -1.
</event>
<event>
 5   0  0.3162695E-06  0.2840861E+04  0.7818609E-02  0.8290694E-01
       -2   -1    0    0    0  501  0.00000000000E+00  0.00000000000E+00  0.14159740774E+04  0.14159740774E+04  0.25500000920E-02 0. -1.
        2   -1    0    0  501    0  0.00000000000E+00  0.00000000000E+00 -0.14249006428E+04  0.14249006429E+04  0.25500000920E-02 0.  1.
    10030    2    1    2    0    0  0.00000000000E+00  0.00000000000E+00 -0.89265654204E+01  0.28408747203E+04  0.28408606958E+04 0.  0.
        1    1    3    3  502    0  0.65635367086E+03 -0.36806662603E+03 -0.12091887786E+04  0.14242228354E+04  0.50400001928E-02 0.  1.
       -1    1    3    3    0  502 -0.65635367086E+03  0.36806662603E+03  0.12002622132E+04  0.14166518849E+04  0.50400001928E-02 0. -1.
</event>
<event>
 5   0  0.1246044E-06  0.2800091E+04  0.7818609E-02  0.8303240E-01
       -1   -1    0    0    0  501  0.00000000000E+00  0.00000000000E+00  0.14875844408E+04  0.14875844408E+04  0.50400001928E-02 0.  1.
        1   -1    0    0  501    0  0.00000000000E+00  0.00000000000E+00 -0.13176576168E+04  0.13176576168E+04  0.50400001928E-02 0. -1.
    10030    2    1    2    0    0  0.00000000000E+00  0.00000000000E+00  0.16992682392E+03  0.28052420576E+04  0.28000906907E+04 0.  0.
        2    1    3    3  502    0  0.24710999925E+03  0.17705397281E+03  0.14541215311E+04  0.14855574335E+04  0.25500000920E-02 0.  1.
       -2    1    3    3    0  502 -0.24710999925E+03 -0.17705397281E+03 -0.12841947072E+04  0.13196846241E+04  0.25500000920E-02 0. -1.
</event>
<event>
 5   0  0.3212679E-06  0.2742866E+04  0.7818609E-02  0.8321229E-01
       -2   -1    0    0    0  501  0.00000000000E+00  0.00000000000E+00  0.10312794276E+04  0.10312794276E+04  0.25500000920E-02 0. -1.
        2   -1    0    0  501    0  0.00000000000E+00  0.00000000000E+00 -0.18237817664E+04  0.18237817665E+04  0.25500000920E-02 0.  1.
    10030    2    1    2    0    0  0.00000000000E+00  0.00000000000E+00 -0.79250233884E+03  0.28550611941E+04  0.27428661041E+04 0.  0.
        4    1    3    3  502    0  0.57305934150E+03  0.32081588585E+03  0.85695059110E+03  0.10796692873E+04  0.12699999809E+01 0. -1.
       -4    1    3    3    0  502 -0.57305934150E+03 -0.32081588585E+03 -0.16494529299E+04  0.17753919067E+04  0.12699999809E+01 0.  1.
</event>
<event>
 5   0  0.1220265E-06  0.2792766E+04  0.7818609E-02  0.8305518E-01
       -1   -1    0    0    0  501  0.00000000000E+00  0.00000000000E+00  0.14040803390E+04  0.14040803391E+04  0.50400001928E-02 0.  1.
        1   -1    0    0  501    0  0.00000000000E+00  0.00000000000E+00 -0.13887280879E+04  0.13887280879E+04  0.50400001928E-02 0. -1.
    10030    2    1    2    0    0  0.00000000000E+00  0.00000000000E+00  0.15352251112E+02  0.27928084270E+04  0.27927662305E+04 0.  0.
        4    1    3    3  502    0  0.55762631000E+02 -0.66909128627E+03 -0.12167163245E+04  0.13896736479E+04  0.12699999809E+01 0. -1.
       -4    1    3    3    0  502 -0.55762631000E+02  0.66909128627E+03  0.12320685756E+04  0.14031347791E+04  0.12699999809E+01 0.  1.
</event>
<event>
 5   0  0.1246044E-06  0.2786057E+04  0.7818609E-02  0.8307610E-01
       -1   -1    0    0    0  501  0.00000000000E+00  0.00000000000E+00  0.93220761162E+03  0.93220761163E+03  0.50400001928E-02 0. -1.
        1   -1    0    0  501    0  0.00000000000E+00  0.00000000000E+00 -0.20816475727E+04  0.20816475727E+04  0.50400001928E-02 0.  1.
    10030    2    1    2    0    0  0.00000000000E+00  0.00000000000E+00 -0.11494399611E+04  0.30138551844E+04  0.27860565048E+04 0.  0.
        2    1    3    3  502    0 -0.71414867862E+03  0.60905455753E+03  0.53879914608E+03  0.10822478039E+04  0.25500000920E-02 0. -1.
       -2    1    3    3    0  502  0.71414867862E+03 -0.60905455753E+03 -0.16882391072E+04  0.19316073805E+04  0.25500000920E-02 0.  1.
</event>
<event>
 5   0  0.1243055E-06  0.2791165E+04  0.7818609E-02  0.8306017E-01
       -1   -1    0    0    0  501  0.00000000000E+00  0.00000000000E+00  0.20217556947E+04  0.20217556947E+04  0.50400001928E-02 0.  1.
        1   -1    0    0  501    0  0.00000000000E+00  0.00000000000E+00 -0.96334616688E+03  0.96334616690E+03  0.50400001928E-02 0. -1.
    10030    2    1    2    0    0  0.00000000000E+00  0.00000000000E+00  0.10584095278E+04  0.29851018616E+04  0.27911650606E+04 0.  0.
        5    1    3    3  502    0  0.83445788358E+03  0.22758689657E+03  0.17005261433E+04  0.19078592739E+04  0.46999998093E+01 0.  1.
       -5    1    3    3    0  502 -0.83445788358E+03 -0.22758689657E+03 -0.64211661546E+03  0.10772425877E+04  0.46999998093E+01 0. -1.
</event>
<event>
 5   0  0.1246044E-06  0.2815023E+04  0.7818609E-02  0.8298619E-01
        1   -1    0    0  501    0  0.00000000000E+00  0.00000000000E+00  0.17486836187E+04  0.17486836187E+04  0.50400001928E-02 0. -1.
       -1   -1    0    0    0  501  0.00000000000E+00  0.00000000000E+00 -0.11329031312E+04  0.11329031312E+04  0.50400001928E-02 0.  1.
    10030    2    1    2    0    0  0.00000000000E+00  0.00000000000E+00  0.61578048748E+03  0.28815867499E+04  0.28150233727E+04 0.  0.
        2    1    3    3  502    0 -0.11605174705E+04 -0.37654119823E+03  0.10262715920E+04  0.15943078291E+04  0.25500000920E-02 0. -1.
       -2    1    3    3    0  502  0.11605174705E+04  0.37654119823E+03 -0.41049110450E+03  0.12872789209E+04  0.25500000920E-02 0.  1.
</event>
<event>
 5   0  0.1263513E-06  0.2834546E+04  0.7818609E-02  0.8292623E-01
        1   -1    0    0  501    0  0.00000000000E+00  0.00000000000E+00  0.18355255633E+04  0.18355255634E+04  0.50400001928E-02 0.  1.
       -1   -1    0    0    0  501  0.00000000000E+00  0.00000000000E+00 -0.10943256247E+04  0.10943256247E+04  0.50400001928E-02 0. -1.
    10030    2    1    2    0    0  0.00000000000E+00  0.00000000000E+00  0.74119993869E+03  0.29298511880E+04  0.28345459310E+04 0.  0.
        3    1    3    3  502    0 -0.33749064419E+02  0.97057900099E+03  0.14375370311E+04  0.17348415843E+04  0.10100000352E+00 0.  1.
       -3    1    3    3    0  502  0.33749064419E+02 -0.97057900099E+03 -0.69633709244E+03  0.11950096037E+04  0.10100000352E+00 0. -1.
</event>
<event>
 5   0  0.1243055E-06  0.2822679E+04  0.7818609E-02  0.8296262E-01
        1   -1    0    0  501    0  0.00000000000E+00  0.00000000000E+00  0.10744830852E+04  0.10744830852E+04  0.50400001928E-02 0.  1.
       -1   -1    0    0    0  501  0.00000000000E+00  0.00000000000E+00 -0.18538017506E+04  0.18538017506E+04  0.50400001928E-02 0. -1.
    10030    2    1    2    0    0  0.00000000000E+00  0.00000000000E+00 -0.77931866538E+03  0.29282848358E+04  0.28226786032E+04 0.  0.
        5    1    3    3  502    0  0.30209756952E+03  0.90654718168E+03  0.68783618485E+03  0.11773833026E+04  0.46999998093E+01 0.  1.
       -5    1    3    3    0  502 -0.30209756952E+03 -0.90654718168E+03 -0.14671548502E+04  0.17509015331E+04  0.46999998093E+01 0. -1.
</event>
<event>
 5   0  0.1243055E-06  0.2800802E+04  0.7818609E-02  0.8303020E-01
        1   -1    0    0  501    0  0.00000000000E+00  0.00000000000E+00  0.15476766255E+04  0.15476766255E+04  0.50400001928E-02 0.  1.
       -1   -1    0    0    0  501  0.00000000000E+00  0.00000000000E+00 -0.12671396962E+04  0.12671396962E+04  0.50400001928E-02 0. -1.
    10030    2    1    2    0    0  0.00000000000E+00  0.00000000000E+00  0.28053692927E+03  0.28148163217E+04  0.28008016631E+04 0.  0.
        5    1    3    3  502    0 -0.57781803918E+03  0.68547052876E+01  0.14222609136E+04  0.15351771461E+04  0.46999998093E+01 0.  1.
       -5    1    3    3    0  502  0.57781803918E+03 -0.68547052876E+01 -0.11417239843E+04  0.12796391756E+04  0.46999998093E+01 0. -1.
</event>
<event>
 5   0  0.1243055E-06  0.2797241E+04  0.7818609E-02  0.8304125E-01
       -1   -1    0    0    0  501  0.00000000000E+00  0.00000000000E+00  0.11589115103E+04  0.11589115103E+04  0.50400001928E-02 0.  1.
        1   -1    0    0  501    0  0.00000000000E+00  0.00000000000E+00 -0.16879108816E+04  0.16879108816E+04  0.50400001928E-02 0. -1.
    10030    2    1    2    0    0  0.00000000000E+00  0.00000000000E+00 -0.52899937136E+03  0.28468223919E+04  0.27972410329E+04 0.  0.
        5    1    3    3  502    0  0.24266633109E+03  0.13083118768E+04  0.17389104685E+03  0.13419489936E+04  0.46999998093E+01 0. -1.
       -5    1    3    3    0  502 -0.24266633109E+03 -0.13083118768E+04 -0.70289041821E+03  0.15048733984E+04  0.46999998093E+01 0.  1.
</event>
<event>
 5   0  0.3212679E-06  0.2806538E+04  0.7818609E-02  0.8301241E-01
        2   -1    0    0  501    0  0.00000000000E+00  0.00000000000E+00  0.11560540800E+04  0.11560540800E+04  0.25500000920E-02 0.  1.
       -2   -1    0    0    0  501  0.00000000000E+00  0.00000000000E+00 -0.17033495815E+04  0.17033495815E+04  0.25500000920E-02 0. -1.
    10030    2    1    2    0    0  0.00000000000E+00  0.00000000000E+00 -0.54729550147E+03  0.28594036616E+04  0.28065382473E+04 0.  0.
        4    1    3    3  502    0  0.59698841044E+02  0.94329912084E+03  0.78309027259E+03  0.12274400885E+04  0.12699999809E+01 0.  1.
       -4    1    3    3    0  502 -0.59698841044E+02 -0.94329912084E+03 -0.13303857741E+04  0.16319635730E+04  0.12699999809E+01 0. -1.
</event>
<event>
 5   0  0.1220265E-06  0.2804862E+04  0.7818609E-02  0.8301760E-01
        1   -1    0    0  501    0  0.00000000000E+00  0.00000000000E+00  0.21936467815E+04  0.21936467815E+04  0.50400001928E-02 0. -1.
       -1   -1    0    0    0  501  0.00000000000E+00  0.00000000000E+00 -0.89659527392E+03  0.89659527393E+03  0.50400001928E-02 0.  1.
    10030    2    1    2    0    0  0.00000000000E+00  0.00000000000E+00  0.12970515076E+04  0.30902420554E+04  0.28048624472E+04 0.  0.
        4    1    3    3  502    0  0.77807995410E+03  0.34053327133E+03  0.18780650273E+04  0.20611892643E+04  0.12699999809E+01 0. -1.
       -4    1    3    3    0  502 -0.77807995410E+03 -0.34053327133E+03 -0.58101351970E+03  0.10290527911E+04  0.12699999809E+01 0.  1.
</event>
<event>
 5   0  0.3167616E-06  0.2804244E+04  0.7818609E-02  0.8301952E-01
       -2   -1    0    0    0  501  0.00000000000E+00  0.00000000000E+00  0.22299309351E+04  0.22299309351E+04  0.25500000920E-02 0.  1.
        2   -1    0    0  501    0  0.00000000000E+00  0.00000000000E+00 -0.88161729615E+03  0.88161729615E+03  0.25500000920E-02 0. -1.
    10030    2    1    2    0    0  0.00000000000E+00  0.00000000000E+00  0.13483136390E+04  0.31115482313E+04  0.28042436996E+04 0.  0.
        3    1    3    3  502    0 -0.16913267255E+03  0.21084253950E+03  0.22007486227E+04  0.22172854908E+04  0.10100000352E+00 0.  1.
       -3    1    3    3    0  502  0.16913267255E+03 -0.21084253950E+03 -0.85243498369E+03  0.89426274048E+03  0.10100000352E+00 0. -1.
</event>
<event>
 5   0  0.3162695E-06  0.2782820E+04  0.7818609E-02  0.8308622E-01
        2   -1    0    0  501    0  0.00000000000E+00  0.00000000000E+00  0.17538246533E+04  0.17538246533E+04  0.25500000920E-02 0.  1.
       -2   -1    0    0    0  501  0.00000000000E+00  0.00000000000E+00 -0.11038853297E+04  0.11038853297E+04  0.25500000920E-02 0. -1.
    10030    2    1    2    0    0  0.00000000000E+00  0.00000000000E+00  0.64993932358E+03  0.28577099829E+04  0.27828196532E+04 0.  0.
        1    1    3    3  502    0 -0.10559811057E+04  0.64879359536E+03 -0.32449987666E+03  0.12811437839E+04  0.50400001928E-02 0. -1.
       -1    1    3    3    0  502  0.10559811057E+04 -0.64879359536E+03  0.97443920024E+03  0.15765661991E+04  0.50400001928E-02 0.  1.
</event>
<event>
 5   0  0.1220265E-06  0.2836566E+04  0.7818609E-02  0.8292005E-01
       -1   -1    0    0    0  501  0.00000000000E+00  0.00000000000E+00  0.13546622486E+04  0.13546622486E+04  0.50400001928E-02 0. -1.
        1   -1    0    0  501    0  0.00000000000E+00  0.00000000000E+00 -0.14848920455E+04  0.14848920456E+04  0.50400001928E-02 0.  1.
    10030    2    1    2    0    0  0.00000000000E+00  0.00000000000E+00 -0.13022979693E+03  0.28395542942E+04  0.28365663732E+04 0.  0.
        4    1    3    3  502    0  0.49042157965E+03  0.69073436996E+03 -0.12038095905E+04  0.14720008284E+04  0.12699999809E+01 0.  1.
       -4    1    3    3    0  502 -0.49042157965E+03 -0.69073436996E+03  0.10735797936E+04  0.13675534658E+04  0.12699999809E+01 0. -1.
</event>
<event>
 5   0  0.3162695E-06  0.2802281E+04  0.7818609E-02  0.8302560E-01
       -2   -1    0    0    0  501  0.00000000000E+00  0.00000000000E+00  0.10315536799E+04  0.10315536799E+04  0.25500000920E-02 0.  1.
        2   -1    0    0  501    0  0.00000000000E+00  0.00000000000E+00 -0.19031438074E+04  0.19031438074E+04  0.25500000920E-02 0. -1.
    10030    2    1    2    0    0  0.00000000000E+00  0.00000000000E+00 -0.87159012757E+03  0.29346974873E+04  0.28022812121E+04 0.  0.
        1    1    3    3  502    0 -0.10696271442E+04  0.71840533438E+03  0.14065713109E+03  0.12961453933E+04  0.50400001928E-02 0.  1.
       -1    1    3    3    0  502  0.10696271442E+04 -0.71840533438E+03 -0.10122472587E+04  0.16385520940E+04  0.50400001928E-02 0. -1.
</event>
<event>
 5   0  0.3167616E-06  0.2783409E+04  0.7818609E-02  0.8308438E-01
       -2   -1    0    0    0  501  0.00000000000E+00  0.00000000000E+00  0.82522972421E+03  0.82522972421E+03  0.25500000920E-02 0.  1.
        2   -1    0    0  501    0  0.00000000000E+00  0.00000000000E+00 -0.23470326942E+04  0.23470326942E+04  0.25500000920E-02 0. -1.
    10030    2    1    2    0    0  0.00000000000E+00  0.00000000000E+00 -0.15218029700E+04  0.31722624184E+04  0.27834088043E+04 0.  0.
        3    1    3    3  502    0  0.39752760429E+03  0.83610409640E+03  0.42337275660E+03  0.10180092128E+04  0.10100000352E+00 0.  1.
       -3    1    3    3    0  502 -0.39752760429E+03 -0.83610409640E+03 -0.19451757266E+04  0.21542532055E+04  0.10100000352E+00 0. -1.
</event>
<event>
 5   0  0.1246044E-06  0.2823858E+04  0.7818609E-02  0.8295899E-01
        1   -1    0    0  501    0  0.00000000000E+00  0.00000000000E+00  0.27962024975E+04  0.27962024975E+04  0.50400001928E-02 0. -1.
       -1   -1    0    0    0  501  0.00000000000E+00  0.00000000000E+00 -0.71294682488E+03  0.71294682490E+03  0.50400001928E-02 0.  1.
    10030    2    1    2    0    0  0.00000000000E+00  0.00000000000E+00  0.20832556726E+04  0.35091493224E+04  0.28238581355E+04 0.  0.
        2    1    3    3  502    0 -0.12215753609E+04 -0.67431321231E+03  0.77337311529E+03  0.15953214867E+04  0.25500000920E-02 0.  1.
       -2    1    3    3    0  502  0.12215753609E+04  0.67431321231E+03  0.13098825573E+04  0.19138278356E+04  0.25500000920E-02 0. -1.
</event>
<event>
 5   0  0.3167616E-06  0.2811079E+04  0.7818609E-02  0.8299837E-01
        2   -1    0    0  501    0  0.00000000000E+00  0.00000000000E+00  0.11640175827E+04  0.11640175827E+04  0.25500000920E-02 0.  1.
       -2   -1    0    0    0  501  0.00000000000E+00  0.00000000000E+00 -0.16971745164E+04  0.16971745164E+04  0.25500000920E-02 0. -1.
    10030    2    1    2    0    0  0.00000000000E+00  0.00000000000E+00 -0.53315693367E+03  0.28611920991E+04  0.28110787808E+04 0.  0.
        3    1    3    3  502    0  0.12063904425E+04 -0.49018656426E+03  0.27188976757E+03  0.13302574275E+04  0.10100000352E+00 0.  1.
       -3    1    3    3    0  502 -0.12063904425E+04  0.49018656426E+03 -0.80504670124E+03  0.15309346716E+04  0.10100000352E+00 0. -1.
</event>
<event>
 5   0  0.1235252E-06  0.2757386E+04  0.7818609E-02  0.8316622E-01
       -1   -1    0    0    0  501  0.00000000000E+00  0.00000000000E+00  0.11732497721E+04  0.11732497721E+04  0.50400001928E-02 0.  1.
        1   -1    0    0  501    0  0.00000000000E+00  0.00000000000E+00 -0.16201100121E+04  0.16201100121E+04  0.50400001928E-02 0. -1.
    10030    2    1    2    0    0  0.00000000000E+00  0.00000000000E+00 -0.44686023994E+03  0.27933597842E+04  0.27573855026E+04 0.  0.
        1    1    3    3  502    0  0.39946569728E+03  0.11745752339E+04  0.38574186663E+03  0.12992292373E+04  0.50400001928E-02 0. -1.
       -1    1    3    3    0  502 -0.39946569728E+03 -0.11745752339E+04 -0.83260210657E+03  0.14941305469E+04  0.50400001928E-02 0.  1.
</event>
<event>
 5   0  0.1246044E-06  0.2805349E+04  0.7818609E-02  0.8301610E-01
        1   -1    0    0  501    0  0.00000000000E+00  0.00000000000E+00  0.16850126023E+04  0.16850126023E+04  0.50400001928E-02 0.  1.
       -1   -1    0    0    0  501  0.00000000000E+00  0.00000000000E+00 -0.11676443332E+04  0.11676443332E+04  0.50400001928E-02 0. -1.
    10030    2    1    2    0    0  0.00000000000E+00  0.00000000000E+00  0.51736826909E+03  0.28526569354E+04  0.28053487600E+04 0.  0.
        2    1    3    3  502    0 -0.52442237097E+03 -0.13007812159E+04  0.23723767604E+03  0.14224388598E+04  0.25500000920E-02 0.  1.
       -2    1    3    3    0  502  0.52442237097E+03  0.13007812159E+04  0.28013059305E+03  0.14302180757E+04  0.25500000920E-02 0. -1.
</event>
<event>
 5   0  0.1235252E-06  0.2788350E+04  0.7818609E-02  0.8306894E-01
       -1   -1    0    0    0  501  0.00000000000E+00  0.00000000000E+00  0.80270121917E+03  0.80270121919E+03  0.50400001928E-02 0.  1.
        1   -1    0    0  501    0  0.00000000000E+00  0.00000000000E+00 -0.24214788636E+04  0.24214788636E+04  0.50400001928E-02 0. -1.
    10030    2    1    2    0    0  0.00000000000E+00  0.00000000000E+00 -0.16187776444E+04  0.32241800828E+04  0.27883500756E+04 0.  0.
        1    1    3    3  502    0 -0.12070430510E+03 -0.13471456702E+04 -0.12004060289E+04  0.18084096937E+04  0.50400001928E-02 0. -1.
       -1    1    3    3    0  502  0.12070430510E+03  0.13471456702E+04 -0.41837161551E+03  0.14157703891E+04  0.50400001928E-02 0.  1.
</event>
<event>
 5   0  0.3162695E-06  0.2817011E+04  0.7818609E-02  0.8298007E-01
        2   -1    0    0  501    0  0.00000000000E+00  0.00000000000E+00  0.21008890201E+04  0.21008890201E+04  0.25500000920E-02 0.  1.
       -2   -1    0    0    0  501  0.00000000000E+00  0.00000000000E+00 -0.94430836805E+03  0.94430836806E+03  0.25500000920E-02 0. -1.
    10030    2    1    2    0    0  0.00000000000E+00  0.00000000000E+00  0.11565806521E+04  0.30451973882E+04  0.28170105304E+04 0.  0.
        1    1    3    3  502    0  0.27212392578E+03 -0.10779136646E+03  0.20676509578E+04  0.20882650438E+04  0.50400001928E-02 0.  1.
       -1    1    3    3    0  502 -0.27212392578E+03  0.10779136646E+03 -0.91107030577E+03  0.95693234439E+03  0.50400001928E-02 0. -1.
</event>
<event>
 5   0  0.1235252E-06  0.2798190E+04  0.7818609E-02  0.8303831E-01
        1   -1    0    0  501    0  0.00000000000E+00  0.00000000000E+00  0.14318574663E+04  0.14318574663E+04  0.50400001928E-02 0. -1.
       -1   -1    0    0    0  501  0.00000000000E+00  0.00000000000E+00 -0.13670820198E+04  0.13670820198E+04  0.50400001928E-02 0.  1.
    10030    2    1    2    0    0  0.00000000000E+00  0.00000000000E+00  0.64775446532E+02  0.27989394861E+04  0.27981898414E+04 0.  0.
        1    1    3    3  502    0 -0.81900157849E+03 -0.91611591064E+03  0.70147248654E+03  0.14149542737E+04  0.50400001928E-02 0. -1.
       -1    1    3    3    0  502  0.81900157849E+03  0.91611591064E+03 -0.63669704001E+03  0.13839852124E+04  0.50400001928E-02 0.  1.
</event>
<event>
 5   0  0.1220265E-06  0.2784678E+04  0.7818609E-02  0.8308041E-01
       -1   -1    0    0    0  501  0.00000000000E+00  0.00000000000E+00  0.15067471077E+04  0.15067471077E+04  0.50400001928E-02 0. -1.
        1   -1    0    0  501    0  0.00000000000E+00  0.00000000000E+00 -0.12866182199E+04  0.12866182199E+04  0.50400001928E-02 0.  1.
    10030    2    1    2    0    0  0.00000000000E+00  0.00000000000E+00  0.22012888779E+03  0.27933653277E+04  0.27846782806E+04 0.  0.
        4    1    3    3  502    0 -0.10299156847E+04 -0.62177022257E+03  0.81316622724E+03  0.14520900293E+04  0.12699999809E+01 0. -1.
       -4    1    3    3    0  502  0.10299156847E+04  0.62177022257E+03 -0.59303733945E+03  0.13412752984E+04  0.12699999809E+01 0.  1.
</event>
<event>
 5   0  0.3345919E-06  0.2791725E+04  0.7818609E-02  0.8305842E-01
       -2   -1    0    0    0  501  0.00000000000E+00  0.00000000000E+00  0.11284882978E+04  0.11284882978E+04  0.25500000920E-02 0.  1.
        2   -1    0    0  501    0  0.00000000000E+00  0.00000000000E+00 -0.17265859714E+04  0.17265859714E+04  0.25500000920E-02 0. -1.
    10030    2    1    2    0    0  0.00000000000E+00  0.00000000000E+00 -0.59809767363E+03  0.28550742692E+04  0.27917249606E+04 0.  0.
        2    1    3    3  502    0  0.71089336647E+03 -0.11870592071E+03  0.92347286604E+03  0.11714361307E+04  0.25500000920E-02 0.  1.
       -2    1    3    3    0  502 -0.71089336647E+03  0.11870592071E+03 -0.15215705397E+04  0.16836381385E+04  0.25500000920E-02 0. -1.
</event>
<event>
 5   0  0.3345919E-06  0.2780419E+04  0.7818609E-02  0.8309373E-01
       -2   -1    0    0    0  501  0.00000000000E+00  0.00000000000E+00  0.84782135216E+03  0.84782135216E+03  0.25500000920E-02 0. -1.
        2   -1    0    0  501    0  0.00000000000E+00  0.00000000000E+00 -0.22795863744E+04  0.22795863744E+04  0.25500000920E-02 0.  1.
    10030    2    1    2    0    0  0.00000000000E+00  0.00000000000E+00 -0.14317650223E+04  0.31274077266E+04  0.27804186752E+04 0.  0.
        2    1    3    3  502    0 -0.12849827896E+03 -0.11541501707E+04 -0.15755306520E+04  0.19572611628E+04  0.25500000920E-02 0.  1.
       -2    1    3    3    0  502  0.12849827896E+03  0.11541501707E+04  0.14376562969E+03  0.11701465637E+04  0.25500000920E-02 0. -1.
</event>
<event>
 5   0  0.1065675E-06  0.2791256E+04  0.7818609E-02  0.8305988E-01
       -4   -1    0    0    0  501  0.00000000000E+00  0.00000000000E+00  0.94826144714E+03  0.94826229759E+03  0.12699999809E+01 0.  1.
        4   -1    0    0  501    0  0.00000000000E+00  0.00000000000E+00 -0.20540487725E+04  0.20540491651E+04  0.12699999809E+01 0. -1.
    10030    2    1    2    0    0  0.00000000000E+00  0.00000000000E+00 -0.11057873254E+04  0.30023114627E+04  0.27912557228E+04 0.  0.
        1    1    3    3  502    0  0.54176070544E+03 -0.43765480229E+02 -0.19355303186E+04  0.20103973969E+04  0.50400001928E-02 0. -1.
       -1    1    3    3    0  502 -0.54176070544E+03  0.43765480229E+02  0.82974299320E+03  0.99191406584E+03  0.50400001928E-02 0.  1.
</event>
<event>
 5   0  0.3162695E-06  0.2795835E+04  0.7818609E-02  0.8304563E-01
        2   -1    0    0  501    0  0.00000000000E+00  0.00000000000E+00  0.11982765737E+04  0.11982765737E+04  0.25500000920E-02 0. -1.
       -2   -1    0    0    0  501  0.00000000000E+00  0.00000000000E+00 -0.16308198755E+04  0.16308198755E+04  0.25500000920E-02 0.  1.
    10030    2    1    2    0    0  0.00000000000E+00  0.00000000000E+00 -0.43254330186E+03  0.28290964492E+04  0.27958349399E+04 0.  0.
        1    1    3    3  502    0 -0.11606894811E+04  0.69910601448E+03  0.13165602810E+03  0.13613532241E+04  0.50400001928E-02 0. -1.
       -1    1    3    3    0  502  0.11606894811E+04 -0.69910601448E+03 -0.56419932996E+03  0.14677432251E+04  0.50400001928E-02 0.  1.
</event>
<event>
 5   0  0.1263513E-06  0.2803097E+04  0.7818609E-02  0.8302308E-01
        1   -1    0    0  501    0  0.00000000000E+00  0.00000000000E+00  0.12457971089E+04  0.12457971089E+04  0.50400001928E-02 0.  1.
       -1   -1    0    0    0  501  0.00000000000E+00  0.00000000000E+00 -0.15767720645E+04  0.15767720646E+04  0.50400001928E-02 0. -1.
    10030    2    1    2    0    0  0.00000000000E+00  0.00000000000E+00 -0.33097495567E+03  0.28225691734E+04  0.28030969155E+04 0.  0.
        3    1    3    3  502    0 -0.30162288187E+03 -0.12667891571E+04  0.35638584073E+03  0.13500896300E+04  0.10100000352E+00 0.  1.
       -3    1    3    3    0  502  0.30162288187E+03  0.12667891571E+04 -0.68736079640E+03  0.14724795435E+04  0.10100000352E+00 0. -1.
</event>
<event>
 5   0  0.3212679E-06  0.2799997E+04  0.7818609E-02  0.8303269E-01
        2   -1    0    0  501    0  0.00000000000E+00  0.00000000000E+00  0.17275528493E+04  0.17275528493E+04  0.25500000920E-02 0. -1.
       -2   -1    0    0    0  501  0.00000000000E+00  0.00000000000E+00 -0.11345502687E+04  0.11345502687E+04  0.25500000920E-02 0.  1.
    10030    2    1    2    0    0  0.00000000000E+00  0.00000000000E+00  0.59300258060E+03  0.28621031180E+04  0.27999968210E+04 0.  0.
        4    1    3    3  502    0  0.10362652118E+04 -0.28770807084E+03 -0.61969007791E+03  0.12412247697E+04  0.12699999809E+01 0.  1.
       -4    1    3    3    0  502 -0.10362652118E+04  0.28770807084E+03  0.12126926585E+04  0.16208783484E+04  0.12699999809E+01 0. -1.
</event>
<event>
 5   0  0.3226364E-06  0.2795234E+04  0.7818609E-02  0.8304750E-01
        2   -1    0    0  501    0  0.00000000000E+00  0.00000000000E+00  0.13952133221E+04  0.13952133221E+04  0.25500000920E-02 0. -1.
       -2   -1    0    0    0  501  0.00000000000E+00  0.00000000000E+00 -0.14000249107E+04  0.14000249107E+04  0.25500000920E-02 0.  1.
    10030    2    1    2    0    0  0.00000000000E+00  0.00000000000E+00 -0.48115885284E+01  0.27952382328E+04  0.27952340916E+04 0.  0.
        5    1    3    3  502    0 -0.94482039499E+03  0.54078137041E+03 -0.87886658832E+03  0.13991278138E+04  0.46999998093E+01 0.  1.
       -5    1    3    3    0  502  0.94482039499E+03 -0.54078137041E+03  0.87405499979E+03  0.13961104190E+04  0.46999998093E+01 0. -1.
</event>
<event>
 5   0  0.3167616E-06  0.2798629E+04  0.7818609E-02  0.8303694E-01
        2   -1    0    0  501    0  0.00000000000E+00  0.00000000000E+00  0.24258379187E+04  0.24258379188E+04  0.25500000920E-02 0. -1.
       -2   -1    0    0    0  501  0.00000000000E+00  0.00000000000E+00 -0.80717713553E+03  0.80717713554E+03  0.25500000920E-02 0.  1.
    10030    2    1    2    0    0  0.00000000000E+00  0.00000000000E+00  0.16186607832E+04  0.32330150543E+04  0.27986288804E+04 0.  0.
        3    1    3    3  502    0  0.66697619620E+03  0.67785657519E+03  0.19951754130E+04  0.22102198356E+04  0.10100000352E+00 0. -1.
       -3    1    3    3    0  502 -0.66697619620E+03 -0.67785657519E+03 -0.37651462975E+03  0.10227952187E+04  0.10100000352E+00 0.  1.
</event>
<event>
 5   0  0.1235252E-06  0.2818487E+04  0.7818609E-02  0.8297552E-01
        1   -1    0    0  501    0  0.00000000000E+00  0.00000000000E+00  0.23505024628E+04  0.23505024628E+04  0.50400001928E-02 0. -1.
       -1   -1    0    0    0  501  0.00000000000E+00  0.00000000000E+00 -0.84491200082E+03  0.84491200083E+03  0.50400001928E-02 0.  1.
    10030    2    1    2    0    0  0.00000000000E+00  0.00000000000E+00  0.15055904620E+04  0.31954144636E+04  0.28184873523E+04 0.  0.
        1    1    3    3  502    0 -0.54578470499E+03  0.95750806862E+03  0.17484595510E+04  0.20668365797E+04  0.50400001928E-02 0. -1.
       -1    1    3    3    0  502  0.54578470499E+03 -0.95750806862E+03 -0.24286908901E+03  0.11285778839E+04  0.50400001928E-02 0.  1.
</event>
<event>
 5   0  0.1246044E-06  0.2799440E+04  0.7818609E-02  0.8303442E-01
       -1   -1    0    0    0  501  0.00000000000E+00  0.00000000000E+00  0.14417689006E+04  0.14417689006E+04  0.50400001928E-02 0. -1.
        1   -1    0    0  501    0  0.00000000000E+00  0.00000000000E+00 -0.13588970153E+04  0.13588970153E+04  0.50400001928E-02 0.  1.
    10030    2    1    2    0    0  0.00000000000E+00  0.00000000000E+00  0.82871885252E+02  0.28006659159E+04  0.27994395552E+04 0.  0.
        2    1    3    3  502    0 -0.61091099882E+03 -0.11522484357E+04  0.54991714341E+03  0.14153789495E+04  0.25500000920E-02 0.  1.
       -2    1    3    3    0  502  0.61091099882E+03  0.11522484357E+04 -0.46704525815E+03  0.13852869664E+04  0.25500000920E-02 0. -1.
</event>
<event>
 5   0  0.1246044E-06  0.2806412E+04  0.7818609E-02  0.8301280E-01
       -1   -1    0    0    0  501  0.00000000000E+00  0.00000000000E+00  0.97083223972E+03  0.97083223973E+03  0.50400001928E-02 0. -1.
        1   -1    0    0  501    0  0.00000000000E+00  0.00000000000E+00 -0.20281434074E+04  0.20281434074E+04  0.50400001928E-02 0.  1.
    10030    2    1    2    0    0  0.00000000000E+00  0.00000000000E+00 -0.10573111676E+04  0.29989756471E+04  0.28064119489E+04 0.  0.
        2    1    3    3  502    0  0.25886872490E+03  0.31038862318E+02 -0.20020322416E+04  0.20189377217E+04  0.25500000920E-02 0.  1.
       -2    1    3    3    0  502 -0.25886872490E+03 -0.31038862318E+02  0.94472107394E+03  0.98003792542E+03  0.25500000920E-02 0. -1.
</event>
<event>
 5   0  0.3345919E-06  0.2783027E+04  0.7818609E-02  0.8308557E-01
        2   -1    0    0  501    0  0.00000000000E+00  0.00000000000E+00  0.17473278098E+04  0.17473278098E+04  0.25500000920E-02 0.  1.
       -2   -1    0    0    0  501  0.00000000000E+00  0.00000000000E+00 -0.11081547473E+04  0.11081547473E+04  0.25500000920E-02 0. -1.
    10030    2    1    2    0    0  0.00000000000E+00  0.00000000000E+00  0.63917306254E+03  0.28554825571E+04  0.27830268468E+04 0.  0.
        2    1    3    3  502    0  0.88551933684E+03  0.28194327898E+02 -0.78136856604E+03  0.11813027775E+04  0.25500000920E-02 0. -1.
       -2    1    3    3    0  502 -0.88551933684E+03 -0.28194327898E+02  0.14205416286E+04  0.16741797796E+04  0.25500000920E-02 0.  1.
</event>
<event>
 5   0  0.3212679E-06  0.2799593E+04  0.7818609E-02  0.8303395E-01
        2   -1    0    0  501    0  0.00000000000E+00  0.00000000000E+00  0.24016259585E+04  0.24016259585E+04  0.25500000920E-02 0. -1.
       -2   -1    0    0    0  501  0.00000000000E+00  0.00000000000E+00 -0.81587656884E+03  0.81587656884E+03  0.25500000920E-02 0.  1.
    10030    2    1    2    0    0  0.00000000000E+00  0.00000000000E+00  0.15857493896E+04  0.32175025273E+04  0.27995930752E+04 0.  0.
        4    1    3    3  502    0  0.54965353650E+03 -0.68432557950E+03  0.20460632370E+04  0.22263865099E+04  0.12699999809E+01 0. -1.
       -4    1    3    3    0  502 -0.54965353650E+03  0.68432557950E+03 -0.46031384735E+03  0.99111601738E+03  0.12699999809E+01 0.  1.
</event>
<event>
 5   0  0.3226364E-06  0.2795784E+04  0.7818609E-02  0.8304578E-01
       -2   -1    0    0    0  501  0.00000000000E+00  0.00000000000E+00  0.12685599525E+04  0.12685599525E+04  0.25500000920E-02 0.  1.
        2   -1    0    0  501    0  0.00000000000E+00  0.00000000000E+00 -0.15404102258E+04  0.15404102258E+04  0.25500000920E-02 0. -1.
    10030    2    1    2    0    0  0.00000000000E+00  0.00000000000E+00 -0.27185027332E+03  0.28089701784E+04  0.27957844859E+04 0.  0.
        5    1    3    3  502    0 -0.92985584880E+03  0.64558319235E+03  0.68810826255E+03  0.13247356826E+04  0.46999998093E+01 0.  1.
       -5    1    3    3    0  502  0.92985584880E+03 -0.64558319235E+03 -0.95995853587E+03  0.14842344958E+04  0.46999998093E+01 0. -1.
</event>
<event>
 5   0  0.1235252E-06  0.2799179E+04  0.7818609E-02  0.8303523E-01
        1   -1    0    0  501    0  0.00000000000E+00  0.00000000000E+00  0.22912634845E+04  0.22912634845E+04  0.50400001928E-02 0. -1.
       -1   -1    0    0    0  501  0.00000000000E+00  0.00000000000E+00 -0.85492154086E+03  0.85492154088E+03  0.50400001928E-02 0.  1.
    10030    2    1    2    0    0  0.00000000000E+00  0.00000000000E+00  0.14363419436E+04  0.31461850253E+04  0.27991788144E+04 0.  0.
        1    1    3    3  502    0 -0.10654757663E+04  0.89767876182E+03  0.56827934105E+03  0.15046618150E+04  0.50400001928E-02 0.  1.
       -1    1    3    3    0  502  0.10654757663E+04 -0.89767876182E+03  0.86806260255E+03  0.16415232103E+04  0.50400001928E-02 0. -1.
</event>
<event>
 5   0  0.1220265E-06  0.2781040E+04  0.7818609E-02  0.8309179E-01
       -1   -1    0    0    0  501  0.00000000000E+00  0.00000000000E+00  0.14702227257E+04  0.14702227257E+04  0.50400001928E-02 0. -1.
        1   -1    0    0  501    0  0.00000000000E+00  0.00000000000E+00 -0.13151380386E+04  0.13151380386E+04  0.50400001928E-02 0.  1.
    10030    2    1    2    0    0  0.00000000000E+00  0.00000000000E+00  0.15508468710E+03  0.27853607644E+04  0.27810399723E+04 0.  0.
        4    1    3    3  502    0  0.11905455887E+04  0.66526515802E+03  0.34919739287E+03  0.14078057257E+04  0.12699999809E+01 0.  1.
       -4    1    3    3    0  502 -0.11905455887E+04 -0.66526515802E+03 -0.19411270577E+03  0.13775550387E+04  0.12699999809E+01 0. -1.
</event>
<event>
 5   0  0.3345919E-06  0.2818042E+04  0.7818609E-02  0.8297689E-01
       -2   -1    0    0    0  501  0.00000000000E+00  0.00000000000E+00  0.12595614922E+04  0.12595614922E+04  0.25500000920E-02 0. -1.
        2   -1    0    0  501    0  0.00000000000E+00  0.00000000000E+00 -0.15762153799E+04  0.15762153799E+04  0.25500000920E-02 0.  1.
    10030    2    1    2    0    0  0.00000000000E+00  0.00000000000E+00 -0.31665388772E+03  0.28357768721E+04  0.28180420124E+04 0.  0.
        2    1    3    3  502    0  0.12757747462E+04  0.48662172264E+03  0.19162346711E+03  0.13788116105E+04  0.25500000920E-02 0.  1.
       -2    1    3    3    0  502 -0.12757747462E+04 -0.48662172264E+03 -0.50827735483E+03  0.14569652616E+04  0.25500000920E-02 0. -1.
</event>
<event>
 5   0  0.3162695E-06  0.2801357E+04  0.7818609E-02  0.8302847E-01
        2   -1    0    0  501    0  0.00000000000E+00  0.00000000000E+00  0.25827789611E+04  0.25827789611E+04  0.25500000920E-02 0.  1.
       -2   -1    0    0    0  501  0.00000000000E+00  0.00000000000E+00 -0.75960850850E+03  0.75960850851E+03  0.25500000920E-02 0. -1.
    10030    2    1    2    0    0  0.00000000000E+00  0.00000000000E+00  0.18231704526E+04  0.33423874696E+04  0.28013574384E+04 0.  0.
        1    1    3    3  502    0 -0.11917354449E+04 -0.51454793048E+03  0.28373512910E+03  0.13287206504E+04  0.50400001928E-02 0. -1.
       -1    1    3    3    0  502  0.11917354449E+04  0.51454793048E+03  0.15394353235E+04  0.20136668192E+04  0.50400001928E-02 0.  1.
</event>
<event>
 5   0  0.3162695E-06  0.2801065E+04  0.7818609E-02  0.8302938E-01
        2   -1    0    0  501    0  0.00000000000E+00  0.00000000000E+00  0.10071671401E+04  0.10071671401E+04  0.25500000920E-02 0. -1.
       -2   -1    0    0    0  501  0.00000000000E+00  0.00000000000E+00 -0.19475326820E+04  0.19475326820E+04  0.25500000920E-02 0.  1.
    10030    2    1    2    0    0  0.00000000000E+00  0.00000000000E+00 -0.94036554193E+03  0.29546998221E+04  0.28010647415E+04 0.  0.
        1    1    3    3  502    0 -0.34805533282E+03  0.12575287076E+04  0.66620200368E+02  0.13065064930E+04  0.50400001928E-02 0. -1.
       -1    1    3    3    0  502  0.34805533282E+03 -0.12575287076E+04 -0.10069857423E+04  0.16481933291E+04  0.50400001928E-02 0.  1.
</event>
<event>
 5   0  0.1246044E-06  0.2803865E+04  0.7818609E-02  0.8302070E-01
        1   -1    0    0  501    0  0.00000000000E+00  0.00000000000E+00  0.22619900642E+04  0.22619900643E+04  0.50400001928E-02 0.  1.
       -1   -1    0    0    0  501  0.00000000000E+00  0.00000000000E+00 -0.86888726732E+03  0.86888726733E+03  0.50400001928E-02 0. -1.
    10030    2    1    2    0    0  0.00000000000E+00  0.00000000000E+00  0.13931027969E+04  0.31308773316E+04  0.28038647369E+04 0.  0.
        2    1    3    3  502    0 -0.10381279456E+04  0.91846475406E+03  0.93111592021E+03  0.16698095678E+04  0.25500000920E-02 0.  1.
       -2    1    3    3    0  502  0.10381279456E+04 -0.91846475406E+03  0.46198687673E+03  0.14610677637E+04  0.25500000920E-02 0. -1.
</event>
<event>
 5   0  0.3226364E-06  0.2781889E+04  0.7818609E-02  0.8308913E-01
        2   -1    0    0  501    0  0.00000000000E+00  0.00000000000E+00  0.11603747869E+04  0.11603747869E+04  0.25500000920E-02 0.  1.
       -2   -1    0    0    0  501  0.00000000000E+00  0.00000000000E+00 -0.16673292492E+04  0.16673292492E+04  0.25500000920E-02 0. -1.
    10030    2    1    2    0    0  0.00000000000E+00  0.00000000000E+00 -0.50695446230E+03  0.28277040361E+04  0.27818891583E+04 0.  0.
        5    1    3    3  502    0  0.69557734621E+03  0.10721336138E+04 -0.81152370202E+03  0.15138993161E+04  0.46999998093E+01 0. -1.
       -5    1    3    3    0  502 -0.69557734621E+03 -0.10721336138E+04  0.30456923972E+03  0.13138047200E+04  0.46999998093E+01 0.  1.
</event>
<event>
 5   0  0.1220265E-06  0.2825806E+04  0.7818609E-02  0.8295301E-01
        1   -1    0    0  501    0  0.00000000000E+00  0.00000000000E+00  0.19883023522E+04  0.19883023522E+04  0.50400001928E-02 0.  1.
       -1   -1    0    0    0  501  0.00000000000E+00  0.00000000000E+00 -0.10040198325E+04  0.10040198325E+04  0.50400001928E-02 0. -1.
    10030    2    1    2    0    0  0.00000000000E+00  0.00000000000E+00  0.98428251969E+03  0.29923221848E+04  0.28258060759E+04 0.  0.
        4    1    3    3  502    0  0.28858379130E+03 -0.53211968287E+03 -0.85974868473E+03  0.10514758082E+04  0.12699999809E+01 0. -1.
       -4    1    3    3    0  502 -0.28858379130E+03  0.53211968287E+03  0.18440312044E+04  0.19408463765E+04  0.12699999809E+01 0.  1.
</event>
<event>
 5   0  0.1235252E-06  0.2807505E+04  0.7818609E-02  0.8300942E-01
       -1   -1    0    0    0  501  0.00000000000E+00  0.00000000000E+00  0.83954727446E+03  0.83954727447E+03  0.50400001928E-02 0.  1.
        1   -1    0    0  501    0  0.00000000000E+00  0.00000000000E+00 -0.23471233145E+04  0.23471233146E+04  0.50400001928E-02 0. -1.
    10030    2    1    2    0    0  0.00000000000E+00  0.00000000000E+00 -0.15075760401E+04  0.31866705890E+04  0.28075049290E+04 0.  0.
        1    1    3    3  502    0 -0.23888477832E+03  0.10996738184E+04  0.19869268471E+03  0.11427279760E+04  0.50400001928E-02 0.  1.
       -1    1    3    3    0  502  0.23888477832E+03 -0.10996738184E+04 -0.17062687248E+04  0.20439426130E+04  0.50400001928E-02 0. -1.
</event>
<event>
 5   0  0.1235252E-06  0.2726231E+04  0.7818609E-02  0.8326544E-01
        1   -1    0    0  501    0  0.00000000000E+00  0.00000000000E+00  0.15638484445E+04  0.15638484445E+04  0.50400001928E-02 0.  1.
       -1   -1    0    0    0  501  0.00000000000E+00  0.00000000000E+00 -0.11881484599E+04  0.11881484599E+04  0.50400001928E-02 0. -1.
    10030    2    1    2    0    0  0.00000000000E+00  0.00000000000E+00  0.37569998457E+03  0.27519969044E+04  0.27262311867E+04 0.  0.
        1    1    3    3  502    0 -0.68078517424E+03  0.83413742686E+02  0.13769720971E+04  0.15383362643E+04  0.50400001928E-02 0.  1.
       -1    1    3    3    0  502  0.68078517424E+03 -0.83413742686E+02 -0.10012721125E+04  0.12136606401E+04  0.50400001928E-02 0. -1.
</event>
<event>
 5   0  0.1246044E-06  0.2797355E+04  0.7818609E-02  0.8304090E-01
        1   -1    0    0  501    0  0.00000000000E+00  0.00000000000E+00  0.14790665971E+04  0.14790665971E+04  0.50400001928E-02 0. -1.
       -1   -1    0    0    0  501  0.00000000000E+00  0.00000000000E+00 -0.13226576806E+04  0.13226576806E+04  0.50400001928E-02 0.  1.
    10030    2    1    2    0    0  0.00000000000E+00  0.00000000000E+00  0.15640891646E+03  0.28017242777E+04  0.27973550327E+04 0.  0.
        2    1    3    3  502    0  0.11487468691E+04  0.26688968695E+02 -0.72051660411E+03  0.13562727776E+04  0.25500000920E-02 0.  1.
       -2    1    3    3    0  502 -0.11487468691E+04 -0.26688968695E+02  0.87692552057E+03  0.14454515001E+04  0.25500000920E-02 0. -1.
</event>
<event>
 5   0  0.1263513E-06  0.2959751E+04  0.7818609E-02  0.8255319E-01
        1   -1    0    0  501    0  0.00000000000E+00  0.00000000000E+00  0.22713472985E+04  0.22713472985E+04  0.50400001928E-02 0. -1.
       -1   -1    0    0    0  501  0.00000000000E+00  0.00000000000E+00 -0.96419907268E+03  0.96419907269E+03  0.50400001928E-02 0.  1.
    10030    2    1    2    0    0  0.00000000000E+00  0.00000000000E+00  0.13071482258E+04  0.32355463712E+04  0.29597506375E+04 0.  0.
        3    1    3    3  502    0 -0.90090186444E+02 -0.59455092926E+03  0.21317664628E+04  0.22149571805E+04  0.10100000352E+00 0. -1.
       -3    1    3    3    0  502  0.90090186444E+02  0.59455092926E+03 -0.82461823701E+03  0.10205891907E+04  0.10100000352E+00 0.  1.
</event>
<event>
 5   0  0.3167616E-06  0.2800524E+04  0.7818609E-02  0.8303106E-01
       -2   -1    0    0    0  501  0.00000000000E+00  0.00000000000E+00  0.94700424562E+03  0.94700424562E+03  0.25500000920E-02 0.  1.
        2   -1    0    0  501    0  0.00000000000E+00  0.00000000000E+00 -0.20704598953E+04  0.20704598953E+04  0.25500000920E-02 0. -1.
    10030    2    1    2    0    0  0.00000000000E+00  0.00000000000E+00 -0.11234556497E+04  0.30174641409E+04  0.28005244589E+04 0.  0.
        3    1    3    3  502    0 -0.11678315837E+04 -0.76218524953E+03 -0.69792088156E+03  0.15594391715E+04  0.10100000352E+00 0. -1.
       -3    1    3    3    0  502  0.11678315837E+04  0.76218524953E+03 -0.42553476812E+03  0.14580249694E+04  0.10100000352E+00 0.  1.
</event>
<event>
 5   0  0.1263513E-06  0.2743522E+04  0.7818609E-02  0.8321020E-01
        1   -1    0    0  501    0  0.00000000000E+00  0.00000000000E+00  0.20456037547E+04  0.20456037547E+04  0.50400001928E-02 0.  1.
       -1   -1    0    0    0  501  0.00000000000E+00  0.00000000000E+00 -0.91988897767E+03  0.91988897769E+03  0.50400001928E-02 0. -1.
    10030    2    1    2    0    0  0.00000000000E+00  0.00000000000E+00  0.11257147770E+04  0.29654927324E+04  0.27435220769E+04 0.  0.
        3    1    3    3  502    0 -0.12490155743E+04  0.19449714069E+03 -0.13033176976E+02  0.12641356401E+04  0.10100000352E+00 0. -1.
       -3    1    3    3    0  502  0.12490155743E+04 -0.19449714069E+03  0.11387479540E+04  0.17013570923E+04  0.10100000352E+00 0.  1.
</event>
<event>
 5   0  0.3212679E-06  0.2801241E+04  0.7818609E-02  0.8302883E-01
        2   -1    0    0  501    0  0.00000000000E+00  0.00000000000E+00  0.23449634011E+04  0.23449634011E+04  0.25500000920E-02 0.  1.
       -2   -1    0    0    0  501  0.00000000000E+00  0.00000000000E+00 -0.83657508470E+03  0.83657508470E+03  0.25500000920E-02 0. -1.
    10030    2    1    2    0    0  0.00000000000E+00  0.00000000000E+00  0.15083883164E+04  0.31815384858E+04  0.28012411220E+04 0.  0.
        4    1    3    3  502    0 -0.22520182619E+03  0.63792894333E+03 -0.63870700182E+03  0.93038564388E+03  0.12699999809E+01 0. -1.
       -4    1    3    3    0  502  0.22520182619E+03 -0.63792894333E+03  0.21470953182E+04  0.22511528419E+04  0.12699999809E+01 0.  1.
</event>
<event>
 5   0  0.3167616E-06  0.2793081E+04  0.7818609E-02  0.8305420E-01
        2   -1    0    0  501    0  0.00000000000E+00  0.00000000000E+00  0.20428653167E+04  0.20428653167E+04  0.25500000920E-02 0. -1.
       -2   -1    0    0    0  501  0.00000000000E+00  0.00000000000E+00 -0.95470116675E+03  0.95470116675E+03  0.25500000920E-02 0.  1.
    10030    2    1    2    0    0  0.00000000000E+00  0.00000000000E+00  0.10881641500E+04  0.29975664835E+04  0.27930813818E+04 0.  0.
        3    1    3    3  502    0  0.53146213381E+03 -0.45135013261E+03 -0.75452884590E+03  0.10273668923E+04  0.10100000352E+00 0.  1.
       -3    1    3    3    0  502 -0.53146213381E+03  0.45135013261E+03  0.18426929959E+04  0.19701995912E+04  0.10100000352E+00 0. -1.
</event>
<event>
 5   0  0.3345919E-06  0.2816047E+04  0.7818609E-02  0.8298304E-01
        2   -1    0    0  501    0  0.00000000000E+00  0.00000000000E+00  0.12491737630E+04  0.12491737630E+04  0.25500000920E-02 0. -1.
       -2   -1    0    0    0  501  0.00000000000E+00  0.00000000000E+00 -0.15870729112E+04  0.15870729112E+04  0.25500000920E-02 0.  1.
    10030    2    1    2    0    0  0.00000000000E+00  0.00000000000E+00 -0.33789914814E+03  0.28362466742E+04  0.28160467614E+04 0.  0.
        2    1    3    3  502    0 -0.40043034989E+03  0.13451961540E+04 -0.55748139431E+02  0.14046369684E+04  0.25500000920E-02 0.  1.
       -2    1    3    3    0  502  0.40043034989E+03 -0.13451961540E+04 -0.28215100871E+03  0.14316097058E+04  0.25500000920E-02 0. -1.
</event>
<event>
 5   0  0.1243055E-06  0.2799952E+04  0.7818609E-02  0.8303283E-01
        1   -1    0    0  501    0  0.00000000000E+00  0.00000000000E+00  0.13710685434E+04  0.13710685434E+04  0.50400001928E-02 0.  1.
       -1   -1    0    0    0  501  0.00000000000E+00  0.00000000000E+00 -0.14294927158E+04  0.14294927158E+04  0.50400001928E-02 0. -1.
    10030    2    1    2    0    0  0.00000000000E+00  0.00000000000E+00 -0.58424172385E+02  0.28005612592E+04  0.27999517822E+04 0.  0.
        5    1    3    3  502    0 -0.19916493511E+03 -0.48692067752E+03  0.12684337920E+04  0.13732096679E+04  0.46999998093E+01 0.  1.
       -5    1    3    3    0  502  0.19916493511E+03  0.48692067752E+03 -0.13268579643E+04  0.14273515913E+04  0.46999998093E+01 0. -1.
</event>
<event>
 5   0  0.1235252E-06  0.2805366E+04  0.7818609E-02  0.8301604E-01
        1   -1    0    0  501    0  0.00000000000E+00  0.00000000000E+00  0.27777706888E+04  0.27777706888E+04  0.50400001928E-02 0.  1.
       -1   -1    0    0    0  501  0.00000000000E+00  0.00000000000E+00 -0.70830899319E+03  0.70830899321E+03  0.50400001928E-02 0. -1.
    10030    2    1    2    0    0  0.00000000000E+00  0.00000000000E+00  0.20694616956E+04  0.34860796820E+04  0.28053662577E+04 0.  0.
        1    1    3    3  502    0  0.10633675165E+04 -0.53377428566E+03  0.19578548291E+04  0.22910392827E+04  0.50400001928E-02 0. -1.
       -1    1    3    3    0  502 -0.10633675165E+04  0.53377428566E+03  0.11160686654E+03  0.11950403993E+04  0.50400001928E-02 0.  1.
</event>
<event>
 5   0  0.3162695E-06  0.2804925E+04  0.7818609E-02  0.8301741E-01
       -2   -1    0    0    0  501  0.00000000000E+00  0.00000000000E+00  0.10457182415E+04  0.10457182415E+04  0.25500000920E-02 0.  1.
        2   -1    0    0  501    0  0.00000000000E+00  0.00000000000E+00 -0.18809094238E+04  0.18809094238E+04  0.25500000920E-02 0. -1.
    10030    2    1    2    0    0  0.00000000000E+00  0.00000000000E+00 -0.83519118237E+03  0.29266276653E+04  0.28049251648E+04 0.  0.
        1    1    3    3  502    0  0.99344681835E+01  0.13420349721E+04 -0.84237755254E+03  0.15845366834E+04  0.50400001928E-02 0. -1.
       -1    1    3    3    0  502 -0.99344681835E+01 -0.13420349721E+04  0.71863701783E+01  0.13420909820E+04  0.50400001928E-02 0.  1.
</event>
<event>
 5   0  0.3212679E-06  0.2794613E+04  0.7818609E-02  0.8304943E-01
        2   -1    0    0  501    0  0.00000000000E+00  0.00000000000E+00  0.17913908038E+04  0.17913908038E+04  0.25500000920E-02 0. -1.
       -2   -1    0    0    0  501  0.00000000000E+00  0.00000000000E+00 -0.10899161739E+04  0.10899161739E+04  0.25500000920E-02 0.  1.
    10030    2    1    2    0    0  0.00000000000E+00  0.00000000000E+00  0.70147462985E+03  0.28813069777E+04  0.27946132547E+04 0.  0.
        4    1    3    3  502    0 -0.24471162338E+03 -0.14790257167E+03  0.17609041573E+04  0.17839686134E+04  0.12699999809E+01 0. -1.
       -4    1    3    3    0  502  0.24471162338E+03  0.14790257167E+03 -0.10594295275E+04  0.10973383644E+04  0.12699999809E+01 0.  1.
</event>
<event>
 5   0  0.3226364E-06  0.2804455E+04  0.7818609E-02  0.8301887E-01
       -2   -1    0    0    0  501  0.00000000000E+00  0.00000000000E+00  0.88057416088E+03  0.88057416088E+03  0.25500000920E-02 0. -1.
        2   -1    0    0  501    0  0.00000000000E+00  0.00000000000E+00 -0.22329087742E+04  0.22329087742E+04  0.25500000920E-02 0.  1.
    10030    2    1    2    0    0  0.00000000000E+00  0.00000000000E+00 -0.13523346133E+04  0.31134829351E+04  0.28044548634E+04 0.  0.
        5    1    3    3  502    0  0.80402495911E+03 -0.97618374722E+03 -0.13485705034E+04  0.18487983492E+04  0.46999998093E+01 0.  1.
       -5    1    3    3    0  502 -0.80402495911E+03  0.97618374722E+03 -0.37641098656E+01  0.12646845859E+04  0.46999998093E+01 0. -1.
</event>
<event>
 5   0  0.3167616E-06  0.2801238E+04  0.7818609E-02  0.8302884E-01
        2   -1    0    0  501    0  0.00000000000E+00  0.00000000000E+00  0.27873041392E+04  0.27873041392E+04  0.25500000920E-02 0.  1.
       -2   -1    0    0    0  501  0.00000000000E+00  0.00000000000E+00 -0.70381044845E+03  0.70381044846E+03  0.25500000920E-02 0. -1.
    10030    2    1    2    0    0  0.00000000000E+00  0.00000000000E+00  0.20834936908E+04  0.34911145877E+04  0.28012381378E+04 0.  0.
        3    1    3    3  502    0  0.87655253096E+03 -0.37280693715E+02 -0.31892100602E+03  0.93351208237E+03  0.10100000352E+00 0. -1.
       -3    1    3    3    0  502 -0.87655253096E+03  0.37280693715E+02  0.24024146968E+04  0.25576025053E+04  0.10100000352E+00 0.  1.
</event>
<event>
 5   0  0.3212679E-06  0.2798826E+04  0.7818609E-02  0.8303633E-01
       -2   -1    0    0    0  501  0.00000000000E+00  0.00000000000E+00  0.87764075220E+03  0.87764075221E+03  0.25500000920E-02 0. -1.
        2   -1    0    0  501    0  0.00000000000E+00  0.00000000000E+00 -0.22313884116E+04  0.22313884116E+04  0.25500000920E-02 0.  1.
    10030    2    1    2    0    0  0.00000000000E+00  0.00000000000E+00 -0.13537476594E+04  0.31090291638E+04  0.27988264712E+04 0.  0.
        4    1    3    3  502    0 -0.94816798380E+03  0.65685263409E+03 -0.15570840676E+04  0.19377797385E+04  0.12699999809E+01 0.  1.
       -4    1    3    3    0  502  0.94816798380E+03 -0.65685263409E+03  0.20333640825E+03  0.11712494253E+04  0.12699999809E+01 0. -1.
</event>
<event>
 5   0  0.1243055E-06  0.2804415E+04  0.7818609E-02  0.8301899E-01
       -1   -1    0    0    0  501  0.00000000000E+00  0.00000000000E+00  0.89973047469E+03  0.89973047470E+03  0.50400001928E-02 0.  1.
        1   -1    0    0  501    0  0.00000000000E+00  0.00000000000E+00 -0.21853061085E+04  0.21853061085E+04  0.50400001928E-02 0. -1.
    10030    2    1    2    0    0  0.00000000000E+00  0.00000000000E+00 -0.12855756338E+04  0.30850365832E+04  0.28044154488E+04 0.  0.
        5    1    3    3  502    0 -0.12804691982E+04  0.16817898984E+03 -0.12435868343E+04  0.17928792052E+04  0.46999998093E+01 0. -1.
       -5    1    3    3    0  502  0.12804691982E+04 -0.16817898984E+03 -0.41988799505E+02  0.12921573780E+04  0.46999998093E+01 0.  1.
</event>
<event>
 5   0  0.1246044E-06  0.2785347E+04  0.7818609E-02  0.8307832E-01
        1   -1    0    0  501    0  0.00000000000E+00  0.00000000000E+00  0.13377294294E+04  0.13377294294E+04  0.50400001928E-02 0. -1.
       -1   -1    0    0    0  501  0.00000000000E+00  0.00000000000E+00 -0.14498740541E+04  0.14498740542E+04  0.50400001928E-02 0.  1.
    10030    2    1    2    0    0  0.00000000000E+00  0.00000000000E+00 -0.11214462479E+03  0.27876034835E+04  0.27853467943E+04 0.  0.
        2    1    3    3  502    0  0.87551238441E+03  0.10441875737E+04  0.23171860359E+03  0.13822239817E+04  0.25500000920E-02 0. -1.
       -2    1    3    3    0  502 -0.87551238441E+03 -0.10441875737E+04 -0.34386322838E+03  0.14053795018E+04  0.25500000920E-02 0.  1.
</event>
<event>
 5   0  0.3212679E-06  0.2799155E+04  0.7818609E-02  0.8303531E-01
        2   -1    0    0  501    0  0.00000000000E+00  0.00000000000E+00  0.84391968104E+03  0.84391968104E+03  0.25500000920E-02 0.  1.
       -2   -1    0    0    0  501  0.00000000000E+00  0.00000000000E+00 -0.23210941361E+04  0.23210941361E+04  0.25500000920E-02 0. -1.
    10030    2    1    2    0    0  0.00000000000E+00  0.00000000000E+00 -0.14771744551E+04  0.31650138172E+04  0.27991548889E+04 0.  0.
        4    1    3    3  502    0 -0.10590025197E+04 -0.23071444153E+03 -0.17398184508E+04  0.20498012941E+04  0.12699999809E+01 0. -1.
       -4    1    3    3    0  502  0.10590025197E+04  0.23071444153E+03  0.26264399574E+03  0.11152125231E+04  0.12699999809E+01 0.  1.
</event>
<event>
 5   0  0.3167616E-06  0.2801532E+04  0.7818609E-02  0.8302793E-01
       -2   -1    0    0    0  501  0.00000000000E+00  0.00000000000E+00  0.11750794540E+04  0.11750794540E+04  0.25500000920E-02 0. -1.
        2   -1    0    0  501    0  0.00000000000E+00  0.00000000000E+00 -0.16697977377E+04  0.16697977377E+04  0.25500000920E-02 0.  1.
    10030    2    1    2    0    0  0.00000000000E+00  0.00000000000E+00 -0.49471828369E+03  0.28448771917E+04  0.28015317339E+04 0.  0.
        3    1    3    3  502    0 -0.28455777266E+03  0.10762609516E+04  0.61599173810E+03  0.12723036562E+04  0.10100000352E+00 0. -1.
       -3    1    3    3    0  502  0.28455777266E+03 -0.10762609516E+04 -0.11107100218E+04  0.15725735355E+04  0.10100000352E+00 0.  1.
</event>
<event>
 5   0  0.3345919E-06  0.2803786E+04  0.7818609E-02  0.8302094E-01
        2   -1    0    0  501    0  0.00000000000E+00  0.00000000000E+00  0.15592368313E+04  0.15592368313E+04  0.25500000920E-02 0.  1.
       -2   -1    0    0    0  501  0.00000000000E+00  0.00000000000E+00 -0.12604272757E+04  0.12604272757E+04  0.25500000920E-02 0. -1.
    10030    2    1    2    0    0  0.00000000000E+00  0.00000000000E+00  0.29880955564E+03  0.28196641070E+04  0.28037864623E+04 0.  0.
        2    1    3    3  502    0 -0.75633263999E+03 -0.94679772237E+03  0.85826492676E+03  0.14849524147E+04  0.25500000920E-02 0.  1.
       -2    1    3    3    0  502  0.75633263999E+03  0.94679772237E+03 -0.55945537112E+03  0.13347116923E+04  0.25500000920E-02 0. -1.
</event>
<event>
 5   0  0.3212679E-06  0.2800256E+04  0.7818609E-02  0.8303189E-01
        2   -1    0    0  501    0  0.00000000000E+00  0.00000000000E+00  0.11834002254E+04  0.11834002254E+04  0.25500000920E-02 0. -1.
       -2   -1    0    0    0  501  0.00000000000E+00  0.00000000000E+00 -0.16565469984E+04  0.16565469984E+04  0.25500000920E-02 0.  1.
    10030    2    1    2    0    0  0.00000000000E+00  0.00000000000E+00 -0.47314677304E+03  0.28399472238E+04  0.28002557678E+04 0.  0.
        4    1    3    3  502    0 -0.50378607094E+03 -0.94819954750E+03  0.67475890614E+03  0.12681419406E+04  0.12699999809E+01 0. -1.
       -4    1    3    3    0  502  0.50378607094E+03  0.94819954750E+03 -0.11479056792E+04  0.15718052832E+04  0.12699999809E+01 0.  1.
</event>
<event>
 5   0  0.1235252E-06  0.2800338E+04  0.7818609E-02  0.8303163E-01
        1   -1    0    0  501    0  0.00000000000E+00  0.00000000000E+00  0.19791499832E+04  0.19791499832E+04  0.50400001928E-02 0. -1.
       -1   -1    0    0    0  501  0.00000000000E+00  0.00000000000E+00 -0.99056344289E+03  0.99056344291E+03  0.50400001928E-02 0.  1.
    10030    2    1    2    0    0  0.00000000000E+00  0.00000000000E+00  0.98858654027E+03  0.29697134261E+04  0.28003382805E+04 0.  0.
        1    1    3    3  502    0 -0.32849582330E+03  0.97828477775E+03 -0.50926459648E+03  0.11507827951E+04  0.50400001928E-02 0.  1.
       -1    1    3    3    0  502  0.32849582330E+03 -0.97828477775E+03  0.14978511367E+04  0.18189306309E+04  0.50400001928E-02 0. -1.
</event>
<event>
 5   0  0.3345919E-06  0.2794584E+04  0.7818609E-02  0.8304952E-01
       -2   -1    0    0    0  501  0.00000000000E+00  0.00000000000E+00  0.79033547358E+03  0.79033547358E+03  0.25500000920E-02 0.  1.
        2   -1    0    0  501    0  0.00000000000E+00  0.00000000000E+00 -0.24703747557E+04  0.24703747557E+04  0.25500000920E-02 0. -1.
    10030    2    1    2    0    0  0.00000000000E+00  0.00000000000E+00 -0.16800392821E+04  0.32607102293E+04  0.27945839064E+04 0.  0.
        2    1    3    3  502    0 -0.50748966988E+03  0.12958290153E+04 -0.98624766801E+03  0.17056972371E+04  0.25500000920E-02 0. -1.
       -2    1    3    3    0  502  0.50748966988E+03 -0.12958290153E+04 -0.69379161411E+03  0.15550129922E+04  0.25500000920E-02 0.  1.
</event>
<event>
 5   0  0.1243055E-06  0.2791256E+04  0.7818609E-02  0.8305988E-01
       -1   -1    0    0    0  501  0.00000000000E+00  0.00000000000E+00  0.13793082500E+04  0.13793082500E+04  0.50400001928E-02 0. -1.
        1   -1    0    0  501    0  0.00000000000E+00  0.00000000000E+00 -0.14121412521E+04  0.14121412521E+04  0.50400001928E-02 0.  1.
    10030    2    1    2    0    0  0.00000000000E+00  0.00000000000E+00 -0.32833002131E+02  0.27914495021E+04  0.27912564047E+04 0.  0.
        5    1    3    3  502    0  0.67731887201E+03 -0.11812017851E+04  0.28980311033E+03  0.13921229989E+04  0.46999998093E+01 0.  1.
       -5    1    3    3    0  502 -0.67731887201E+03  0.11812017851E+04 -0.32263611246E+03  0.13993265032E+04  0.46999998093E+01 0. -1.
</event>
<event>
 5   0  0.1263513E-06  0.2813758E+04  0.7818609E-02  0.8299010E-01
       -1   -1    0    0    0  501  0.00000000000E+00  0.00000000000E+00  0.13074018413E+04  0.13074018414E+04  0.50400001928E-02 0.  1.
        1   -1    0    0  501    0  0.00000000000E+00  0.00000000000E+00 -0.15139246302E+04  0.15139246302E+04  0.50400001928E-02 0. -1.
    10030    2    1    2    0    0  0.00000000000E+00  0.00000000000E+00 -0.20652278881E+03  0.28213264715E+04  0.28137575227E+04 0.  0.
        3    1    3    3  502    0 -0.62131883848E+03 -0.11558330109E+04 -0.61189390212E+03  0.14478954402E+04  0.10100000352E+00 0.  1.
       -3    1    3    3    0  502  0.62131883848E+03  0.11558330109E+04  0.40537111331E+03  0.13734310313E+04  0.10100000352E+00 0. -1.
</event>
<event>
 5   0  0.3226364E-06  0.2790557E+04  0.7818609E-02  0.8306206E-01
        2   -1    0    0  501    0  0.00000000000E+00  0.00000000000E+00  0.15279963910E+04  0.15279963910E+04  0.25500000920E-02 0.  1.
       -2   -1    0    0    0  501  0.00000000000E+00  0.00000000000E+00 -0.12740880997E+04  0.12740880997E+04  0.25500000920E-02 0. -1.
    10030    2    1    2    0    0  0.00000000000E+00  0.00000000000E+00  0.25390829130E+03  0.28020844907E+04  0.27905569467E+04 0.  0.
        5    1    3    3  502    0  0.11305333946E+04 -0.81549110738E+03  0.66302430650E+02  0.13955463464E+04  0.46999998093E+01 0.  1.
       -5    1    3    3    0  502 -0.11305333946E+04  0.81549110738E+03  0.18760586066E+03  0.14065381443E+04  0.46999998093E+01 0. -1.
</event>
<event>
 5   0  0.1243055E-06  0.2797720E+04  0.7818609E-02  0.8303977E-01
        1   -1    0    0  501    0  0.00000000000E+00  0.00000000000E+00  0.25392048051E+04  0.25392048051E+04  0.50400001928E-02 0.  1.
       -1   -1    0    0    0  501  0.00000000000E+00  0.00000000000E+00 -0.77063865205E+03  0.77063865207E+03  0.50400001928E-02 0. -1.
    10030    2    1    2    0    0  0.00000000000E+00  0.00000000000E+00  0.17685661530E+04  0.33098434571E+04  0.27977200491E+04 0.  0.
        5    1    3    3  502    0  0.46133274047E+03  0.12670178534E+04  0.13247610516E+04  0.18902846537E+04  0.46999998093E+01 0.  1.
       -5    1    3    3    0  502 -0.46133274047E+03 -0.12670178534E+04  0.44380510141E+03  0.14195588034E+04  0.46999998093E+01 0. -1.
</event>
<event>
 5   0  0.3167616E-06  0.2798269E+04  0.7818609E-02  0.8303806E-01
        2   -1    0    0  501    0  0.00000000000E+00  0.00000000000E+00  0.20213357821E+04  0.20213357821E+04  0.25500000920E-02 0. -1.
       -2   -1    0    0    0  501  0.00000000000E+00  0.00000000000E+00 -0.96845697757E+03  0.96845697758E+03  0.25500000920E-02 0.  1.
    10030    2    1    2    0    0  0.00000000000E+00  0.00000000000E+00  0.10528788045E+04  0.29897927597E+04  0.27982685662E+04 0.  0.
        3    1    3    3  502    0  0.11742033364E+04  0.71015882114E+03  0.23481548448E+03  0.13921987460E+04  0.10100000352E+00 0. -1.
       -3    1    3    3    0  502 -0.11742033364E+04 -0.71015882114E+03  0.81806332002E+03  0.15975940136E+04  0.10100000352E+00 0.  1.
</event>
<event>
 5   0  0.1235252E-06  0.2800241E+04  0.7818609E-02  0.8303194E-01
       -1   -1    0    0    0  501  0.00000000000E+00  0.00000000000E+00  0.10181720216E+04  0.10181720216E+04  0.50400001928E-02 0.  1.
        1   -1    0    0  501    0  0.00000000000E+00  0.00000000000E+00 -0.19253497219E+04  0.19253497219E+04  0.50400001928E-02 0. -1.
    10030    2    1    2    0    0  0.00000000000E+00  0.00000000000E+00 -0.90717770034E+03  0.29435217435E+04  0.28002408601E+04 0.  0.
        1    1    3    3  502    0  0.11473617913E+04  0.17575675279E+03  0.36942060678E+03  0.12181137472E+04  0.50400001928E-02 0.  1.
       -1    1    3    3    0  502 -0.11473617913E+04 -0.17575675279E+03 -0.12765983071E+04  0.17254079964E+04  0.50400001928E-02 0. -1.
</event>
<event>
 5   0  0.1243055E-06  0.2796823E+04  0.7818609E-02  0.8304255E-01
       -1   -1    0    0    0  501  0.00000000000E+00  0.00000000000E+00  0.27676808974E+04  0.27676808974E+04  0.50400001928E-02 0. -1.
        1   -1    0    0  501    0  0.00000000000E+00  0.00000000000E+00 -0.70656784604E+03  0.70656784605E+03  0.50400001928E-02 0.  1.
    10030    2    1    2    0    0  0.00000000000E+00  0.00000000000E+00  0.20611130514E+04  0.34742487435E+04  0.27968227189E+04 0.  0.
        5    1    3    3  502    0  0.13548433651E+04 -0.22979728145E+03  0.13523948920E+04  0.19280563706E+04  0.46999998093E+01 0. -1.
       -5    1    3    3    0  502 -0.13548433651E+04  0.22979728145E+03  0.70871815940E+03  0.15461923729E+04  0.46999998093E+01 0.  1.
</event>
<event>
 5   0  0.3167616E-06  0.2787605E+04  0.7818609E-02  0.8307127E-01
       -2   -1    0    0    0  501  0.00000000000E+00  0.00000000000E+00  0.12801239567E+04  0.12801239567E+04  0.25500000920E-02 0. -1.
        2   -1    0    0  501    0  0.00000000000E+00  0.00000000000E+00 -0.15175764580E+04  0.15175764580E+04  0.25500000920E-02 0.  1.
    10030    2    1    2    0    0  0.00000000000E+00  0.00000000000E+00 -0.23745250127E+03  0.27977004147E+04  0.27876054097E+04 0.  0.
        3    1    3    3  502    0  0.13317219303E+04 -0.12705789631E+03 -0.51137054333E+03  0.14321755659E+04  0.10100000352E+00 0.  1.
       -3    1    3    3    0  502 -0.13317219303E+04  0.12705789631E+03  0.27391804205E+03  0.13655248488E+04  0.10100000352E+00 0. -1.
</event>
<event>
 5   0  0.3226364E-06  0.2804439E+04  0.7818609E-02  0.8301892E-01
       -2   -1    0    0    0  501  0.00000000000E+00  0.00000000000E+00  0.12591254702E+04  0.12591254702E+04  0.25500000920E-02 0.  1.
        2   -1    0    0  501    0  0.00000000000E+00  0.00000000000E+00 -0.15615751816E+04  0.15615751816E+04  0.25500000920E-02 0. -1.
    10030    2    1    2    0    0  0.00000000000E+00  0.00000000000E+00 -0.30244971139E+03  0.28207006518E+04  0.28044386852E+04 0.  0.
        5    1    3    3  502    0 -0.60533518124E+03  0.24900587662E+03  0.10960313303E+04  0.12766132442E+04  0.46999998093E+01 0.  1.
       -5    1    3    3    0  502  0.60533518124E+03 -0.24900587662E+03 -0.13984810417E+04  0.15440874076E+04  0.46999998093E+01 0. -1.
</event>
<event>
 5   0  0.3226364E-06  0.2802900E+04  0.7818609E-02  0.8302369E-01
        2   -1    0    0  501    0  0.00000000000E+00  0.00000000000E+00  0.21114590710E+04  0.21114590710E+04  0.25500000920E-02 0. -1.
       -2   -1    0    0    0  501  0.00000000000E+00  0.00000000000E+00 -0.93019157514E+03  0.93019157515E+03  0.25500000920E-02 0.  1.
    10030    2    1    2    0    0  0.00000000000E+00  0.00000000000E+00  0.11812674959E+04  0.30416506462E+04  0.28028995267E+04 0.  0.
        5    1    3    3  502    0 -0.47008850313E+03 -0.87248869108E+03  0.16659040637E+04  0.19384215631E+04  0.46999998093E+01 0. -1.
       -5    1    3    3    0  502  0.47008850313E+03  0.87248869108E+03 -0.48463656783E+03  0.11032290831E+04  0.46999998093E+01 0.  1.
</event>
<event>
 5   0  0.1220265E-06  0.2898228E+04  0.7818609E-02  0.8273405E-01
        1   -1    0    0  501    0  0.00000000000E+00  0.00000000000E+00  0.98036832785E+03  0.98036832786E+03  0.50400001928E-02 0. -1.
       -1   -1    0    0    0  501  0.00000000000E+00  0.00000000000E+00 -0.21419825908E+04  0.21419825908E+04  0.50400001928E-02 0.  1.
    10030    2    1    2    0    0  0.00000000000E+00  0.00000000000E+00 -0.11616142629E+04  0.31223509186E+04  0.28982283491E+04 0.  0.
        4    1    3    3  502    0 -0.21654647789E+02  0.13568779684E+03  0.97333375870E+03  0.98298541226E+03  0.12699999809E+01 0. -1.
       -4    1    3    3    0  502  0.21654647789E+02 -0.13568779684E+03 -0.21349480216E+04  0.21393655064E+04  0.12699999809E+01 0.  1.
</event>
<event>
 5   0  0.1065675E-06  0.2811443E+04  0.7818609E-02  0.8299725E-01
       -3   -1    0    0    0  501  0.00000000000E+00  0.00000000000E+00  0.17448454941E+04  0.17448454970E+04  0.10100000352E+00 0. -1.
        3   -1    0    0  501    0  0.00000000000E+00  0.00000000000E+00 -0.11325085420E+04  0.11325085465E+04  0.10100000352E+00 0.  1.
    10030    2    1    2    0    0  0.00000000000E+00  0.00000000000E+00  0.61233695205E+03  0.28773540435E+04  0.28114426455E+04 0.  0.
        3    1    3    3  502    0  0.98366208986E+03 -0.96768918871E+03  0.58086159094E+03  0.14971351546E+04  0.10100000352E+00 0.  1.
       -3    1    3    3    0  502 -0.98366208986E+03  0.96768918871E+03  0.31475361113E+02  0.13802188890E+04  0.10100000352E+00 0. -1.
</event>
<event>
 5   0  0.1220265E-06  0.2720602E+04  0.7818609E-02  0.8328351E-01
        1   -1    0    0  501    0  0.00000000000E+00  0.00000000000E+00  0.14582719818E+04  0.14582719818E+04  0.50400001928E-02 0.  1.
       -1   -1    0    0    0  501  0.00000000000E+00  0.00000000000E+00 -0.12689120275E+04  0.12689120275E+04  0.50400001928E-02 0. -1.
    10030    2    1    2    0    0  0.00000000000E+00  0.00000000000E+00  0.18935995432E+03  0.27271840093E+04  0.27206020341E+04 0.  0.
        4    1    3    3  502    0  0.92032856609E+03  0.93461933114E+03  0.45596736080E+03  0.13886777202E+04  0.12699999809E+01 0.  1.
       -4    1    3    3    0  502 -0.92032856609E+03 -0.93461933114E+03 -0.26660740648E+03  0.13385062890E+04  0.12699999809E+01 0. -1.
</event>
<event>
 5   0  0.1263513E-06  0.2796988E+04  0.7818609E-02  0.8304204E-01
       -1   -1    0    0    0  501  0.00000000000E+00  0.00000000000E+00  0.13777151017E+04  0.13777151017E+04  0.50400001928E-02 0.  1.
        1   -1    0    0  501    0  0.00000000000E+00  0.00000000000E+00 -0.14195865948E+04  0.14195865948E+04  0.50400001928E-02 0. -1.
    10030    2    1    2    0    0  0.00000000000E+00  0.00000000000E+00 -0.41871493108E+02  0.27973016965E+04  0.27969883016E+04 0.  0.
        3    1    3    3  502    0  0.13105931671E+04  0.47962691937E+03  0.69015690635E+02  0.13973044075E+04  0.10100000352E+00 0.  1.
       -3    1    3    3    0  502 -0.13105931671E+04 -0.47962691937E+03 -0.11088718374E+03  0.13999972890E+04  0.10100000352E+00 0. -1.
</event>
<event>
 5   0  0.1235252E-06  0.2803173E+04  0.7818609E-02  0.8302284E-01
       -1   -1    0    0    0  501  0.00000000000E+00  0.00000000000E+00  0.23412653742E+04  0.23412653742E+04  0.50400001928E-02 0.  1.
        1   -1    0    0  501    0  0.00000000000E+00  0.00000000000E+00 -0.83905259553E+03  0.83905259555E+03  0.50400001928E-02 0. -1.
    10030    2    1    2    0    0  0.00000000000E+00  0.00000000000E+00  0.15022127787E+04  0.31803179698E+04  0.28031730514E+04 0.  0.
        1    1    3    3  502    0 -0.74923106560E+03 -0.24114772491E+03 -0.56464233166E+03  0.96866938510E+03  0.50400001928E-02 0. -1.
       -1    1    3    3    0  502  0.74923106560E+03  0.24114772491E+03  0.20668551103E+04  0.22116485847E+04  0.50400001928E-02 0.  1.
</event>
<event>
 5   0  0.3167616E-06  0.2798131E+04  0.7818609E-02  0.8303849E-01
       -2   -1    0    0    0  501  0.00000000000E+00  0.00000000000E+00  0.10057600462E+04  0.10057600462E+04  0.25500000920E-02 0.  1.
        2   -1    0    0  501    0  0.00000000000E+00  0.00000000000E+00 -0.19461735280E+04  0.19461735280E+04  0.25500000920E-02 0. -1.
    10030    2    1    2    0    0  0.00000000000E+00  0.00000000000E+00 -0.94041348182E+03  0.29519335742E+04  0.27981305026E+04 0.  0.
        3    1    3    3  502    0  0.27110837623E+03  0.87295129368E+03 -0.15875948544E+04  0.18319391760E+04  0.10100000352E+00 0. -1.
       -3    1    3    3    0  502 -0.27110837623E+03 -0.87295129368E+03  0.64718137254E+03  0.11199943982E+04  0.10100000352E+00 0.  1.
</event>
<event>
 5   0  0.3226364E-06  0.2799330E+04  0.7818609E-02  0.8303476E-01
       -2   -1    0    0    0  501  0.00000000000E+00  0.00000000000E+00  0.13003528763E+04  0.13003528763E+04  0.25500000920E-02 0. -1.
        2   -1    0    0  501    0  0.00000000000E+00  0.00000000000E+00 -0.15065624439E+04  0.15065624439E+04  0.25500000920E-02 0.  1.
    10030    2    1    2    0    0  0.00000000000E+00  0.00000000000E+00 -0.20620956767E+03  0.28069153202E+04  0.27993304966E+04 0.  0.
        5    1    3    3  502    0 -0.16994940085E+03 -0.55409492249E+02  0.12888523974E+04  0.13011977570E+04  0.46999998093E+01 0. -1.
       -5    1    3    3    0  502  0.16994940085E+03  0.55409492249E+02 -0.14950619651E+04  0.15057175632E+04  0.46999998093E+01 0.  1.
</event>
<event>
 5   0  0.3226364E-06  0.2803034E+04  0.7818609E-02  0.8302327E-01
        2   -1    0    0  501    0  0.00000000000E+00  0.00000000000E+00  0.15087110354E+04  0.15087110354E+04  0.25500000920E-02 0. -1.
       -2   -1    0    0    0  501  0.00000000000E+00  0.00000000000E+00 -0.13019391462E+04  0.13019391462E+04  0.25500000920E-02 0.  1.
    10030    2    1    2    0    0  0.00000000000E+00  0.00000000000E+00  0.20677188919E+03  0.28106501815E+04  0.28030340399E+04 0.  0.
        5    1    3    3  502    0 -0.77178236661E+03 -0.10738499483E+04 -0.36201538345E+03  0.13710867809E+04  0.46999998093E+01 0.  1.
       -5    1    3    3    0  502  0.77178236661E+03  0.10738499483E+04  0.56878727264E+03  0.14395634006E+04  0.46999998093E+01 0. -1.
</event>
<event>
 5   0  0.1235252E-06  0.2807208E+04  0.7818609E-02  0.8301034E-01
       -1   -1    0    0    0  501  0.00000000000E+00  0.00000000000E+00  0.91754502524E+03  0.91754502526E+03  0.50400001928E-02 0. -1.
        1   -1    0    0  501    0  0.00000000000E+00  0.00000000000E+00 -0.21471471067E+04  0.21471471067E+04  0.50400001928E-02 0.  1.
    10030    2    1    2    0    0  0.00000000000E+00  0.00000000000E+00 -0.12296020815E+04  0.30646921320E+04  0.28072079697E+04 0.  0.
        1    1    3    3  502    0  0.77814718006E+03  0.30303854406E+03 -0.18464453696E+04  0.20265008995E+04  0.50400001928E-02 0.  1.
       -1    1    3    3    0  502 -0.77814718006E+03 -0.30303854406E+03  0.61684328809E+03  0.10381912324E+04  0.50400001928E-02 0. -1.
</event>
<event>
 5   0  0.3162695E-06  0.2793071E+04  0.7818609E-02  0.8305423E-01
       -2   -1    0    0    0  501  0.00000000000E+00  0.00000000000E+00  0.14471018892E+04  0.14471018892E+04  0.25500000920E-02 0. -1.
        2   -1    0    0  501    0  0.00000000000E+00  0.00000000000E+00 -0.13477356420E+04  0.13477356420E+04  0.25500000920E-02 0.  1.
    10030    2    1    2    0    0  0.00000000000E+00  0.00000000000E+00  0.99366247265E+02  0.27948375312E+04  0.27930705639E+04 0.  0.
        1    1    3    3  502    0  0.10285520239E+04  0.71701704526E+03 -0.56574912497E+03  0.13755379971E+04  0.50400001928E-02 0.  1.
       -1    1    3    3    0  502 -0.10285520239E+04 -0.71701704526E+03  0.66511537224E+03  0.14192995341E+04  0.50400001928E-02 0. -1.
</event>
<event>
 5   0  0.3162695E-06  0.2797286E+04  0.7818609E-02  0.8304112E-01
       -2   -1    0    0    0  501  0.00000000000E+00  0.00000000000E+00  0.80753576672E+03  0.80753576672E+03  0.25500000920E-02 0. -1.
        2   -1    0    0  501    0  0.00000000000E+00  0.00000000000E+00 -0.24224338450E+04  0.24224338450E+04  0.25500000920E-02 0.  1.
    10030    2    1    2    0    0  0.00000000000E+00  0.00000000000E+00 -0.16148980783E+04  0.32299696117E+04  0.27972858076E+04 0.  0.
        1    1    3    3  502    0 -0.86430027429E+03  0.10472271241E+04 -0.42015357686E+03  0.14213474740E+04  0.50400001928E-02 0.  1.
       -1    1    3    3    0  502  0.86430027429E+03 -0.10472271241E+04 -0.11947445014E+04  0.18086221378E+04  0.50400001928E-02 0. -1.
</event>
<event>
 5   0  0.1263513E-06  0.2793888E+04  0.7818609E-02  0.8305168E-01
       -1   -1    0    0    0  501  0.00000000000E+00  0.00000000000E+00  0.13340325689E+04  0.13340325689E+04  0.50400001928E-02 0.  1.
        1   -1    0    0  501    0  0.00000000000E+00  0.00000000000E+00 -0.14628219898E+04  0.14628219898E+04  0.50400001928E-02 0. -1.
    10030    2    1    2    0    0  0.00000000000E+00  0.00000000000E+00 -0.12878942086E+03  0.27968545587E+04  0.27938877407E+04 0.  0.
        3    1    3    3  502    0 -0.79170046711E+03  0.60045288288E+03  0.91854351116E+03  0.13531649886E+04  0.10100000352E+00 0.  1.
       -3    1    3    3    0  502  0.79170046711E+03 -0.60045288288E+03 -0.10473329320E+04  0.14436895701E+04  0.10100000352E+00 0. -1.
</event>
<event>
 5   0  0.3212679E-06  0.2785094E+04  0.7818609E-02  0.8307911E-01
        2   -1    0    0  501    0  0.00000000000E+00  0.00000000000E+00  0.17202207756E+04  0.17202207756E+04  0.25500000920E-02 0. -1.
       -2   -1    0    0    0  501  0.00000000000E+00  0.00000000000E+00 -0.11272900033E+04  0.11272900033E+04  0.25500000920E-02 0.  1.
    10030    2    1    2    0    0  0.00000000000E+00  0.00000000000E+00  0.59293077223E+03  0.28475107789E+04  0.27850943853E+04 0.  0.
        4    1    3    3  502    0  0.31992780761E+02 -0.43658868417E+03  0.16480418448E+04  0.17051911190E+04  0.12699999809E+01 0. -1.
       -4    1    3    3    0  502 -0.31992780761E+02  0.43658868417E+03 -0.10551110725E+04  0.11423196599E+04  0.12699999809E+01 0.  1.
</event>
<event>
 5   0  0.1246044E-06  0.2800673E+04  0.7818609E-02  0.8303059E-01
        1   -1    0    0  501    0  0.00000000000E+00  0.00000000000E+00  0.13461313776E+04  0.13461313776E+04  0.50400001928E-02 0. -1.
       -1   -1    0    0    0  501  0.00000000000E+00  0.00000000000E+00 -0.14567242486E+04  0.14567242486E+04  0.50400001928E-02 0.  1.
    10030    2    1    2    0    0  0.00000000000E+00  0.00000000000E+00 -0.11059287103E+03  0.28028556262E+04  0.28006729331E+04 0.  0.
        2    1    3    3  502    0 -0.32370031313E+03 -0.10352130044E+04 -0.94170357884E+03  0.14364029684E+04  0.25500000920E-02 0.  1.
       -2    1    3    3    0  502  0.32370031313E+03  0.10352130044E+04  0.83111070781E+03  0.13664526578E+04  0.25500000920E-02 0. -1.
</event>
<event>
 5   0  0.3345919E-06  0.2800322E+04  0.7818609E-02  0.8303168E-01
        2   -1    0    0  501    0  0.00000000000E+00  0.00000000000E+00  0.26023517817E+04  0.26023517817E+04  0.25500000920E-02 0.  1.
       -2   -1    0    0    0  501  0.00000000000E+00  0.00000000000E+00 -0.75333835466E+03  0.75333835466E+03  0.25500000920E-02 0. -1.
    10030    2    1    2    0    0  0.00000000000E+00  0.00000000000E+00  0.18490134270E+04  0.33556901363E+04  0.28003224168E+04 0.  0.
        2    1    3    3  502    0 -0.67925766231E+03  0.12227682707E+04  0.99932461718E+03  0.17190703610E+04  0.25500000920E-02 0. -1.
       -2    1    3    3    0  502  0.67925766231E+03 -0.12227682707E+04  0.84968880985E+03  0.16366197754E+04  0.25500000920E-02 0.  1.
</event>
<event>
 5   0  0.1235252E-06  0.2817918E+04  0.7818609E-02  0.8297727E-01
       -1   -1    0    0    0  501  0.00000000000E+00  0.00000000000E+00  0.10582449537E+04  0.10582449537E+04  0.50400001928E-02 0. -1.
        1   -1    0    0  501    0  0.00000000000E+00  0.00000000000E+00 -0.18759029803E+04  0.18759029803E+04  0.50400001928E-02 0.  1.
    10030    2    1    2    0    0  0.00000000000E+00  0.00000000000E+00 -0.81765802659E+03  0.29341479341E+04  0.28179175734E+04 0.  0.
        1    1    3    3  502    0  0.15161055771E+03  0.60427834649E+03 -0.17246894228E+04  0.18337643487E+04  0.50400001928E-02 0.  1.
       -1    1    3    3    0  502 -0.15161055771E+03 -0.60427834649E+03  0.90703139623E+03  0.11003835854E+04  0.50400001928E-02 0. -1.
</event>
<event>
 5   0  0.3345919E-06  0.2750012E+04  0.7818609E-02  0.8318958E-01
       -2   -1    0    0    0  501  0.00000000000E+00  0.00000000000E+00  0.84198207946E+03  0.84198207946E+03  0.25500000920E-02 0.  1.
        2   -1    0    0  501    0  0.00000000000E+00  0.00000000000E+00 -0.22454651144E+04  0.22454651144E+04  0.25500000920E-02 0. -1.
    10030    2    1    2    0    0  0.00000000000E+00  0.00000000000E+00 -0.14034830349E+04  0.30874471939E+04  0.27500119173E+04 0.  0.
        2    1    3    3  502    0 -0.22910032262E+03 -0.12772054985E+04 -0.12124179055E+04  0.17758654287E+04  0.25500000920E-02 0. -1.
       -2    1    3    3    0  502  0.22910032262E+03  0.12772054985E+04 -0.19106512947E+03  0.13115817652E+04  0.25500000920E-02 0.  1.
</event>
<event>
 5   0  0.3226364E-06  0.2800521E+04  0.7818609E-02  0.8303107E-01
       -2   -1    0    0    0  501  0.00000000000E+00  0.00000000000E+00  0.12250659318E+04  0.12250659318E+04  0.25500000920E-02 0. -1.
        2   -1    0    0  501    0  0.00000000000E+00  0.00000000000E+00 -0.16005095578E+04  0.16005095578E+04  0.25500000920E-02 0.  1.
    10030    2    1    2    0    0  0.00000000000E+00  0.00000000000E+00 -0.37544362596E+03  0.28255754896E+04  0.28005211892E+04 0.  0.
        5    1    3    3  502    0  0.56401873011E+03 -0.10113800346E+04 -0.98197529833E+03  0.15183228507E+04  0.46999998093E+01 0.  1.
       -5    1    3    3    0  502 -0.56401873011E+03  0.10113800346E+04  0.60653167237E+03  0.13072526389E+04  0.46999998093E+01 0. -1.
</event>
<event>
 5   0  0.3226364E-06  0.2807684E+04  0.7818609E-02  0.8300887E-01
       -2   -1    0    0    0  501  0.00000000000E+00  0.00000000000E+00  0.23410556766E+04  0.23410556766E+04  0.25500000920E-02 0. -1.
        2   -1    0    0  501    0  0.00000000000E+00  0.00000000000E+00 -0.84183074481E+03  0.84183074482E+03  0.25500000920E-02 0.  1.
    10030    2    1    2    0    0  0.00000000000E+00  0.00000000000E+00  0.14992249318E+04  0.31828864215E+04  0.28076842016E+04 0.  0.
        5    1    3    3  502    0  0.27286489581E+03 -0.13606282472E+04  0.50916957685E+03  0.14781881566E+04  0.46999998093E+01 0.  1.
       -5    1    3    3    0  502 -0.27286489581E+03  0.13606282472E+04  0.99005535498E+03  0.17046982649E+04  0.46999998093E+01 0. -1.
</event>
<event>
 5   0  0.1065675E-06  0.2784695E+04  0.7818609E-02  0.8308036E-01
        4   -1    0    0  501    0  0.00000000000E+00  0.00000000000E+00  0.14653892642E+04  0.14653898145E+04  0.12699999809E+01 0. -1.
       -4   -1    0    0    0  501  0.00000000000E+00  0.00000000000E+00 -0.13229450519E+04  0.13229456615E+04  0.12699999809E+01 0.  1.
    10030    2    1    2    0    0  0.00000000000E+00  0.00000000000E+00  0.14244421230E+03  0.27883354760E+04  0.27846946643E+04 0.  0.
        4    1    3    3  502    0 -0.58421741866E+03  0.12192751290E+04  0.40435461926E+03  0.14111860627E+04  0.12699999809E+01 0. -1.
       -4    1    3    3    0  502  0.58421741866E+03 -0.12192751290E+04 -0.26191040696E+03  0.13771494134E+04  0.12699999809E+01 0.  1.
</event>
<event>
 5   0  0.1263513E-06  0.2801335E+04  0.7818609E-02  0.8302854E-01
       -1   -1    0    0    0  501  0.00000000000E+00  0.00000000000E+00  0.13905075486E+04  0.13905075486E+04  0.50400001928E-02 0. -1.
        1   -1    0    0  501    0  0.00000000000E+00  0.00000000000E+00 -0.14109017384E+04  0.14109017385E+04  0.50400001928E-02 0.  1.
    10030    2    1    2    0    0  0.00000000000E+00  0.00000000000E+00 -0.20394189847E+02  0.28014092871E+04  0.28013350515E+04 0.  0.
        3    1    3    3  502    0  0.10713780404E+04 -0.12616936425E+03  0.88319094708E+03  0.13942008008E+04  0.10100000352E+00 0. -1.
       -3    1    3    3    0  502 -0.10713780404E+04  0.12616936425E+03 -0.90358513692E+03  0.14072084862E+04  0.10100000352E+00 0.  1.
</event>
<event>
 5   0  0.1263513E-06  0.2853468E+04  0.7818609E-02  0.8286858E-01
        1   -1    0    0  501    0  0.00000000000E+00  0.00000000000E+00  0.21176291602E+04  0.21176291602E+04  0.50400001928E-02 0. -1.
       -1   -1    0    0    0  501  0.00000000000E+00  0.00000000000E+00 -0.96124920330E+03  0.96124920331E+03  0.50400001928E-02 0.  1.
    10030    2    1    2    0    0  0.00000000000E+00  0.00000000000E+00  0.11563799569E+04  0.30788783636E+04  0.28534676050E+04 0.  0.
        3    1    3    3  502    0 -0.32772260552E+02  0.11569284280E+04  0.14783670056E+04  0.18775320029E+04  0.10100000352E+00 0. -1.
       -3    1    3    3    0  502  0.32772260552E+02 -0.11569284280E+04 -0.32198704865E+03  0.12013463606E+04  0.10100000352E+00 0.  1.
</event>
<event>
 5   0  0.1243055E-06  0.2783095E+04  0.7818609E-02  0.8308536E-01
        1   -1    0    0  501    0  0.00000000000E+00  0.00000000000E+00  0.19063226710E+04  0.19063226710E+04  0.50400001928E-02 0. -1.
       -1   -1    0    0    0  501  0.00000000000E+00  0.00000000000E+00 -0.10157797817E+04  0.10157797817E+04  0.50400001928E-02 0.  1.
    10030    2    1    2    0    0  0.00000000000E+00  0.00000000000E+00  0.89054288933E+03  0.29221024527E+04  0.27830946995E+04 0.  0.
        5    1    3    3  502    0  0.12398190301E+04 -0.29241546041E+03 -0.14281512669E+03  0.12818253700E+04  0.46999998093E+01 0.  1.
       -5    1    3    3    0  502 -0.12398190301E+04  0.29241546041E+03  0.10333580160E+04  0.16402770827E+04  0.46999998093E+01 0. -1.
</event>
<event>
 5   0  0.3162695E-06  0.2812192E+04  0.7818609E-02  0.8299493E-01
        2   -1    0    0  501    0  0.00000000000E+00  0.00000000000E+00  0.17432381638E+04  0.17432381638E+04  0.25500000920E-02 0.  1.
       -2   -1    0    0    0  501  0.00000000000E+00  0.00000000000E+00 -0.11341569546E+04  0.11341569546E+04  0.25500000920E-02 0. -1.
    10030    2    1    2    0    0  0.00000000000E+00  0.00000000000E+00  0.60908120920E+03  0.28773951185E+04  0.28121918051E+04 0.  0.
        1    1    3    3  502    0  0.56569394662E+03  0.83931640724E+03 -0.69412452454E+03  0.12273021341E+04  0.50400001928E-02 0. -1.
       -1    1    3    3    0  502 -0.56569394662E+03 -0.83931640724E+03  0.13032057337E+04  0.16500929844E+04  0.50400001928E-02 0.  1.
</event>
<event>
 5   0  0.1243055E-06  0.2792674E+04  0.7818609E-02  0.8305546E-01
       -1   -1    0    0    0  501  0.00000000000E+00  0.00000000000E+00  0.11330137377E+04  0.11330137377E+04  0.50400001928E-02 0. -1.
        1   -1    0    0  501    0  0.00000000000E+00  0.00000000000E+00 -0.17208589185E+04  0.17208589185E+04  0.50400001928E-02 0.  1.
    10030    2    1    2    0    0  0.00000000000E+00  0.00000000000E+00 -0.58784518086E+03  0.28538726562E+04  0.27926738408E+04 0.  0.
        5    1    3    3  502    0  0.19859697771E+03 -0.33683106536E+03  0.10759145257E+04  0.11447751232E+04  0.46999998093E+01 0. -1.
       -5    1    3    3    0  502 -0.19859697771E+03  0.33683106536E+03 -0.16637597066E+04  0.17090975330E+04  0.46999998093E+01 0.  1.
</event>
<event>
 5   0  0.3162695E-06  0.2802767E+04  0.7818609E-02  0.8302410E-01
        2   -1    0    0  501    0  0.00000000000E+00  0.00000000000E+00  0.15433433524E+04  0.15433433524E+04  0.25500000920E-02 0. -1.
       -2   -1    0    0    0  501  0.00000000000E+00  0.00000000000E+00 -0.12724814385E+04  0.12724814385E+04  0.25500000920E-02 0.  1.
    10030    2    1    2    0    0  0.00000000000E+00  0.00000000000E+00  0.27086191389E+03  0.28158247910E+04  0.28027670394E+04 0.  0.
        1    1    3    3  502    0  0.13140694904E+04  0.32160841876E+03  0.50273672808E+03  0.14432445456E+04  0.50400001928E-02 0.  1.
       -1    1    3    3    0  502 -0.13140694904E+04 -0.32160841876E+03 -0.23187481419E+03  0.13725802454E+04  0.50400001928E-02 0. -1.
</event>
<event>
 5   0  0.3167616E-06  0.2797723E+04  0.7818609E-02  0.8303975E-01
        2   -1    0    0  501    0  0.00000000000E+00  0.00000000000E+00  0.17601153002E+04  0.17601153002E+04  0.25500000920E-02 0.  1.
       -2   -1    0    0    0  501  0.00000000000E+00  0.00000000000E+00 -0.11117534016E+04  0.11117534016E+04  0.25500000920E-02 0. -1.
    10030    2    1    2    0    0  0.00000000000E+00  0.00000000000E+00  0.64836189863E+03  0.28718687018E+04  0.27977234832E+04 0.  0.
        3    1    3    3  502    0 -0.92592022936E+03  0.80262813130E+03 -0.36844092685E+03  0.12795659088E+04  0.10100000352E+00 0. -1.
       -3    1    3    3    0  502  0.92592022936E+03 -0.80262813130E+03  0.10168028255E+04  0.15923027929E+04  0.10100000352E+00 0.  1.
</event>
<event>
 5   0  0.3345919E-06  0.2811069E+04  0.7818609E-02  0.8299840E-01
       -2   -1    0    0    0  501  0.00000000000E+00  0.00000000000E+00  0.21052921918E+04  0.21052921918E+04  0.25500000920E-02 0. -1.
        2   -1    0    0  501    0  0.00000000000E+00  0.00000000000E+00 -0.93836267380E+03  0.93836267380E+03  0.25500000920E-02 0.  1.
    10030    2    1    2    0    0  0.00000000000E+00  0.00000000000E+00  0.11669295180E+04  0.30436548656E+04  0.28110692700E+04 0.  0.
        2    1    3    3  502    0 -0.42472455071E+02 -0.97465246288E+02  0.21009322234E+04  0.21036205910E+04  0.25500000920E-02 0. -1.
       -2    1    3    3    0  502  0.42472455071E+02  0.97465246288E+02 -0.93400270540E+03  0.94003427457E+03  0.25500000920E-02 0.  1.
</event>
<event>
 5   0  0.1246044E-06  0.2796772E+04  0.7818609E-02  0.8304271E-01
        1   -1    0    0  501    0  0.00000000000E+00  0.00000000000E+00  0.20196458307E+04  0.20196458307E+04  0.50400001928E-02 0.  1.
       -1   -1    0    0    0  501  0.00000000000E+00  0.00000000000E+00 -0.96823084832E+03  0.96823084833E+03  0.50400001928E-02 0. -1.
    10030    2    1    2    0    0  0.00000000000E+00  0.00000000000E+00  0.10514149823E+04  0.29878766790E+04  0.27967719935E+04 0.  0.
        2    1    3    3  502    0 -0.10666948444E+03 -0.10725570478E+04 -0.42608224740E+03  0.11590095259E+04  0.25500000920E-02 0. -1.
       -2    1    3    3    0  502  0.10666948444E+03  0.10725570478E+04  0.14774972297E+04  0.18288671531E+04  0.25500000920E-02 0.  1.
</event>
<event>
 5   0  0.3226364E-06  0.2791768E+04  0.7818609E-02  0.8305829E-01
        2   -1    0    0  501    0  0.00000000000E+00  0.00000000000E+00  0.20178918037E+04  0.20178918037E+04  0.25500000920E-02 0.  1.
       -2   -1    0    0    0  501  0.00000000000E+00  0.00000000000E+00 -0.96560773165E+03  0.96560773165E+03  0.25500000920E-02 0. -1.
    10030    2    1    2    0    0  0.00000000000E+00  0.00000000000E+00  0.10522840721E+04  0.29834995354E+04  0.27917678466E+04 0.  0.
        5    1    3    3  502    0 -0.36267925684E+03 -0.97760974585E+03  0.15178913441E+04  0.18415410071E+04  0.46999998093E+01 0.  1.
       -5    1    3    3    0  502  0.36267925684E+03  0.97760974585E+03 -0.46560727199E+03  0.11419585283E+04  0.46999998093E+01 0. -1.
</event>
<event>
 5   0  0.3226364E-06  0.2807846E+04  0.7818609E-02  0.8300837E-01
       -2   -1    0    0    0  501  0.00000000000E+00  0.00000000000E+00  0.92496448790E+03  0.92496448790E+03  0.25500000920E-02 0.  1.
        2   -1    0    0  501    0  0.00000000000E+00  0.00000000000E+00 -0.21308919017E+04  0.21308919017E+04  0.25500000920E-02 0. -1.
    10030    2    1    2    0    0  0.00000000000E+00  0.00000000000E+00 -0.12059274138E+04  0.30558563896E+04  0.28078456771E+04 0.  0.
        5    1    3    3  502    0 -0.70520451554E+03 -0.37642515244E+03  0.65308532224E+03  0.10322557010E+04  0.46999998093E+01 0.  1.
       -5    1    3    3    0  502  0.70520451554E+03  0.37642515244E+03 -0.18590127360E+04  0.20236006886E+04  0.46999998093E+01 0. -1.
</event>
<event>
 5   0  0.3162695E-06  0.2791472E+04  0.7818609E-02  0.8305921E-01
       -2   -1    0    0    0  501  0.00000000000E+00  0.00000000000E+00  0.17255033683E+04  0.17255033683E+04  0.25500000920E-02 0. -1.
        2   -1    0    0  501    0  0.00000000000E+00  0.00000000000E+00 -0.11289918256E+04  0.11289918256E+04  0.25500000920E-02 0.  1.
    10030    2    1    2    0    0  0.00000000000E+00  0.00000000000E+00  0.59651154266E+03  0.28544951939E+04  0.27914721548E+04 0.  0.
        1    1    3    3  502    0  0.93246457485E+03  0.23421591058E+03 -0.73638392904E+03  0.12110361543E+04  0.50400001928E-02 0.  1.
       -1    1    3    3    0  502 -0.93246457485E+03 -0.23421591058E+03  0.13328954717E+04  0.16434590395E+04  0.50400001928E-02 0. -1.
</event>
<event>
 5   0  0.3212679E-06  0.2806652E+04  0.7818609E-02  0.8301206E-01
        2   -1    0    0  501    0  0.00000000000E+00  0.00000000000E+00  0.18172629404E+04  0.18172629404E+04  0.25500000920E-02 0.  1.
       -2   -1    0    0    0  501  0.00000000000E+00  0.00000000000E+00 -0.10836761171E+04  0.10836761171E+04  0.25500000920E-02 0. -1.
    10030    2    1    2    0    0  0.00000000000E+00  0.00000000000E+00  0.73358682334E+03  0.29009390574E+04  0.28066524166E+04 0.  0.
        4    1    3    3  502    0  0.67331670535E+03  0.52087579125E+03 -0.78632688735E+03  0.11588695191E+04  0.12699999809E+01 0. -1.
       -4    1    3    3    0  502 -0.67331670535E+03 -0.52087579125E+03  0.15199137107E+04  0.17420695383E+04  0.12699999809E+01 0.  1.
</event>
<event>
 5   0  0.1246044E-06  0.2800988E+04  0.7818609E-02  0.8302962E-01
       -1   -1    0    0    0  501  0.00000000000E+00  0.00000000000E+00  0.11757173080E+04  0.11757173080E+04  0.50400001928E-02 0. -1.
        1   -1    0    0  501    0  0.00000000000E+00  0.00000000000E+00 -0.16682436173E+04  0.16682436173E+04  0.50400001928E-02 0.  1.
    10030    2    1    2    0    0  0.00000000000E+00  0.00000000000E+00 -0.49252630925E+03  0.28439609253E+04  0.28009876078E+04 0.  0.
        2    1    3    3  502    0  0.30012558086E+03  0.63477035647E+02  0.11411855978E+04  0.11816976208E+04  0.25500000920E-02 0. -1.
       -2    1    3    3    0  502 -0.30012558086E+03 -0.63477035647E+02 -0.16337119070E+04  0.16622633045E+04  0.25500000920E-02 0.  1.
</event>
<event>
 5   0  0.1246044E-06  0.2794134E+04  0.7818609E-02  0.8305092E-01
        1   -1    0    0  501    0  0.00000000000E+00  0.00000000000E+00  0.18209044459E+04  0.18209044459E+04  0.50400001928E-02 0.  1.
       -1   -1    0    0    0  501  0.00000000000E+00  0.00000000000E+00 -0.10718825808E+04  0.10718825808E+04  0.50400001928E-02 0. -1.
    10030    2    1    2    0    0  0.00000000000E+00  0.00000000000E+00  0.74902186513E+03  0.28927870267E+04  0.27941336810E+04 0.  0.
        2    1    3    3  502    0  0.12859777678E+03 -0.55921020903E+03  0.16932755790E+04  0.17878578334E+04  0.25500000920E-02 0.  1.
       -2    1    3    3    0  502 -0.12859777678E+03  0.55921020903E+03 -0.94425371385E+03  0.11049291933E+04  0.25500000920E-02 0. -1.
</event>
<event>
 5   0  0.3226364E-06  0.2803573E+04  0.7818609E-02  0.8302160E-01
       -2   -1    0    0    0  501  0.00000000000E+00  0.00000000000E+00  0.28824259140E+04  0.28824259140E+04  0.25500000920E-02 0.  1.
        2   -1    0    0  501    0  0.00000000000E+00  0.00000000000E+00 -0.68171953377E+03  0.68171953377E+03  0.25500000920E-02 0. -1.
    10030    2    1    2    0    0  0.00000000000E+00  0.00000000000E+00  0.22007063802E+04  0.35641454478E+04  0.28035734699E+04 0.  0.
        5    1    3    3  502    0 -0.45869968409E+03  0.10730516647E+04  0.20876598565E+04  0.23916920876E+04  0.46999998093E+01 0.  1.
       -5    1    3    3    0  502  0.45869968409E+03 -0.10730516647E+04  0.11304652379E+03  0.11724533602E+04  0.46999998093E+01 0. -1.
</event>
<event>
 5   0  0.3167616E-06  0.2794819E+04  0.7818609E-02  0.8304879E-01
       -2   -1    0    0    0  501  0.00000000000E+00  0.00000000000E+00  0.10709595204E+04  0.10709595204E+04  0.25500000920E-02 0. -1.
        2   -1    0    0  501    0  0.00000000000E+00  0.00000000000E+00 -0.18233681433E+04  0.18233681433E+04  0.25500000920E-02 0.  1.
    10030    2    1    2    0    0  0.00000000000E+00  0.00000000000E+00 -0.75240862290E+03  0.28943276636E+04  0.27948191156E+04 0.  0.
        3    1    3    3  502    0  0.24460884856E+03  0.12574717182E+04  0.20196074231E+03  0.12968642036E+04  0.10100000352E+00 0. -1.
       -3    1    3    3    0  502 -0.24460884856E+03 -0.12574717182E+04 -0.95436936520E+03  0.15974634601E+04  0.10100000352E+00 0.  1.
</event>
<event>
 5   0  0.1246044E-06  0.2801272E+04  0.7818609E-02  0.8302874E-01
       -1   -1    0    0    0  501  0.00000000000E+00  0.00000000000E+00  0.86724338862E+03  0.86724338863E+03  0.50400001928E-02 0.  1.
        1   -1    0    0  501    0  0.00000000000E+00  0.00000000000E+00 -0.22620886509E+04  0.22620886509E+04  0.50400001928E-02 0. -1.
    10030    2    1    2    0    0  0.00000000000E+00  0.00000000000E+00 -0.13948452622E+04  0.31293320395E+04  0.28012721588E+04 0.  0.
        2    1    3    3  502    0  0.58917234826E+03  0.54101848654E+03  0.58699098931E+03  0.99216101529E+03  0.25500000920E-02 0.  1.
       -2    1    3    3    0  502 -0.58917234826E+03 -0.54101848654E+03 -0.19818362515E+04  0.21371710242E+04  0.25500000920E-02 0. -1.
</event>
<event>
 5   0  0.3212679E-06  0.2777587E+04  0.7818609E-02  0.8310260E-01
       -2   -1    0    0    0  501  0.00000000000E+00  0.00000000000E+00  0.11414380581E+04  0.11414380581E+04  0.25500000920E-02 0.  1.
        2   -1    0    0  501    0  0.00000000000E+00  0.00000000000E+00 -0.16897527071E+04  0.16897527071E+04  0.25500000920E-02 0. -1.
    10030    2    1    2    0    0  0.00000000000E+00  0.00000000000E+00 -0.54831464908E+03  0.28311907652E+04  0.27775874774E+04 0.  0.
        4    1    3    3  502    0 -0.59064465700E+03  0.22034136695E+03 -0.15355098844E+04  0.16598806122E+04  0.12699999809E+01 0. -1.
       -4    1    3    3    0  502  0.59064465700E+03 -0.22034136695E+03  0.98719523534E+03  0.11713101530E+04  0.12699999809E+01 0.  1.
</event>
<event>
 5   0  0.1220265E-06  0.2797029E+04  0.7818609E-02  0.8304191E-01
        1   -1    0    0  501    0  0.00000000000E+00  0.00000000000E+00  0.19587500874E+04  0.19587500874E+04  0.50400001928E-02 0. -1.
       -1   -1    0    0    0  501  0.00000000000E+00  0.00000000000E+00 -0.99851541363E+03  0.99851541365E+03  0.50400001928E-02 0.  1.
    10030    2    1    2    0    0  0.00000000000E+00  0.00000000000E+00  0.96023467375E+03  0.29572655010E+04  0.27970285331E+04 0.  0.
        4    1    3    3  502    0  0.68922142678E+03  0.11812941894E+04  0.78901637990E+03  0.15789333734E+04  0.12699999809E+01 0. -1.
       -4    1    3    3    0  502 -0.68922142678E+03 -0.11812941894E+04  0.17121829385E+03  0.13783321276E+04  0.12699999809E+01 0.  1.
</event>
<event>
 5   0  0.1263513E-06  0.2793958E+04  0.7818609E-02  0.8305147E-01
        1   -1    0    0  501    0  0.00000000000E+00  0.00000000000E+00  0.14779128448E+04  0.14779128448E+04  0.50400001928E-02 0. -1.
       -1   -1    0    0    0  501  0.00000000000E+00  0.00000000000E+00 -0.13204773108E+04  0.13204773108E+04  0.50400001928E-02 0.  1.
    10030    2    1    2    0    0  0.00000000000E+00  0.00000000000E+00  0.15743553402E+03  0.27983901557E+04  0.27939580376E+04 0.  0.
        3    1    3    3  502    0  0.53497600163E+03 -0.92642702139E+03 -0.82108590175E+03  0.13485727331E+04  0.10100000352E+00 0.  1.
       -3    1    3    3    0  502 -0.53497600163E+03  0.92642702139E+03  0.97852143577E+03  0.14498174226E+04  0.10100000352E+00 0. -1.
</event>
<event>
 5   0  0.3167616E-06  0.2794816E+04  0.7818609E-02  0.8304880E-01
        2   -1    0    0  501    0  0.00000000000E+00  0.00000000000E+00  0.13541569992E+04  0.13541569992E+04  0.25500000920E-02 0.  1.
       -2   -1    0    0    0  501  0.00000000000E+00  0.00000000000E+00 -0.14420405252E+04  0.14420405252E+04  0.25500000920E-02 0. -1.
    10030    2    1    2    0    0  0.00000000000E+00  0.00000000000E+00 -0.87883526026E+02  0.27961975245E+04  0.27948161087E+04 0.  0.
        3    1    3    3  502    0  0.70038846212E+03  0.10394705070E+04  0.57418747808E+03  0.13786711729E+04  0.10100000352E+00 0.  1.
       -3    1    3    3    0  502 -0.70038846212E+03 -0.10394705070E+04 -0.66207100410E+03  0.14175263516E+04  0.10100000352E+00 0. -1.
</event>
<event>
 5   0  0.1246044E-06  0.2683704E+04  0.7818609E-02  0.8340312E-01
        1   -1    0    0  501    0  0.00000000000E+00  0.00000000000E+00  0.22358334325E+04  0.22358334325E+04  0.50400001928E-02 0. -1.
       -1   -1    0    0    0  501  0.00000000000E+00  0.00000000000E+00 -0.80532239166E+03  0.80532239168E+03  0.50400001928E-02 0.  1.
    10030    2    1    2    0    0  0.00000000000E+00  0.00000000000E+00  0.14305110408E+04  0.30411558241E+04  0.26837039533E+04 0.  0.
        2    1    3    3  502    0 -0.63412493626E+03 -0.10631624709E+04  0.12846494335E+03  0.12445610133E+04  0.25500000920E-02 0.  1.
       -2    1    3    3    0  502  0.63412493626E+03  0.10631624709E+04  0.13020460975E+04  0.17965948108E+04  0.25500000920E-02 0. -1.
</event>
<event>
 5   0  0.3162695E-06  0.2794892E+04  0.7818609E-02  0.8304856E-01
       -2   -1    0    0    0  501  0.00000000000E+00  0.00000000000E+00  0.10632188697E+04  0.10632188697E+04  0.25500000920E-02 0.  1.
        2   -1    0    0  501    0  0.00000000000E+00  0.00000000000E+00 -0.18367392341E+04  0.18367392341E+04  0.25500000920E-02 0. -1.
    10030    2    1    2    0    0  0.00000000000E+00  0.00000000000E+00 -0.77352036441E+03  0.28999581037E+04  0.27948923502E+04 0.  0.
        1    1    3    3  502    0 -0.96037829548E+03  0.81868116541E+02  0.66312043510E+03  0.11699391311E+04  0.50400001928E-02 0.  1.
       -1    1    3    3    0  502  0.96037829548E+03 -0.81868116541E+02 -0.14366407995E+04  0.17300189727E+04  0.50400001928E-02 0. -1.
</event>
<event>
 5   0  0.3167616E-06  0.2762023E+04  0.7818609E-02  0.8315157E-01
        2   -1    0    0  501    0  0.00000000000E+00  0.00000000000E+00  0.21420901792E+04  0.21420901792E+04  0.25500000920E-02 0. -1.
       -2   -1    0    0    0  501  0.00000000000E+00  0.00000000000E+00 -0.89034194668E+03  0.89034194668E+03  0.25500000920E-02 0.  1.
    10030    2    1    2    0    0  0.00000000000E+00  0.00000000000E+00  0.12517482325E+04  0.30324321259E+04  0.27620229833E+04 0.  0.
        3    1    3    3  502    0 -0.10293325080E+04  0.35624423104E+02 -0.38419518307E+03  0.10992726961E+04  0.10100000352E+00 0.  1.
       -3    1    3    3    0  502  0.10293325080E+04 -0.35624423104E+02  0.16359434156E+04  0.19331594297E+04  0.10100000352E+00 0. -1.
</event>
<event>
 5   0  0.1235252E-06  0.2797191E+04  0.7818609E-02  0.8304141E-01
        1   -1    0    0  501    0  0.00000000000E+00  0.00000000000E+00  0.14597455778E+04  0.14597455778E+04  0.50400001928E-02 0. -1.
       -1   -1    0    0    0  501  0.00000000000E+00  0.00000000000E+00 -0.13400066251E+04  0.13400066251E+04  0.50400001928E-02 0.  1.
    10030    2    1    2    0    0  0.00000000000E+00  0.00000000000E+00  0.11973895268E+03  0.27997522029E+04  0.27971905514E+04 0.  0.
        1    1    3    3  502    0  0.79338963112E+03 -0.11485446154E+04 -0.26505003101E+02  0.13961820639E+04  0.50400001928E-02 0. -1.
       -1    1    3    3    0  502 -0.79338963112E+03  0.11485446154E+04  0.14624395579E+03  0.14035701390E+04  0.50400001928E-02 0.  1.
</event>
<event>
 5   0  0.1235252E-06  0.2775313E+04  0.7818609E-02  0.8310974E-01
        1   -1    0    0  501    0  0.00000000000E+00  0.00000000000E+00  0.16418320157E+04  0.16418320157E+04  0.50400001928E-02 0. -1.
       -1   -1    0    0    0  501  0.00000000000E+00  0.00000000000E+00 -0.11728303375E+04  0.11728303375E+04  0.50400001928E-02 0.  1.
    10030    2    1    2    0    0  0.00000000000E+00  0.00000000000E+00  0.46900167818E+03  0.28146623532E+04  0.27753128811E+04 0.  0.
        1    1    3    3  502    0 -0.71750922728E+03  0.34746126888E+03  0.13864046258E+04  0.15992706497E+04  0.50400001928E-02 0. -1.
       -1    1    3    3    0  502  0.71750922728E+03 -0.34746126888E+03 -0.91740294758E+03  0.12153917035E+04  0.50400001928E-02 0.  1.
</event>
<event>
 5   0  0.3162695E-06  0.2794741E+04  0.7818609E-02  0.8304903E-01
        2   -1    0    0  501    0  0.00000000000E+00  0.00000000000E+00  0.18799302094E+04  0.18799302094E+04  0.25500000920E-02 0. -1.
       -2   -1    0    0    0  501  0.00000000000E+00  0.00000000000E+00 -0.10386788230E+04  0.10386788230E+04  0.25500000920E-02 0.  1.
    10030    2    1    2    0    0  0.00000000000E+00  0.00000000000E+00  0.84125138638E+03  0.29186090324E+04  0.27947405584E+04 0.  0.
        1    1    3    3  502    0 -0.11549080648E+04  0.60523815668E+03 -0.10415814446E+03  0.13080423478E+04  0.50400001928E-02 0. -1.
       -1    1    3    3    0  502  0.11549080648E+04 -0.60523815668E+03  0.94540953084E+03  0.16105666846E+04  0.50400001928E-02 0.  1.
</event>
<event>
 5   0  0.1246044E-06  0.2796169E+04  0.7818609E-02  0.8304459E-01
       -1   -1    0    0    0  501  0.00000000000E+00  0.00000000000E+00  0.95209732196E+03  0.95209732197E+03  0.50400001928E-02 0. -1.
        1   -1    0    0  501    0  0.00000000000E+00  0.00000000000E+00 -0.20529842570E+04  0.20529842570E+04  0.50400001928E-02 0.  1.
    10030    2    1    2    0    0  0.00000000000E+00  0.00000000000E+00 -0.11008869351E+04  0.30050815790E+04  0.27961693891E+04 0.  0.
        2    1    3    3  502    0  0.10108537982E+04 -0.98823666382E+02  0.48209261378E+03  0.11242796834E+04  0.25500000920E-02 0. -1.
       -2    1    3    3    0  502 -0.10108537982E+04  0.98823666382E+02 -0.15829795489E+04  0.18808018956E+04  0.25500000920E-02 0.  1.
</event>
<event>
 5   0  0.1235252E-06  0.2795518E+04  0.7818609E-02  0.8304661E-01
        1   -1    0    0  501    0  0.00000000000E+00  0.00000000000E+00  0.13400390181E+04  0.13400390181E+04  0.50400001928E-02 0. -1.
       -1   -1    0    0    0  501  0.00000000000E+00  0.00000000000E+00 -0.14579652032E+04  0.14579652032E+04  0.50400001928E-02 0.  1.
    10030    2    1    2    0    0  0.00000000000E+00  0.00000000000E+00 -0.11792618511E+03  0.27980042213E+04  0.27955180266E+04 0.  0.
        1    1    3    3  502    0  0.83758428670E+02  0.62451359692E+03  0.11898233912E+04  0.13463700864E+04  0.50400001928E-02 0. -1.
       -1    1    3    3    0  502 -0.83758428670E+02 -0.62451359692E+03 -0.13077495763E+04  0.14516341349E+04  0.50400001928E-02 0.  1.
</event>
<event>
 5   0  0.3167616E-06  0.2795273E+04  0.7818609E-02  0.8304737E-01
        2   -1    0    0  501    0  0.00000000000E+00  0.00000000000E+00  0.17677753009E+04  0.17677753009E+04  0.25500000920E-02 0.  1.
       -2   -1    0    0    0  501  0.00000000000E+00  0.00000000000E+00 -0.11049979988E+04  0.11049979988E+04  0.25500000920E-02 0. -1.
    10030    2    1    2    0    0  0.00000000000E+00  0.00000000000E+00  0.66277730217E+03  0.28727732997E+04  0.27952732745E+04 0.  0.
        3    1    3    3  502    0  0.90396695164E+03 -0.10656264466E+04  0.35803402855E+03  0.14425340028E+04  0.10100000352E+00 0. -1.
       -3    1    3    3    0  502 -0.90396695164E+03  0.10656264466E+04  0.30474327362E+03  0.14302392969E+04  0.10100000352E+00 0.  1.
</event>
<event>
 5   0  0.1220265E-06  0.2793615E+04  0.7818609E-02  0.8305253E-01
        1   -1    0    0  501    0  0.00000000000E+00  0.00000000000E+00  0.10370717679E+04  0.10370717679E+04  0.50400001928E-02 0. -1.
       -1   -1    0    0    0  501  0.00000000000E+00  0.00000000000E+00 -0.18813275374E+04  0.18813275374E+04  0.50400001928E-02 0.  1.
    10030    2    1    2    0    0  0.00000000000E+00  0.00000000000E+00 -0.84425576950E+03  0.29183993053E+04  0.27936153459E+04 0.  0.
        4    1    3    3  502    0 -0.13231739402E+04  0.27354190377E+03 -0.79214614294E+03  0.15662412246E+04  0.12699999809E+01 0.  1.
       -4    1    3    3    0  502  0.13231739402E+04 -0.27354190377E+03 -0.52109626552E+02  0.13521580807E+04  0.12699999809E+01 0. -1.
</event>
<event>
 5   0  0.1235252E-06  0.2717055E+04  0.7818609E-02  0.8329492E-01
        1   -1    0    0  501    0  0.00000000000E+00  0.00000000000E+00  0.22827197248E+04  0.22827197249E+04  0.50400001928E-02 0. -1.
       -1   -1    0    0    0  501  0.00000000000E+00  0.00000000000E+00 -0.80850789334E+03  0.80850789335E+03  0.50400001928E-02 0.  1.
    10030    2    1    2    0    0  0.00000000000E+00  0.00000000000E+00  0.14742118315E+04  0.30912276182E+04  0.27170549614E+04 0.  0.
        1    1    3    3  502    0 -0.61150319624E+03 -0.52240231266E+03 -0.50854990995E+03  0.95155837772E+03  0.50400001928E-02 0.  1.
       -1    1    3    3    0  502  0.61150319624E+03  0.52240231266E+03  0.19827617415E+04  0.21396692405E+04  0.50400001928E-02 0. -1.
</event>
<event>
 5   0  0.1235252E-06  0.2802966E+04  0.7818609E-02  0.8302348E-01
       -1   -1    0    0    0  501  0.00000000000E+00  0.00000000000E+00  0.18770079151E+04  0.18770079151E+04  0.50400001928E-02 0.  1.
        1   -1    0    0  501    0  0.00000000000E+00  0.00000000000E+00 -0.10464283437E+04  0.10464283437E+04  0.50400001928E-02 0. -1.
    10030    2    1    2    0    0  0.00000000000E+00  0.00000000000E+00  0.83057957146E+03  0.29234362588E+04  0.28029657748E+04 0.  0.
        1    1    3    3  502    0 -0.39339066894E+03  0.46793324169E+03  0.17306176112E+04  0.18354168609E+04  0.50400001928E-02 0.  1.
       -1    1    3    3    0  502  0.39339066894E+03 -0.46793324169E+03 -0.90003803977E+03  0.10880193979E+04  0.50400001928E-02 0. -1.
</event>
<event>
 5   0  0.3345919E-06  0.2801577E+04  0.7818609E-02  0.8302779E-01
       -2   -1    0    0    0  501  0.00000000000E+00  0.00000000000E+00  0.18946154897E+04  0.18946154897E+04  0.25500000920E-02 0.  1.
        2   -1    0    0  501    0  0.00000000000E+00  0.00000000000E+00 -0.10356762883E+04  0.10356762883E+04  0.25500000920E-02 0. -1.
    10030    2    1    2    0    0  0.00000000000E+00  0.00000000000E+00  0.85893920138E+03  0.29302917779E+04  0.28015769403E+04 0.  0.
        2    1    3    3  502    0 -0.88205298096E+03 -0.12284266353E+03  0.15603957504E+04  0.17966476224E+04  0.25500000920E-02 0.  1.
       -2    1    3    3    0  502  0.88205298096E+03  0.12284266353E+03 -0.70145654902E+03  0.11336441555E+04  0.25500000920E-02 0. -1.
</event>
<event>
 5   0  0.3212679E-06  0.2800497E+04  0.7818609E-02  0.8303114E-01
       -2   -1    0    0    0  501  0.00000000000E+00  0.00000000000E+00  0.17191826771E+04  0.17191826771E+04  0.25500000920E-02 0.  1.
        2   -1    0    0  501    0  0.00000000000E+00  0.00000000000E+00 -0.11404817376E+04  0.11404817376E+04  0.25500000920E-02 0. -1.
    10030    2    1    2    0    0  0.00000000000E+00  0.00000000000E+00  0.57870093946E+03  0.28596644147E+04  0.28004974178E+04 0.  0.
        4    1    3    3  502    0  0.97500673930E+03 -0.64774870972E+03 -0.49531016635E+03  0.12710429994E+04  0.12699999809E+01 0. -1.
       -4    1    3    3    0  502 -0.97500673930E+03  0.64774870972E+03  0.10740111058E+04  0.15886214152E+04  0.12699999809E+01 0.  1.
</event>
<event>
 5   0  0.3167616E-06  0.2806792E+04  0.7818609E-02  0.8301163E-01
        2   -1    0    0  501    0  0.00000000000E+00  0.00000000000E+00  0.19243127611E+04  0.19243127611E+04  0.25500000920E-02 0. -1.
       -2   -1    0    0    0  501  0.00000000000E+00  0.00000000000E+00 -0.10234926000E+04  0.10234926000E+04  0.25500000920E-02 0.  1.
    10030    2    1    2    0    0  0.00000000000E+00  0.00000000000E+00  0.90082016110E+03  0.29478053611E+04  0.28067916710E+04 0.  0.
        3    1    3    3  502    0 -0.11882106935E+04  0.63011027691E+03  0.29479575173E+02  0.13452704816E+04  0.10100000352E+00 0. -1.
       -3    1    3    3    0  502  0.11882106935E+04 -0.63011027691E+03  0.87134058593E+03  0.16025348795E+04  0.10100000352E+00 0.  1.
</event>
<event>
 5   0  0.1263513E-06  0.2816358E+04  0.7818609E-02  0.8298208E-01
       -1   -1    0    0    0  501  0.00000000000E+00  0.00000000000E+00  0.11327336795E+04  0.11327336795E+04  0.50400001928E-02 0. -1.
        1   -1    0    0  501    0  0.00000000000E+00  0.00000000000E+00 -0.17506044088E+04  0.17506044088E+04  0.50400001928E-02 0.  1.
    10030    2    1    2    0    0  0.00000000000E+00  0.00000000000E+00 -0.61787072927E+03  0.28833380883E+04  0.28163583389E+04 0.  0.
        3    1    3    3  502    0 -0.24461750666E+03 -0.26780906168E+03  0.10840894727E+04  0.11431576501E+04  0.10100000352E+00 0. -1.
       -3    1    3    3    0  502  0.24461750666E+03  0.26780906168E+03 -0.17019602019E+04  0.17401804381E+04  0.10100000352E+00 0.  1.
</event>
<event>
 5   0  0.3226364E-06  0.2789323E+04  0.7818609E-02  0.8306591E-01
        2   -1    0    0  501    0  0.00000000000E+00  0.00000000000E+00  0.14591458130E+04  0.14591458130E+04  0.25500000920E-02 0.  1.
       -2   -1    0    0    0  501  0.00000000000E+00  0.00000000000E+00 -0.13330270974E+04  0.13330270974E+04  0.25500000920E-02 0. -1.
    10030    2    1    2    0    0  0.00000000000E+00  0.00000000000E+00  0.12611871561E+03  0.27921729105E+04  0.27893231494E+04 0.  0.
        5    1    3    3  502    0  0.95241836322E+03  0.49811432352E+03 -0.82657817104E+03  0.13559027180E+04  0.46999998093E+01 0. -1.
       -5    1    3    3    0  502 -0.95241836322E+03 -0.49811432352E+03  0.95269688665E+03  0.14362701925E+04  0.46999998093E+01 0.  1.
</event>
<event>
 5   0  0.3345919E-06  0.2812421E+04  0.7818609E-02  0.8299423E-01
       -2   -1    0    0    0  501  0.00000000000E+00  0.00000000000E+00  0.92832673378E+03  0.92832673378E+03  0.25500000920E-02 0. -1.
        2   -1    0    0  501    0  0.00000000000E+00  0.00000000000E+00 -0.21300987236E+04  0.21300987236E+04  0.25500000920E-02 0.  1.
    10030    2    1    2    0    0  0.00000000000E+00  0.00000000000E+00 -0.12017719899E+04  0.30584254574E+04  0.28124207301E+04 0.  0.
        2    1    3    3  502    0  0.22859442049E+03  0.11119737702E+04 -0.15033469048E+04  0.18838240339E+04  0.25500000920E-02 0.  1.
       -2    1    3    3    0  502 -0.22859442049E+03 -0.11119737702E+04  0.30157491491E+03  0.11746014235E+04  0.25500000920E-02 0. -1.
</event>
<event>
 5   0  0.1263513E-06  0.2733762E+04  0.7818609E-02  0.8324133E-01
        1   -1    0    0  501    0  0.00000000000E+00  0.00000000000E+00  0.23443115123E+04  0.23443115123E+04  0.50400001928E-02 0.  1.
       -1   -1    0    0    0  501  0.00000000000E+00  0.00000000000E+00 -0.79697777710E+03  0.79697777711E+03  0.50400001928E-02 0. -1.
    10030    2    1    2    0    0  0.00000000000E+00  0.00000000000E+00  0.15473337352E+04  0.31412892895E+04  0.27337623730E+04 0.  0.
        3    1    3    3  502    0  0.12495528961E+04 -0.42932750872E+03  0.37122980036E+03  0.13724125199E+04  0.10100000352E+00 0. -1.
       -3    1    3    3    0  502 -0.12495528961E+04  0.42932750872E+03  0.11761039349E+04  0.17688767695E+04  0.10100000352E+00 0.  1.
</event>
<event>
 5   0  0.3226364E-06  0.2794381E+04  0.7818609E-02  0.8305015E-01
        2   -1    0    0  501    0  0.00000000000E+00  0.00000000000E+00  0.17692309158E+04  0.17692309158E+04  0.25500000920E-02 0.  1.
       -2   -1    0    0    0  501  0.00000000000E+00  0.00000000000E+00 -0.11033841586E+04  0.11033841586E+04  0.25500000920E-02 0. -1.
    10030    2    1    2    0    0  0.00000000000E+00  0.00000000000E+00  0.66584675716E+03  0.28726150744E+04  0.27943810516E+04 0.  0.
        5    1    3    3  502    0 -0.11578454504E+04  0.78112613185E+03  0.37076643565E+03  0.14450792230E+04  0.46999998093E+01 0.  1.
       -5    1    3    3    0  502  0.11578454504E+04 -0.78112613185E+03  0.29508032151E+03  0.14275358514E+04  0.46999998093E+01 0. -1.
</event>
<event>
 5   0  0.1065675E-06  0.2786839E+04  0.7818609E-02  0.8307366E-01
       -3   -1    0    0    0  501  0.00000000000E+00  0.00000000000E+00  0.92183886332E+03  0.92183886885E+03  0.10100000352E+00 0. -1.
        3   -1    0    0  501    0  0.00000000000E+00  0.00000000000E+00 -0.21062440843E+04  0.21062440867E+04  0.10100000352E+00 0.  1.
    10030    2    1    2    0    0  0.00000000000E+00  0.00000000000E+00 -0.11844052210E+04  0.30280829556E+04  0.27868388289E+04 0.  0.
        5    1    3    3  502    0 -0.73997455262E+03  0.91909235134E+03 -0.13975100255E+04  0.18290296471E+04  0.46999998093E+01 0.  1.
       -5    1    3    3    0  502  0.73997455262E+03 -0.91909235134E+03  0.21310480448E+03  0.11990533084E+04  0.46999998093E+01 0. -1.
</event>
<event>
 5   0  0.3226364E-06  0.2761382E+04  0.7818609E-02  0.8315359E-01
        2   -1    0    0  501    0  0.00000000000E+00  0.00000000000E+00  0.12597554044E+04  0.12597554044E+04  0.25500000920E-02 0.  1.
       -2   -1    0    0    0  501  0.00000000000E+00  0.00000000000E+00 -0.15132359717E+04  0.15132359717E+04  0.25500000920E-02 0. -1.
    10030    2    1    2    0    0  0.00000000000E+00  0.00000000000E+00 -0.25348056729E+03  0.27729913761E+04  0.27613816784E+04 0.  0.
        5    1    3    3  502    0  0.88192097112E+03 -0.51938799452E+03  0.80383619366E+03  0.13014312139E+04  0.46999998093E+01 0.  1.
       -5    1    3    3    0  502 -0.88192097112E+03  0.51938799452E+03 -0.10573167610E+04  0.14715601623E+04  0.46999998093E+01 0. -1.
</event>
<event>
 5   0  0.3162695E-06  0.2724216E+04  0.7818609E-02  0.8327190E-01
        2   -1    0    0  501    0  0.00000000000E+00  0.00000000000E+00  0.21663537516E+04  0.21663537516E+04  0.25500000920E-02 0. -1.
       -2   -1    0    0    0  501  0.00000000000E+00  0.00000000000E+00 -0.85643350224E+03  0.85643350224E+03  0.25500000920E-02 0.  1.
    10030    2    1    2    0    0  0.00000000000E+00  0.00000000000E+00  0.13099202493E+04  0.30227872538E+04  0.27242157995E+04 0.  0.
        1    1    3    3  502    0 -0.73705557149E+03  0.52467611495E+03 -0.47487217406E+03  0.10217825223E+04  0.50400001928E-02 0.  1.
       -1    1    3    3    0  502  0.73705557149E+03 -0.52467611495E+03  0.17847924234E+04  0.20010047316E+04  0.50400001928E-02 0. -1.
</event>
<event>
 5   0  0.3212679E-06  0.2839893E+04  0.7818609E-02  0.8290989E-01
        2   -1    0    0  501    0  0.00000000000E+00  0.00000000000E+00  0.18296862420E+04  0.18296862420E+04  0.25500000920E-02 0.  1.
       -2   -1    0    0    0  501  0.00000000000E+00  0.00000000000E+00 -0.11019640894E+04  0.11019640894E+04  0.25500000920E-02 0. -1.
    10030    2    1    2    0    0  0.00000000000E+00  0.00000000000E+00  0.72772215252E+03  0.29316503314E+04  0.28398933315E+04 0.  0.
        4    1    3    3  502    0 -0.33243653328E+03 -0.17228922405E+03 -0.10500831021E+04  0.11148424820E+04  0.12699999809E+01 0. -1.
       -4    1    3    3    0  502  0.33243653328E+03  0.17228922405E+03  0.17778052546E+04  0.18168078494E+04  0.12699999809E+01 0.  1.
</event>
<event>
 5   0  0.1263513E-06  0.2805225E+04  0.7818609E-02  0.8301648E-01
       -1   -1    0    0    0  501  0.00000000000E+00  0.00000000000E+00  0.16067010841E+04  0.16067010841E+04  0.50400001928E-02 0. -1.
        1   -1    0    0  501    0  0.00000000000E+00  0.00000000000E+00 -0.12244481908E+04  0.12244481908E+04  0.50400001928E-02 0.  1.
    10030    2    1    2    0    0  0.00000000000E+00  0.00000000000E+00  0.38225289331E+03  0.28311492749E+04  0.28052252926E+04 0.  0.
        3    1    3    3  502    0  0.30857791446E+03 -0.10622134888E+04 -0.67928460021E+03  0.12980544685E+04  0.10100000352E+00 0.  1.
       -3    1    3    3    0  502 -0.30857791446E+03  0.10622134888E+04  0.10615374935E+04  0.15330948064E+04  0.10100000352E+00 0. -1.
</event>
<event>
 5   0  0.1220265E-06  0.2802199E+04  0.7818609E-02  0.8302586E-01
       -1   -1    0    0    0  501  0.00000000000E+00  0.00000000000E+00  0.80354350688E+03  0.80354350690E+03  0.50400001928E-02 0. -1.
        1   -1    0    0  501    0  0.00000000000E+00  0.00000000000E+00 -0.24430286915E+04  0.24430286915E+04  0.50400001928E-02 0.  1.
    10030    2    1    2    0    0  0.00000000000E+00  0.00000000000E+00 -0.16394851846E+04  0.32465721984E+04  0.28021990238E+04 0.  0.
        4    1    3    3  502    0 -0.12681468289E+04  0.59392647571E+03 -0.87325333514E+03  0.16503084676E+04  0.12699999809E+01 0.  1.
       -4    1    3    3    0  502  0.12681468289E+04 -0.59392647571E+03 -0.76623184947E+03  0.15962637308E+04  0.12699999809E+01 0. -1.
</event>
<event>
 5   0  0.3162695E-06  0.2805049E+04  0.7818609E-02  0.8301703E-01
        2   -1    0    0  501    0  0.00000000000E+00  0.00000000000E+00  0.18375221139E+04  0.18375221139E+04  0.25500000920E-02 0. -1.
       -2   -1    0    0    0  501  0.00000000000E+00  0.00000000000E+00 -0.10705042438E+04  0.10705042438E+04  0.25500000920E-02 0.  1.
    10030    2    1    2    0    0  0.00000000000E+00  0.00000000000E+00  0.76701787016E+03  0.29080263577E+04  0.28050491768E+04 0.  0.
        1    1    3    3  502    0 -0.61597433475E+03 -0.62759806574E+03  0.15162182283E+04  0.17527753504E+04  0.50400001928E-02 0. -1.
       -1    1    3    3    0  502  0.61597433475E+03  0.62759806574E+03 -0.74920035816E+03  0.11552510073E+04  0.50400001928E-02 0.  1.
</event>
<event>
 5   0  0.1235252E-06  0.2790695E+04  0.7818609E-02  0.8306163E-01
       -1   -1    0    0    0  501  0.00000000000E+00  0.00000000000E+00  0.10832193030E+04  0.10832193030E+04  0.50400001928E-02 0. -1.
        1   -1    0    0  501    0  0.00000000000E+00  0.00000000000E+00 -0.17974146513E+04  0.17974146513E+04  0.50400001928E-02 0.  1.
    10030    2    1    2    0    0  0.00000000000E+00  0.00000000000E+00 -0.71419534831E+03  0.28806339542E+04  0.27906947133E+04 0.  0.
        1    1    3    3  502    0  0.12454982274E+04 -0.21704595717E+03 -0.96656659061E+03  0.15914225573E+04  0.50400001928E-02 0.  1.
       -1    1    3    3    0  502 -0.12454982274E+04  0.21704595717E+03  0.25237124230E+03  0.12892113969E+04  0.50400001928E-02 0. -1.
</event>
<event>
 5   0  0.3212679E-06  0.2792157E+04  0.7818609E-02  0.8305707E-01
       -2   -1    0    0    0  501  0.00000000000E+00  0.00000000000E+00  0.19641614949E+04  0.19641614949E+04  0.25500000920E-02 0.  1.
        2   -1    0    0  501    0  0.00000000000E+00  0.00000000000E+00 -0.99229891600E+03  0.99229891600E+03  0.25500000920E-02 0. -1.
    10030    2    1    2    0    0  0.00000000000E+00  0.00000000000E+00  0.97186257888E+03  0.29564604109E+04  0.27921571032E+04 0.  0.
        4    1    3    3  502    0 -0.11270931596E+04  0.45255270932E+03  0.12148369780E+04  0.17178397601E+04  0.12699999809E+01 0.  1.
       -4    1    3    3    0  502  0.11270931596E+04 -0.45255270932E+03 -0.24297439917E+03  0.12386206508E+04  0.12699999809E+01 0. -1.
</event>
<event>
 5   0  0.3226364E-06  0.2802806E+04  0.7818609E-02  0.8302398E-01
        2   -1    0    0  501    0  0.00000000000E+00  0.00000000000E+00  0.22069938783E+04  0.22069938783E+04  0.25500000920E-02 0. -1.
       -2   -1    0    0    0  501  0.00000000000E+00  0.00000000000E+00 -0.88986651252E+03  0.88986651252E+03  0.25500000920E-02 0.  1.
    10030    2    1    2    0    0  0.00000000000E+00  0.00000000000E+00  0.13171273658E+04  0.30968603909E+04  0.28028056983E+04 0.  0.
        5    1    3    3  502    0 -0.11199720547E+04  0.68536580831E+03  0.11996832157E+04  0.17785740362E+04  0.46999998093E+01 0.  1.
       -5    1    3    3    0  502  0.11199720547E+04 -0.68536580831E+03  0.11744415015E+03  0.13182863546E+04  0.46999998093E+01 0. -1.
</event>
<event>
 5   0  0.3226364E-06  0.2816913E+04  0.7818609E-02  0.8298037E-01
        2   -1    0    0  501    0  0.00000000000E+00  0.00000000000E+00  0.16855403739E+04  0.16855403739E+04  0.25500000920E-02 0. -1.
       -2   -1    0    0    0  501  0.00000000000E+00  0.00000000000E+00 -0.11769218451E+04  0.11769218451E+04  0.25500000920E-02 0.  1.
    10030    2    1    2    0    0  0.00000000000E+00  0.00000000000E+00  0.50861852878E+03  0.28624622191E+04  0.28169126979E+04 0.  0.
        5    1    3    3  502    0 -0.12049427442E+04  0.51730652781E+03 -0.26803981962E+03  0.13384171605E+04  0.46999998093E+01 0.  1.
       -5    1    3    3    0  502  0.12049427442E+04 -0.51730652781E+03  0.77665834840E+03  0.15240450586E+04  0.46999998093E+01 0. -1.
</event>
<event>
 5   0  0.1220265E-06  0.2804376E+04  0.7818609E-02  0.8301911E-01
       -1   -1    0    0    0  501  0.00000000000E+00  0.00000000000E+00  0.11337548430E+04  0.11337548430E+04  0.50400001928E-02 0.  1.
        1   -1    0    0  501    0  0.00000000000E+00  0.00000000000E+00 -0.17341768827E+04  0.17341768827E+04  0.50400001928E-02 0. -1.
    10030    2    1    2    0    0  0.00000000000E+00  0.00000000000E+00 -0.60042203972E+03  0.28679317256E+04  0.28043761797E+04 0.  0.
        4    1    3    3  502    0  0.87352083409E+03 -0.98177625390E+03  0.19996064733E+03  0.13292513433E+04  0.12699999809E+01 0. -1.
       -4    1    3    3    0  502 -0.87352083409E+03  0.98177625390E+03 -0.80038268705E+03  0.15386803823E+04  0.12699999809E+01 0.  1.
</event>
<event>
 5   0  0.1220265E-06  0.2799511E+04  0.7818609E-02  0.8303420E-01
        1   -1    0    0  501    0  0.00000000000E+00  0.00000000000E+00  0.15186185418E+04  0.15186185419E+04  0.50400001928E-02 0.  1.
       -1   -1    0    0    0  501  0.00000000000E+00  0.00000000000E+00 -0.12901962533E+04  0.12901962533E+04  0.50400001928E-02 0. -1.
    10030    2    1    2    0    0  0.00000000000E+00  0.00000000000E+00  0.22842228851E+03  0.28088147952E+04  0.27995113523E+04 0.  0.
        4    1    3    3  502    0 -0.13830445094E+03 -0.35313491800E+03 -0.12376647954E+04  0.12944682886E+04  0.12699999809E+01 0. -1.
       -4    1    3    3    0  502  0.13830445094E+03  0.35313491800E+03  0.14660870839E+04  0.15143465066E+04  0.12699999809E+01 0.  1.
</event>
<event>
 5   0  0.1235252E-06  0.2804457E+04  0.7818609E-02  0.8301886E-01
        1   -1    0    0  501    0  0.00000000000E+00  0.00000000000E+00  0.13380754227E+04  0.13380754227E+04  0.50400001928E-02 0.  1.
       -1   -1    0    0    0  501  0.00000000000E+00  0.00000000000E+00 -0.14694577864E+04  0.14694577864E+04  0.50400001928E-02 0. -1.
    10030    2    1    2    0    0  0.00000000000E+00  0.00000000000E+00 -0.13138236373E+03  0.28075332091E+04  0.28044574154E+04 0.  0.
        1    1    3    3  502    0  0.19303311934E+02  0.14020273788E+04 -0.51821024713E+02  0.14031175315E+04  0.50400001928E-02 0. -1.
       -1    1    3    3    0  502 -0.19303311934E+02 -0.14020273788E+04 -0.79561339019E+02  0.14044156776E+04  0.50400001928E-02 0.  1.
</event>
<event>
 5   0  0.3226364E-06  0.2806583E+04  0.7818609E-02  0.8301228E-01
       -2   -1    0    0    0  501  0.00000000000E+00  0.00000000000E+00  0.11002248247E+04  0.11002248247E+04  0.25500000920E-02 0.  1.
        2   -1    0    0  501    0  0.00000000000E+00  0.00000000000E+00 -0.17898404767E+04  0.17898404767E+04  0.25500000920E-02 0. -1.
    10030    2    1    2    0    0  0.00000000000E+00  0.00000000000E+00 -0.68961565192E+03  0.28900653014E+04  0.28065829222E+04 0.  0.
        5    1    3    3  502    0  0.80545257275E+03 -0.44570365168E+03 -0.14354627108E+04  0.17052802925E+04  0.46999998093E+01 0. -1.
       -5    1    3    3    0  502 -0.80545257275E+03  0.44570365168E+03  0.74584705886E+03  0.11847850089E+04  0.46999998093E+01 0.  1.
</event>
<event>
 5   0  0.3162695E-06  0.2791382E+04  0.7818609E-02  0.8305949E-01
       -2   -1    0    0    0  501  0.00000000000E+00  0.00000000000E+00  0.11200591484E+04  0.11200591484E+04  0.25500000920E-02 0.  1.
        2   -1    0    0  501    0  0.00000000000E+00  0.00000000000E+00 -0.17391519623E+04  0.17391519623E+04  0.25500000920E-02 0. -1.
    10030    2    1    2    0    0  0.00000000000E+00  0.00000000000E+00 -0.61909281397E+03  0.28592111107E+04  0.27913817839E+04 0.  0.
        1    1    3    3  502    0  0.38920119010E+03 -0.54998441452E+03  0.94244460828E+03  0.11585172689E+04  0.50400001928E-02 0.  1.
       -1    1    3    3    0  502 -0.38920119010E+03  0.54998441452E+03 -0.15615374223E+04  0.17006938418E+04  0.50400001928E-02 0. -1.
</event>
<event>
 5   0  0.3162695E-06  0.2819744E+04  0.7818609E-02  0.8297165E-01
       -2   -1    0    0    0  501  0.00000000000E+00  0.00000000000E+00  0.12229159170E+04  0.12229159170E+04  0.25500000920E-02 0. -1.
        2   -1    0    0  501    0  0.00000000000E+00  0.00000000000E+00 -0.16254090761E+04  0.16254090761E+04  0.25500000920E-02 0.  1.
    10030    2    1    2    0    0  0.00000000000E+00  0.00000000000E+00 -0.40249315910E+03  0.28483249931E+04  0.28197436981E+04 0.  0.
        1    1    3    3  502    0 -0.14082494239E+04 -0.11554423988E+02 -0.13394780928E+03  0.14146525935E+04  0.50400001928E-02 0.  1.
       -1    1    3    3    0  502  0.14082494239E+04  0.11554423988E+02 -0.26854534982E+03  0.14336723996E+04  0.50400001928E-02 0. -1.
</event>
<event>
 5   0  0.3162695E-06  0.2754088E+04  0.7818609E-02  0.8317666E-01
       -2   -1    0    0    0  501  0.00000000000E+00  0.00000000000E+00  0.74211992921E+03  0.74211992921E+03  0.25500000920E-02 0.  1.
        2   -1    0    0  501    0  0.00000000000E+00  0.00000000000E+00 -0.25551801012E+04  0.25551801012E+04  0.25500000920E-02 0. -1.
    10030    2    1    2    0    0  0.00000000000E+00  0.00000000000E+00 -0.18130601720E+04  0.32973000304E+04  0.27540879259E+04 0.  0.
        1    1    3    3  502    0  0.92959189458E+03  0.23161831829E+03 -0.20908052838E+04  0.22998380096E+04  0.50400001928E-02 0.  1.
       -1    1    3    3    0  502 -0.92959189458E+03 -0.23161831829E+03  0.27774511175E+03  0.99746202081E+03  0.50400001928E-02 0. -1.
</event>
<event>
 5   0  0.1246044E-06  0.2800348E+04  0.7818609E-02  0.8303160E-01
       -1   -1    0    0    0  501  0.00000000000E+00  0.00000000000E+00  0.97281457329E+03  0.97281457330E+03  0.50400001928E-02 0. -1.
        1   -1    0    0  501    0  0.00000000000E+00  0.00000000000E+00 -0.20152735584E+04  0.20152735585E+04  0.50400001928E-02 0.  1.
    10030    2    1    2    0    0  0.00000000000E+00  0.00000000000E+00 -0.10424589852E+04  0.29880881318E+04  0.28003481832E+04 0.  0.
        2    1    3    3  502    0 -0.44100597629E+02 -0.12416761306E+04 -0.12100980675E+04  0.17343707242E+04  0.25500000920E-02 0.  1.
       -2    1    3    3    0  502  0.44100597629E+02  0.12416761306E+04  0.16763908231E+03  0.12537174075E+04  0.25500000920E-02 0. -1.
</event>
<event>
 5   0  0.1243055E-06  0.2813603E+04  0.7818609E-02  0.8299058E-01
       -1   -1    0    0    0  501  0.00000000000E+00  0.00000000000E+00  0.10668350186E+04  0.10668350186E+04  0.50400001928E-02 0.  1.
        1   -1    0    0  501    0  0.00000000000E+00  0.00000000000E+00 -0.18551046411E+04  0.18551046411E+04  0.50400001928E-02 0. -1.
    10030    2    1    2    0    0  0.00000000000E+00  0.00000000000E+00 -0.78826962250E+03  0.29219396598E+04  0.28136030952E+04 0.  0.
        5    1    3    3  502    0  0.20116020958E+03 -0.49982453590E+02 -0.18391514378E+04  0.18508008474E+04  0.46999998093E+01 0. -1.
       -5    1    3    3    0  502 -0.20116020958E+03  0.49982453590E+02  0.10508818153E+04  0.10711388123E+04  0.46999998093E+01 0.  1.
</event>
<event>
 5   0  0.3226364E-06  0.2793438E+04  0.7818609E-02  0.8305309E-01
        2   -1    0    0  501    0  0.00000000000E+00  0.00000000000E+00  0.18573902094E+04  0.18573902094E+04  0.25500000920E-02 0. -1.
       -2   -1    0    0    0  501  0.00000000000E+00  0.00000000000E+00 -0.10503037083E+04  0.10503037083E+04  0.25500000920E-02 0.  1.
    10030    2    1    2    0    0  0.00000000000E+00  0.00000000000E+00  0.80708650113E+03  0.29076939177E+04  0.27934378996E+04 0.  0.
        5    1    3    3  502    0 -0.11606566486E+04 -0.77175611896E+03  0.31003360052E+03  0.14278915528E+04  0.46999998093E+01 0. -1.
       -5    1    3    3    0  502  0.11606566486E+04  0.77175611896E+03  0.49705290061E+03  0.14798023649E+04  0.46999998093E+01 0.  1.
</event>
<event>
 5   0  0.1220265E-06  0.2787658E+04  0.7818609E-02  0.8307110E-01
       -1   -1    0    0    0  501  0.00000000000E+00  0.00000000000E+00  0.71971464544E+03  0.71971464546E+03  0.50400001928E-02 0.  1.
        1   -1    0    0  501    0  0.00000000000E+00  0.00000000000E+00 -0.26993468854E+04  0.26993468854E+04  0.50400001928E-02 0. -1.
    10030    2    1    2    0    0  0.00000000000E+00  0.00000000000E+00 -0.19796322400E+04  0.34190615309E+04  0.27876581473E+04 0.  0.
        4    1    3    3  502    0 -0.60338678484E+02 -0.13437348552E+04 -0.54169245537E+03  0.14500677385E+04  0.12699999809E+01 0. -1.
       -4    1    3    3    0  502  0.60338678484E+02  0.13437348552E+04 -0.14379397846E+04  0.19689937923E+04  0.12699999809E+01 0.  1.
</event>
<event>
 5   0  0.3345919E-06  0.2811999E+04  0.7818609E-02  0.8299553E-01
       -2   -1    0    0    0  501  0.00000000000E+00  0.00000000000E+00  0.17016490185E+04  0.17016490185E+04  0.25500000920E-02 0.  1.
        2   -1    0    0  501    0  0.00000000000E+00  0.00000000000E+00 -0.11617172262E+04  0.11617172262E+04  0.25500000920E-02 0. -1.
    10030    2    1    2    0    0  0.00000000000E+00  0.00000000000E+00  0.53993179228E+03  0.28633662447E+04  0.28119992729E+04 0.  0.
        2    1    3    3  502    0 -0.52580655708E+03 -0.93199900932E+03  0.11986233871E+04  0.16067957906E+04  0.25500000920E-02 0.  1.
       -2    1    3    3    0  502  0.52580655708E+03  0.93199900932E+03 -0.65869159477E+03  0.12565704540E+04  0.25500000920E-02 0. -1.
</event>
<event>
 5   0  0.1235252E-06  0.2803129E+04  0.7818609E-02  0.8302298E-01
        1   -1    0    0  501    0  0.00000000000E+00  0.00000000000E+00  0.12572967193E+04  0.12572967193E+04  0.50400001928E-02 0. -1.
       -1   -1    0    0    0  501  0.00000000000E+00  0.00000000000E+00 -0.15623859276E+04  0.15623859276E+04  0.50400001928E-02 0.  1.
    10030    2    1    2    0    0  0.00000000000E+00  0.00000000000E+00 -0.30508920828E+03  0.28196826470E+04  0.28031287528E+04 0.  0.
        1    1    3    3  502    0  0.72037238554E+03 -0.50647392379E+03 -0.12493647482E+04  0.15285170864E+04  0.50400001928E-02 0.  1.
       -1    1    3    3    0  502 -0.72037238554E+03  0.50647392379E+03  0.94427553995E+03  0.12911655605E+04  0.50400001928E-02 0. -1.
</event>
<event>
 5   0  0.3167616E-06  0.2800035E+04  0.7818609E-02  0.8303257E-01
        2   -1    0    0  501    0  0.00000000000E+00  0.00000000000E+00  0.23220384184E+04  0.23220384184E+04  0.25500000920E-02 0.  1.
       -2   -1    0    0    0  501  0.00000000000E+00  0.00000000000E+00 -0.84410734456E+03  0.84410734456E+03  0.25500000920E-02 0. -1.
    10030    2    1    2    0    0  0.00000000000E+00  0.00000000000E+00  0.14779310738E+04  0.31661457629E+04  0.28000354878E+04 0.  0.
        3    1    3    3  502    0 -0.81643179686E+03 -0.11264447994E+04  0.91635637603E+03  0.16658774814E+04  0.10100000352E+00 0.  1.
       -3    1    3    3    0  502  0.81643179686E+03  0.11264447994E+04  0.56157469779E+03  0.15002682815E+04  0.10100000352E+00 0. -1.
</event>
<event>
 5   0  0.3226364E-06  0.2806637E+04  0.7818609E-02  0.8301211E-01
       -2   -1    0    0    0  501  0.00000000000E+00  0.00000000000E+00  0.95757659094E+03  0.95757659095E+03  0.25500000920E-02 0.  1.
        2   -1    0    0  501    0  0.00000000000E+00  0.00000000000E+00 -0.20565490554E+04  0.20565490554E+04  0.25500000920E-02 0. -1.
    10030    2    1    2    0    0  0.00000000000E+00  0.00000000000E+00 -0.10989724644E+04  0.30141256463E+04  0.28066373001E+04 0.  0.
        5    1    3    3  502    0  0.33645991471E+02  0.12446133402E+04  0.14574137815E+03  0.12535777034E+04  0.46999998093E+01 0.  1.
       -5    1    3    3    0  502 -0.33645991471E+02 -0.12446133402E+04 -0.12447138426E+04  0.17605479429E+04  0.46999998093E+01 0. -1.
</event>
<event>
 5   0  0.1235252E-06  0.2799054E+04  0.7818609E-02  0.8303562E-01
        1   -1    0    0  501    0  0.00000000000E+00  0.00000000000E+00  0.16762271804E+04  0.16762271804E+04  0.50400001928E-02 0. -1.
       -1   -1    0    0    0  501  0.00000000000E+00  0.00000000000E+00 -0.11685023762E+04  0.11685023762E+04  0.50400001928E-02 0.  1.
    10030    2    1    2    0    0  0.00000000000E+00  0.00000000000E+00  0.50772480420E+03  0.28447295566E+04  0.27990537282E+04 0.  0.
        1    1    3    3  502    0 -0.11941171623E+04  0.17089781009E+03  0.97505721770E+03  0.15510829883E+04  0.50400001928E-02 0. -1.
       -1    1    3    3    0  502  0.11941171623E+04 -0.17089781009E+03 -0.46733241350E+03  0.12936465683E+04  0.50400001928E-02 0.  1.
</event>
<event>
 5   0  0.1220265E-06  0.2807895E+04  0.7818609E-02  0.8300822E-01
       -1   -1    0    0    0  501  0.00000000000E+00  0.00000000000E+00  0.11838343923E+04  0.11838343923E+04  0.50400001928E-02 0.  1.
        1   -1    0    0  501    0  0.00000000000E+00  0.00000000000E+00 -0.16649863641E+04  0.16649863642E+04  0.50400001928E-02 0. -1.
    10030    2    1    2    0    0  0.00000000000E+00  0.00000000000E+00 -0.48115197181E+03  0.28488207565E+04  0.28078946709E+04 0.  0.
        4    1    3    3  502    0 -0.55442478198E+03  0.11358820679E+03  0.10629766377E+04  0.12042466794E+04  0.12699999809E+01 0.  1.
       -4    1    3    3    0  502  0.55442478198E+03 -0.11358820679E+03 -0.15441286095E+04  0.16445740771E+04  0.12699999809E+01 0. -1.
</event>
<event>
 5   0  0.1065675E-06  0.2803897E+04  0.7818609E-02  0.8302060E-01
        3   -1    0    0  501    0  0.00000000000E+00  0.00000000000E+00  0.24015276841E+04  0.24015276863E+04  0.10100000352E+00 0.  1.
       -3   -1    0    0    0  501  0.00000000000E+00  0.00000000000E+00 -0.81842035946E+03  0.81842036570E+03  0.10100000352E+00 0. -1.
    10030    2    1    2    0    0  0.00000000000E+00  0.00000000000E+00  0.15831073247E+04  0.32199480520E+04  0.28038966914E+04 0.  0.
        3    1    3    3  502    0 -0.97027197439E+03  0.80100606072E+03  0.15017159010E+04  0.19591296718E+04  0.10100000352E+00 0.  1.
       -3    1    3    3    0  502  0.97027197439E+03 -0.80100606072E+03  0.81391423701E+02  0.12608183801E+04  0.10100000352E+00 0. -1.
</event>
<event>
 5   0  0.1243055E-06  0.2803649E+04  0.7818609E-02  0.8302137E-01
        1   -1    0    0  501    0  0.00000000000E+00  0.00000000000E+00  0.13801934545E+04  0.13801934546E+04  0.50400001928E-02 0. -1.
       -1   -1    0    0    0  501  0.00000000000E+00  0.00000000000E+00 -0.14237941970E+04  0.14237941970E+04  0.50400001928E-02 0.  1.
    10030    2    1    2    0    0  0.00000000000E+00  0.00000000000E+00 -0.43600742487E+02  0.28039876516E+04  0.28036486452E+04 0.  0.
        5    1    3    3  502    0  0.41885509320E+03 -0.13699178772E+02  0.13160691518E+04  0.13811905585E+04  0.46999998093E+01 0. -1.
       -5    1    3    3    0  502 -0.41885509320E+03  0.13699178772E+02 -0.13596698943E+04  0.14227970931E+04  0.46999998093E+01 0.  1.
</event>
<event>
 5   0  0.3226364E-06  0.2796818E+04  0.7818609E-02  0.8304257E-01
        2   -1    0    0  501    0  0.00000000000E+00  0.00000000000E+00  0.17478816624E+04  0.17478816624E+04  0.25500000920E-02 0.  1.
       -2   -1    0    0    0  501  0.00000000000E+00  0.00000000000E+00 -0.11188103127E+04  0.11188103127E+04  0.25500000920E-02 0. -1.
    10030    2    1    2    0    0  0.00000000000E+00  0.00000000000E+00  0.62907134968E+03  0.28666919752E+04  0.27968182132E+04 0.  0.
        5    1    3    3  502    0 -0.71252172647E+03 -0.11978136639E+04  0.43176596570E+03  0.14590711851E+04  0.46999998093E+01 0. -1.
       -5    1    3    3    0  502  0.71252172647E+03  0.11978136639E+04  0.19730538398E+03  0.14076207901E+04  0.46999998093E+01 0.  1.
</event>
<event>
 5   0  0.3226364E-06  0.2776207E+04  0.7818609E-02  0.8310693E-01
        2   -1    0    0  501    0  0.00000000000E+00  0.00000000000E+00  0.14104092184E+04  0.14104092184E+04  0.25500000920E-02 0.  1.
       -2   -1    0    0    0  501  0.00000000000E+00  0.00000000000E+00 -0.13661508860E+04  0.13661508860E+04  0.25500000920E-02 0. -1.
    10030    2    1    2    0    0  0.00000000000E+00  0.00000000000E+00  0.44258332431E+02  0.27765601043E+04  0.27762073433E+04 0.  0.
        5    1    3    3  502    0  0.71413710935E+03 -0.67876427339E+03  0.10000555200E+04  0.14038681857E+04  0.46999998093E+01 0.  1.
       -5    1    3    3    0  502 -0.71413710935E+03  0.67876427339E+03 -0.95579718754E+03  0.13726919186E+04  0.46999998093E+01 0. -1.
</event>
<event>
 5   0  0.3167616E-06  0.2772476E+04  0.7818609E-02  0.8311865E-01
       -2   -1    0    0    0  501  0.00000000000E+00  0.00000000000E+00  0.22260071655E+04  0.22260071655E+04  0.25500000920E-02 0.  1.
        2   -1    0    0  501    0  0.00000000000E+00  0.00000000000E+00 -0.86327447848E+03  0.86327447848E+03  0.25500000920E-02 0. -1.
    10030    2    1    2    0    0  0.00000000000E+00  0.00000000000E+00  0.13627326870E+04  0.30892816440E+04  0.27724755544E+04 0.  0.
        3    1    3    3  502    0  0.79214908580E+03 -0.36024737542E+03  0.18837319747E+04  0.20750239778E+04  0.10100000352E+00 0.  1.
       -3    1    3    3    0  502 -0.79214908580E+03  0.36024737542E+03 -0.52099928764E+03  0.10142576663E+04  0.10100000352E+00 0. -1.
</event>
<event>
 5   0  0.3226364E-06  0.2743878E+04  0.7818609E-02  0.8320907E-01
        2   -1    0    0  501    0  0.00000000000E+00  0.00000000000E+00  0.22695479713E+04  0.22695479713E+04  0.25500000920E-02 0. -1.
       -2   -1    0    0    0  501  0.00000000000E+00  0.00000000000E+00 -0.82933522217E+03  0.82933522217E+03  0.25500000920E-02 0.  1.
    10030    2    1    2    0    0  0.00000000000E+00  0.00000000000E+00  0.14402127491E+04  0.30988831934E+04  0.27438776000E+04 0.  0.
        5    1    3    3  502    0 -0.78374793100E+03  0.23275001191E+03  0.19643544826E+04  0.21277086292E+04  0.46999998093E+01 0. -1.
       -5    1    3    3    0  502  0.78374793100E+03 -0.23275001191E+03 -0.52414173352E+03  0.97117456423E+03  0.46999998093E+01 0.  1.
</event>
<event>
 5   0  0.1246044E-06  0.2803045E+04  0.7818609E-02  0.8302324E-01
       -1   -1    0    0    0  501  0.00000000000E+00  0.00000000000E+00  0.11571680910E+04  0.11571680910E+04  0.50400001928E-02 0. -1.
        1   -1    0    0  501    0  0.00000000000E+00  0.00000000000E+00 -0.16974765018E+04  0.16974765018E+04  0.50400001928E-02 0.  1.
    10030    2    1    2    0    0  0.00000000000E+00  0.00000000000E+00 -0.54030841083E+03  0.28546445928E+04  0.28030452320E+04 0.  0.
        2    1    3    3  502    0 -0.12903735835E+03 -0.90204949807E+03 -0.13546140467E+04  0.16325817445E+04  0.25500000920E-02 0.  1.
       -2    1    3    3    0  502  0.12903735835E+03  0.90204949807E+03  0.81430563586E+03  0.12220628484E+04  0.25500000920E-02 0. -1.
</event>
<event>
 5   0  0.3167616E-06  0.2817725E+04  0.7818609E-02  0.8297787E-01
       -2   -1    0    0    0  501  0.00000000000E+00  0.00000000000E+00  0.69488622688E+03  0.69488622688E+03  0.25500000920E-02 0. -1.
        2   -1    0    0  501    0  0.00000000000E+00  0.00000000000E+00 -0.28564286339E+04  0.28564286339E+04  0.25500000920E-02 0.  1.
    10030    2    1    2    0    0  0.00000000000E+00  0.00000000000E+00 -0.21615424070E+04  0.35513148608E+04  0.28177245541E+04 0.  0.
        3    1    3    3  502    0  0.55687153050E+03 -0.83288598803E+02 -0.27084516211E+04  0.27663609826E+04  0.10100000352E+00 0.  1.
       -3    1    3    3    0  502 -0.55687153050E+03  0.83288598803E+02  0.54690921408E+03  0.78495387815E+03  0.10100000352E+00 0. -1.
</event>
<event>
 5   0  0.3212679E-06  0.2789342E+04  0.7818609E-02  0.8306585E-01
        2   -1    0    0  501    0  0.00000000000E+00  0.00000000000E+00  0.27050499431E+04  0.27050499431E+04  0.25500000920E-02 0. -1.
       -2   -1    0    0    0  501  0.00000000000E+00  0.00000000000E+00 -0.71906533681E+03  0.71906533681E+03  0.25500000920E-02 0.  1.
    10030    2    1    2    0    0  0.00000000000E+00  0.00000000000E+00  0.19859846063E+04  0.34241152799E+04  0.27893423228E+04 0.  0.
        4    1    3    3  502    0 -0.90389075303E+03 -0.73059409032E+03  0.19393529385E+04  0.22609461849E+04  0.12699999809E+01 0. -1.
       -4    1    3    3    0  502  0.90389075303E+03  0.73059409032E+03  0.46631667816E+02  0.11631690950E+04  0.12699999809E+01 0.  1.
</event>
<event>
 5   0  0.3167616E-06  0.2802281E+04  0.7818609E-02  0.8302561E-01
        2   -1    0    0  501    0  0.00000000000E+00  0.00000000000E+00  0.98873188095E+03  0.98873188095E+03  0.25500000920E-02 0. -1.
       -2   -1    0    0    0  501  0.00000000000E+00  0.00000000000E+00 -0.19855685367E+04  0.19855685367E+04  0.25500000920E-02 0.  1.
    10030    2    1    2    0    0  0.00000000000E+00  0.00000000000E+00 -0.99683665579E+03  0.29743004177E+04  0.28022811523E+04 0.  0.
        3    1    3    3  502    0  0.39854682967E+03 -0.86944460765E+03 -0.15851968962E+04  0.18513839988E+04  0.10100000352E+00 0.  1.
       -3    1    3    3    0  502 -0.39854682967E+03  0.86944460765E+03  0.58836024036E+03  0.11229164189E+04  0.10100000352E+00 0. -1.
</event>
<event>
 5   0  0.1246044E-06  0.2804857E+04  0.7818609E-02  0.8301762E-01
        1   -1    0    0  501    0  0.00000000000E+00  0.00000000000E+00  0.15199753236E+04  0.15199753236E+04  0.50400001928E-02 0. -1.
       -1   -1    0    0    0  501  0.00000000000E+00  0.00000000000E+00 -0.12939718908E+04  0.12939718908E+04  0.50400001928E-02 0.  1.
    10030    2    1    2    0    0  0.00000000000E+00  0.00000000000E+00  0.22600343283E+03  0.28139472144E+04  0.28048567474E+04 0.  0.
        2    1    3    3  502    0 -0.59246145314E+03  0.10539225825E+04 -0.59996456635E+03  0.13497114003E+04  0.25500000920E-02 0.  1.
       -2    1    3    3    0  502  0.59246145314E+03 -0.10539225825E+04  0.82596799917E+03  0.14642358140E+04  0.25500000920E-02 0. -1.
</event>
<event>
 5   0  0.3345919E-06  0.2816598E+04  0.7818609E-02  0.8298134E-01
        2   -1    0    0  501    0  0.00000000000E+00  0.00000000000E+00  0.29113585687E+04  0.29113585687E+04  0.25500000920E-02 0.  1.
       -2   -1    0    0    0  501  0.00000000000E+00  0.00000000000E+00 -0.68123049504E+03  0.68123049505E+03  0.25500000920E-02 0. -1.
    10030    2    1    2    0    0  0.00000000000E+00  0.00000000000E+00  0.22301280737E+04  0.35925890638E+04  0.28165981176E+04 0.  0.
        2    1    3    3  502    0  0.20066961537E+03 -0.59180380837E+03 -0.49470706634E+03  0.79701638856E+03  0.25500000920E-02 0. -1.
       -2    1    3    3    0  502 -0.20066961537E+03  0.59180380837E+03  0.27248351400E+04  0.27955726752E+04  0.25500000920E-02 0.  1.
</event>
<event>
 5   0  0.1220265E-06  0.2817295E+04  0.7818609E-02  0.8297919E-01
        1   -1    0    0  501    0  0.00000000000E+00  0.00000000000E+00  0.19398532634E+04  0.19398532634E+04  0.50400001928E-02 0.  1.
       -1   -1    0    0    0  501  0.00000000000E+00  0.00000000000E+00 -0.10229063694E+04  0.10229063694E+04  0.50400001928E-02 0. -1.
    10030    2    1    2    0    0  0.00000000000E+00  0.00000000000E+00  0.91694689395E+03  0.29627596328E+04  0.28172953404E+04 0.  0.
        4    1    3    3  502    0  0.10313054062E+04  0.57380061452E+02  0.14657395028E+04  0.17931194091E+04  0.12699999809E+01 0.  1.
       -4    1    3    3    0  502 -0.10313054062E+04 -0.57380061452E+02 -0.54879260887E+03  0.11696402237E+04  0.12699999809E+01 0. -1.
</event>
<event>
 5   0  0.1220265E-06  0.2793534E+04  0.7818609E-02  0.8305278E-01
        1   -1    0    0  501    0  0.00000000000E+00  0.00000000000E+00  0.10250695429E+04  0.10250695429E+04  0.50400001928E-02 0.  1.
       -1   -1    0    0    0  501  0.00000000000E+00  0.00000000000E+00 -0.19032450316E+04  0.19032450316E+04  0.50400001928E-02 0. -1.
    10030    2    1    2    0    0  0.00000000000E+00  0.00000000000E+00 -0.87817548879E+03  0.29283145745E+04  0.27935343310E+04 0.  0.
        4    1    3    3  502    0  0.10860528300E+04 -0.32414224851E+02  0.48098163299E+03  0.11882366665E+04  0.12699999809E+01 0.  1.
       -4    1    3    3    0  502 -0.10860528300E+04  0.32414224851E+02 -0.13591571218E+04  0.17400779080E+04  0.12699999809E+01 0. -1.
</event>
<event>
 5   0  0.3212679E-06  0.2797245E+04  0.7818609E-02  0.8304124E-01
        2   -1    0    0  501    0  0.00000000000E+00  0.00000000000E+00  0.15369062980E+04  0.15369062980E+04  0.25500000920E-02 0.  1.
       -2   -1    0    0    0  501  0.00000000000E+00  0.00000000000E+00 -0.12727808170E+04  0.12727808170E+04  0.25500000920E-02 0. -1.
    10030    2    1    2    0    0  0.00000000000E+00  0.00000000000E+00  0.26412548102E+03  0.28096871150E+04  0.27972449686E+04 0.  0.
        4    1    3    3  502    0 -0.67575092477E+03 -0.22839463308E+03 -0.10763428168E+04  0.12912470302E+04  0.12699999809E+01 0. -1.
       -4    1    3    3    0  502  0.67575092477E+03  0.22839463308E+03  0.13404682978E+04  0.15184400848E+04  0.12699999809E+01 0.  1.
</event>
<event>
 5   0  0.1243055E-06  0.2796672E+04  0.7818609E-02  0.8304302E-01
       -1   -1    0    0    0  501  0.00000000000E+00  0.00000000000E+00  0.17489763685E+04  0.17489763685E+04  0.50400001928E-02 0. -1.
        1   -1    0    0  501    0  0.00000000000E+00  0.00000000000E+00 -0.11179929561E+04  0.11179929561E+04  0.50400001928E-02 0.  1.
    10030    2    1    2    0    0  0.00000000000E+00  0.00000000000E+00  0.63098341236E+03  0.28669693247E+04  0.27966717794E+04 0.  0.
        5    1    3    3  502    0  0.32684827403E+03  0.94217596588E+02 -0.10749249088E+04  0.11274716845E+04  0.46999998093E+01 0.  1.
       -5    1    3    3    0  502 -0.32684827403E+03 -0.94217596588E+02  0.17059083212E+04  0.17394976401E+04  0.46999998093E+01 0. -1.
</event>
<event>
 5   0  0.1246044E-06  0.2825928E+04  0.7818609E-02  0.8295264E-01
       -1   -1    0    0    0  501  0.00000000000E+00  0.00000000000E+00  0.14256110741E+04  0.14256110741E+04  0.50400001928E-02 0. -1.
        1   -1    0    0  501    0  0.00000000000E+00  0.00000000000E+00 -0.14004287780E+04  0.14004287780E+04  0.50400001928E-02 0.  1.
    10030    2    1    2    0    0  0.00000000000E+00  0.00000000000E+00  0.25182296139E+02  0.28260398522E+04  0.28259276526E+04 0.  0.
        2    1    3    3  502    0  0.93105392910E+03 -0.91091469773E+03  0.56018915661E+03  0.14178994663E+04  0.25500000920E-02 0.  1.
       -2    1    3    3    0  502 -0.93105392910E+03  0.91091469773E+03 -0.53500686048E+03  0.14081403858E+04  0.25500000920E-02 0. -1.
</event>
<event>
 5   0  0.3167616E-06  0.2812812E+04  0.7818609E-02  0.8299302E-01
       -2   -1    0    0    0  501  0.00000000000E+00  0.00000000000E+00  0.13152177871E+04  0.13152177871E+04  0.25500000920E-02 0.  1.
        2   -1    0    0  501    0  0.00000000000E+00  0.00000000000E+00 -0.15039165193E+04  0.15039165193E+04  0.25500000920E-02 0. -1.
    10030    2    1    2    0    0  0.00000000000E+00  0.00000000000E+00 -0.18869873212E+03  0.28191343064E+04  0.28128119429E+04 0.  0.
        3    1    3    3  502    0 -0.49538519158E+03  0.12466591453E+04 -0.51768749347E+03  0.14379032874E+04  0.10100000352E+00 0. -1.
       -3    1    3    3    0  502  0.49538519158E+03 -0.12466591453E+04  0.32898876135E+03  0.13812310190E+04  0.10100000352E+00 0.  1.
</event>
<event>
 5   0  0.3167616E-06  0.2797427E+04  0.7818609E-02  0.8304068E-01
       -2   -1    0    0    0  501  0.00000000000E+00  0.00000000000E+00  0.11715394478E+04  0.11715394478E+04  0.25500000920E-02 0. -1.
        2   -1    0    0  501    0  0.00000000000E+00  0.00000000000E+00 -0.16699385984E+04  0.16699385984E+04  0.25500000920E-02 0.  1.
    10030    2    1    2    0    0  0.00000000000E+00  0.00000000000E+00 -0.49839915056E+03  0.28414780462E+04  0.27974266342E+04 0.  0.
        3    1    3    3  502    0 -0.97816960100E+03  0.84050497019E+02  0.76274084604E+03  0.12432432838E+04  0.10100000352E+00 0. -1.
       -3    1    3    3    0  502  0.97816960100E+03 -0.84050497019E+02 -0.12611399966E+04  0.15982347623E+04  0.10100000352E+00 0.  1.
</event>
<event>
 5   0  0.3212679E-06  0.2798639E+04  0.7818609E-02  0.8303691E-01
       -2   -1    0    0    0  501  0.00000000000E+00  0.00000000000E+00  0.15422764768E+04  0.15422764768E+04  0.25500000920E-02 0. -1.
        2   -1    0    0  501    0  0.00000000000E+00  0.00000000000E+00 -0.12696136357E+04  0.12696136357E+04  0.25500000920E-02 0.  1.
    10030    2    1    2    0    0  0.00000000000E+00  0.00000000000E+00  0.27266284109E+03  0.28118901125E+04  0.27986391300E+04 0.  0.
        4    1    3    3  502    0 -0.97929915838E+02  0.11213028778E+04  0.97164210329E+03  0.14869433083E+04  0.12699999809E+01 0. -1.
       -4    1    3    3    0  502  0.97929915838E+02 -0.11213028778E+04 -0.69897926220E+03  0.13249468043E+04  0.12699999809E+01 0.  1.
</event>
<event>
 5   0  0.1235252E-06  0.2769505E+04  0.7818609E-02  0.8312799E-01
       -1   -1    0    0    0  501  0.00000000000E+00  0.00000000000E+00  0.14785442731E+04  0.14785442731E+04  0.50400001928E-02 0.  1.
        1   -1    0    0  501    0  0.00000000000E+00  0.00000000000E+00 -0.12969099947E+04  0.12969099947E+04  0.50400001928E-02 0. -1.
    10030    2    1    2    0    0  0.00000000000E+00  0.00000000000E+00  0.18163427842E+03  0.27754542678E+04  0.27695045372E+04 0.  0.
        1    1    3    3  502    0 -0.93613571701E+03 -0.55023753182E+03 -0.77034693380E+03  0.13313699037E+04  0.50400001928E-02 0. -1.
       -1    1    3    3    0  502  0.93613571701E+03  0.55023753182E+03  0.95198121221E+03  0.14440843641E+04  0.50400001928E-02 0.  1.
</event>
<event>
 5   0  0.3212679E-06  0.2792363E+04  0.7818609E-02  0.8305643E-01
        2   -1    0    0  501    0  0.00000000000E+00  0.00000000000E+00  0.14474428182E+04  0.14474428182E+04  0.25500000920E-02 0.  1.
       -2   -1    0    0    0  501  0.00000000000E+00  0.00000000000E+00 -0.13467360425E+04  0.13467360425E+04  0.25500000920E-02 0. -1.
    10030    2    1    2    0    0  0.00000000000E+00  0.00000000000E+00  0.10070677575E+03  0.27941788607E+04  0.27923634525E+04 0.  0.
        4    1    3    3  502    0 -0.10354852167E+04  0.29903376642E+02 -0.88630963316E+03  0.13633305632E+04  0.12699999809E+01 0. -1.
       -4    1    3    3    0  502  0.10354852167E+04 -0.29903376642E+02  0.98701640890E+03  0.14308482974E+04  0.12699999809E+01 0.  1.
</event>
<event>
 5   0  0.1263513E-06  0.2787953E+04  0.7818609E-02  0.8307018E-01
        1   -1    0    0  501    0  0.00000000000E+00  0.00000000000E+00  0.27272900197E+04  0.27272900197E+04  0.50400001928E-02 0.  1.
       -1   -1    0    0    0  501  0.00000000000E+00  0.00000000000E+00 -0.71249112643E+03  0.71249112645E+03  0.50400001928E-02 0. -1.
    10030    2    1    2    0    0  0.00000000000E+00  0.00000000000E+00  0.20147988933E+04  0.34397811462E+04  0.27879526096E+04 0.  0.
        3    1    3    3  502    0  0.15291907566E+03 -0.35272974214E+02 -0.70155711385E+03  0.71889555612E+03  0.10100000352E+00 0. -1.
       -3    1    3    3    0  502 -0.15291907566E+03  0.35272974214E+02  0.27163560072E+04  0.27208855901E+04  0.10100000352E+00 0.  1.
</event>
<event>
 5   0  0.3167616E-06  0.2801397E+04  0.7818609E-02  0.8302835E-01
        2   -1    0    0  501    0  0.00000000000E+00  0.00000000000E+00  0.15344028164E+04  0.15344028164E+04  0.25500000920E-02 0.  1.
       -2   -1    0    0    0  501  0.00000000000E+00  0.00000000000E+00 -0.12786445095E+04  0.12786445095E+04  0.25500000920E-02 0. -1.
    10030    2    1    2    0    0  0.00000000000E+00  0.00000000000E+00  0.25575830697E+03  0.28130473259E+04  0.28013966064E+04 0.  0.
        3    1    3    3  502    0 -0.48275993298E+03 -0.87744560576E+03 -0.85547278350E+03  0.13171186877E+04  0.10100000352E+00 0. -1.
       -3    1    3    3    0  502  0.48275993298E+03  0.87744560576E+03  0.11112310905E+04  0.14959286382E+04  0.10100000352E+00 0.  1.
</event>
<event>
 5   0  0.3167616E-06  0.2800984E+04  0.7818609E-02  0.8302963E-01
        2   -1    0    0  501    0  0.00000000000E+00  0.00000000000E+00  0.31419688872E+04  0.31419688872E+04  0.25500000920E-02 0. -1.
       -2   -1    0    0    0  501  0.00000000000E+00  0.00000000000E+00 -0.62425106103E+03  0.62425106104E+03  0.25500000920E-02 0.  1.
    10030    2    1    2    0    0  0.00000000000E+00  0.00000000000E+00  0.25177178262E+04  0.37662199482E+04  0.28009836926E+04 0.  0.
        3    1    3    3  502    0  0.12312830066E+04  0.16888607702E+03  0.21269342515E+04  0.24634182896E+04  0.10100000352E+00 0. -1.
       -3    1    3    3    0  502 -0.12312830066E+04 -0.16888607702E+03  0.39078357469E+03  0.13028016586E+04  0.10100000352E+00 0.  1.
</event>
<event>
 5   0  0.1235252E-06  0.2810927E+04  0.7818609E-02  0.8299884E-01
       -1   -1    0    0    0  501  0.00000000000E+00  0.00000000000E+00  0.86189028185E+03  0.86189028187E+03  0.50400001928E-02 0.  1.
        1   -1    0    0  501    0  0.00000000000E+00  0.00000000000E+00 -0.22918554020E+04  0.22918554020E+04  0.50400001928E-02 0. -1.
    10030    2    1    2    0    0  0.00000000000E+00  0.00000000000E+00 -0.14299651202E+04  0.31537456839E+04  0.28109271769E+04 0.  0.
        1    1    3    3  502    0 -0.39247269266E+03 -0.12404655788E+04 -0.13113524197E+04  0.18472776822E+04  0.50400001928E-02 0. -1.
       -1    1    3    3    0  502  0.39247269266E+03  0.12404655788E+04 -0.11861270052E+03  0.13064680017E+04  0.50400001928E-02 0.  1.
</event>
<event>
 5   0  0.1235252E-06  0.2802655E+04  0.7818609E-02  0.8302445E-01
       -1   -1    0    0    0  501  0.00000000000E+00  0.00000000000E+00  0.11155034034E+04  0.11155034034E+04  0.50400001928E-02 0.  1.
        1   -1    0    0  501    0  0.00000000000E+00  0.00000000000E+00 -0.17603878953E+04  0.17603878953E+04  0.50400001928E-02 0. -1.
    10030    2    1    2    0    0  0.00000000000E+00  0.00000000000E+00 -0.64488449196E+03  0.28758912987E+04  0.28026549474E+04 0.  0.
        1    1    3    3  502    0 -0.42828226842E+03 -0.53955602611E+03  0.92976238766E+03  0.11571536217E+04  0.50400001928E-02 0.  1.
       -1    1    3    3    0  502  0.42828226842E+03  0.53955602611E+03 -0.15746468796E+04  0.17187376770E+04  0.50400001928E-02 0. -1.
</event>
<event>
 5   0  0.3162695E-06  0.2778234E+04  0.7818609E-02  0.8310058E-01
       -2   -1    0    0    0  501  0.00000000000E+00  0.00000000000E+00  0.14549378867E+04  0.14549378867E+04  0.25500000920E-02 0. -1.
        2   -1    0    0  501    0  0.00000000000E+00  0.00000000000E+00 -0.13262737717E+04  0.13262737717E+04  0.25500000920E-02 0.  1.
    10030    2    1    2    0    0  0.00000000000E+00  0.00000000000E+00  0.12866411494E+03  0.27812116584E+04  0.27782339416E+04 0.  0.
        1    1    3    3  502    0 -0.72357466068E+03  0.10156509176E+04 -0.54831969990E+03  0.13622633994E+04  0.50400001928E-02 0.  1.
       -1    1    3    3    0  502  0.72357466068E+03 -0.10156509176E+04  0.67698381485E+03  0.14189482590E+04  0.50400001928E-02 0. -1.
</event>
<event>
 5   0  0.1220265E-06  0.2802731E+04  0.7818609E-02  0.8302421E-01
       -1   -1    0    0    0  501  0.00000000000E+00  0.00000000000E+00  0.10731891076E+04  0.10731891076E+04  0.50400001928E-02 0.  1.
        1   -1    0    0  501    0  0.00000000000E+00  0.00000000000E+00 -0.18298971244E+04  0.18298971244E+04  0.50400001928E-02 0. -1.
    10030    2    1    2    0    0  0.00000000000E+00  0.00000000000E+00 -0.75670801688E+03  0.29030862320E+04  0.28027312835E+04 0.  0.
        4    1    3    3  502    0  0.60740898618E+03 -0.11474333096E+04  0.16805230090E+03  0.13091188124E+04  0.12699999809E+01 0.  1.
       -4    1    3    3    0  502 -0.60740898618E+03  0.11474333096E+04 -0.92476031778E+03  0.15939674196E+04  0.12699999809E+01 0. -1.
</event>
<event>
 5   0  0.3226364E-06  0.2799175E+04  0.7818609E-02  0.8303525E-01
       -2   -1    0    0    0  501  0.00000000000E+00  0.00000000000E+00  0.14218757149E+04  0.14218757149E+04  0.25500000920E-02 0. -1.
        2   -1    0    0  501    0  0.00000000000E+00  0.00000000000E+00 -0.13776482737E+04  0.13776482738E+04  0.25500000920E-02 0.  1.
    10030    2    1    2    0    0  0.00000000000E+00  0.00000000000E+00  0.44227441112E+02  0.27995239886E+04  0.27991746098E+04 0.  0.
        5    1    3    3  502    0 -0.76012622094E+03  0.87921609000E+03 -0.75773339026E+03  0.13874418133E+04  0.46999998093E+01 0.  1.
       -5    1    3    3    0  502  0.76012622094E+03 -0.87921609000E+03  0.80196083137E+03  0.14120821753E+04  0.46999998093E+01 0. -1.
</event>
<event>
 5   0  0.1246044E-06  0.2780099E+04  0.7818609E-02  0.8309474E-01
       -1   -1    0    0    0  501  0.00000000000E+00  0.00000000000E+00  0.17512986240E+04  0.17512986240E+04  0.50400001928E-02 0.  1.
        1   -1    0    0  501    0  0.00000000000E+00  0.00000000000E+00 -0.11033171292E+04  0.11033171292E+04  0.50400001928E-02 0. -1.
    10030    2    1    2    0    0  0.00000000000E+00  0.00000000000E+00  0.64798149481E+03  0.28546157532E+04  0.27800991135E+04 0.  0.
        2    1    3    3  502    0 -0.51202454773E+03  0.17268821957E+03  0.16390401230E+04  0.17258165845E+04  0.25500000920E-02 0.  1.
       -2    1    3    3    0  502  0.51202454773E+03 -0.17268821957E+03 -0.99105862818E+03  0.11287991687E+04  0.25500000920E-02 0. -1.
</event>
<event>
 5   0  0.1243055E-06  0.2773120E+04  0.7818609E-02  0.8311663E-01
        1   -1    0    0  501    0  0.00000000000E+00  0.00000000000E+00  0.23399638518E+04  0.23399638518E+04  0.50400001928E-02 0.  1.
       -1   -1    0    0    0  501  0.00000000000E+00  0.00000000000E+00 -0.82161448902E+03  0.82161448904E+03  0.50400001928E-02 0. -1.
    10030    2    1    2    0    0  0.00000000000E+00  0.00000000000E+00  0.15183493628E+04  0.31615783409E+04  0.27731196905E+04 0.  0.
        5    1    3    3  502    0 -0.87750862042E+03 -0.84804856669E+03  0.15096542626E+04  0.19412073132E+04  0.46999998093E+01 0.  1.
       -5    1    3    3    0  502  0.87750862042E+03  0.84804856669E+03  0.86951002476E+01  0.12203710277E+04  0.46999998093E+01 0. -1.
</event>
<event>
 5   0  0.1263513E-06  0.2838511E+04  0.7818609E-02  0.8291411E-01
       -1   -1    0    0    0  501  0.00000000000E+00  0.00000000000E+00  0.17436642293E+04  0.17436642293E+04  0.50400001928E-02 0.  1.
        1   -1    0    0  501    0  0.00000000000E+00  0.00000000000E+00 -0.11552027623E+04  0.11552027623E+04  0.50400001928E-02 0. -1.
    10030    2    1    2    0    0  0.00000000000E+00  0.00000000000E+00  0.58846146704E+03  0.28988669916E+04  0.28385106899E+04 0.  0.
        3    1    3    3  502    0  0.52874149841E+03  0.10346330576E+04 -0.53811619753E+03  0.12804695186E+04  0.10100000352E+00 0. -1.
       -3    1    3    3    0  502 -0.52874149841E+03 -0.10346330576E+04  0.11265776646E+04  0.16183974730E+04  0.10100000352E+00 0.  1.
</event>
<event>
 5   0  0.3226364E-06  0.2803570E+04  0.7818609E-02  0.8302161E-01
       -2   -1    0    0    0  501  0.00000000000E+00  0.00000000000E+00  0.99399652558E+03  0.99399652559E+03  0.25500000920E-02 0. -1.
        2   -1    0    0  501    0  0.00000000000E+00  0.00000000000E+00 -0.19768697938E+04  0.19768697938E+04  0.25500000920E-02 0.  1.
    10030    2    1    2    0    0  0.00000000000E+00  0.00000000000E+00 -0.98287326821E+03  0.29708663194E+04  0.28035703712E+04 0.  0.
        5    1    3    3  502    0  0.49879394890E+03 -0.93047280182E+03 -0.14686388506E+04  0.18087280619E+04  0.46999998093E+01 0.  1.
       -5    1    3    3    0  502 -0.49879394890E+03  0.93047280182E+03  0.48576558243E+03  0.11621382575E+04  0.46999998093E+01 0. -1.
</event>
<event>
 5   0  0.1246044E-06  0.2793852E+04  0.7818609E-02  0.8305179E-01
       -1   -1    0    0    0  501  0.00000000000E+00  0.00000000000E+00  0.10443133640E+04  0.10443133640E+04  0.50400001928E-02 0.  1.
        1   -1    0    0  501    0  0.00000000000E+00  0.00000000000E+00 -0.18685988439E+04  0.18685988439E+04  0.50400001928E-02 0. -1.
    10030    2    1    2    0    0  0.00000000000E+00  0.00000000000E+00 -0.82428547988E+03  0.29129122080E+04  0.27938523545E+04 0.  0.
        2    1    3    3  502    0 -0.10904859238E+04 -0.66444361117E+03  0.17834734944E+03  0.12893613301E+04  0.25500000920E-02 0.  1.
       -2    1    3    3    0  502  0.10904859238E+04  0.66444361117E+03 -0.10026328293E+04  0.16235508778E+04  0.25500000920E-02 0. -1.
</event>
<event>
 5   0  0.1263513E-06  0.2775722E+04  0.7818609E-02  0.8310846E-01
       -1   -1    0    0    0  501  0.00000000000E+00  0.00000000000E+00  0.86567664007E+03  0.86567664009E+03  0.50400001928E-02 0.  1.
        1   -1    0    0  501    0  0.00000000000E+00  0.00000000000E+00 -0.22250316687E+04  0.22250316687E+04  0.50400001928E-02 0. -1.
    10030    2    1    2    0    0  0.00000000000E+00  0.00000000000E+00 -0.13593550286E+04  0.30907083088E+04  0.27757218442E+04 0.  0.
        3    1    3    3  502    0 -0.81157780862E+03 -0.94952839170E+03 -0.13532129447E+04  0.18415884421E+04  0.10100000352E+00 0. -1.
       -3    1    3    3    0  502  0.81157780862E+03  0.94952839170E+03 -0.61420839527E+01  0.12491198667E+04  0.10100000352E+00 0.  1.
</event>
<event>
 5   0  0.3167616E-06  0.2800341E+04  0.7818609E-02  0.8303162E-01
       -2   -1    0    0    0  501  0.00000000000E+00  0.00000000000E+00  0.11302068806E+04  0.11302068806E+04  0.25500000920E-02 0. -1.
        2   -1    0    0  501    0  0.00000000000E+00  0.00000000000E+00 -0.17346183393E+04  0.17346183393E+04  0.25500000920E-02 0.  1.
    10030    2    1    2    0    0  0.00000000000E+00  0.00000000000E+00 -0.60441145869E+03  0.28648252199E+04  0.28003411095E+04 0.  0.
        3    1    3    3  502    0  0.99167209998E+03  0.52163690671E+03  0.55674669815E+03  0.12511936351E+04  0.10100000352E+00 0. -1.
       -3    1    3    3    0  502 -0.99167209998E+03 -0.52163690671E+03 -0.11611581568E+04  0.16136315849E+04  0.10100000352E+00 0.  1.
</event>
<event>
 5   0  0.3226364E-06  0.2811846E+04  0.7818609E-02  0.8299600E-01
       -2   -1    0    0    0  501  0.00000000000E+00  0.00000000000E+00  0.70488651378E+03  0.70488651378E+03  0.25500000920E-02 0.  1.
        2   -1    0    0  501    0  0.00000000000E+00  0.00000000000E+00 -0.28041664865E+04  0.28041664865E+04  0.25500000920E-02 0. -1.
    10030    2    1    2    0    0  0.00000000000E+00  0.00000000000E+00 -0.20992799727E+04  0.35090530003E+04  0.28118457559E+04 0.  0.
        5    1    3    3  502    0  0.17421076523E+03 -0.97964572297E+03 -0.22891675966E+04  0.24960700128E+04  0.46999998093E+01 0.  1.
       -5    1    3    3    0  502 -0.17421076523E+03  0.97964572297E+03  0.18988762390E+03  0.10129829875E+04  0.46999998093E+01 0. -1.
</event>
<event>
 5   0  0.3162695E-06  0.2745404E+04  0.7818609E-02  0.8320422E-01
        2   -1    0    0  501    0  0.00000000000E+00  0.00000000000E+00  0.15489480399E+04  0.15489480399E+04  0.25500000920E-02 0.  1.
       -2   -1    0    0    0  501  0.00000000000E+00  0.00000000000E+00 -0.12165097583E+04  0.12165097583E+04  0.25500000920E-02 0. -1.
    10030    2    1    2    0    0  0.00000000000E+00  0.00000000000E+00  0.33243828160E+03  0.27654577982E+04  0.27454037267E+04 0.  0.
        1    1    3    3  502    0  0.78636145043E+03 -0.11173424232E+04  0.32995788918E+02  0.13667139947E+04  0.50400001928E-02 0. -1.
       -1    1    3    3    0  502 -0.78636145043E+03  0.11173424232E+04  0.29944249269E+03  0.13987438035E+04  0.50400001928E-02 0.  1.
</event>
<event>
 5   0  0.1220265E-06  0.2700296E+04  0.7818609E-02  0.8334909E-01
        1   -1    0    0  501    0  0.00000000000E+00  0.00000000000E+00  0.77220422931E+03  0.77220422933E+03  0.50400001928E-02 0.  1.
       -1   -1    0    0    0  501  0.00000000000E+00  0.00000000000E+00 -0.23606440527E+04  0.23606440528E+04  0.50400001928E-02 0. -1.
    10030    2    1    2    0    0  0.00000000000E+00  0.00000000000E+00 -0.15884398234E+04  0.31328482821E+04  0.27002957775E+04 0.  0.
        4    1    3    3  502    0  0.12134972545E+04 -0.56932834145E+03 -0.98196729694E+03  0.16616172039E+04  0.12699999809E+01 0. -1.
       -4    1    3    3    0  502 -0.12134972545E+04  0.56932834145E+03 -0.60647252650E+03  0.14712310782E+04  0.12699999809E+01 0.  1.
</event>
<event>
 5   0  0.1243055E-06  0.2807715E+04  0.7818609E-02  0.8300877E-01
        1   -1    0    0  501    0  0.00000000000E+00  0.00000000000E+00  0.25125904366E+04  0.25125904366E+04  0.50400001928E-02 0. -1.
       -1   -1    0    0    0  501  0.00000000000E+00  0.00000000000E+00 -0.78437602912E+03  0.78437602914E+03  0.50400001928E-02 0.  1.
    10030    2    1    2    0    0  0.00000000000E+00  0.00000000000E+00  0.17282144074E+04  0.32969664657E+04  0.28077148783E+04 0.  0.
        5    1    3    3  502    0  0.94731701966E+03  0.49982051634E+03  0.19297461417E+04  0.22070732534E+04  0.46999998093E+01 0.  1.
       -5    1    3    3    0  502 -0.94731701966E+03 -0.49982051634E+03 -0.20153173431E+03  0.10898932123E+04  0.46999998093E+01 0. -1.
</event>
<event>
 5   0  0.1263513E-06  0.2801037E+04  0.7818609E-02  0.8302947E-01
        1   -1    0    0  501    0  0.00000000000E+00  0.00000000000E+00  0.25249853242E+04  0.25249853242E+04  0.50400001928E-02 0. -1.
       -1   -1    0    0    0  501  0.00000000000E+00  0.00000000000E+00 -0.77681696171E+03  0.77681696173E+03  0.50400001928E-02 0.  1.
    10030    2    1    2    0    0  0.00000000000E+00  0.00000000000E+00  0.17481683625E+04  0.33018022859E+04  0.28010365424E+04 0.  0.
        3    1    3    3  502    0  0.80067359405E+03 -0.62994591126E+03  0.20069030250E+04  0.22506820782E+04  0.10100000352E+00 0. -1.
       -3    1    3    3    0  502 -0.80067359405E+03  0.62994591126E+03 -0.25873466248E+03  0.10511202077E+04  0.10100000352E+00 0.  1.
</event>
<event>
 5   0  0.3345919E-06  0.2780200E+04  0.7818609E-02  0.8309442E-01
        2   -1    0    0  501    0  0.00000000000E+00  0.00000000000E+00  0.14991406026E+04  0.14991406026E+04  0.25500000920E-02 0.  1.
       -2   -1    0    0    0  501  0.00000000000E+00  0.00000000000E+00 -0.12889900834E+04  0.12889900834E+04  0.25500000920E-02 0. -1.
    10030    2    1    2    0    0  0.00000000000E+00  0.00000000000E+00  0.21015051922E+03  0.27881306861E+04  0.27801995399E+04 0.  0.
        2    1    3    3  502    0 -0.43834078290E+03  0.82128260953E+03 -0.93021153388E+03  0.13160323949E+04  0.25500000920E-02 0. -1.
       -2    1    3    3    0  502  0.43834078290E+03 -0.82128260953E+03  0.11403620531E+04  0.14720982912E+04  0.25500000920E-02 0.  1.
</event>
<event>
 5   0  0.1263513E-06  0.2800133E+04  0.7818609E-02  0.8303227E-01
       -1   -1    0    0    0  501  0.00000000000E+00  0.00000000000E+00  0.78783578020E+03  0.78783578022E+03  0.50400001928E-02 0. -1.
        1   -1    0    0  501    0  0.00000000000E+00  0.00000000000E+00 -0.24880652568E+04  0.24880652569E+04  0.50400001928E-02 0.  1.
    10030    2    1    2    0    0  0.00000000000E+00  0.00000000000E+00 -0.17002294766E+04  0.32759010371E+04  0.28001334489E+04 0.  0.
        3    1    3    3  502    0 -0.67067357266E+03 -0.79758863919E+03  0.24375705321E+03  0.10702187578E+04  0.10100000352E+00 0.  1.
       -3    1    3    3    0  502  0.67067357266E+03  0.79758863919E+03 -0.19439865299E+04  0.22056822792E+04  0.10100000352E+00 0. -1.
</event>
<event>
 5   0  0.1246044E-06  0.2804354E+04  0.7818609E-02  0.8301918E-01
        1   -1    0    0  501    0  0.00000000000E+00  0.00000000000E+00  0.25641386665E+04  0.25641386665E+04  0.50400001928E-02 0. -1.
       -1   -1    0    0    0  501  0.00000000000E+00  0.00000000000E+00 -0.76676807863E+03  0.76676807865E+03  0.50400001928E-02 0.  1.
    10030    2    1    2    0    0  0.00000000000E+00  0.00000000000E+00  0.17973705878E+04  0.33309067451E+04  0.28043535288E+04 0.  0.
        2    1    3    3  502    0 -0.51459037629E+03  0.34403763020E+03 -0.59569519610E+03  0.85907968956E+03  0.25500000920E-02 0.  1.
       -2    1    3    3    0  502  0.51459037629E+03 -0.34403763020E+03  0.23930657839E+04  0.24718270555E+04  0.25500000920E-02 0. -1.
</event>
<event>
 5   0  0.1220265E-06  0.2807751E+04  0.7818609E-02  0.8300866E-01
        1   -1    0    0  501    0  0.00000000000E+00  0.00000000000E+00  0.13187461155E+04  0.13187461155E+04  0.50400001928E-02 0.  1.
       -1   -1    0    0    0  501  0.00000000000E+00  0.00000000000E+00 -0.14945004989E+04  0.14945004989E+04  0.50400001928E-02 0. -1.
    10030    2    1    2    0    0  0.00000000000E+00  0.00000000000E+00 -0.17575438336E+03  0.28132466144E+04  0.28077512194E+04 0.  0.
        4    1    3    3  502    0 -0.89580235914E+03 -0.64121503242E+03  0.78402511449E+03  0.13521522020E+04  0.12699999809E+01 0.  1.
       -4    1    3    3    0  502  0.89580235914E+03  0.64121503242E+03 -0.95977949785E+03  0.14610944124E+04  0.12699999809E+01 0. -1.
</event>
<event>
 5   0  0.3167616E-06  0.2778683E+04  0.7818609E-02  0.8309917E-01
        2   -1    0    0  501    0  0.00000000000E+00  0.00000000000E+00  0.21513721260E+04  0.21513721260E+04  0.25500000920E-02 0.  1.
       -2   -1    0    0    0  501  0.00000000000E+00  0.00000000000E+00 -0.89722705049E+03  0.89722705049E+03  0.25500000920E-02 0. -1.
    10030    2    1    2    0    0  0.00000000000E+00  0.00000000000E+00  0.12541450755E+04  0.30485991765E+04  0.27786826139E+04 0.  0.
        3    1    3    3  502    0  0.45695668365E+03  0.12598717813E+04  0.22517991228E+03  0.13589673724E+04  0.10100000352E+00 0. -1.
       -3    1    3    3    0  502 -0.45695668365E+03 -0.12598717813E+04  0.10289651633E+04  0.16896318041E+04  0.10100000352E+00 0.  1.
</event>
<event>
 5   0  0.3167616E-06  0.2812496E+04  0.7818609E-02  0.8299399E-01
       -2   -1    0    0    0  501  0.00000000000E+00  0.00000000000E+00  0.13133922247E+04  0.13133922247E+04  0.25500000920E-02 0. -1.
        2   -1    0    0  501    0  0.00000000000E+00  0.00000000000E+00 -0.15056685346E+04  0.15056685346E+04  0.25500000920E-02 0.  1.
    10030    2    1    2    0    0  0.00000000000E+00  0.00000000000E+00 -0.19227630997E+03  0.28190607593E+04  0.28124959352E+04 0.  0.
        3    1    3    3  502    0  0.23634033240E+03  0.75255955754E+02  0.12912940552E+04  0.13148994481E+04  0.10100000352E+00 0. -1.
       -3    1    3    3    0  502 -0.23634033240E+03 -0.75255955754E+02 -0.14835703651E+04  0.15041613112E+04  0.10100000352E+00 0.  1.
</event>
<event>
 5   0  0.1246044E-06  0.2842418E+04  0.7818609E-02  0.8290219E-01
       -1   -1    0    0    0  501  0.00000000000E+00  0.00000000000E+00  0.96090416472E+03  0.96090416473E+03  0.50400001928E-02 0. -1.
        1   -1    0    0  501    0  0.00000000000E+00  0.00000000000E+00 -0.21020156132E+04  0.21020156132E+04  0.50400001928E-02 0.  1.
    10030    2    1    2    0    0  0.00000000000E+00  0.00000000000E+00 -0.11411114485E+04  0.30629197780E+04  0.28424183767E+04 0.  0.
        2    1    3    3  502    0 -0.10794967693E+03 -0.13302175648E+04 -0.44081450633E+02  0.13353183428E+04  0.25500000920E-02 0. -1.
       -2    1    3    3    0  502  0.10794967693E+03  0.13302175648E+04 -0.10970299979E+04  0.17276014351E+04  0.25500000920E-02 0.  1.
</event>
<event>
 5   0  0.1243055E-06  0.2802831E+04  0.7818609E-02  0.8302390E-01
        1   -1    0    0  501    0  0.00000000000E+00  0.00000000000E+00  0.12449535497E+04  0.12449535497E+04  0.50400001928E-02 0.  1.
       -1   -1    0    0    0  501  0.00000000000E+00  0.00000000000E+00 -0.15775408293E+04  0.15775408293E+04  0.50400001928E-02 0. -1.
    10030    2    1    2    0    0  0.00000000000E+00  0.00000000000E+00 -0.33258727958E+03  0.28224943791E+04  0.28028307514E+04 0.  0.
        5    1    3    3  502    0  0.54619536758E+03  0.32582106217E+02 -0.14655202122E+04  0.15643409333E+04  0.46999998093E+01 0. -1.
       -5    1    3    3    0  502 -0.54619536758E+03 -0.32582106217E+02  0.11329329326E+04  0.12581534458E+04  0.46999998093E+01 0.  1.
</event>
<event>
 5   0  0.3226364E-06  0.2775669E+04  0.7818609E-02  0.8310862E-01
        2   -1    0    0  501    0  0.00000000000E+00  0.00000000000E+00  0.24374642883E+04  0.24374642883E+04  0.25500000920E-02 0. -1.
       -2   -1    0    0    0  501  0.00000000000E+00  0.00000000000E+00 -0.79020039867E+03  0.79020039867E+03  0.25500000920E-02 0.  1.
    10030    2    1    2    0    0  0.00000000000E+00  0.00000000000E+00  0.16472638896E+04  0.32276646870E+04  0.27756694705E+04 0.  0.
        5    1    3    3  502    0  0.69166526673E+03  0.72379908742E+03  0.19412779810E+04  0.21842317298E+04  0.46999998093E+01 0. -1.
       -5    1    3    3    0  502 -0.69166526673E+03 -0.72379908742E+03 -0.29401409135E+03  0.10434329571E+04  0.46999998093E+01 0.  1.
</event>
<event>
 5   0  0.3162695E-06  0.2766798E+04  0.7818609E-02  0.8313651E-01
        2   -1    0    0  501    0  0.00000000000E+00  0.00000000000E+00  0.14233588988E+04  0.14233588988E+04  0.25500000920E-02 0. -1.
       -2   -1    0    0    0  501  0.00000000000E+00  0.00000000000E+00 -0.13445613574E+04  0.13445613574E+04  0.25500000920E-02 0.  1.
    10030    2    1    2    0    0  0.00000000000E+00  0.00000000000E+00  0.78797541374E+02  0.27679202562E+04  0.27667984191E+04 0.  0.
        1    1    3    3  502    0  0.68888014798E+03  0.11682579981E+04  0.31229274011E+03  0.13917289118E+04  0.50400001928E-02 0.  1.
       -1    1    3    3    0  502 -0.68888014798E+03 -0.11682579981E+04 -0.23349519874E+03  0.13761913444E+04  0.50400001928E-02 0. -1.
</event>
<event>
 5   0  0.1065675E-06  0.2796486E+04  0.7818609E-02  0.8304360E-01
       -3   -1    0    0    0  501  0.00000000000E+00  0.00000000000E+00  0.12595621090E+04  0.12595621130E+04  0.10100000352E+00 0. -1.
        3   -1    0    0  501    0  0.00000000000E+00  0.00000000000E+00 -0.15521931424E+04  0.15521931457E+04  0.10100000352E+00 0.  1.
    10030    2    1    2    0    0  0.00000000000E+00  0.00000000000E+00 -0.29263103342E+03  0.28117552587E+04  0.27964861368E+04 0.  0.
        3    1    3    3  502    0  0.53937707516E+03 -0.12845973352E+04 -0.26513744452E+03  0.14182439203E+04  0.10100000352E+00 0. -1.
       -3    1    3    3    0  502 -0.53937707516E+03  0.12845973352E+04 -0.27493588906E+02  0.13935113384E+04  0.10100000352E+00 0.  1.
</event>
<event>
 5   0  0.1220265E-06  0.2648627E+04  0.7818609E-02  0.8351869E-01
        1   -1    0    0  501    0  0.00000000000E+00  0.00000000000E+00  0.11131296287E+04  0.11131296287E+04  0.50400001928E-02 0. -1.
       -1   -1    0    0    0  501  0.00000000000E+00  0.00000000000E+00 -0.15755627708E+04  0.15755627708E+04  0.50400001928E-02 0.  1.
    10030    2    1    2    0    0  0.00000000000E+00  0.00000000000E+00 -0.46243314208E+03  0.26886923995E+04  0.26486265135E+04 0.  0.
        4    1    3    3  502    0 -0.81124474657E+02 -0.13530884249E+02 -0.15729671376E+04  0.15751163431E+04  0.12699999809E+01 0.  1.
       -4    1    3    3    0  502  0.81124474657E+02  0.13530884249E+02  0.11105339955E+04  0.11135760564E+04  0.12699999809E+01 0. -1.
</event>
<event>
 5   0  0.3212679E-06  0.2781883E+04  0.7818609E-02  0.8308915E-01
       -2   -1    0    0    0  501  0.00000000000E+00  0.00000000000E+00  0.15144870578E+04  0.15144870578E+04  0.25500000920E-02 0.  1.
        2   -1    0    0  501    0  0.00000000000E+00  0.00000000000E+00 -0.12774746552E+04  0.12774746552E+04  0.25500000920E-02 0. -1.
    10030    2    1    2    0    0  0.00000000000E+00  0.00000000000E+00  0.23701240262E+03  0.27919617129E+04  0.27818834137E+04 0.  0.
        4    1    3    3  502    0  0.64229817369E+03 -0.57140805609E+03 -0.97891904769E+03  0.13028193372E+04  0.12699999809E+01 0. -1.
       -4    1    3    3    0  502 -0.64229817369E+03  0.57140805609E+03  0.12159314503E+04  0.14891423757E+04  0.12699999809E+01 0.  1.
</event>
<event>
 5   0  0.3167616E-06  0.2789826E+04  0.7818609E-02  0.8306434E-01
        2   -1    0    0  501    0  0.00000000000E+00  0.00000000000E+00  0.21894275480E+04  0.21894275480E+04  0.25500000920E-02 0. -1.
       -2   -1    0    0    0  501  0.00000000000E+00  0.00000000000E+00 -0.88871729929E+03  0.88871729929E+03  0.25500000920E-02 0.  1.
    10030    2    1    2    0    0  0.00000000000E+00  0.00000000000E+00  0.13007102488E+04  0.30781448473E+04  0.27898258996E+04 0.  0.
        3    1    3    3  502    0 -0.28640617625E+03  0.12652593661E+03 -0.84944348654E+03  0.90531296105E+03  0.10100000352E+00 0.  1.
       -3    1    3    3    0  502  0.28640617625E+03 -0.12652593661E+03  0.21501537353E+04  0.21728318863E+04  0.10100000352E+00 0. -1.
</event>
<event>
 5   0  0.3226364E-06  0.2804231E+04  0.7818609E-02  0.8301956E-01
       -2   -1    0    0    0  501  0.00000000000E+00  0.00000000000E+00  0.23692841423E+04  0.23692841423E+04  0.25500000920E-02 0.  1.
        2   -1    0    0  501    0  0.00000000000E+00  0.00000000000E+00 -0.82975587230E+03  0.82975587230E+03  0.25500000920E-02 0. -1.
    10030    2    1    2    0    0  0.00000000000E+00  0.00000000000E+00  0.15395282700E+04  0.31990400146E+04  0.28042306825E+04 0.  0.
        5    1    3    3  502    0  0.47385263623E+03  0.83752825306E+03 -0.39357128101E+03  0.10396683792E+04  0.46999998093E+01 0. -1.
       -5    1    3    3    0  502 -0.47385263623E+03 -0.83752825306E+03  0.19330995510E+04  0.21593716354E+04  0.46999998093E+01 0.  1.
</event>
<event>
 5   0  0.3226364E-06  0.2806007E+04  0.7818609E-02  0.8301406E-01
        2   -1    0    0  501    0  0.00000000000E+00  0.00000000000E+00  0.13052161763E+04  0.13052161763E+04  0.25500000920E-02 0. -1.
       -2   -1    0    0    0  501  0.00000000000E+00  0.00000000000E+00 -0.15081171583E+04  0.15081171583E+04  0.25500000920E-02 0.  1.
    10030    2    1    2    0    0  0.00000000000E+00  0.00000000000E+00 -0.20290098206E+03  0.28133333346E+04  0.28060070640E+04 0.  0.
        5    1    3    3  502    0 -0.15316696447E+03  0.13336716428E+04  0.30735991869E+03  0.13771827691E+04  0.46999998093E+01 0.  1.
       -5    1    3    3    0  502  0.15316696447E+03 -0.13336716428E+04 -0.51026090075E+03  0.14361505655E+04  0.46999998093E+01 0. -1.
</event>
<event>
 5   0  0.3226364E-06  0.2718831E+04  0.7818609E-02  0.8328921E-01
       -2   -1    0    0    0  501  0.00000000000E+00  0.00000000000E+00  0.88340832296E+03  0.88340832296E+03  0.25500000920E-02 0. -1.
        2   -1    0    0  501    0  0.00000000000E+00  0.00000000000E+00 -0.20919100245E+04  0.20919100245E+04  0.25500000920E-02 0.  1.
    10030    2    1    2    0    0  0.00000000000E+00  0.00000000000E+00 -0.12085017016E+04  0.29753183475E+04  0.27188311655E+04 0.  0.
        5    1    3    3  502    0  0.65689799710E+03  0.16490025989E+03  0.68562032207E+03  0.96374498201E+03  0.46999998093E+01 0. -1.
       -5    1    3    3    0  502 -0.65689799710E+03 -0.16490025989E+03 -0.18941220236E+04  0.20115733655E+04  0.46999998093E+01 0.  1.
</event>
<event>
 5   0  0.1243055E-06  0.2802279E+04  0.7818609E-02  0.8302561E-01
        1   -1    0    0  501    0  0.00000000000E+00  0.00000000000E+00  0.20473328922E+04  0.20473328922E+04  0.50400001928E-02 0. -1.
       -1   -1    0    0    0  501  0.00000000000E+00  0.00000000000E+00 -0.95890182839E+03  0.95890182841E+03  0.50400001928E-02 0.  1.
    10030    2    1    2    0    0  0.00000000000E+00  0.00000000000E+00  0.10884310638E+04  0.30062347206E+04  0.28022785398E+04 0.  0.
        5    1    3    3  502    0 -0.36416895445E+03 -0.11111406443E+04 -0.28392554924E+03  0.12032823302E+04  0.46999998093E+01 0.  1.
       -5    1    3    3    0  502  0.36416895445E+03  0.11111406443E+04  0.13723566131E+04  0.18029523904E+04  0.46999998093E+01 0. -1.
</event>
<event>
 5   0  0.3162695E-06  0.2800051E+04  0.7818609E-02  0.8303252E-01
       -2   -1    0    0    0  501  0.00000000000E+00  0.00000000000E+00  0.11775510186E+04  0.11775510186E+04  0.25500000920E-02 0.  1.
        2   -1    0    0  501    0  0.00000000000E+00  0.00000000000E+00 -0.16645325291E+04  0.16645325291E+04  0.25500000920E-02 0. -1.
    10030    2    1    2    0    0  0.00000000000E+00  0.00000000000E+00 -0.48698151049E+03  0.28420835478E+04  0.28000514104E+04 0.  0.
        1    1    3    3  502    0 -0.89011623993E+03  0.96388145576E+03 -0.73939160889E+03  0.15060127266E+04  0.50400001928E-02 0.  1.
       -1    1    3    3    0  502  0.89011623993E+03 -0.96388145576E+03  0.25241009841E+03  0.13360708212E+04  0.50400001928E-02 0. -1.
</event>
<event>
 5   0  0.1246044E-06  0.2799054E+04  0.7818609E-02  0.8303562E-01
       -1   -1    0    0    0  501  0.00000000000E+00  0.00000000000E+00  0.90625192718E+03  0.90625192719E+03  0.50400001928E-02 0. -1.
        1   -1    0    0  501    0  0.00000000000E+00  0.00000000000E+00 -0.21612923214E+04  0.21612923214E+04  0.50400001928E-02 0.  1.
    10030    2    1    2    0    0  0.00000000000E+00  0.00000000000E+00 -0.12550403942E+04  0.30675442486E+04  0.27990536483E+04 0.  0.
        2    1    3    3  502    0  0.69757971564E+03  0.11024715945E+04 -0.72357850690E+02  0.13066356550E+04  0.25500000920E-02 0. -1.
       -2    1    3    3    0  502 -0.69757971564E+03 -0.11024715945E+04 -0.11826825435E+04  0.17609085936E+04  0.25500000920E-02 0.  1.
</event>
<event>
 5   0  0.1220265E-06  0.2799993E+04  0.7818609E-02  0.8303271E-01
        1   -1    0    0  501    0  0.00000000000E+00  0.00000000000E+00  0.15125735103E+04  0.15125735103E+04  0.50400001928E-02 0. -1.
       -1   -1    0    0    0  501  0.00000000000E+00  0.00000000000E+00 -0.12957981117E+04  0.12957981117E+04  0.50400001928E-02 0.  1.
    10030    2    1    2    0    0  0.00000000000E+00  0.00000000000E+00  0.21677539864E+03  0.28083716220E+04  0.27999927846E+04 0.  0.
        4    1    3    3  502    0 -0.92885317892E+02  0.12743446350E+03  0.15036367430E+04  0.15118836902E+04  0.12699999809E+01 0. -1.
       -4    1    3    3    0  502  0.92885317892E+02 -0.12743446350E+03 -0.12868613444E+04  0.12964879318E+04  0.12699999809E+01 0.  1.
</event>
<event>
 5   0  0.1263513E-06  0.2791173E+04  0.7818609E-02  0.8306014E-01
        1   -1    0    0  501    0  0.00000000000E+00  0.00000000000E+00  0.18585262896E+04  0.18585262896E+04  0.50400001928E-02 0. -1.
       -1   -1    0    0    0  501  0.00000000000E+00  0.00000000000E+00 -0.10479603552E+04  0.10479603552E+04  0.50400001928E-02 0.  1.
    10030    2    1    2    0    0  0.00000000000E+00  0.00000000000E+00  0.81056593444E+03  0.29064866448E+04  0.27911731373E+04 0.  0.
        3    1    3    3  502    0  0.13665711268E+03 -0.13883460553E+04  0.36519679427E+03  0.14420640224E+04  0.10100000352E+00 0. -1.
       -3    1    3    3    0  502 -0.13665711268E+03  0.13883460553E+04  0.44536914016E+03  0.14644226224E+04  0.10100000352E+00 0.  1.
</event>
<event>
 5   0  0.3162695E-06  0.2800605E+04  0.7818609E-02  0.8303080E-01
       -2   -1    0    0    0  501  0.00000000000E+00  0.00000000000E+00  0.10683095301E+04  0.10683095301E+04  0.25500000920E-02 0.  1.
        2   -1    0    0  501    0  0.00000000000E+00  0.00000000000E+00 -0.18354675075E+04  0.18354675075E+04  0.25500000920E-02 0. -1.
    10030    2    1    2    0    0  0.00000000000E+00  0.00000000000E+00 -0.76715797733E+03  0.29037770376E+04  0.28006052421E+04 0.  0.
        1    1    3    3  502    0  0.51302995301E+03  0.66669169775E+03 -0.15442692563E+04  0.17585349268E+04  0.50400001928E-02 0. -1.
       -1    1    3    3    0  502 -0.51302995301E+03 -0.66669169775E+03  0.77711127900E+03  0.11452421109E+04  0.50400001928E-02 0.  1.
</event>
<event>
 5   0  0.1220265E-06  0.2802661E+04  0.7818609E-02  0.8302443E-01
       -1   -1    0    0    0  501  0.00000000000E+00  0.00000000000E+00  0.15528449024E+04  0.15528449024E+04  0.50400001928E-02 0.  1.
        1   -1    0    0  501    0  0.00000000000E+00  0.00000000000E+00 -0.12645996553E+04  0.12645996553E+04  0.50400001928E-02 0. -1.
    10030    2    1    2    0    0  0.00000000000E+00  0.00000000000E+00  0.28824524713E+03  0.28174445577E+04  0.28026609701E+04 0.  0.
        4    1    3    3  502    0 -0.48142019947E+03  0.23257787134E+03  0.14462805601E+04  0.15419425884E+04  0.12699999809E+01 0.  1.
       -4    1    3    3    0  502  0.48142019947E+03 -0.23257787134E+03 -0.11580353129E+04  0.12755019693E+04  0.12699999809E+01 0. -1.
</event>
<event>
 5   0  0.1220265E-06  0.2801115E+04  0.7818609E-02  0.8302922E-01
       -1   -1    0    0    0  501  0.00000000000E+00  0.00000000000E+00  0.81735954572E+03  0.81735954573E+03  0.50400001928E-02 0. -1.
        1   -1    0    0  501    0  0.00000000000E+00  0.00000000000E+00 -0.23998753374E+04  0.23998753374E+04  0.50400001928E-02 0.  1.
    10030    2    1    2    0    0  0.00000000000E+00  0.00000000000E+00 -0.15825157917E+04  0.32172348832E+04  0.28011147892E+04 0.  0.
        4    1    3    3  502    0  0.38526958215E+03 -0.11000268194E+04  0.10068061178E+03  0.11698845468E+04  0.12699999809E+01 0. -1.
       -4    1    3    3    0  502 -0.38526958215E+03  0.11000268194E+04 -0.16831964035E+04  0.20473503364E+04  0.12699999809E+01 0.  1.
</event>
<event>
 5   0  0.1243055E-06  0.2801900E+04  0.7818609E-02  0.8302679E-01
       -1   -1    0    0    0  501  0.00000000000E+00  0.00000000000E+00  0.10334806699E+04  0.10334806699E+04  0.50400001928E-02 0.  1.
        1   -1    0    0  501    0  0.00000000000E+00  0.00000000000E+00 -0.18990783368E+04  0.18990783368E+04  0.50400001928E-02 0. -1.
    10030    2    1    2    0    0  0.00000000000E+00  0.00000000000E+00 -0.86559766692E+03  0.29325590067E+04  0.28018998923E+04 0.  0.
        5    1    3    3  502    0  0.73567365173E+02  0.11367073658E+04 -0.12863805127E+04  0.17182295266E+04  0.46999998093E+01 0. -1.
       -5    1    3    3    0  502 -0.73567365173E+02 -0.11367073658E+04  0.42078284581E+03  0.12143294800E+04  0.46999998093E+01 0.  1.
</event>
<event>
 5   0  0.3345919E-06  0.2882958E+04  0.7818609E-02  0.8277966E-01
        2   -1    0    0  501    0  0.00000000000E+00  0.00000000000E+00  0.15465111353E+04  0.15465111353E+04  0.25500000920E-02 0.  1.
       -2   -1    0    0    0  501  0.00000000000E+00  0.00000000000E+00 -0.13435800183E+04  0.13435800183E+04  0.25500000920E-02 0. -1.
    10030    2    1    2    0    0  0.00000000000E+00  0.00000000000E+00  0.20293111700E+03  0.28900911536E+04  0.28829578280E+04 0.  0.
        2    1    3    3  502    0 -0.89037543156E+03 -0.68228432088E+03 -0.80608166666E+03  0.13813210912E+04  0.25500000920E-02 0. -1.
       -2    1    3    3    0  502  0.89037543156E+03  0.68228432088E+03  0.10090127837E+04  0.15087700624E+04  0.25500000920E-02 0.  1.
</event>
<event>
 5   0  0.3212679E-06  0.2791241E+04  0.7818609E-02  0.8305993E-01
       -2   -1    0    0    0  501  0.00000000000E+00  0.00000000000E+00  0.17401726156E+04  0.17401726156E+04  0.25500000920E-02 0.  1.
        2   -1    0    0  501    0  0.00000000000E+00  0.00000000000E+00 -0.11192890770E+04  0.11192890770E+04  0.25500000920E-02 0. -1.
    10030    2    1    2    0    0  0.00000000000E+00  0.00000000000E+00  0.62088353863E+03  0.28594616927E+04  0.27912407283E+04 0.  0.
        4    1    3    3  502    0  0.21746018150E+03 -0.58907477511E+02  0.17214194607E+04  0.17361006866E+04  0.12699999809E+01 0.  1.
       -4    1    3    3    0  502 -0.21746018150E+03  0.58907477511E+02 -0.11005359220E+04  0.11233610061E+04  0.12699999809E+01 0. -1.
</event>
<event>
 5   0  0.3226364E-06  0.2794677E+04  0.7818609E-02  0.8304923E-01
       -2   -1    0    0    0  501  0.00000000000E+00  0.00000000000E+00  0.13276252880E+04  0.13276252880E+04  0.25500000920E-02 0. -1.
        2   -1    0    0  501    0  0.00000000000E+00  0.00000000000E+00 -0.14707120324E+04  0.14707120324E+04  0.25500000920E-02 0.  1.
    10030    2    1    2    0    0  0.00000000000E+00  0.00000000000E+00 -0.14308674443E+03  0.27983373204E+04  0.27946767151E+04 0.  0.
        5    1    3    3  502    0 -0.12386927441E+04  0.60947906709E+03  0.14485992930E+03  0.13881033595E+04  0.46999998093E+01 0.  1.
       -5    1    3    3    0  502  0.12386927441E+04 -0.60947906709E+03 -0.28794667373E+03  0.14102339609E+04  0.46999998093E+01 0. -1.
</event>
<event>
 5   0  0.3167616E-06  0.2818479E+04  0.7818609E-02  0.8297554E-01
        2   -1    0    0  501    0  0.00000000000E+00  0.00000000000E+00  0.17669380328E+04  0.17669380328E+04  0.25500000920E-02 0. -1.
       -2   -1    0    0    0  501  0.00000000000E+00  0.00000000000E+00 -0.11239533649E+04  0.11239533649E+04  0.25500000920E-02 0.  1.
    10030    2    1    2    0    0  0.00000000000E+00  0.00000000000E+00  0.64298466790E+03  0.28908913977E+04  0.28184789852E+04 0.  0.
        3    1    3    3  502    0  0.79687054670E+03 -0.65893678835E+02 -0.86875742383E+03  0.11807133932E+04  0.10100000352E+00 0.  1.
       -3    1    3    3    0  502 -0.79687054670E+03  0.65893678835E+02  0.15117420917E+04  0.17101780045E+04  0.10100000352E+00 0. -1.
</event>
<event>
 5   0  0.3226364E-06  0.2771822E+04  0.7818609E-02  0.8312070E-01
       -2   -1    0    0    0  501  0.00000000000E+00  0.00000000000E+00  0.16208185009E+04  0.16208185009E+04  0.25500000920E-02 0.  1.
        2   -1    0    0  501    0  0.00000000000E+00  0.00000000000E+00 -0.11850493483E+04  0.11850493483E+04  0.25500000920E-02 0. -1.
    10030    2    1    2    0    0  0.00000000000E+00  0.00000000000E+00  0.43576915261E+03  0.28058678492E+04  0.27718224389E+04 0.  0.
        5    1    3    3  502    0  0.71630699103E+03 -0.85618019504E+03  0.10493055560E+04  0.15320588996E+04  0.46999998093E+01 0.  1.
       -5    1    3    3    0  502 -0.71630699103E+03  0.85618019504E+03 -0.61353640343E+03  0.12738089496E+04  0.46999998093E+01 0. -1.
</event>
<event>
 5   0  0.3345919E-06  0.2802673E+04  0.7818609E-02  0.8302439E-01
        2   -1    0    0  501    0  0.00000000000E+00  0.00000000000E+00  0.15696501717E+04  0.15696501717E+04  0.25500000920E-02 0.  1.
       -2   -1    0    0    0  501  0.00000000000E+00  0.00000000000E+00 -0.12510709187E+04  0.12510709187E+04  0.25500000920E-02 0. -1.
    10030    2    1    2    0    0  0.00000000000E+00  0.00000000000E+00  0.31857925300E+03  0.28207210904E+04  0.28026727831E+04 0.  0.
        2    1    3    3  502    0 -0.77907255214E+03  0.19723708217E+03 -0.99609574709E+03  0.12798684485E+04  0.25500000920E-02 0. -1.
       -2    1    3    3    0  502  0.77907255214E+03 -0.19723708217E+03  0.13146750001E+04  0.15408526419E+04  0.25500000920E-02 0.  1.
</event>
<event>
 5   0  0.1235252E-06  0.2803771E+04  0.7818609E-02  0.8302099E-01
       -1   -1    0    0    0  501  0.00000000000E+00  0.00000000000E+00  0.13654374592E+04  0.13654374592E+04  0.50400001928E-02 0. -1.
        1   -1    0    0  501    0  0.00000000000E+00  0.00000000000E+00 -0.14393063979E+04  0.14393063979E+04  0.50400001928E-02 0.  1.
    10030    2    1    2    0    0  0.00000000000E+00  0.00000000000E+00 -0.73868938730E+02  0.28047438571E+04  0.28037709400E+04 0.  0.
        1    1    3    3  502    0 -0.68333552371E+03 -0.11284256755E+04  0.43756221146E+03  0.13898750419E+04  0.50400001928E-02 0. -1.
       -1    1    3    3    0  502  0.68333552371E+03  0.11284256755E+04 -0.51143115019E+03  0.14148688153E+04  0.50400001928E-02 0.  1.
</event>
<event>
 5   0  0.1220265E-06  0.2805115E+04  0.7818609E-02  0.8301682E-01
        1   -1    0    0  501    0  0.00000000000E+00  0.00000000000E+00  0.21968783577E+04  0.21968783577E+04  0.50400001928E-02 0.  1.
       -1   -1    0    0    0  501  0.00000000000E+00  0.00000000000E+00 -0.89543750969E+03  0.89543750971E+03  0.50400001928E-02 0. -1.
    10030    2    1    2    0    0  0.00000000000E+00  0.00000000000E+00  0.13014408480E+04  0.30923158674E+04  0.28051148181E+04 0.  0.
        4    1    3    3  502    0  0.44033155949E+03 -0.96123926139E+03  0.16666461227E+04  0.19737233117E+04  0.12699999809E+01 0.  1.
       -4    1    3    3    0  502 -0.44033155949E+03  0.96123926139E+03 -0.36520527477E+03  0.11185925556E+04  0.12699999809E+01 0. -1.
</event>
<event>
 5   0  0.3162695E-06  0.2803067E+04  0.7818609E-02  0.8302317E-01
        2   -1    0    0  501    0  0.00000000000E+00  0.00000000000E+00  0.10404864889E+04  0.10404864889E+04  0.25500000920E-02 0. -1.
       -2   -1    0    0    0  501  0.00000000000E+00  0.00000000000E+00 -0.18878625480E+04  0.18878625480E+04  0.25500000920E-02 0.  1.
    10030    2    1    2    0    0  0.00000000000E+00  0.00000000000E+00 -0.84737605911E+03  0.29283490370E+04  0.28030665166E+04 0.  0.
        1    1    3    3  502    0 -0.93651167265E+03  0.57745862701E+03  0.48332301520E+03  0.12017128259E+04  0.50400001928E-02 0. -1.
       -1    1    3    3    0  502  0.93651167265E+03 -0.57745862701E+03 -0.13306990743E+04  0.17266362110E+04  0.50400001928E-02 0.  1.
</event>
<event>
 5   0  0.3212679E-06  0.2793301E+04  0.7818609E-02  0.8305351E-01
        2   -1    0    0  501    0  0.00000000000E+00  0.00000000000E+00  0.17995928475E+04  0.17995928475E+04  0.25500000920E-02 0. -1.
       -2   -1    0    0    0  501  0.00000000000E+00  0.00000000000E+00 -0.10839299201E+04  0.10839299201E+04  0.25500000920E-02 0.  1.
    10030    2    1    2    0    0  0.00000000000E+00  0.00000000000E+00  0.71566292741E+03  0.28835227676E+04  0.27933009371E+04 0.  0.
        4    1    3    3  502    0 -0.26055454811E+03 -0.13430988814E+04  0.64766252136E+03  0.15136946959E+04  0.12699999809E+01 0.  1.
       -4    1    3    3    0  502  0.26055454811E+03  0.13430988814E+04  0.68000406054E+02  0.13698280717E+04  0.12699999809E+01 0. -1.
</event>
<event>
 5   0  0.1246044E-06  0.2805113E+04  0.7818609E-02  0.8301683E-01
        1   -1    0    0  501    0  0.00000000000E+00  0.00000000000E+00  0.15990891450E+04  0.15990891450E+04  0.50400001928E-02 0.  1.
       -1   -1    0    0    0  501  0.00000000000E+00  0.00000000000E+00 -0.12301786855E+04  0.12301786855E+04  0.50400001928E-02 0. -1.
    10030    2    1    2    0    0  0.00000000000E+00  0.00000000000E+00  0.36891045942E+03  0.28292678305E+04  0.28051134611E+04 0.  0.
        2    1    3    3  502    0 -0.12168436708E+04  0.68244648395E+03  0.39258492819E+02  0.13957015984E+04  0.25500000920E-02 0.  1.
       -2    1    3    3    0  502  0.12168436708E+04 -0.68244648395E+03  0.32965196660E+03  0.14335662321E+04  0.25500000920E-02 0. -1.
</event>
<event>
 5   0  0.1246044E-06  0.2805461E+04  0.7818609E-02  0.8301575E-01
       -1   -1    0    0    0  501  0.00000000000E+00  0.00000000000E+00  0.99185190553E+03  0.99185190554E+03  0.50400001928E-02 0.  1.
        1   -1    0    0  501    0  0.00000000000E+00  0.00000000000E+00 -0.19838164964E+04  0.19838164964E+04  0.50400001928E-02 0. -1.
    10030    2    1    2    0    0  0.00000000000E+00  0.00000000000E+00 -0.99196459086E+03  0.29756684019E+04  0.28054605128E+04 0.  0.
        2    1    3    3  502    0  0.83673248885E+03  0.11255310338E+04 -0.52426077141E+03  0.14972610735E+04  0.25500000920E-02 0. -1.
       -2    1    3    3    0  502 -0.83673248885E+03 -0.11255310338E+04 -0.46770381945E+03  0.14784073284E+04  0.25500000920E-02 0.  1.
</event>
<event>
 5   0  0.3345919E-06  0.2788634E+04  0.7818609E-02  0.8306806E-01
       -2   -1    0    0    0  501  0.00000000000E+00  0.00000000000E+00  0.99728583756E+03  0.99728583756E+03  0.25500000920E-02 0. -1.
        2   -1    0    0  501    0  0.00000000000E+00  0.00000000000E+00 -0.19494115732E+04  0.19494115732E+04  0.25500000920E-02 0.  1.
    10030    2    1    2    0    0  0.00000000000E+00  0.00000000000E+00 -0.95212573565E+03  0.29466974108E+04  0.27886344712E+04 0.  0.
        2    1    3    3  502    0  0.12572029198E+04 -0.54961679363E+03 -0.21405121916E+03  0.13886884913E+04  0.25500000920E-02 0. -1.
       -2    1    3    3    0  502 -0.12572029198E+04  0.54961679363E+03 -0.73807451649E+03  0.15580089195E+04  0.25500000920E-02 0.  1.
</event>
<event>
 5   0  0.3167616E-06  0.2777434E+04  0.7818609E-02  0.8310309E-01
       -2   -1    0    0    0  501  0.00000000000E+00  0.00000000000E+00  0.13813808112E+04  0.13813808112E+04  0.25500000920E-02 0.  1.
        2   -1    0    0  501    0  0.00000000000E+00  0.00000000000E+00 -0.13960916666E+04  0.13960916666E+04  0.25500000920E-02 0. -1.
    10030    2    1    2    0    0  0.00000000000E+00  0.00000000000E+00 -0.14710855410E+02  0.27774724778E+04  0.27774335196E+04 0.  0.
        3    1    3    3  502    0 -0.49540813443E+03  0.12818490860E+04  0.19256718509E+03  0.13876773508E+04  0.10100000352E+00 0.  1.
       -3    1    3    3    0  502  0.49540813443E+03 -0.12818490860E+04 -0.20727804050E+03  0.13897951270E+04  0.10100000352E+00 0. -1.
</event>
<event>
 5   0  0.3345919E-06  0.2797625E+04  0.7818609E-02  0.8304006E-01
       -2   -1    0    0    0  501  0.00000000000E+00  0.00000000000E+00  0.16855000221E+04  0.16855000221E+04  0.25500000920E-02 0. -1.
        2   -1    0    0  501    0  0.00000000000E+00  0.00000000000E+00 -0.11608880671E+04  0.11608880671E+04  0.25500000920E-02 0.  1.
    10030    2    1    2    0    0  0.00000000000E+00  0.00000000000E+00  0.52461195505E+03  0.28463880892E+04  0.27976253235E+04 0.  0.
        2    1    3    3  502    0 -0.10087279564E+04 -0.91664688121E+03 -0.57664480962E+02  0.13642209452E+04  0.25500000920E-02 0.  1.
       -2    1    3    3    0  502  0.10087279564E+04  0.91664688121E+03  0.58227643602E+03  0.14821671440E+04  0.25500000920E-02 0. -1.
</event>
<event>
 5   0  0.3162695E-06  0.2756946E+04  0.7818609E-02  0.8316761E-01
       -2   -1    0    0    0  501  0.00000000000E+00  0.00000000000E+00  0.67936166533E+03  0.67936166533E+03  0.25500000920E-02 0.  1.
        2   -1    0    0  501    0  0.00000000000E+00  0.00000000000E+00 -0.27970189911E+04  0.27970189911E+04  0.25500000920E-02 0. -1.
    10030    2    1    2    0    0  0.00000000000E+00  0.00000000000E+00 -0.21176573258E+04  0.34763806564E+04  0.27569457592E+04 0.  0.
        1    1    3    3  502    0  0.38637495564E+03 -0.99291034166E+03 -0.21617349159E+04  0.24100320329E+04  0.50400001928E-02 0.  1.
       -1    1    3    3    0  502 -0.38637495564E+03  0.99291034166E+03  0.44077590139E+02  0.10663486235E+04  0.50400001928E-02 0. -1.
</event>
<event>
 5   0  0.1243055E-06  0.2796960E+04  0.7818609E-02  0.8304213E-01
        1   -1    0    0  501    0  0.00000000000E+00  0.00000000000E+00  0.15684315222E+04  0.15684315222E+04  0.50400001928E-02 0. -1.
       -1   -1    0    0    0  501  0.00000000000E+00  0.00000000000E+00 -0.12469435805E+04  0.12469435805E+04  0.50400001928E-02 0.  1.
    10030    2    1    2    0    0  0.00000000000E+00  0.00000000000E+00  0.32148794166E+03  0.28153751027E+04  0.27969595049E+04 0.  0.
        5    1    3    3  502    0 -0.96766992775E+03 -0.35432641899E+03  0.11123739848E+04  0.15163542701E+04  0.46999998093E+01 0. -1.
       -5    1    3    3    0  502  0.96766992775E+03  0.35432641899E+03 -0.79088604318E+03  0.12990208326E+04  0.46999998093E+01 0.  1.
</event>
<event>
 5   0  0.3226364E-06  0.2805514E+04  0.7818609E-02  0.8301559E-01
       -2   -1    0    0    0  501  0.00000000000E+00  0.00000000000E+00  0.12540779250E+04  0.12540779250E+04  0.25500000920E-02 0.  1.
        2   -1    0    0  501    0  0.00000000000E+00  0.00000000000E+00 -0.15690627449E+04  0.15690627449E+04  0.25500000920E-02 0. -1.
    10030    2    1    2    0    0  0.00000000000E+00  0.00000000000E+00 -0.31498481983E+03  0.28231406699E+04  0.28055138220E+04 0.  0.
        5    1    3    3  502    0  0.72590724936E+03 -0.34783754921E+03 -0.13135238725E+04  0.15405516379E+04  0.46999998093E+01 0. -1.
       -5    1    3    3    0  502 -0.72590724936E+03  0.34783754921E+03  0.99853905267E+03  0.12825890320E+04  0.46999998093E+01 0.  1.
</event>
<event>
 5   0  0.3212679E-06  0.2826862E+04  0.7818609E-02  0.8294977E-01
        2   -1    0    0  501    0  0.00000000000E+00  0.00000000000E+00  0.10657298355E+04  0.10657298355E+04  0.25500000920E-02 0.  1.
       -2   -1    0    0    0  501  0.00000000000E+00  0.00000000000E+00 -0.18745718754E+04  0.18745718754E+04  0.25500000920E-02 0. -1.
    10030    2    1    2    0    0  0.00000000000E+00  0.00000000000E+00 -0.80884203990E+03  0.29403017109E+04  0.28268619891E+04 0.  0.
        4    1    3    3  502    0  0.37736081224E+03  0.24642692238E+03  0.98898652727E+03  0.10868410071E+04  0.12699999809E+01 0.  1.
       -4    1    3    3    0  502 -0.37736081224E+03 -0.24642692238E+03 -0.17978285672E+04  0.18534607038E+04  0.12699999809E+01 0. -1.
</event>
<event>
 5   0  0.3345919E-06  0.2820362E+04  0.7818609E-02  0.8296975E-01
        2   -1    0    0  501    0  0.00000000000E+00  0.00000000000E+00  0.16853799324E+04  0.16853799324E+04  0.25500000920E-02 0.  1.
       -2   -1    0    0    0  501  0.00000000000E+00  0.00000000000E+00 -0.11799178200E+04  0.11799178200E+04  0.25500000920E-02 0. -1.
    10030    2    1    2    0    0  0.00000000000E+00  0.00000000000E+00  0.50546211240E+03  0.28652977525E+04  0.28203615483E+04 0.  0.
        2    1    3    3  502    0 -0.83029870045E+03  0.97427253343E+03 -0.34830881957E+03  0.13266204940E+04  0.25500000920E-02 0. -1.
       -2    1    3    3    0  502  0.83029870045E+03 -0.97427253343E+03  0.85377093197E+03  0.15386772584E+04  0.25500000920E-02 0.  1.
</event>
<event>
 5   0  0.1243055E-06  0.2814974E+04  0.7818609E-02  0.8298634E-01
        1   -1    0    0  501    0  0.00000000000E+00  0.00000000000E+00  0.19049143508E+04  0.19049143508E+04  0.50400001928E-02 0.  1.
       -1   -1    0    0    0  501  0.00000000000E+00  0.00000000000E+00 -0.10399523947E+04  0.10399523947E+04  0.50400001928E-02 0. -1.
    10030    2    1    2    0    0  0.00000000000E+00  0.00000000000E+00  0.86496195611E+03  0.29448667455E+04  0.28149744161E+04 0.  0.
        5    1    3    3  502    0 -0.40926223823E+03  0.57935424318E+03 -0.83928310261E+03  0.10988926859E+04  0.46999998093E+01 0. -1.
       -5    1    3    3    0  502  0.40926223823E+03 -0.57935424318E+03  0.17042450587E+04  0.18459740597E+04  0.46999998093E+01 0.  1.
</event>
<event>
 5   0  0.1243055E-06  0.2810475E+04  0.7818609E-02  0.8300024E-01
        1   -1    0    0  501    0  0.00000000000E+00  0.00000000000E+00  0.14864623546E+04  0.14864623546E+04  0.50400001928E-02 0. -1.
       -1   -1    0    0    0  501  0.00000000000E+00  0.00000000000E+00 -0.13284510458E+04  0.13284510458E+04  0.50400001928E-02 0.  1.
    10030    2    1    2    0    0  0.00000000000E+00  0.00000000000E+00  0.15801130884E+03  0.28149134004E+04  0.28104750271E+04 0.  0.
        5    1    3    3  502    0  0.25332108685E+03  0.13573799493E+04  0.34022104875E+03  0.14221196686E+04  0.46999998093E+01 0. -1.
       -5    1    3    3    0  502 -0.25332108685E+03 -0.13573799493E+04 -0.18220973991E+03  0.13927937318E+04  0.46999998093E+01 0.  1.
</event>
<event>
 5   0  0.3162695E-06  0.2785455E+04  0.7818609E-02  0.8307798E-01
        2   -1    0    0  501    0  0.00000000000E+00  0.00000000000E+00  0.12603348593E+04  0.12603348593E+04  0.25500000920E-02 0. -1.
       -2   -1    0    0    0  501  0.00000000000E+00  0.00000000000E+00 -0.15390271583E+04  0.15390271583E+04  0.25500000920E-02 0.  1.
    10030    2    1    2    0    0  0.00000000000E+00  0.00000000000E+00 -0.27869229903E+03  0.27993620176E+04  0.27854547758E+04 0.  0.
        1    1    3    3  502    0  0.45608386057E+03  0.11115569314E+04  0.56852720906E+03  0.13292082181E+04  0.50400001928E-02 0. -1.
       -1    1    3    3    0  502 -0.45608386057E+03 -0.11115569314E+04 -0.84721950808E+03  0.14701537996E+04  0.50400001928E-02 0.  1.
</event>
<event>
 5   0  0.3226364E-06  0.2805446E+04  0.7818609E-02  0.8301580E-01
        2   -1    0    0  501    0  0.00000000000E+00  0.00000000000E+00  0.18967053171E+04  0.18967053171E+04  0.25500000920E-02 0.  1.
       -2   -1    0    0    0  501  0.00000000000E+00  0.00000000000E+00 -0.10373947336E+04  0.10373947336E+04  0.25500000920E-02 0. -1.
    10030    2    1    2    0    0  0.00000000000E+00  0.00000000000E+00  0.85931058354E+03  0.29341000507E+04  0.28054462084E+04 0.  0.
        5    1    3    3  502    0  0.81132764564E+03  0.89589580986E+03 -0.31483749702E+03  0.12490102442E+04  0.46999998093E+01 0. -1.
       -5    1    3    3    0  502 -0.81132764564E+03 -0.89589580986E+03  0.11741480806E+04  0.16850898064E+04  0.46999998093E+01 0.  1.
</event>
<event>
 5   0  0.3226364E-06  0.2801211E+04  0.7818609E-02  0.8302892E-01
       -2   -1    0    0    0  501  0.00000000000E+00  0.00000000000E+00  0.11841832210E+04  0.11841832210E+04  0.25500000920E-02 0. -1.
        2   -1    0    0  501    0  0.00000000000E+00  0.00000000000E+00 -0.16565813287E+04  0.16565813287E+04  0.25500000920E-02 0.  1.
    10030    2    1    2    0    0  0.00000000000E+00  0.00000000000E+00 -0.47239810764E+03  0.28407645497E+04  0.28012110336E+04 0.  0.
        5    1    3    3  502    0 -0.20810326832E+03 -0.34381186094E+03 -0.15968445363E+04  0.16466475425E+04  0.46999998093E+01 0.  1.
       -5    1    3    3    0  502  0.20810326832E+03  0.34381186094E+03  0.11244464287E+04  0.11941170072E+04  0.46999998093E+01 0. -1.
</event>
<event>
 5   0  0.1220265E-06  0.2756468E+04  0.7818609E-02  0.8316912E-01
       -1   -1    0    0    0  501  0.00000000000E+00  0.00000000000E+00  0.14225543280E+04  0.14225543280E+04  0.50400001928E-02 0.  1.
        1   -1    0    0  501    0  0.00000000000E+00  0.00000000000E+00 -0.13352948059E+04  0.13352948059E+04  0.50400001928E-02 0. -1.
    10030    2    1    2    0    0  0.00000000000E+00  0.00000000000E+00  0.87259522048E+02  0.27578491339E+04  0.27564683240E+04 0.  0.
        4    1    3    3  502    0  0.48612445423E+03  0.12120143202E+04 -0.39730871418E+03  0.13649730857E+04  0.12699999809E+01 0. -1.
       -4    1    3    3    0  502 -0.48612445423E+03 -0.12120143202E+04  0.48456823623E+03  0.13928760482E+04  0.12699999809E+01 0.  1.
</event>
<event>
 5   0  0.1220265E-06  0.2793148E+04  0.7818609E-02  0.8305399E-01
       -1   -1    0    0    0  501  0.00000000000E+00  0.00000000000E+00  0.99103176118E+03  0.99103176119E+03  0.50400001928E-02 0. -1.
        1   -1    0    0  501    0  0.00000000000E+00  0.00000000000E+00 -0.19680696246E+04  0.19680696246E+04  0.50400001928E-02 0.  1.
    10030    2    1    2    0    0  0.00000000000E+00  0.00000000000E+00 -0.97703786345E+03  0.29591013858E+04  0.27931484073E+04 0.  0.
        4    1    3    3  502    0 -0.86868430478E+02 -0.13927950548E+04 -0.54648452744E+03  0.14986898079E+04  0.12699999809E+01 0. -1.
       -4    1    3    3    0  502  0.86868430478E+02  0.13927950548E+04 -0.43055333601E+03  0.14604115779E+04  0.12699999809E+01 0.  1.
</event>
<event>
 5   0  0.1246044E-06  0.2794707E+04  0.7818609E-02  0.8304913E-01
        1   -1    0    0  501    0  0.00000000000E+00  0.00000000000E+00  0.22827148803E+04  0.22827148803E+04  0.50400001928E-02 0. -1.
       -1   -1    0    0    0  501  0.00000000000E+00  0.00000000000E+00 -0.85538366864E+03  0.85538366866E+03  0.50400001928E-02 0.  1.
    10030    2    1    2    0    0  0.00000000000E+00  0.00000000000E+00  0.14273312116E+04  0.31380985489E+04  0.27947071609E+04 0.  0.
        2    1    3    3  502    0  0.12907746060E+04  0.21424980280E+02  0.13142068394E+04  0.18421991559E+04  0.25500000920E-02 0. -1.
       -2    1    3    3    0  502 -0.12907746060E+04 -0.21424980280E+02  0.11312437221E+03  0.12958993930E+04  0.25500000920E-02 0.  1.
</event>
<event>
 5   0  0.3162695E-06  0.2785017E+04  0.7818609E-02  0.8307935E-01
       -2   -1    0    0    0  501  0.00000000000E+00  0.00000000000E+00  0.11555960012E+04  0.11555960012E+04  0.25500000920E-02 0.  1.
        2   -1    0    0  501    0  0.00000000000E+00  0.00000000000E+00 -0.16779909670E+04  0.16779909670E+04  0.25500000920E-02 0. -1.
    10030    2    1    2    0    0  0.00000000000E+00  0.00000000000E+00 -0.52239496583E+03  0.28335869682E+04  0.27850168053E+04 0.  0.
        1    1    3    3  502    0 -0.67464007076E+03 -0.25811471828E+03  0.95007613450E+03  0.11934852719E+04  0.50400001928E-02 0.  1.
       -1    1    3    3    0  502  0.67464007076E+03  0.25811471828E+03 -0.14724711003E+04  0.16401016963E+04  0.50400001928E-02 0. -1.
</event>
<event>
 5   0  0.3226364E-06  0.2789968E+04  0.7818609E-02  0.8306390E-01
        2   -1    0    0  501    0  0.00000000000E+00  0.00000000000E+00  0.98911264200E+03  0.98911264201E+03  0.25500000920E-02 0. -1.
       -2   -1    0    0    0  501  0.00000000000E+00  0.00000000000E+00 -0.19673996680E+04  0.19673996680E+04  0.25500000920E-02 0.  1.
    10030    2    1    2    0    0  0.00000000000E+00  0.00000000000E+00 -0.97828702598E+03  0.29565123100E+04  0.27899676582E+04 0.  0.
        5    1    3    3  502    0 -0.49614771274E+03 -0.12798234603E+04 -0.22560725690E+03  0.13910540489E+04  0.46999998093E+01 0.  1.
       -5    1    3    3    0  502  0.49614771274E+03  0.12798234603E+04 -0.75267976908E+03  0.15654582611E+04  0.46999998093E+01 0. -1.
</event>
<event>
 5   0  0.3167616E-06  0.2885369E+04  0.7818609E-02  0.8277244E-01
        2   -1    0    0  501    0  0.00000000000E+00  0.00000000000E+00  0.22668040105E+04  0.22668040105E+04  0.25500000920E-02 0. -1.
       -2   -1    0    0    0  501  0.00000000000E+00  0.00000000000E+00 -0.91818221182E+03  0.91818221183E+03  0.25500000920E-02 0.  1.
    10030    2    1    2    0    0  0.00000000000E+00  0.00000000000E+00  0.13486217986E+04  0.31849862223E+04  0.28853693837E+04 0.  0.
        3    1    3    3  502    0 -0.86853844370E+03 -0.11253557163E+04  0.94594212013E+03  0.17075101819E+04  0.10100000352E+00 0. -1.
       -3    1    3    3    0  502  0.86853844370E+03  0.11253557163E+04  0.40267967851E+03  0.14774760404E+04  0.10100000352E+00 0.  1.
</event>
<event>
 5   0  0.1235252E-06  0.2810759E+04  0.7818609E-02  0.8299936E-01
        1   -1    0    0  501    0  0.00000000000E+00  0.00000000000E+00  0.17820940140E+04  0.17820940140E+04  0.50400001928E-02 0. -1.
       -1   -1    0    0    0  501  0.00000000000E+00  0.00000000000E+00 -0.11082982744E+04  0.11082982744E+04  0.50400001928E-02 0.  1.
    10030    2    1    2    0    0  0.00000000000E+00  0.00000000000E+00  0.67379573957E+03  0.28903922884E+04  0.28107591292E+04 0.  0.
        1    1    3    3  502    0 -0.10043769640E+04 -0.37411023671E+03  0.12716960257E+04  0.16631122442E+04  0.50400001928E-02 0. -1.
       -1    1    3    3    0  502  0.10043769640E+04  0.37411023671E+03 -0.59790028609E+03  0.12272800443E+04  0.50400001928E-02 0.  1.
</event>
<event>
 5   0  0.3162695E-06  0.2794491E+04  0.7818609E-02  0.8304981E-01
       -2   -1    0    0    0  501  0.00000000000E+00  0.00000000000E+00  0.11899260115E+04  0.11899260115E+04  0.25500000920E-02 0.  1.
        2   -1    0    0  501    0  0.00000000000E+00  0.00000000000E+00 -0.16406862111E+04  0.16406862111E+04  0.25500000920E-02 0. -1.
    10030    2    1    2    0    0  0.00000000000E+00  0.00000000000E+00 -0.45076019955E+03  0.28306122226E+04  0.27944911518E+04 0.  0.
        1    1    3    3  502    0 -0.11464575562E+04  0.38533928398E+03  0.48326551207E+03  0.13024580020E+04  0.50400001928E-02 0.  1.
       -1    1    3    3    0  502  0.11464575562E+04 -0.38533928398E+03 -0.93402571163E+03  0.15281542206E+04  0.50400001928E-02 0. -1.
</event>
<event>
 5   0  0.1220265E-06  0.2808241E+04  0.7818609E-02  0.8300715E-01
       -1   -1    0    0    0  501  0.00000000000E+00  0.00000000000E+00  0.85538016051E+03  0.85538016052E+03  0.50400001928E-02 0. -1.
        1   -1    0    0  501    0  0.00000000000E+00  0.00000000000E+00 -0.23048860853E+04  0.23048860853E+04  0.50400001928E-02 0.  1.
    10030    2    1    2    0    0  0.00000000000E+00  0.00000000000E+00 -0.14495059248E+04  0.31602662459E+04  0.28082406091E+04 0.  0.
        4    1    3    3  502    0 -0.15557551652E+03  0.13661053887E+04 -0.10452410903E+04  0.17271300542E+04  0.12699999809E+01 0.  1.
       -4    1    3    3    0  502  0.15557551652E+03 -0.13661053887E+04 -0.40426483453E+03  0.14331361916E+04  0.12699999809E+01 0. -1.
</event>
<event>
 5   0  0.3167616E-06  0.2794088E+04  0.7818609E-02  0.8305106E-01
       -2   -1    0    0    0  501  0.00000000000E+00  0.00000000000E+00  0.85693762495E+03  0.85693762496E+03  0.25500000920E-02 0.  1.
        2   -1    0    0  501    0  0.00000000000E+00  0.00000000000E+00 -0.22775664352E+04  0.22775664352E+04  0.25500000920E-02 0. -1.
    10030    2    1    2    0    0  0.00000000000E+00  0.00000000000E+00 -0.14206288103E+04  0.31345040602E+04  0.27940883105E+04 0.  0.
        3    1    3    3  502    0 -0.15421875012E+03 -0.11014671503E+04 -0.16587249825E+04  0.19970933588E+04  0.10100000352E+00 0. -1.
       -3    1    3    3    0  502  0.15421875012E+03  0.11014671503E+04  0.23809617225E+03  0.11374107013E+04  0.10100000352E+00 0.  1.
</event>
<event>
 5   0  0.3212679E-06  0.2803083E+04  0.7818609E-02  0.8302312E-01
        2   -1    0    0  501    0  0.00000000000E+00  0.00000000000E+00  0.14857571928E+04  0.14857571928E+04  0.25500000920E-02 0. -1.
       -2   -1    0    0    0  501  0.00000000000E+00  0.00000000000E+00 -0.13220994927E+04  0.13220994927E+04  0.25500000920E-02 0.  1.
    10030    2    1    2    0    0  0.00000000000E+00  0.00000000000E+00  0.16365770010E+03  0.28078566855E+04  0.28030831817E+04 0.  0.
        4    1    3    3  502    0 -0.83452741995E+03  0.82227532474E+03 -0.68873044647E+03  0.13590158075E+04  0.12699999809E+01 0.  1.
       -4    1    3    3    0  502  0.83452741995E+03 -0.82227532474E+03  0.85238814656E+03  0.14488408780E+04  0.12699999809E+01 0. -1.
</event>
<event>
 5   0  0.1235252E-06  0.2825572E+04  0.7818609E-02  0.8295373E-01
        1   -1    0    0  501    0  0.00000000000E+00  0.00000000000E+00  0.13783645568E+04  0.13783645568E+04  0.50400001928E-02 0. -1.
       -1   -1    0    0    0  501  0.00000000000E+00  0.00000000000E+00 -0.14480667126E+04  0.14480667126E+04  0.50400001928E-02 0.  1.
    10030    2    1    2    0    0  0.00000000000E+00  0.00000000000E+00 -0.69702155873E+02  0.28264312694E+04  0.28255716820E+04 0.  0.
        1    1    3    3  502    0 -0.10337048019E+04  0.49777397217E+03 -0.85950425742E+03  0.14335522709E+04  0.50400001928E-02 0.  1.
       -1    1    3    3    0  502  0.10337048019E+04 -0.49777397217E+03  0.78980210155E+03  0.13928789985E+04  0.50400001928E-02 0. -1.
</event>
<event>
 5   0  0.3162695E-06  0.2803020E+04  0.7818609E-02  0.8302331E-01
        2   -1    0    0  501    0  0.00000000000E+00  0.00000000000E+00  0.16684991606E+04  0.16684991606E+04  0.25500000920E-02 0.  1.
       -2   -1    0    0    0  501  0.00000000000E+00  0.00000000000E+00 -0.11772440047E+04  0.11772440047E+04  0.25500000920E-02 0. -1.
    10030    2    1    2    0    0  0.00000000000E+00  0.00000000000E+00  0.49125515593E+03  0.28457431653E+04  0.28030202523E+04 0.  0.
        1    1    3    3  502    0  0.44329193307E+03  0.11379010073E+04  0.94378932281E+03  0.15433938986E+04  0.50400001928E-02 0. -1.
       -1    1    3    3    0  502 -0.44329193307E+03 -0.11379010073E+04 -0.45253416688E+03  0.13023492667E+04  0.50400001928E-02 0.  1.
</event>
<event>
 5   0  0.1243055E-06  0.2810565E+04  0.7818609E-02  0.8299996E-01
        1   -1    0    0  501    0  0.00000000000E+00  0.00000000000E+00  0.16331226507E+04  0.16331226507E+04  0.50400001928E-02 0. -1.
       -1   -1    0    0    0  501  0.00000000000E+00  0.00000000000E+00 -0.12092287598E+04  0.12092287598E+04  0.50400001928E-02 0.  1.
    10030    2    1    2    0    0  0.00000000000E+00  0.00000000000E+00  0.42389389088E+03  0.28423514104E+04  0.28105649805E+04 0.  0.
        5    1    3    3  502    0 -0.42003401641E+03 -0.12597889686E+04  0.67681944402E+03  0.14905044348E+04  0.46999998093E+01 0. -1.
       -5    1    3    3    0  502  0.42003401641E+03  0.12597889686E+04 -0.25292555314E+03  0.13518469757E+04  0.46999998093E+01 0.  1.
</event>
<event>
 5   0  0.1243055E-06  0.2801642E+04  0.7818609E-02  0.8302759E-01
        1   -1    0    0  501    0  0.00000000000E+00  0.00000000000E+00  0.15673984214E+04  0.15673984214E+04  0.50400001928E-02 0.  1.
       -1   -1    0    0    0  501  0.00000000000E+00  0.00000000000E+00 -0.12519472482E+04  0.12519472482E+04  0.50400001928E-02 0. -1.
    10030    2    1    2    0    0  0.00000000000E+00  0.00000000000E+00  0.31545117315E+03  0.28193456696E+04  0.28016424758E+04 0.  0.
        5    1    3    3  502    0 -0.19453856763E+03 -0.13367365705E+04 -0.21551988003E+03  0.13679111163E+04  0.46999998093E+01 0. -1.
       -5    1    3    3    0  502  0.19453856763E+03  0.13367365705E+04  0.53097105319E+03  0.14514345533E+04  0.46999998093E+01 0.  1.
</event>
<event>
 5   0  0.1235252E-06  0.2790643E+04  0.7818609E-02  0.8306179E-01
        1   -1    0    0  501    0  0.00000000000E+00  0.00000000000E+00  0.19311434019E+04  0.19311434019E+04  0.50400001928E-02 0.  1.
       -1   -1    0    0    0  501  0.00000000000E+00  0.00000000000E+00 -0.10081703164E+04  0.10081703164E+04  0.50400001928E-02 0. -1.
    10030    2    1    2    0    0  0.00000000000E+00  0.00000000000E+00  0.92297308545E+03  0.29393137183E+04  0.27906425457E+04 0.  0.
        1    1    3    3  502    0  0.10018050795E+03  0.57920991092E+03 -0.87139577073E+03  0.10511188536E+04  0.50400001928E-02 0. -1.
       -1    1    3    3    0  502 -0.10018050795E+03 -0.57920991092E+03  0.17943688562E+04  0.18881948647E+04  0.50400001928E-02 0.  1.
</event>
<event>
 5   0  0.1263513E-06  0.2801771E+04  0.7818609E-02  0.8302719E-01
        1   -1    0    0  501    0  0.00000000000E+00  0.00000000000E+00  0.13980781407E+04  0.13980781407E+04  0.50400001928E-02 0.  1.
       -1   -1    0    0    0  501  0.00000000000E+00  0.00000000000E+00 -0.14036984343E+04  0.14036984343E+04  0.50400001928E-02 0. -1.
    10030    2    1    2    0    0  0.00000000000E+00  0.00000000000E+00 -0.56202935817E+01  0.28017765750E+04  0.28017709379E+04 0.  0.
        3    1    3    3  502    0 -0.26425589274E+03 -0.63872840527E+03  0.12156646821E+04  0.13984440575E+04  0.10100000352E+00 0.  1.
       -3    1    3    3    0  502  0.26425589274E+03  0.63872840527E+03 -0.12212849757E+04  0.14033325174E+04  0.10100000352E+00 0. -1.
</event>
<event>
 5   0  0.1263513E-06  0.2791867E+04  0.7818609E-02  0.8305798E-01
       -1   -1    0    0    0  501  0.00000000000E+00  0.00000000000E+00  0.13687375851E+04  0.13687375851E+04  0.50400001928E-02 0. -1.
        1   -1    0    0  501    0  0.00000000000E+00  0.00000000000E+00 -0.14236697047E+04  0.14236697047E+04  0.50400001928E-02 0.  1.
    10030    2    1    2    0    0  0.00000000000E+00  0.00000000000E+00 -0.54932119646E+02  0.27924072898E+04  0.27918669264E+04 0.  0.
        3    1    3    3  502    0  0.11292171741E+04 -0.57510430462E+03 -0.61303119557E+03  0.14077228578E+04  0.10100000352E+00 0.  1.
       -3    1    3    3    0  502 -0.11292171741E+04  0.57510430462E+03  0.55809907593E+03  0.13846844320E+04  0.10100000352E+00 0. -1.
</event>
<event>
 5   0  0.1220265E-06  0.2733099E+04  0.7818609E-02  0.8324345E-01
       -1   -1    0    0    0  501  0.00000000000E+00  0.00000000000E+00  0.11339679281E+04  0.11339679281E+04  0.50400001928E-02 0. -1.
        1   -1    0    0  501    0  0.00000000000E+00  0.00000000000E+00 -0.16468349293E+04  0.16468349293E+04  0.50400001928E-02 0.  1.
    10030    2    1    2    0    0  0.00000000000E+00  0.00000000000E+00 -0.51286700121E+03  0.27808028574E+04  0.27330993342E+04 0.  0.
        4    1    3    3  502    0 -0.76966898633E+03  0.42536393535E+03 -0.13206979521E+04  0.15866850726E+04  0.12699999809E+01 0.  1.
       -4    1    3    3    0  502  0.76966898633E+03 -0.42536393535E+03  0.80783095085E+03  0.11941177848E+04  0.12699999809E+01 0. -1.
</event>
<event>
 5   0  0.1263513E-06  0.2799451E+04  0.7818609E-02  0.8303439E-01
       -1   -1    0    0    0  501  0.00000000000E+00  0.00000000000E+00  0.91536217719E+03  0.91536217720E+03  0.50400001928E-02 0.  1.
        1   -1    0    0  501    0  0.00000000000E+00  0.00000000000E+00 -0.21403887267E+04  0.21403887267E+04  0.50400001928E-02 0. -1.
    10030    2    1    2    0    0  0.00000000000E+00  0.00000000000E+00 -0.12250265495E+04  0.30557509039E+04  0.27994505782E+04 0.  0.
        3    1    3    3  502    0 -0.12404207829E+04 -0.13281707775E+03  0.80384216517E+02  0.12500982870E+04  0.10100000352E+00 0.  1.
       -3    1    3    3    0  502  0.12404207829E+04  0.13281707775E+03 -0.13054107660E+04  0.18056526169E+04  0.10100000352E+00 0. -1.
</event>
<event>
 5   0  0.1235252E-06  0.2794022E+04  0.7818609E-02  0.8305127E-01
       -1   -1    0    0    0  501  0.00000000000E+00  0.00000000000E+00  0.11643868996E+04  0.11643868996E+04  0.50400001928E-02 0. -1.
        1   -1    0    0  501    0  0.00000000000E+00  0.00000000000E+00 -0.16761089735E+04  0.16761089735E+04  0.50400001928E-02 0.  1.
    10030    2    1    2    0    0  0.00000000000E+00  0.00000000000E+00 -0.51172207384E+03  0.28404958731E+04  0.27940217115E+04 0.  0.
        1    1    3    3  502    0  0.16338604138E+03  0.19963684941E+03  0.11399620227E+04  0.11687870992E+04  0.50400001928E-02 0. -1.
       -1    1    3    3    0  502 -0.16338604138E+03 -0.19963684941E+03 -0.16516840965E+04  0.16717087739E+04  0.50400001928E-02 0.  1.
</event>
<event>
 5   0  0.1243055E-06  0.2802529E+04  0.7818609E-02  0.8302484E-01
        1   -1    0    0  501    0  0.00000000000E+00  0.00000000000E+00  0.16627781255E+04  0.16627781255E+04  0.50400001928E-02 0. -1.
       -1   -1    0    0    0  501  0.00000000000E+00  0.00000000000E+00 -0.11808802216E+04  0.11808802216E+04  0.50400001928E-02 0.  1.
    10030    2    1    2    0    0  0.00000000000E+00  0.00000000000E+00  0.48189790388E+03  0.28436583472E+04  0.28025287163E+04 0.  0.
        5    1    3    3  502    0 -0.88068049675E+02  0.35550406965E+03 -0.11314468419E+04  0.11892574031E+04  0.46999998093E+01 0.  1.
       -5    1    3    3    0  502  0.88068049675E+02 -0.35550406965E+03  0.16133447458E+04  0.16544009440E+04  0.46999998093E+01 0. -1.
</event>
<event>
 5   0  0.3167616E-06  0.2813292E+04  0.7818609E-02  0.8299154E-01
       -2   -1    0    0    0  501  0.00000000000E+00  0.00000000000E+00  0.10402562020E+04  0.10402562020E+04  0.25500000920E-02 0.  1.
        2   -1    0    0  501    0  0.00000000000E+00  0.00000000000E+00 -0.19020821703E+04  0.19020821703E+04  0.25500000920E-02 0. -1.
    10030    2    1    2    0    0  0.00000000000E+00  0.00000000000E+00 -0.86182596828E+03  0.29423383723E+04  0.28132918614E+04 0.  0.
        3    1    3    3  502    0  0.52817890083E+03 -0.38127886796E+03  0.87299252645E+03  0.10892485886E+04  0.10100000352E+00 0.  1.
       -3    1    3    3    0  502 -0.52817890083E+03  0.38127886796E+03 -0.17348184947E+04  0.18530897837E+04  0.10100000352E+00 0. -1.
</event>
<event>
 5   0  0.3345919E-06  0.2805236E+04  0.7818609E-02  0.8301645E-01
       -2   -1    0    0    0  501  0.00000000000E+00  0.00000000000E+00  0.76082208720E+03  0.76082208720E+03  0.25500000920E-02 0.  1.
        2   -1    0    0  501    0  0.00000000000E+00  0.00000000000E+00 -0.25858044543E+04  0.25858044543E+04  0.25500000920E-02 0. -1.
    10030    2    1    2    0    0  0.00000000000E+00  0.00000000000E+00 -0.18249823671E+04  0.33466265415E+04  0.28052359202E+04 0.  0.
        2    1    3    3  502    0  0.90768323056E+03  0.83542180008E+03 -0.11620196806E+03  0.12390808402E+04  0.25500000920E-02 0.  1.
       -2    1    3    3    0  502 -0.90768323056E+03 -0.83542180008E+03 -0.17087803990E+04  0.21075457013E+04  0.25500000920E-02 0. -1.
</event>
<event>
 5   0  0.1243055E-06  0.2810081E+04  0.7818609E-02  0.8300146E-01
       -1   -1    0    0    0  501  0.00000000000E+00  0.00000000000E+00  0.14164160912E+04  0.14164160912E+04  0.50400001928E-02 0. -1.
        1   -1    0    0  501    0  0.00000000000E+00  0.00000000000E+00 -0.13937558050E+04  0.13937558050E+04  0.50400001928E-02 0.  1.
    10030    2    1    2    0    0  0.00000000000E+00  0.00000000000E+00  0.22660286126E+02  0.28101718962E+04  0.28100805322E+04 0.  0.
        5    1    3    3  502    0 -0.14301305057E+03  0.75796386977E+03 -0.11630819571E+04  0.13956158818E+04  0.46999998093E+01 0.  1.
       -5    1    3    3    0  502  0.14301305057E+03 -0.75796386977E+03  0.11857422433E+04  0.14145560144E+04  0.46999998093E+01 0. -1.
</event>
<event>
 5   0  0.3167616E-06  0.2669070E+04  0.7818609E-02  0.8345111E-01
       -2   -1    0    0    0  501  0.00000000000E+00  0.00000000000E+00  0.14475380709E+04  0.14475380709E+04  0.25500000920E-02 0.  1.
        2   -1    0    0  501    0  0.00000000000E+00  0.00000000000E+00 -0.12303536969E+04  0.12303536969E+04  0.25500000920E-02 0. -1.
    10030    2    1    2    0    0  0.00000000000E+00  0.00000000000E+00  0.21718437405E+03  0.26778917678E+04  0.26690701129E+04 0.  0.
        3    1    3    3  502    0  0.17148380688E+03 -0.12290265322E+04  0.60120468612E+03  0.13788981100E+04  0.10100000352E+00 0.  1.
       -3    1    3    3    0  502 -0.17148380688E+03  0.12290265322E+04 -0.38402031207E+03  0.12989936578E+04  0.10100000352E+00 0. -1.
</event>
<event>
 5   0  0.3162695E-06  0.2815754E+04  0.7818609E-02  0.8298394E-01
        2   -1    0    0  501    0  0.00000000000E+00  0.00000000000E+00  0.87879537573E+03  0.87879537574E+03  0.25500000920E-02 0.  1.
       -2   -1    0    0    0  501  0.00000000000E+00  0.00000000000E+00 -0.22554945165E+04  0.22554945165E+04  0.25500000920E-02 0. -1.
    10030    2    1    2    0    0  0.00000000000E+00  0.00000000000E+00 -0.13766991408E+04  0.31342898923E+04  0.28157543580E+04 0.  0.
        1    1    3    3  502    0 -0.45492853898E+03 -0.11852649069E+04 -0.10982083421E+02  0.12696194238E+04  0.50400001928E-02 0.  1.
       -1    1    3    3    0  502  0.45492853898E+03  0.11852649069E+04 -0.13657170574E+04  0.18646704685E+04  0.50400001928E-02 0. -1.
</event>
<event>
 5   0  0.3212679E-06  0.2840462E+04  0.7818609E-02  0.8290815E-01
        2   -1    0    0  501    0  0.00000000000E+00  0.00000000000E+00  0.23934356612E+04  0.23934356612E+04  0.25500000920E-02 0.  1.
       -2   -1    0    0    0  501  0.00000000000E+00  0.00000000000E+00 -0.84274524552E+03  0.84274524552E+03  0.25500000920E-02 0. -1.
    10030    2    1    2    0    0  0.00000000000E+00  0.00000000000E+00  0.15506904157E+04  0.32361809067E+04  0.28404623032E+04 0.  0.
        4    1    3    3  502    0 -0.14107354681E+04 -0.82470942819E+02  0.61390427750E+03  0.15407323233E+04  0.12699999809E+01 0. -1.
       -4    1    3    3    0  502  0.14107354681E+04  0.82470942819E+02  0.93678613817E+03  0.16954485834E+04  0.12699999809E+01 0.  1.
</event>
<event>
 5   0  0.3345919E-06  0.2806445E+04  0.7818609E-02  0.8301270E-01
        2   -1    0    0  501    0  0.00000000000E+00  0.00000000000E+00  0.24892182969E+04  0.24892182969E+04  0.25500000920E-02 0.  1.
       -2   -1    0    0    0  501  0.00000000000E+00  0.00000000000E+00 -0.79102471686E+03  0.79102471686E+03  0.25500000920E-02 0. -1.
    10030    2    1    2    0    0  0.00000000000E+00  0.00000000000E+00  0.16981935800E+04  0.32802430137E+04  0.28064448674E+04 0.  0.
        2    1    3    3  502    0 -0.11921248509E+04  0.24141099326E+03  0.31259741005E+02  0.12167243316E+04  0.25500000920E-02 0. -1.
       -2    1    3    3    0  502  0.11921248509E+04 -0.24141099326E+03  0.16669338390E+04  0.20635186821E+04  0.25500000920E-02 0.  1.
</event>
<event>
 5   0  0.1243055E-06  0.2801357E+04  0.7818609E-02  0.8302847E-01
        1   -1    0    0  501    0  0.00000000000E+00  0.00000000000E+00  0.14292939524E+04  0.14292939524E+04  0.50400001928E-02 0. -1.
       -1   -1    0    0    0  501  0.00000000000E+00  0.00000000000E+00 -0.13726362765E+04  0.13726362765E+04  0.50400001928E-02 0.  1.
    10030    2    1    2    0    0  0.00000000000E+00  0.00000000000E+00  0.56657675921E+02  0.28019302289E+04  0.28013573345E+04 0.  0.
        5    1    3    3  502    0  0.10439525803E+03 -0.11090091206E+04  0.87766622654E+03  0.14181395187E+04  0.46999998093E+01 0. -1.
       -5    1    3    3    0  502 -0.10439525803E+03  0.11090091206E+04 -0.82100855062E+03  0.13837907102E+04  0.46999998093E+01 0.  1.
</event>
<event>
 5   0  0.3345919E-06  0.2674080E+04  0.7818609E-02  0.8343464E-01
       -2   -1    0    0    0  501  0.00000000000E+00  0.00000000000E+00  0.14645905377E+04  0.14645905377E+04  0.25500000920E-02 0. -1.
        2   -1    0    0  501    0  0.00000000000E+00  0.00000000000E+00 -0.12205980837E+04  0.12205980837E+04  0.25500000920E-02 0.  1.
    10030    2    1    2    0    0  0.00000000000E+00  0.00000000000E+00  0.24399245398E+03  0.26851886214E+04  0.26740803306E+04 0.  0.
        2    1    3    3  502    0  0.57959843315E+03  0.85179028343E+03  0.97770717294E+03  0.14203493749E+04  0.25500000920E-02 0. -1.
       -2    1    3    3    0  502 -0.57959843315E+03 -0.85179028343E+03 -0.73371471896E+03  0.12648392465E+04  0.25500000920E-02 0.  1.
</event>
<event>
 5   0  0.1243055E-06  0.2802764E+04  0.7818609E-02  0.8302411E-01
        1   -1    0    0  501    0  0.00000000000E+00  0.00000000000E+00  0.15745695246E+04  0.15745695246E+04  0.50400001928E-02 0.  1.
       -1   -1    0    0    0  501  0.00000000000E+00  0.00000000000E+00 -0.12472437632E+04  0.12472437632E+04  0.50400001928E-02 0. -1.
    10030    2    1    2    0    0  0.00000000000E+00  0.00000000000E+00  0.32732576137E+03  0.28218132878E+04  0.28027643634E+04 0.  0.
        5    1    3    3  502    0  0.68777664302E+03  0.11283062641E+04 -0.30613277285E+03  0.13564111106E+04  0.46999998093E+01 0. -1.
       -5    1    3    3    0  502 -0.68777664302E+03 -0.11283062641E+04  0.63345853421E+03  0.14654021772E+04  0.46999998093E+01 0.  1.
</event>
<event>
 5   0  0.1220265E-06  0.2796403E+04  0.7818609E-02  0.8304386E-01
        1   -1    0    0  501    0  0.00000000000E+00  0.00000000000E+00  0.13757559991E+04  0.13757559992E+04  0.50400001928E-02 0.  1.
       -1   -1    0    0    0  501  0.00000000000E+00  0.00000000000E+00 -0.14210136759E+04  0.14210136760E+04  0.50400001928E-02 0. -1.
    10030    2    1    2    0    0  0.00000000000E+00  0.00000000000E+00 -0.45257676799E+02  0.27967696751E+04  0.27964034684E+04 0.  0.
        4    1    3    3  502    0 -0.13848587915E+04 -0.14550562498E+02  0.16954440693E+03  0.13952750661E+04  0.12699999809E+01 0.  1.
       -4    1    3    3    0  502  0.13848587915E+04  0.14550562498E+02 -0.21480208372E+03  0.14014946091E+04  0.12699999809E+01 0. -1.
</event>
<event>
 5   0  0.1246044E-06  0.2861842E+04  0.7818609E-02  0.8284322E-01
        1   -1    0    0  501    0  0.00000000000E+00  0.00000000000E+00  0.12576629608E+04  0.12576629608E+04  0.50400001928E-02 0. -1.
       -1   -1    0    0    0  501  0.00000000000E+00  0.00000000000E+00 -0.16280477099E+04  0.16280477099E+04  0.50400001928E-02 0.  1.
    10030    2    1    2    0    0  0.00000000000E+00  0.00000000000E+00 -0.37038474907E+03  0.28857106707E+04  0.28618422760E+04 0.  0.
        2    1    3    3  502    0  0.78963283044E+03  0.11597518708E+04  0.98204858868E+02  0.14064809288E+04  0.25500000920E-02 0. -1.
       -2    1    3    3    0  502 -0.78963283044E+03 -0.11597518708E+04 -0.46858960794E+03  0.14792297419E+04  0.25500000920E-02 0.  1.
</event>
<event>
 5   0  0.1220265E-06  0.2829295E+04  0.7818609E-02  0.8294231E-01
       -1   -1    0    0    0  501  0.00000000000E+00  0.00000000000E+00  0.18094511981E+04  0.18094511981E+04  0.50400001928E-02 0. -1.
        1   -1    0    0  501    0  0.00000000000E+00  0.00000000000E+00 -0.11059859219E+04  0.11059859219E+04  0.50400001928E-02 0.  1.
    10030    2    1    2    0    0  0.00000000000E+00  0.00000000000E+00  0.70346527625E+03  0.29154371201E+04  0.28292950016E+04 0.  0.
        4    1    3    3  502    0  0.47989444471E+03  0.11740142785E+04  0.99740233320E+03  0.16135120797E+04  0.12699999809E+01 0.  1.
       -4    1    3    3    0  502 -0.47989444471E+03 -0.11740142785E+04 -0.29393705695E+03  0.13019250403E+04  0.12699999809E+01 0. -1.
</event>
<event>
 5   0  0.3162695E-06  0.2793683E+04  0.7818609E-02  0.8305232E-01
        2   -1    0    0  501    0  0.00000000000E+00  0.00000000000E+00  0.16015212267E+04  0.16015212267E+04  0.25500000920E-02 0. -1.
       -2   -1    0    0    0  501  0.00000000000E+00  0.00000000000E+00 -0.12183207851E+04  0.12183207851E+04  0.25500000920E-02 0.  1.
    10030    2    1    2    0    0  0.00000000000E+00  0.00000000000E+00  0.38320044158E+03  0.28198420118E+04  0.27936833022E+04 0.  0.
        1    1    3    3  502    0  0.54209633973E+03  0.17586220246E+03  0.14788338218E+04  0.15848487083E+04  0.50400001928E-02 0. -1.
       -1    1    3    3    0  502 -0.54209633973E+03 -0.17586220246E+03 -0.10956333802E+04  0.12349933035E+04  0.50400001928E-02 0.  1.
</event>
<event>
 5   0  0.3212679E-06  0.2801642E+04  0.7818609E-02  0.8302759E-01
        2   -1    0    0  501    0  0.00000000000E+00  0.00000000000E+00  0.12419078141E+04  0.12419078141E+04  0.25500000920E-02 0. -1.
       -2   -1    0    0    0  501  0.00000000000E+00  0.00000000000E+00 -0.15800680340E+04  0.15800680340E+04  0.25500000920E-02 0.  1.
    10030    2    1    2    0    0  0.00000000000E+00  0.00000000000E+00 -0.33816021990E+03  0.28219758481E+04  0.28016415461E+04 0.  0.
        4    1    3    3  502    0 -0.89463404991E+03  0.10652717150E+04 -0.31932027718E+01  0.13911095282E+04  0.12699999809E+01 0.  1.
       -4    1    3    3    0  502  0.89463404991E+03 -0.10652717150E+04 -0.33496701713E+03  0.14308663199E+04  0.12699999809E+01 0. -1.
</event>
<event>
 5   0  0.1263513E-06  0.2798296E+04  0.7818609E-02  0.8303798E-01
        1   -1    0    0  501    0  0.00000000000E+00  0.00000000000E+00  0.14460138887E+04  0.14460138887E+04  0.50400001928E-02 0. -1.
       -1   -1    0    0    0  501  0.00000000000E+00  0.00000000000E+00 -0.13538010389E+04  0.13538010389E+04  0.50400001928E-02 0.  1.
    10030    2    1    2    0    0  0.00000000000E+00  0.00000000000E+00  0.92212849752E+02  0.27998149276E+04  0.27982959849E+04 0.  0.
        3    1    3    3  502    0  0.63820205504E+03 -0.10809160148E+04 -0.57223696511E+03  0.13795421155E+04  0.10100000352E+00 0.  1.
       -3    1    3    3    0  502 -0.63820205504E+03  0.10809160148E+04  0.66444981486E+03  0.14202728121E+04  0.10100000352E+00 0. -1.
</event>
<event>
 5   0  0.3167616E-06  0.2783357E+04  0.7818609E-02  0.8308454E-01
       -2   -1    0    0    0  501  0.00000000000E+00  0.00000000000E+00  0.11303890401E+04  0.11303890401E+04  0.25500000920E-02 0. -1.
        2   -1    0    0  501    0  0.00000000000E+00  0.00000000000E+00 -0.17133644521E+04  0.17133644521E+04  0.25500000920E-02 0.  1.
    10030    2    1    2    0    0  0.00000000000E+00  0.00000000000E+00 -0.58297541200E+03  0.28437534922E+04  0.27833565336E+04 0.  0.
        3    1    3    3  502    0  0.74750339161E+02  0.22786872414E+03 -0.16920942491E+04  0.17090040160E+04  0.10100000352E+00 0.  1.
       -3    1    3    3    0  502 -0.74750339161E+02 -0.22786872414E+03  0.11091188371E+04  0.11347494762E+04  0.10100000352E+00 0. -1.
</event>
<event>
 5   0  0.1263513E-06  0.2678687E+04  0.7818609E-02  0.8341954E-01
       -1   -1    0    0    0  501  0.00000000000E+00  0.00000000000E+00  0.11939530015E+04  0.11939530015E+04  0.50400001928E-02 0.  1.
        1   -1    0    0  501    0  0.00000000000E+00  0.00000000000E+00 -0.15024379903E+04  0.15024379903E+04  0.50400001928E-02 0. -1.
    10030    2    1    2    0    0  0.00000000000E+00  0.00000000000E+00 -0.30848498881E+03  0.26963909918E+04  0.26786865050E+04 0.  0.
        3    1    3    3  502    0 -0.71113364791E+03 -0.53226757656E+03  0.85479015994E+03  0.12327554770E+04  0.10100000352E+00 0.  1.
       -3    1    3    3    0  502  0.71113364791E+03  0.53226757656E+03 -0.11632751488E+04  0.14636355148E+04  0.10100000352E+00 0. -1.
</event>
<event>
 5   0  0.1246044E-06  0.2799623E+04  0.7818609E-02  0.8303385E-01
       -1   -1    0    0    0  501  0.00000000000E+00  0.00000000000E+00  0.15204634844E+04  0.15204634844E+04  0.50400001928E-02 0.  1.
        1   -1    0    0  501    0  0.00000000000E+00  0.00000000000E+00 -0.12887333562E+04  0.12887333562E+04  0.50400001928E-02 0. -1.
    10030    2    1    2    0    0  0.00000000000E+00  0.00000000000E+00  0.23173012817E+03  0.28091968406E+04  0.27996228383E+04 0.  0.
        2    1    3    3  502    0  0.60355055512E+03  0.47820147777E+03 -0.10571159180E+04  0.13078394359E+04  0.25500000920E-02 0. -1.
       -2    1    3    3    0  502 -0.60355055512E+03 -0.47820147777E+03  0.12888460462E+04  0.15013574047E+04  0.25500000920E-02 0.  1.
</event>
<event>
 5   0  0.3345919E-06  0.2802069E+04  0.7818609E-02  0.8302626E-01
        2   -1    0    0  501    0  0.00000000000E+00  0.00000000000E+00  0.12535201175E+04  0.12535201175E+04  0.25500000920E-02 0.  1.
       -2   -1    0    0    0  501  0.00000000000E+00  0.00000000000E+00 -0.15659079572E+04  0.15659079572E+04  0.25500000920E-02 0. -1.
    10030    2    1    2    0    0  0.00000000000E+00  0.00000000000E+00 -0.31238783967E+03  0.28194280747E+04  0.28020686120E+04 0.  0.
        2    1    3    3  502    0 -0.44749214112E+03 -0.13031301200E+04  0.99347580485E+02  0.13814004734E+04  0.25500000920E-02 0. -1.
       -2    1    3    3    0  502  0.44749214112E+03  0.13031301200E+04 -0.41173542016E+03  0.14380276014E+04  0.25500000920E-02 0.  1.
</event>
<event>
 5   0  0.1065675E-06  0.2806324E+04  0.7818609E-02  0.8301308E-01
        3   -1    0    0  501    0  0.00000000000E+00  0.00000000000E+00  0.10700646167E+04  0.10700646214E+04  0.10100000352E+00 0. -1.
       -3   -1    0    0    0  501  0.00000000000E+00  0.00000000000E+00 -0.18399478673E+04  0.18399478701E+04  0.10100000352E+00 0.  1.
    10030    2    1    2    0    0  0.00000000000E+00  0.00000000000E+00 -0.76988325061E+03  0.29100124915E+04  0.28063236594E+04 0.  0.
        1    1    3    3  502    0 -0.68281735990E+03 -0.10130965606E+04  0.33067210144E+03  0.12656809340E+04  0.50400001928E-02 0. -1.
       -1    1    3    3    0  502  0.68281735990E+03  0.10130965606E+04 -0.11005553520E+04  0.16443315575E+04  0.50400001928E-02 0.  1.
</event>
<event>
 5   0  0.1235252E-06  0.2784199E+04  0.7818609E-02  0.8308191E-01
       -1   -1    0    0    0  501  0.00000000000E+00  0.00000000000E+00  0.14483609497E+04  0.14483609497E+04  0.50400001928E-02 0.  1.
        1   -1    0    0  501    0  0.00000000000E+00  0.00000000000E+00 -0.13380234136E+04  0.13380234137E+04  0.50400001928E-02 0. -1.
    10030    2    1    2    0    0  0.00000000000E+00  0.00000000000E+00  0.11033753605E+03  0.27863843633E+04  0.27841988881E+04 0.  0.
        1    1    3    3  502    0 -0.59710499302E+03  0.83514837508E+02  0.13109173307E+04  0.14429183444E+04  0.50400001928E-02 0.  1.
       -1    1    3    3    0  502  0.59710499302E+03 -0.83514837508E+02 -0.12005797946E+04  0.13434660189E+04  0.50400001928E-02 0. -1.
</event>
<event>
 5   0  0.3212679E-06  0.2800504E+04  0.7818609E-02  0.8303112E-01
        2   -1    0    0  501    0  0.00000000000E+00  0.00000000000E+00  0.18057976525E+04  0.18057976525E+04  0.25500000920E-02 0. -1.
       -2   -1    0    0    0  501  0.00000000000E+00  0.00000000000E+00 -0.10857837110E+04  0.10857837110E+04  0.25500000920E-02 0.  1.
    10030    2    1    2    0    0  0.00000000000E+00  0.00000000000E+00  0.72001394159E+03  0.28915813635E+04  0.28005040092E+04 0.  0.
        4    1    3    3  502    0 -0.89365444802E+03  0.68728627560E+03 -0.49749808224E+03  0.12322689040E+04  0.12699999809E+01 0.  1.
       -4    1    3    3    0  502  0.89365444802E+03 -0.68728627560E+03  0.12175120238E+04  0.16593124595E+04  0.12699999809E+01 0. -1.
</event>
<event>
 5   0  0.1235252E-06  0.2798785E+04  0.7818609E-02  0.8303646E-01
       -1   -1    0    0    0  501  0.00000000000E+00  0.00000000000E+00  0.17773684732E+04  0.17773684732E+04  0.50400001928E-02 0. -1.
        1   -1    0    0  501    0  0.00000000000E+00  0.00000000000E+00 -0.11017970953E+04  0.11017970953E+04  0.50400001928E-02 0.  1.
    10030    2    1    2    0    0  0.00000000000E+00  0.00000000000E+00  0.67557137791E+03  0.28791655686E+04  0.27987850372E+04 0.  0.
        1    1    3    3  502    0  0.37416836117E+03  0.47513992436E+03 -0.96041610393E+03  0.11349709260E+04  0.50400001928E-02 0.  1.
       -1    1    3    3    0  502 -0.37416836117E+03 -0.47513992436E+03  0.16359874818E+04  0.17441946425E+04  0.50400001928E-02 0. -1.
</event>
<event>
 5   0  0.3212679E-06  0.2793876E+04  0.7818609E-02  0.8305172E-01
        2   -1    0    0  501    0  0.00000000000E+00  0.00000000000E+00  0.18109225315E+04  0.18109225315E+04  0.25500000920E-02 0.  1.
       -2   -1    0    0    0  501  0.00000000000E+00  0.00000000000E+00 -0.10775918470E+04  0.10775918470E+04  0.25500000920E-02 0. -1.
    10030    2    1    2    0    0  0.00000000000E+00  0.00000000000E+00  0.73333068447E+03  0.28885143786E+04  0.27938756992E+04 0.  0.
        4    1    3    3  502    0 -0.34855385875E+03  0.67472575522E+03  0.15788525565E+04  0.17520050358E+04  0.12699999809E+01 0.  1.
       -4    1    3    3    0  502  0.34855385875E+03 -0.67472575522E+03 -0.84552187206E+03  0.11365093428E+04  0.12699999809E+01 0. -1.
</event>
<event>
 5   0  0.3226364E-06  0.2773048E+04  0.7818609E-02  0.8311685E-01
        2   -1    0    0  501    0  0.00000000000E+00  0.00000000000E+00  0.12312698391E+04  0.12312698391E+04  0.25500000920E-02 0. -1.
       -2   -1    0    0    0  501  0.00000000000E+00  0.00000000000E+00 -0.15613542548E+04  0.15613542548E+04  0.25500000920E-02 0.  1.
    10030    2    1    2    0    0  0.00000000000E+00  0.00000000000E+00 -0.33008441566E+03  0.27926240939E+04  0.27730477111E+04 0.  0.
        5    1    3    3  502    0  0.26366153285E+03 -0.60721593947E+03 -0.13919191871E+04  0.15413272574E+04  0.46999998093E+01 0.  1.
       -5    1    3    3    0  502 -0.26366153285E+03  0.60721593947E+03  0.10618347714E+04  0.12512968364E+04  0.46999998093E+01 0. -1.
</event>
<event>
 5   0  0.1220265E-06  0.2804885E+04  0.7818609E-02  0.8301753E-01
       -1   -1    0    0    0  501  0.00000000000E+00  0.00000000000E+00  0.87036902540E+03  0.87036902542E+03  0.50400001928E-02 0. -1.
        1   -1    0    0  501    0  0.00000000000E+00  0.00000000000E+00 -0.22597835619E+04  0.22597835619E+04  0.50400001928E-02 0.  1.
    10030    2    1    2    0    0  0.00000000000E+00  0.00000000000E+00 -0.13894145365E+04  0.31301525873E+04  0.28048854639E+04 0.  0.
        4    1    3    3  502    0  0.13170656907E+04 -0.39730645965E+03 -0.99895764191E+03  0.17001271834E+04  0.12699999809E+01 0. -1.
       -4    1    3    3    0  502 -0.13170656907E+04  0.39730645965E+03 -0.39045689461E+03  0.14300254040E+04  0.12699999809E+01 0.  1.
</event>
<event>
 5   0  0.3226364E-06  0.2805600E+04  0.7818609E-02  0.8301532E-01
        2   -1    0    0  501    0  0.00000000000E+00  0.00000000000E+00  0.93805605590E+03  0.93805605590E+03  0.25500000920E-02 0. -1.
       -2   -1    0    0    0  501  0.00000000000E+00  0.00000000000E+00 -0.20977938208E+04  0.20977938208E+04  0.25500000920E-02 0.  1.
    10030    2    1    2    0    0  0.00000000000E+00  0.00000000000E+00 -0.11597377649E+04  0.30358498767E+04  0.28056002550E+04 0.  0.
        5    1    3    3  502    0 -0.35224321478E+03 -0.45010849439E+03  0.80634121262E+03  0.98837299651E+03  0.46999998093E+01 0. -1.
       -5    1    3    3    0  502  0.35224321478E+03  0.45010849439E+03 -0.19660789775E+04  0.20474768802E+04  0.46999998093E+01 0.  1.
</event>
<event>
 5   0  0.1246044E-06  0.2803337E+04  0.7818609E-02  0.8302233E-01
        1   -1    0    0  501    0  0.00000000000E+00  0.00000000000E+00  0.14151889596E+04  0.14151889596E+04  0.50400001928E-02 0.  1.
       -1   -1    0    0    0  501  0.00000000000E+00  0.00000000000E+00 -0.13882774255E+04  0.13882774255E+04  0.50400001928E-02 0. -1.
    10030    2    1    2    0    0  0.00000000000E+00  0.00000000000E+00  0.26911534065E+02  0.28034663851E+04  0.28033372151E+04 0.  0.
        2    1    3    3  502    0 -0.91584631825E+02 -0.93237058198E+03  0.10560834140E+04  0.14117417696E+04  0.25500000920E-02 0.  1.
       -2    1    3    3    0  502  0.91584631825E+02  0.93237058198E+03 -0.10291718799E+04  0.13917246155E+04  0.25500000920E-02 0. -1.
</event>
<event>
 5   0  0.3345919E-06  0.2805104E+04  0.7818609E-02  0.8301686E-01
        2   -1    0    0  501    0  0.00000000000E+00  0.00000000000E+00  0.18386761852E+04  0.18386761852E+04  0.25500000920E-02 0. -1.
       -2   -1    0    0    0  501  0.00000000000E+00  0.00000000000E+00 -0.10698741101E+04  0.10698741101E+04  0.25500000920E-02 0.  1.
    10030    2    1    2    0    0  0.00000000000E+00  0.00000000000E+00  0.76880207505E+03  0.29085502953E+04  0.28051039535E+04 0.  0.
        2    1    3    3  502    0 -0.37489715456E+03 -0.10744173399E+04 -0.46573233262E+03  0.12295637854E+04  0.25500000920E-02 0.  1.
       -2    1    3    3    0  502  0.37489715456E+03  0.10744173399E+04  0.12345344077E+04  0.16789865099E+04  0.25500000920E-02 0. -1.
</event>
<event>
 5   0  0.1243055E-06  0.2800274E+04  0.7818609E-02  0.8303183E-01
        1   -1    0    0  501    0  0.00000000000E+00  0.00000000000E+00  0.10431391416E+04  0.10431391416E+04  0.50400001928E-02 0.  1.
       -1   -1    0    0    0  501  0.00000000000E+00  0.00000000000E+00 -0.18793111989E+04  0.18793111989E+04  0.50400001928E-02 0. -1.
    10030    2    1    2    0    0  0.00000000000E+00  0.00000000000E+00 -0.83617205732E+03  0.29224503405E+04  0.28002736086E+04 0.  0.
        5    1    3    3  502    0  0.45275198150E+03 -0.28848634865E+03  0.93145030522E+03  0.10750955731E+04  0.46999998093E+01 0.  1.
       -5    1    3    3    0  502 -0.45275198150E+03  0.28848634865E+03 -0.17676223625E+04  0.18473547674E+04  0.46999998093E+01 0. -1.
</event>
</LesHouchesEvents>
