<LesHouchesEvents version="3.0">
<header>
<!--
#*********************************************************************
#                                                                    *
#                        MadGraph5_aMC@NLO                           *
#                                                                    *
#                           Going Beyond                             *
#                                                                    *
#                   http://madgraph.hep.uiuc.edu                     *
#                   http://madgraph.phys.ucl.ac.be                   *
#                   http://amcatnlo.cern.ch                          *
#                                                                    *
#                     The MadGraph5_aMC@NLO team                     *
#                                                                    *
#....................................................................*
#                                                                    *
# This file contains all the information necessary to reproduce      *
# the events generated:                                              *
#                                                                    *
# 1. software version                                                *
# 2. proc_card          : code generation info including model       *
# 3. param_card         : model primary parameters in the LH format  *
# 4. run_card           : running parameters (collider and cuts)     *
# 5. pythia_card        : present only if pythia has been run        *
# 6. pgs_card           : present only if pgs has been run           *
# 7. delphes_cards      : present only if delphes has been run       *
#                                                                    *
#                                                                    *
#*********************************************************************
-->
<MGVersion>
#5.2.2.3
</MGVersion>
<MG5ProcCard>
#************************************************************
#*                     MadGraph5_aMC@NLO                    *
#*                                                          *
#*                *                       *                 *
#*                  *        * *        *                   *
#*                    * * * * 5 * * * *                     *
#*                  *        * *        *                   *
#*                *                       *                 *
#*                                                          *
#*                                                          *
#*         VERSION 2.2.3                 2015-02-10         *
#*                                                          *
#*    The MadGraph5_aMC@NLO Development Team - Find us at   *
#*    https://server06.fynu.ucl.ac.be/projects/madgraph     *
#*                                                          *
#************************************************************
#*                                                          *
#*               Command File for MadGraph5_aMC@NLO         *
#*                                                          *
#*     run as ./bin/mg5_aMC  filename                       *
#*                                                          *
#************************************************************
set group_subprocesses Auto
set ignore_six_quark_processes False
set loop_optimized_output True
set gauge unitary
set complex_mass_scheme False
import model sm
define p = g u c d s u~ c~ d~ s~
define j = g u c d s u~ c~ d~ s~
define l+ = e+ mu+
define l- = e- mu-
define vl = ve vm vt
define vl~ = ve~ vm~ vt~
import model Zprime_UFO
generate p p > zph, zph > j j
add process p p > zph, zph > b b~
output Dijet_signal
</MG5ProcCard>
<MGProcCard>
#*********************************************************************
#                        MadGraph/MadEvent                           *
#                   http://madgraph.hep.uiuc.edu                     *
#                                                                    *
#                          proc_card.dat                             *
#*********************************************************************
#                                                                    *
#            This Files is generated by MADGRAPH 5                   *
#                                                                    *
# WARNING: This Files is generated for MADEVENT (compatibility issue)*
#          This files is NOT a valid MG4 proc_card.dat               *
#          Running this in MG4 will NEVER reproduce the result of MG5*
#                                                                    *
#*********************************************************************
#*********************************************************************
# Process(es) requested : mg2 input                                  *
#*********************************************************************
# Begin PROCESS # This is TAG. Do not modify this line
p p > zph , zph > j j           #Process
# Be carefull the coupling are here in MG5 convention
          
end_coup           # End the couplings input

done               # this tells MG there are no more procs
# End PROCESS  # This is TAG. Do not modify this line
#*********************************************************************
# Model information                                                  *
#*********************************************************************
# Begin MODEL  # This is TAG. Do not modify this line
Zprime_UFO
# End   MODEL  # This is TAG. Do not modify this line
#*********************************************************************
# Start multiparticle definitions                                    *
#*********************************************************************
# Begin MULTIPARTICLES # This is TAG. Do not modify this line

# End  MULTIPARTICLES # This is TAG. Do not modify this line
</MGProcCard>
<MGRunCard>
#*********************************************************************
#                       MadGraph5_aMC@NLO                            *
#                                                                    *
#                     run_card.dat MadEvent                          *
#                                                                    *
#  This file is used to set the parameters of the run.               *
#                                                                    *
#  Some notation/conventions:                                        *
#                                                                    *
#   Lines starting with a '# ' are info or comments                  *
#                                                                    *
#   mind the format:   value    = variable     ! comment             *
#*********************************************************************
#
#*******************                                                 
# Running parameters
#*******************                                                 
#                                                                    
#*********************************************************************
# Tag name for the run (one word)                                    *
#*********************************************************************
  tag_1     = run_tag ! name of the run 
#*********************************************************************
# Run to generate the grid pack                                      *
#*********************************************************************
  .false.     = gridpack  !True = setting up the grid pack
#*********************************************************************
# Number of events and rnd seed                                      *
# Warning: Do not generate more than 1M events in a single run       *
# If you want to run Pythia, avoid more than 50k events in a run.    *
#*********************************************************************
  2000 = nevents ! Number of unweighted events requested 
 2181 = iseed   ! rnd seed (0=assigned automatically=default))
#*********************************************************************
# Collider type and energy                                           *
# lpp: 0=No PDF, 1=proton, -1=antiproton, 2=photon from proton,      *
#                                         3=photon from electron     *
#*********************************************************************
        1     = lpp1    ! beam 1 type 
        1     = lpp2    ! beam 2 type
     4000     = ebeam1  ! beam 1 total energy in GeV
     4000     = ebeam2  ! beam 2 total energy in GeV
#*********************************************************************
# Beam polarization from -100 (left-handed) to 100 (right-handed)    *
#*********************************************************************
        0     = polbeam1 ! beam polarization for beam 1
        0     = polbeam2 ! beam polarization for beam 2
#*********************************************************************
# PDF CHOICE: this automatically fixes also alpha_s and its evol.    *
#*********************************************************************
 'nn23lo1'    = pdlabel     ! PDF set                                     
 230000    = lhaid     ! if pdlabel=lhapdf, this is the lhapdf number
#*********************************************************************
# Renormalization and factorization scales                           *
#*********************************************************************
 F        = fixed_ren_scale  ! if .true. use fixed ren scale
 F        = fixed_fac_scale  ! if .true. use fixed fac scale
 91.1880  = scale            ! fixed ren scale
 91.1880  = dsqrt_q2fact1    ! fixed fact scale for pdf1
 91.1880  = dsqrt_q2fact2    ! fixed fact scale for pdf2
 1        = scalefact        ! scale factor for event-by-event scales
#*********************************************************************
# Matching - Warning! ickkw > 1 is still beta
#*********************************************************************
 0        = ickkw            ! 0 no matching, 1 MLM, 2 CKKW matching
 1        = highestmult      ! for ickkw=2, highest mult group
 1        = ktscheme         ! for ickkw=1, 1 Durham kT, 2 Pythia pTE
 1        = alpsfact         ! scale factor for QCD emission vx
 F        = chcluster        ! cluster only according to channel diag
 T        = pdfwgt           ! for ickkw=1, perform pdf reweighting
 5        = asrwgtflavor     ! highest quark flavor for a_s reweight
 T        = clusinfo         ! include clustering tag in output
 3.0      = lhe_version       ! Change the way clustering information pass to shower.        
#*********************************************************************
#**********************************************************
#
#**********************************************************
# Automatic ptj and mjj cuts if xqcut > 0
# (turn off for VBF and single top processes)
#**********************************************************
   T  = auto_ptj_mjj  ! Automatic setting of ptj and mjj
#**********************************************************
#                                                                    
#**********************************
# BW cutoff (M+/-bwcutoff*Gamma)
#**********************************
  15  = bwcutoff      ! (M+/-bwcutoff*Gamma)
#**********************************************************
# Apply pt/E/eta/dr/mij cuts on decay products or not
# (note that etmiss/ptll/ptheavy/ht/sorted cuts always apply)
#**********************************************************
   T  = cut_decays    ! Cut decay products 
#*************************************************************
# Number of helicities to sum per event (0 = all helicities)
# 0 gives more stable result, but longer run time (needed for
# long decay chains e.g.).
# Use >=2 if most helicities contribute, e.g. pure QCD.
#*************************************************************
   0  = nhel          ! Number of helicities used per event
#*******************                                                 
# Standard Cuts
#*******************                                                 
#                                                                    
#*********************************************************************
# Minimum and maximum pt's (for max, -1 means no cut)                *
#*********************************************************************
 20  = ptj       ! minimum pt for the jets 
  0  = ptb       ! minimum pt for the b 
 10  = pta       ! minimum pt for the photons 
 10  = ptl       ! minimum pt for the charged leptons 
  0  = misset    ! minimum missing Et (sum of neutrino's momenta)
  0  = ptheavy   ! minimum pt for one heavy final state
 1.0 = ptonium   ! minimum pt for the quarkonium states
 -1  = ptjmax    ! maximum pt for the jets
 -1  = ptbmax    ! maximum pt for the b
 -1  = ptamax    ! maximum pt for the photons
 -1  = ptlmax    ! maximum pt for the charged leptons
 -1  = missetmax ! maximum missing Et (sum of neutrino's momenta)
#*********************************************************************
# Minimum and maximum E's (in the center of mass frame)              *
#*********************************************************************
  0  = ej     ! minimum E for the jets 
  0  = eb     ! minimum E for the b 
  0  = ea     ! minimum E for the photons 
  0  = el     ! minimum E for the charged leptons 
 -1   = ejmax ! maximum E for the jets
 -1   = ebmax ! maximum E for the b
 -1   = eamax ! maximum E for the photons
 -1   = elmax ! maximum E for the charged leptons
#*********************************************************************
# Maximum and minimum absolute rapidity (for max, -1 means no cut)   *
#*********************************************************************
   5  = etaj    ! max rap for the jets 
  -1  = etab    ! max rap for the b
 2.5  = etaa    ! max rap for the photons 
 2.5  = etal    ! max rap for the charged leptons 
 0.6  = etaonium ! max rap for the quarkonium states
   0  = etajmin ! min rap for the jets
   0  = etabmin ! min rap for the b
   0  = etaamin ! min rap for the photons
   0  = etalmin ! main rap for the charged leptons
#*********************************************************************
# Minimum and maximum DeltaR distance                                *
#*********************************************************************
 0.4 = drjj    ! min distance between jets 
 0   = drbb    ! min distance between b's 
 0.4 = drll    ! min distance between leptons 
 0.4 = draa    ! min distance between gammas 
 0   = drbj    ! min distance between b and jet 
 0.4 = draj    ! min distance between gamma and jet 
 0.4 = drjl    ! min distance between jet and lepton 
 0   = drab    ! min distance between gamma and b 
 0   = drbl    ! min distance between b and lepton 
 0.4 = dral    ! min distance between gamma and lepton 
 -1  = drjjmax ! max distance between jets
 -1  = drbbmax ! max distance between b's
 -1  = drllmax ! max distance between leptons
 -1  = draamax ! max distance between gammas
 -1  = drbjmax ! max distance between b and jet
 -1  = drajmax ! max distance between gamma and jet
 -1  = drjlmax ! max distance between jet and lepton
 -1  = drabmax ! max distance between gamma and b
 -1  = drblmax ! max distance between b and lepton
 -1  = dralmax ! maxdistance between gamma and lepton
#*********************************************************************
# Minimum and maximum invariant mass for pairs                       *
# WARNING: for four lepton final state mmll cut require to have      *
#          different lepton masses for each flavor!                  *           
#*********************************************************************
 0   = mmjj    ! min invariant mass of a jet pair 
 0   = mmbb    ! min invariant mass of a b pair 
 0   = mmaa    ! min invariant mass of gamma gamma pair
 0   = mmll    ! min invariant mass of l+l- (same flavour) lepton pair
 -1  = mmjjmax ! max invariant mass of a jet pair
 -1  = mmbbmax ! max invariant mass of a b pair
 -1  = mmaamax ! max invariant mass of gamma gamma pair
 -1  = mmllmax ! max invariant mass of l+l- (same flavour) lepton pair
#*********************************************************************
# Minimum and maximum invariant mass for all letpons                 *
#*********************************************************************
 0   = mmnl    ! min invariant mass for all letpons (l+- and vl) 
 -1  = mmnlmax ! max invariant mass for all letpons (l+- and vl) 
#*********************************************************************
# Minimum and maximum pt for 4-momenta sum of leptons                *
#*********************************************************************
 0   = ptllmin  ! Minimum pt for 4-momenta sum of leptons(l and vl)
 -1  = ptllmax  ! Maximum pt for 4-momenta sum of leptons(l and vl)
#*********************************************************************
# Inclusive cuts                                                     *
#*********************************************************************
 0  = xptj ! minimum pt for at least one jet  
 0  = xptb ! minimum pt for at least one b 
 0  = xpta ! minimum pt for at least one photon 
 0  = xptl ! minimum pt for at least one charged lepton 
#*********************************************************************
# Control the pt's of the jets sorted by pt                          *
#*********************************************************************
 0   = ptj1min ! minimum pt for the leading jet in pt
 0   = ptj2min ! minimum pt for the second jet in pt
 0   = ptj3min ! minimum pt for the third jet in pt
 0   = ptj4min ! minimum pt for the fourth jet in pt
 -1  = ptj1max ! maximum pt for the leading jet in pt 
 -1  = ptj2max ! maximum pt for the second jet in pt
 -1  = ptj3max ! maximum pt for the third jet in pt
 -1  = ptj4max ! maximum pt for the fourth jet in pt
 0   = cutuse  ! reject event if fails any (0) / all (1) jet pt cuts
#*********************************************************************
# Control the pt's of leptons sorted by pt                           *
#*********************************************************************
 0   = ptl1min ! minimum pt for the leading lepton in pt
 0   = ptl2min ! minimum pt for the second lepton in pt
 0   = ptl3min ! minimum pt for the third lepton in pt
 0   = ptl4min ! minimum pt for the fourth lepton in pt
 -1  = ptl1max ! maximum pt for the leading lepton in pt 
 -1  = ptl2max ! maximum pt for the second lepton in pt
 -1  = ptl3max ! maximum pt for the third lepton in pt
 -1  = ptl4max ! maximum pt for the fourth lepton in pt
#*********************************************************************
# Control the Ht(k)=Sum of k leading jets                            *
#*********************************************************************
 0   = htjmin ! minimum jet HT=Sum(jet pt)
 -1  = htjmax ! maximum jet HT=Sum(jet pt)
 0   = ihtmin  !inclusive Ht for all partons (including b)
 -1  = ihtmax  !inclusive Ht for all partons (including b)
 0   = ht2min ! minimum Ht for the two leading jets
 0   = ht3min ! minimum Ht for the three leading jets
 0   = ht4min ! minimum Ht for the four leading jets
 -1  = ht2max ! maximum Ht for the two leading jets
 -1  = ht3max ! maximum Ht for the three leading jets
 -1  = ht4max ! maximum Ht for the four leading jets
#***********************************************************************
# Photon-isolation cuts, according to hep-ph/9801442                   *
# When ptgmin=0, all the other parameters are ignored                  *
# When ptgmin>0, pta and draj are not going to be used                 *
#***********************************************************************
   0 = ptgmin ! Min photon transverse momentum
 0.4 = R0gamma ! Radius of isolation code
 1.0 = xn ! n parameter of eq.(3.4) in hep-ph/9801442
 1.0 = epsgamma ! epsilon_gamma parameter of eq.(3.4) in hep-ph/9801442
 .true. = isoEM ! isolate photons from EM energy (photons and leptons)
#*********************************************************************
# WBF cuts                                                           *
#*********************************************************************
 0   = xetamin ! minimum rapidity for two jets in the WBF case  
 0   = deltaeta ! minimum rapidity for two jets in the WBF case 
#*********************************************************************
# KT DURHAM CUT                                                      *
#*********************************************************************
 -1    =  ktdurham        
 0.4  =  dparameter 
#*********************************************************************
# maximal pdg code for quark to be considered as a light jet         *
# (otherwise b cuts are applied)                                     *
#*********************************************************************
 4 = maxjetflavor    ! Maximum jet pdg code
#*********************************************************************
# Jet measure cuts                                                   *
#*********************************************************************
 0   = xqcut   ! minimum kt jet measure between partons
#*********************************************************************
#
#*********************************************************************
# Store info for systematics studies                                 *
# WARNING: If use_syst is T, matched Pythia output is                *
#          meaningful ONLY if plotted taking matchscale              *
#          reweighting into account!                                 *
#*********************************************************************
   F  = use_syst      ! Enable systematics studies
#
#**************************************
# Parameter of the systematics study
#  will be used by SysCalc (if installed)
#**************************************                                  
#
0.5 1 2 = sys_scalefact  # factorization/renormalization scale factor
0.5 1 2 = sys_alpsfact  # \alpha_s emission scale factors
30 50 = sys_matchscale # variation of merging scale
# PDF sets and number of members (0 or none for all members).
CT10nlo.LHgrid = sys_pdf # matching scales
# MSTW2008nlo68cl.LHgrid 1  = sys_pdf
</MGRunCard>
<slha>
######################################################################
## PARAM_CARD AUTOMATICALY GENERATED BY MG5 FOLLOWING UFO MODEL   ####
######################################################################
##                                                                  ##
##  Width set on Auto will be computed following the information    ##
##        present in the decay.py files of the model.               ##
##        See  arXiv:1402.1178 for more details.                    ##
##                                                                  ##
######################################################################

###################################
## INFORMATION FOR CKMBLOCK
###################################
Block ckmblock 
    1 2.277360e-01 # cabi 

###################################
## INFORMATION FOR FRBLOCK
###################################
Block frblock 
    1 1.200000e+00 # gz 

###################################
## INFORMATION FOR MASS
###################################
Block mass 
    1 5.040000e-03 # MD 
    2 2.550000e-03 # MU 
    3 1.010000e-01 # MS 
    4 1.270000e+00 # MC 
    5 4.700000e+00 # MB 
    6 1.720000e+02 # MT 
   11 5.110000e-04 # Me 
   13 1.056600e-01 # MM 
   15 1.777000e+00 # MTA 
   23 9.118760e+01 # MZ 
   25 1.200000e+02 # MH 
  10030 1.200000e+03 # MZph 
  10031 3.000000e+02 # MZpl 
## Dependent parameters, given by model restrictions.
## Those values should be edited following the 
## analytical expression. MG5 ignores those values 
## but they are important for interfacing the output of MG5
## to external program such as Pythia.
  12 0.000000 # ve : 0.0 
  14 0.000000 # vm : 0.0 
  16 0.000000 # vt : 0.0 
  21 0.000000 # g : 0.0 
  22 0.000000 # a : 0.0 
  24 79.824360 # w+ : cmath.sqrt(MZ__exp__2/2. + cmath.sqrt(MZ__exp__4/4. - (aEW*cmath.pi*MZ__exp__2)/(Gf*sqrt__2))) 

###################################
## INFORMATION FOR SMINPUTS
###################################
Block sminputs 
    1 1.279000e+02 # aEWM1 
    2 1.166370e-05 # Gf 
    3 1.184000e-01 # aS 

###################################
## INFORMATION FOR YUKAWA
###################################
Block yukawa 
    1 5.040000e-03 # ymdo 
    2 2.550000e-03 # ymup 
    3 1.010000e-01 # yms 
    4 1.270000e+00 # ymc 
    5 4.700000e+00 # ymb 
    6 1.720000e+02 # ymt 
   11 5.110000e-04 # yme 
   13 1.056600e-01 # ymm 
   15 1.777000e+00 # ymtau 

###################################
## INFORMATION FOR DECAY
###################################
DECAY   6 1.508336e+00 # WT 
DECAY  23 2.495200e+00 # WZ 
DECAY  24 2.085000e+00 # WW 
DECAY  25 5.753088e-03 # WH 
## Dependent parameters, given by model restrictions.
## Those values should be edited following the 
## analytical expression. MG5 ignores those values 
## but they are important for interfacing the output of MG5
## to external program such as Pythia.
DECAY  1 0.000000 # d : 0.0 
DECAY  2 0.000000 # u : 0.0 
DECAY  3 0.000000 # s : 0.0 
DECAY  4 0.000000 # c : 0.0 
DECAY  5 0.000000 # b : 0.0 
DECAY  11 0.000000 # e- : 0.0 
DECAY  12 0.000000 # ve : 0.0 
DECAY  13 0.000000 # mu- : 0.0 
DECAY  14 0.000000 # vm : 0.0 
DECAY  15 0.000000 # ta- : 0.0 
DECAY  16 0.000000 # vt : 0.0 
DECAY  21 0.000000 # g : 0.0 
DECAY  22 0.000000 # a : 0.0 
DECAY  10030 0.308725 # zph : (gz__exp__2*MZph*(5 + cmath.sqrt(1 - (4*MT__exp__2)/MZph__exp__2)))/(144.*cmath.pi) 
DECAY  10031 0.132629 # zpl : (5*gz__exp__2*MZpl)/(144.*cmath.pi) 
#===========================================================
# QUANTUM NUMBERS OF NEW STATE(S) (NON SM PDG CODE)
#===========================================================

Block QNUMBERS 10030  # zph 
        1 0  # 3 times electric charge
        2 3  # number of spin states (2S+1)
        3 1  # colour rep (1: singlet, 3: triplet, 8: octet)
        4 0  # Particle/Antiparticle distinction (0=own anti)
Block QNUMBERS 10031  # zpl 
        1 0  # 3 times electric charge
        2 3  # number of spin states (2S+1)
        3 1  # colour rep (1: singlet, 3: triplet, 8: octet)
        4 0  # Particle/Antiparticle distinction (0=own anti)
</slha>
## END BANNER##
<MGGenerationInfo>
#  Number of Events        :         3993
#  Integrated weight (pb)  :  0.11180E+01
#  Max wgt                 :  0.37511E-03
#  Average wgt             :  0.27999E-03
</MGGenerationInfo>
</header>
<init>
     2212     2212  0.40000000000E+04  0.40000000000E+04 0 0  247000  247000 2   1
  0.11183775529E+01  0.21397223485E-02  0.37510910000E-03   0
</init>
<event>
 5   0  0.3626049E-03  0.1178224E+04  0.7818609E-02  0.9132134E-01
        2   -1    0    0  501    0  0.00000000000E+00  0.00000000000E+00  0.37197552330E+03  0.37197552331E+03  0.25500000920E-02 0.  1.
       -2   -1    0    0    0  501  0.00000000000E+00  0.00000000000E+00 -0.93299883712E+03  0.93299883713E+03  0.25500000920E-02 0. -1.
    10030    2    1    2    0    0  0.00000000000E+00  0.00000000000E+00 -0.56102331383E+03  0.13049743604E+04  0.11782236302E+04 0.  0.
        1    1    3    3  502    0 -0.56656757633E+03  0.11337350958E+02 -0.10217657437E+03  0.57581890074E+03  0.50400001928E-02 0.  1.
       -1    1    3    3    0  502  0.56656757633E+03 -0.11337350958E+02 -0.45884673946E+03  0.72915545970E+03  0.50400001928E-02 0. -1.
</event>
<event>
 5   0  0.3626049E-03  0.1199143E+04  0.7818609E-02  0.9113607E-01
        2   -1    0    0  501    0  0.00000000000E+00  0.00000000000E+00  0.21325322056E+04  0.21325322056E+04  0.25500000920E-02 0. -1.
       -2   -1    0    0    0  501  0.00000000000E+00  0.00000000000E+00 -0.16857248385E+03  0.16857248387E+03  0.25500000920E-02 0.  1.
    10030    2    1    2    0    0  0.00000000000E+00  0.00000000000E+00  0.19639597218E+04  0.23011046895E+04  0.11991434457E+04 0.  0.
        1    1    3    3  502    0 -0.62920072571E+02  0.44698961170E+03  0.22471459360E+03  0.50423734203E+03  0.50400001928E-02 0. -1.
       -1    1    3    3    0  502  0.62920072571E+02 -0.44698961170E+03  0.17392451282E+04  0.17968673475E+04  0.50400001928E-02 0.  1.
</event>
<event>
 5   0  0.3650180E-03  0.1210496E+04  0.7818609E-02  0.9103718E-01
       -2   -1    0    0    0  501  0.00000000000E+00  0.00000000000E+00  0.47683366544E+03  0.47683366545E+03  0.25500000920E-02 0.  1.
        2   -1    0    0  501    0  0.00000000000E+00  0.00000000000E+00 -0.76824570796E+03  0.76824570797E+03  0.25500000920E-02 0. -1.
    10030    2    1    2    0    0  0.00000000000E+00  0.00000000000E+00 -0.29141204252E+03  0.12450793734E+04  0.12104964550E+04 0.  0.
        3    1    3    3  502    0 -0.14045290821E+03 -0.24003528159E+03 -0.69863391578E+03  0.75195300007E+03  0.10100000352E+00 0. -1.
       -3    1    3    3    0  502  0.14045290821E+03  0.24003528159E+03  0.40722187326E+03  0.49312637335E+03  0.10100000352E+00 0.  1.
</event>
<event>
 5   0  0.3626049E-03  0.1199729E+04  0.7818609E-02  0.9113094E-01
        2   -1    0    0  501    0  0.00000000000E+00  0.00000000000E+00  0.54493520968E+03  0.54493520969E+03  0.25500000920E-02 0.  1.
       -2   -1    0    0    0  501  0.00000000000E+00  0.00000000000E+00 -0.66033076890E+03  0.66033076890E+03  0.25500000920E-02 0. -1.
    10030    2    1    2    0    0  0.00000000000E+00  0.00000000000E+00 -0.11539555921E+03  0.12052659786E+04  0.11997291128E+04 0.  0.
        1    1    3    3  502    0 -0.11545856907E+03  0.22203144778E+03  0.48998686173E+03  0.55019611928E+03  0.50400001928E-02 0.  1.
       -1    1    3    3    0  502  0.11545856907E+03 -0.22203144778E+03 -0.60538242094E+03  0.65506985932E+03  0.50400001928E-02 0. -1.
</event>
<event>
 5   0  0.3650180E-03  0.1186555E+04  0.7818609E-02  0.9124707E-01
       -2   -1    0    0    0  501  0.00000000000E+00  0.00000000000E+00  0.36632912317E+03  0.36632912318E+03  0.25500000920E-02 0.  1.
        2   -1    0    0  501    0  0.00000000000E+00  0.00000000000E+00 -0.96082440003E+03  0.96082440003E+03  0.25500000920E-02 0. -1.
    10030    2    1    2    0    0  0.00000000000E+00  0.00000000000E+00 -0.59449527686E+03  0.13271535232E+04  0.11865546089E+04 0.  0.
        3    1    3    3  502    0 -0.17516794096E+03  0.55454325350E+03 -0.16596908721E+03  0.60477084557E+03  0.10100000352E+00 0.  1.
       -3    1    3    3    0  502  0.17516794096E+03 -0.55454325350E+03 -0.42852618965E+03  0.72238267764E+03  0.10100000352E+00 0. -1.
</event>
<event>
 5   0  0.2047109E-03  0.1192497E+04  0.7818609E-02  0.9119449E-01
        1   -1    0    0  501    0  0.00000000000E+00  0.00000000000E+00  0.30712731674E+03  0.30712731678E+03  0.50400001928E-02 0.  1.
       -1   -1    0    0    0  501  0.00000000000E+00  0.00000000000E+00 -0.11575407066E+04  0.11575407066E+04  0.50400001928E-02 0. -1.
    10030    2    1    2    0    0  0.00000000000E+00  0.00000000000E+00 -0.85041338989E+03  0.14646680234E+04  0.11924971636E+04 0.  0.
        1    1    3    3  502    0 -0.55667863593E+03  0.47626776844E+01 -0.68748207550E+03  0.88461595676E+03  0.50400001928E-02 0. -1.
       -1    1    3    3    0  502  0.55667863593E+03 -0.47626776844E+01 -0.16293131439E+03  0.58005206666E+03  0.50400001928E-02 0.  1.
</event>
<event>
 5   0  0.2078258E-03  0.1202796E+04  0.7818609E-02  0.9110412E-01
        1   -1    0    0  501    0  0.00000000000E+00  0.00000000000E+00  0.13698883372E+04  0.13698883372E+04  0.50400001928E-02 0. -1.
       -1   -1    0    0    0  501  0.00000000000E+00  0.00000000000E+00 -0.26402131496E+03  0.26402131501E+03  0.50400001928E-02 0.  1.
    10030    2    1    2    0    0  0.00000000000E+00  0.00000000000E+00  0.11058670222E+04  0.16339096522E+04  0.12027962757E+04 0.  0.
        3    1    3    3  502    0  0.59221941675E+03 -0.80259009424E+02  0.64420481232E+03  0.87872930791E+03  0.10100000352E+00 0. -1.
       -3    1    3    3    0  502 -0.59221941675E+03  0.80259009424E+02  0.46166220991E+03  0.75518034430E+03  0.10100000352E+00 0.  1.
</event>
<event>
 5   0  0.3626049E-03  0.1203298E+04  0.7818609E-02  0.9109975E-01
       -2   -1    0    0    0  501  0.00000000000E+00  0.00000000000E+00  0.48020446258E+03  0.48020446259E+03  0.25500000920E-02 0.  1.
        2   -1    0    0  501    0  0.00000000000E+00  0.00000000000E+00 -0.75380694472E+03  0.75380694473E+03  0.25500000920E-02 0. -1.
    10030    2    1    2    0    0  0.00000000000E+00  0.00000000000E+00 -0.27360248214E+03  0.12340114073E+04  0.12032978996E+04 0.  0.
        1    1    3    3  502    0  0.25184746209E+03  0.41067578259E+03 -0.50641669136E+03  0.69895608437E+03  0.50400001928E-02 0. -1.
       -1    1    3    3    0  502 -0.25184746209E+03 -0.41067578259E+03  0.23281420922E+03  0.53505532294E+03  0.50400001928E-02 0.  1.
</event>
<event>
 5   0  0.2096270E-03  0.1199328E+04  0.7818609E-02  0.9113445E-01
        1   -1    0    0  501    0  0.00000000000E+00  0.00000000000E+00  0.65532341531E+03  0.65532341532E+03  0.50400001928E-02 0. -1.
       -1   -1    0    0    0  501  0.00000000000E+00  0.00000000000E+00 -0.54873193713E+03  0.54873193715E+03  0.50400001928E-02 0.  1.
    10030    2    1    2    0    0  0.00000000000E+00  0.00000000000E+00  0.10659147818E+03  0.12040553525E+04  0.11993279571E+04 0.  0.
        2    1    3    3  502    0 -0.16088389705E+03  0.25085640920E+03  0.57571628909E+03  0.64827603063E+03  0.25500000920E-02 0. -1.
       -2    1    3    3    0  502  0.16088389705E+03 -0.25085640920E+03 -0.46912481091E+03  0.55577932184E+03  0.25500000920E-02 0.  1.
</event>
<event>
 5   0  0.3626049E-03  0.1199032E+04  0.7818609E-02  0.9113704E-01
        2   -1    0    0  501    0  0.00000000000E+00  0.00000000000E+00  0.34053990905E+03  0.34053990906E+03  0.25500000920E-02 0.  1.
       -2   -1    0    0    0  501  0.00000000000E+00  0.00000000000E+00 -0.10554400418E+04  0.10554400418E+04  0.25500000920E-02 0. -1.
    10030    2    1    2    0    0  0.00000000000E+00  0.00000000000E+00 -0.71490013275E+03  0.13959799509E+04  0.11990320360E+04 0.  0.
        1    1    3    3  502    0 -0.32354620995E+03 -0.19277652101E+03  0.18561567907E+03  0.41987869363E+03  0.50400001928E-02 0.  1.
       -1    1    3    3    0  502  0.32354620995E+03  0.19277652101E+03 -0.90051581181E+03  0.97610125724E+03  0.50400001928E-02 0. -1.
</event>
<event>
 5   0  0.1397500E-03  0.1186814E+04  0.7818609E-02  0.9124477E-01
       -4   -1    0    0    0  501  0.00000000000E+00  0.00000000000E+00  0.16690378624E+03  0.16690861799E+03  0.12699999809E+01 0.  1.
        4   -1    0    0  501    0  0.00000000000E+00  0.00000000000E+00 -0.21097542607E+04  0.21097546429E+04  0.12699999809E+01 0. -1.
    10030    2    1    2    0    0  0.00000000000E+00  0.00000000000E+00 -0.19428504744E+04  0.22766632609E+04  0.11868140703E+04 0.  0.
        1    1    3    3  502    0  0.21501513499E+03  0.54343907770E+03 -0.11686872056E+04  0.13066703195E+04  0.50400001928E-02 0. -1.
       -1    1    3    3    0  502 -0.21501513499E+03 -0.54343907770E+03 -0.77416326886E+03  0.96999294138E+03  0.50400001928E-02 0.  1.
</event>
<event>
 5   0  0.3751091E-03  0.1195736E+04  0.7818609E-02  0.9116597E-01
        2   -1    0    0  501    0  0.00000000000E+00  0.00000000000E+00  0.13839659155E+04  0.13839659155E+04  0.25500000920E-02 0.  1.
       -2   -1    0    0    0  501  0.00000000000E+00  0.00000000000E+00 -0.25827669221E+03  0.25827669222E+03  0.25500000920E-02 0. -1.
    10030    2    1    2    0    0  0.00000000000E+00  0.00000000000E+00  0.11256892233E+04  0.16422426078E+04  0.11957359889E+04 0.  0.
        5    1    3    3  502    0 -0.16013897045E+03  0.38466635889E+03 -0.25983016020E+02  0.41750437679E+03  0.46999998093E+01 0. -1.
       -5    1    3    3    0  502  0.16013897045E+03 -0.38466635889E+03  0.11516722393E+04  0.12247382310E+04  0.46999998093E+01 0.  1.
</event>
<event>
 5   0  0.2025294E-03  0.1219182E+04  0.7818609E-02  0.9096231E-01
        1   -1    0    0  501    0  0.00000000000E+00  0.00000000000E+00  0.69165227993E+03  0.69165227995E+03  0.50400001928E-02 0. -1.
       -1   -1    0    0    0  501  0.00000000000E+00  0.00000000000E+00 -0.53726553812E+03  0.53726553814E+03  0.50400001928E-02 0.  1.
    10030    2    1    2    0    0  0.00000000000E+00  0.00000000000E+00  0.15438674181E+03  0.12289178181E+04  0.12191815852E+04 0.  0.
        5    1    3    3  502    0  0.53395655897E+03  0.28936984345E+02  0.37215953992E+03  0.65151497993E+03  0.46999998093E+01 0. -1.
       -5    1    3    3    0  502 -0.53395655897E+03 -0.28936984345E+02 -0.21777279811E+03  0.57740283816E+03  0.46999998093E+01 0.  1.
</event>
<event>
 5   0  0.1397500E-03  0.1201540E+04  0.7818609E-02  0.9111510E-01
       -3   -1    0    0    0  501  0.00000000000E+00  0.00000000000E+00  0.38629189293E+03  0.38629190613E+03  0.10100000352E+00 0. -1.
        3   -1    0    0  501    0  0.00000000000E+00  0.00000000000E+00 -0.93433073727E+03  0.93433074273E+03  0.10100000352E+00 0.  1.
    10030    2    1    2    0    0  0.00000000000E+00  0.00000000000E+00 -0.54803884434E+03  0.13206226489E+04  0.12015396813E+04 0.  0.
        3    1    3    3  502    0  0.38693875371E+03  0.37917613808E+03  0.11385567962E+02  0.54187247962E+03  0.10100000352E+00 0.  1.
       -3    1    3    3    0  502 -0.38693875371E+03 -0.37917613808E+03 -0.55942441230E+03  0.77875016924E+03  0.10100000352E+00 0. -1.
</event>
<event>
 5   0  0.2047109E-03  0.8855157E+03  0.7818609E-02  0.9443871E-01
        1   -1    0    0  501    0  0.00000000000E+00  0.00000000000E+00  0.82464501194E+03  0.82464501195E+03  0.50400001928E-02 0. -1.
       -1   -1    0    0    0  501  0.00000000000E+00  0.00000000000E+00 -0.23771986582E+03  0.23771986587E+03  0.50400001928E-02 0.  1.
    10030    2    1    2    0    0  0.00000000000E+00  0.00000000000E+00  0.58692514612E+03  0.10623648778E+04  0.88551567264E+03 0.  0.
        1    1    3    3  502    0  0.40020033256E+03 -0.82740836714E+02  0.89059638431E+02  0.41825586841E+03  0.50400001928E-02 0. -1.
       -1    1    3    3    0  502 -0.40020033256E+03  0.82740836714E+02  0.49786550769E+03  0.64410900941E+03  0.50400001928E-02 0.  1.
</event>
<event>
 5   0  0.2078258E-03  0.1215835E+04  0.7818609E-02  0.9099108E-01
        1   -1    0    0  501    0  0.00000000000E+00  0.00000000000E+00  0.56451846342E+03  0.56451846344E+03  0.50400001928E-02 0.  1.
       -1   -1    0    0    0  501  0.00000000000E+00  0.00000000000E+00 -0.65465301336E+03  0.65465301338E+03  0.50400001928E-02 0. -1.
    10030    2    1    2    0    0  0.00000000000E+00  0.00000000000E+00 -0.90134549941E+02  0.12191714768E+04  0.12158350434E+04 0.  0.
        3    1    3    3  502    0 -0.54974942050E+03  0.77883335066E+02 -0.29328132030E+03  0.62793644763E+03  0.10100000352E+00 0. -1.
       -3    1    3    3    0  502  0.54974942050E+03 -0.77883335066E+02  0.20314677036E+03  0.59123502918E+03  0.10100000352E+00 0.  1.
</event>
<event>
 5   0  0.2078258E-03  0.1195396E+04  0.7818609E-02  0.9116896E-01
        1   -1    0    0  501    0  0.00000000000E+00  0.00000000000E+00  0.12374740280E+04  0.12374740280E+04  0.50400001928E-02 0.  1.
       -1   -1    0    0    0  501  0.00000000000E+00  0.00000000000E+00 -0.28868695121E+03  0.28868695125E+03  0.50400001928E-02 0. -1.
    10030    2    1    2    0    0  0.00000000000E+00  0.00000000000E+00  0.94878707681E+03  0.15261609793E+04  0.11953955068E+04 0.  0.
        3    1    3    3  502    0 -0.29099977834E+03 -0.30377291580E+03 -0.67690980096E+02  0.42607620721E+03  0.10100000352E+00 0. -1.
       -3    1    3    3    0  502  0.29099977834E+03  0.30377291580E+03  0.10164780569E+04  0.11000847721E+04  0.10100000352E+00 0.  1.
</event>
<event>
 5   0  0.3626049E-03  0.1204155E+04  0.7818609E-02  0.9109228E-01
        2   -1    0    0  501    0  0.00000000000E+00  0.00000000000E+00  0.26721240206E+04  0.26721240207E+04  0.25500000920E-02 0.  1.
       -2   -1    0    0    0  501  0.00000000000E+00  0.00000000000E+00 -0.13565883556E+03  0.13565883558E+03  0.25500000920E-02 0. -1.
    10030    2    1    2    0    0  0.00000000000E+00  0.00000000000E+00  0.25364651851E+04  0.28077828562E+04  0.12041548624E+04 0.  0.
        1    1    3    3  502    0  0.51739637777E+03  0.10070263184E+03  0.19466752207E+04  0.20167757552E+04  0.50400001928E-02 0.  1.
       -1    1    3    3    0  502 -0.51739637777E+03 -0.10070263184E+03  0.58978996441E+03  0.79100710106E+03  0.50400001928E-02 0. -1.
</event>
<event>
 5   0  0.2134992E-03  0.1217028E+04  0.7818609E-02  0.9098081E-01
       -1   -1    0    0    0  501  0.00000000000E+00  0.00000000000E+00  0.78320909092E+03  0.78320909094E+03  0.50400001928E-02 0.  1.
        1   -1    0    0  501    0  0.00000000000E+00  0.00000000000E+00 -0.47278504093E+03  0.47278504096E+03  0.50400001928E-02 0. -1.
    10030    2    1    2    0    0  0.00000000000E+00  0.00000000000E+00  0.31042404999E+03  0.12559941319E+04  0.12170284173E+04 0.  0.
        4    1    3    3  502    0  0.20223242000E+03  0.49819017875E+03  0.44928533398E+03  0.70067847842E+03  0.12699999809E+01 0.  1.
       -4    1    3    3    0  502 -0.20223242000E+03 -0.49819017875E+03 -0.13886128399E+03  0.55531565347E+03  0.12699999809E+01 0. -1.
</event>
<event>
 5   0  0.2047109E-03  0.1192230E+04  0.7818609E-02  0.9119685E-01
        1   -1    0    0  501    0  0.00000000000E+00  0.00000000000E+00  0.20598629150E+03  0.20598629157E+03  0.50400001928E-02 0.  1.
       -1   -1    0    0    0  501  0.00000000000E+00  0.00000000000E+00 -0.17251301281E+04  0.17251301281E+04  0.50400001928E-02 0. -1.
    10030    2    1    2    0    0  0.00000000000E+00  0.00000000000E+00 -0.15191438366E+04  0.19311164197E+04  0.11922301079E+04 0.  0.
        1    1    3    3  502    0  0.25101509078E+03 -0.41987747132E+03 -0.13113522917E+04  0.13996251282E+04  0.50400001928E-02 0. -1.
       -1    1    3    3    0  502 -0.25101509078E+03  0.41987747132E+03 -0.20779154496E+03  0.53149129146E+03  0.50400001928E-02 0.  1.
</event>
<event>
 5   0  0.3706035E-03  0.1188104E+04  0.7818609E-02  0.9123333E-01
        2   -1    0    0  501    0  0.00000000000E+00  0.00000000000E+00  0.11200659395E+04  0.11200659395E+04  0.25500000920E-02 0.  1.
       -2   -1    0    0    0  501  0.00000000000E+00  0.00000000000E+00 -0.31506895109E+03  0.31506895110E+03  0.25500000920E-02 0. -1.
    10030    2    1    2    0    0  0.00000000000E+00  0.00000000000E+00  0.80499698841E+03  0.14351348906E+04  0.11881043737E+04 0.  0.
        2    1    3    3  502    0 -0.31354275578E+03  0.25176433651E+03 -0.12568670694E+03  0.42129738801E+03  0.25500000920E-02 0. -1.
       -2    1    3    3    0  502  0.31354275578E+03 -0.25176433651E+03  0.93068369535E+03  0.10138375026E+04  0.25500000920E-02 0.  1.
</event>
<event>
 5   0  0.2078258E-03  0.1203520E+04  0.7818609E-02  0.9109781E-01
       -1   -1    0    0    0  501  0.00000000000E+00  0.00000000000E+00  0.25470366481E+03  0.25470366486E+03  0.50400001928E-02 0. -1.
        1   -1    0    0  501    0  0.00000000000E+00  0.00000000000E+00 -0.14217116764E+04  0.14217116764E+04  0.50400001928E-02 0.  1.
    10030    2    1    2    0    0  0.00000000000E+00  0.00000000000E+00 -0.11670080116E+04  0.16764153412E+04  0.12035201275E+04 0.  0.
        3    1    3    3  502    0  0.37119093923E+02 -0.48902626989E+03 -0.97792547725E+02  0.50008790464E+03  0.10100000352E+00 0. -1.
       -3    1    3    3    0  502 -0.37119093923E+02  0.48902626989E+03 -0.10692154638E+04  0.11763274366E+04  0.10100000352E+00 0.  1.
</event>
<event>
 5   0  0.1397500E-03  0.1326170E+04  0.7818609E-02  0.9009066E-01
        3   -1    0    0  501    0  0.00000000000E+00  0.00000000000E+00  0.85579890889E+03  0.85579891485E+03  0.10100000352E+00 0. -1.
       -3   -1    0    0    0  501  0.00000000000E+00  0.00000000000E+00 -0.51376769241E+03  0.51376770234E+03  0.10100000352E+00 0.  1.
    10030    2    1    2    0    0  0.00000000000E+00  0.00000000000E+00  0.34203121648E+03  0.13695666172E+04  0.13261701874E+04 0.  0.
        5    1    3    3  502    0 -0.50596129975E+03  0.10019397876E+03 -0.25930176608E+03  0.57731721446E+03  0.46999998093E+01 0.  1.
       -5    1    3    3    0  502  0.50596129975E+03 -0.10019397876E+03  0.60133298256E+03  0.79224940274E+03  0.46999998093E+01 0. -1.
</event>
<event>
 5   0  0.3650180E-03  0.1224304E+04  0.7818609E-02  0.9091845E-01
        2   -1    0    0  501    0  0.00000000000E+00  0.00000000000E+00  0.23995524961E+04  0.23995524961E+04  0.25500000920E-02 0. -1.
       -2   -1    0    0    0  501  0.00000000000E+00  0.00000000000E+00 -0.15616666475E+03  0.15616666477E+03  0.25500000920E-02 0.  1.
    10030    2    1    2    0    0  0.00000000000E+00  0.00000000000E+00  0.22433858313E+04  0.25557191608E+04  0.12243040639E+04 0.  0.
        3    1    3    3  502    0  0.58627107456E+03  0.62158461045E+02  0.77771546635E+03  0.97591946591E+03  0.10100000352E+00 0.  1.
       -3    1    3    3    0  502 -0.58627107456E+03 -0.62158461045E+02  0.14656703650E+04  0.15797996949E+04  0.10100000352E+00 0. -1.
</event>
<event>
 5   0  0.2047109E-03  0.1203228E+04  0.7818609E-02  0.9110035E-01
        1   -1    0    0  501    0  0.00000000000E+00  0.00000000000E+00  0.76504744351E+03  0.76504744353E+03  0.50400001928E-02 0. -1.
       -1   -1    0    0    0  501  0.00000000000E+00  0.00000000000E+00 -0.47309442554E+03  0.47309442557E+03  0.50400001928E-02 0.  1.
    10030    2    1    2    0    0  0.00000000000E+00  0.00000000000E+00  0.29195301797E+03  0.12381418691E+04  0.12032284585E+04 0.  0.
        1    1    3    3  502    0 -0.33750576394E+03 -0.25133894286E+03 -0.29645063476E+03  0.51474691234E+03  0.50400001928E-02 0.  1.
       -1    1    3    3    0  502  0.33750576394E+03  0.25133894286E+03  0.58840365273E+03  0.72339495676E+03  0.50400001928E-02 0. -1.
</event>
<event>
 5   0  0.3706035E-03  0.1206192E+04  0.7818609E-02  0.9107454E-01
       -2   -1    0    0    0  501  0.00000000000E+00  0.00000000000E+00  0.22676991633E+03  0.22676991635E+03  0.25500000920E-02 0. -1.
        2   -1    0    0  501    0  0.00000000000E+00  0.00000000000E+00 -0.16039366729E+04  0.16039366730E+04  0.25500000920E-02 0.  1.
    10030    2    1    2    0    0  0.00000000000E+00  0.00000000000E+00 -0.13771667566E+04  0.18307065893E+04  0.12061916683E+04 0.  0.
        2    1    3    3  502    0 -0.25255640169E+03  0.27285802190E+03 -0.14092998932E+04  0.14575192709E+04  0.25500000920E-02 0.  1.
       -2    1    3    3    0  502  0.25255640169E+03 -0.27285802190E+03  0.32133136546E+02  0.37318731840E+03  0.25500000920E-02 0. -1.
</event>
<event>
 5   0  0.2096270E-03  0.1172725E+04  0.7818609E-02  0.9137071E-01
        1   -1    0    0  501    0  0.00000000000E+00  0.00000000000E+00  0.67100551867E+03  0.67100551869E+03  0.50400001928E-02 0.  1.
       -1   -1    0    0    0  501  0.00000000000E+00  0.00000000000E+00 -0.51239655777E+03  0.51239655779E+03  0.50400001928E-02 0. -1.
    10030    2    1    2    0    0  0.00000000000E+00  0.00000000000E+00  0.15860896090E+03  0.11834020765E+04  0.11727248919E+04 0.  0.
        2    1    3    3  502    0  0.69336651152E+02  0.56344736826E+03  0.22740724543E+03  0.61155094904E+03  0.25500000920E-02 0. -1.
       -2    1    3    3    0  502 -0.69336651152E+02 -0.56344736826E+03 -0.68798284535E+02  0.57185112744E+03  0.25500000920E-02 0.  1.
</event>
<event>
 5   0  0.3650180E-03  0.1189233E+04  0.7818609E-02  0.9122333E-01
        2   -1    0    0  501    0  0.00000000000E+00  0.00000000000E+00  0.88606009002E+03  0.88606009002E+03  0.25500000920E-02 0. -1.
       -2   -1    0    0    0  501  0.00000000000E+00  0.00000000000E+00 -0.39903482720E+03  0.39903482720E+03  0.25500000920E-02 0.  1.
    10030    2    1    2    0    0  0.00000000000E+00  0.00000000000E+00  0.48702526282E+03  0.12850949172E+04  0.11892330889E+04 0.  0.
        3    1    3    3  502    0  0.16832431029E+03  0.47462860693E+03 -0.98143178927E+02  0.51306674198E+03  0.10100000352E+00 0.  1.
       -3    1    3    3    0  502 -0.16832431029E+03 -0.47462860693E+03  0.58516844175E+03  0.77202817525E+03  0.10100000352E+00 0. -1.
</event>
<event>
 5   0  0.3751091E-03  0.1208455E+04  0.7818609E-02  0.9105488E-01
        2   -1    0    0  501    0  0.00000000000E+00  0.00000000000E+00  0.45145518765E+03  0.45145518766E+03  0.25500000920E-02 0.  1.
       -2   -1    0    0    0  501  0.00000000000E+00  0.00000000000E+00 -0.80869761585E+03  0.80869761585E+03  0.25500000920E-02 0. -1.
    10030    2    1    2    0    0  0.00000000000E+00  0.00000000000E+00 -0.35724242820E+03  0.12601528035E+04  0.12084547719E+04 0.  0.
        5    1    3    3  502    0 -0.26970416025E+03  0.53761067231E+03 -0.23855228240E+03  0.64706634163E+03  0.46999998093E+01 0. -1.
       -5    1    3    3    0  502  0.26970416025E+03 -0.53761067231E+03 -0.11869014580E+03  0.61308646188E+03  0.46999998093E+01 0.  1.
</event>
<event>
 5   0  0.2096270E-03  0.1191234E+04  0.7818609E-02  0.9120564E-01
        1   -1    0    0  501    0  0.00000000000E+00  0.00000000000E+00  0.13267404878E+04  0.13267404878E+04  0.50400001928E-02 0.  1.
       -1   -1    0    0    0  501  0.00000000000E+00  0.00000000000E+00 -0.26739171054E+03  0.26739171059E+03  0.50400001928E-02 0. -1.
    10030    2    1    2    0    0  0.00000000000E+00  0.00000000000E+00  0.10593487772E+04  0.15941321984E+04  0.11912336606E+04 0.  0.
        2    1    3    3  502    0  0.43114147482E+03 -0.33638825382E+03  0.84556048738E+03  0.10069819097E+04  0.25500000920E-02 0. -1.
       -2    1    3    3    0  502 -0.43114147482E+03  0.33638825382E+03  0.21378828985E+03  0.58715028868E+03  0.25500000920E-02 0.  1.
</event>
<event>
 5   0  0.3650180E-03  0.1445360E+04  0.7818609E-02  0.8921623E-01
        2   -1    0    0  501    0  0.00000000000E+00  0.00000000000E+00  0.35426297244E+03  0.35426297245E+03  0.25500000920E-02 0.  1.
       -2   -1    0    0    0  501  0.00000000000E+00  0.00000000000E+00 -0.14742344534E+04  0.14742344534E+04  0.25500000920E-02 0. -1.
    10030    2    1    2    0    0  0.00000000000E+00  0.00000000000E+00 -0.11199714809E+04  0.18284974258E+04  0.14453604112E+04 0.  0.
        3    1    3    3  502    0 -0.23899455870E+03  0.29027685890E+03 -0.13407440662E+04  0.13924703642E+04  0.10100000352E+00 0. -1.
       -3    1    3    3    0  502  0.23899455870E+03 -0.29027685890E+03  0.22077258524E+03  0.43602706166E+03  0.10100000352E+00 0.  1.
</event>
<event>
 5   0  0.3626049E-03  0.1200390E+04  0.7818609E-02  0.9112515E-01
       -2   -1    0    0    0  501  0.00000000000E+00  0.00000000000E+00  0.27951172853E+03  0.27951172854E+03  0.25500000920E-02 0.  1.
        2   -1    0    0  501    0  0.00000000000E+00  0.00000000000E+00 -0.12887985802E+04  0.12887985802E+04  0.25500000920E-02 0. -1.
    10030    2    1    2    0    0  0.00000000000E+00  0.00000000000E+00 -0.10092868517E+04  0.15683103088E+04  0.12003904680E+04 0.  0.
        1    1    3    3  502    0  0.68693732278E+02  0.44657503697E+03 -0.10208122254E+04  0.11163358330E+04  0.50400001928E-02 0. -1.
       -1    1    3    3    0  502 -0.68693732278E+02 -0.44657503697E+03  0.11525373675E+02  0.45197447579E+03  0.50400001928E-02 0.  1.
</event>
<event>
 5   0  0.2025294E-03  0.1227956E+04  0.7818609E-02  0.9088732E-01
        1   -1    0    0  501    0  0.00000000000E+00  0.00000000000E+00  0.75181179924E+03  0.75181179925E+03  0.50400001928E-02 0. -1.
       -1   -1    0    0    0  501  0.00000000000E+00  0.00000000000E+00 -0.50141434142E+03  0.50141434145E+03  0.50400001928E-02 0.  1.
    10030    2    1    2    0    0  0.00000000000E+00  0.00000000000E+00  0.25039745781E+03  0.12532261407E+04  0.12279563807E+04 0.  0.
        5    1    3    3  502    0 -0.28902804009E+03  0.35773855056E+02 -0.42641453054E+03  0.51639947571E+03  0.46999998093E+01 0.  1.
       -5    1    3    3    0  502  0.28902804009E+03 -0.35773855056E+02  0.67681198835E+03  0.73682666499E+03  0.46999998093E+01 0. -1.
</event>
<event>
 5   0  0.3650180E-03  0.1202879E+04  0.7818609E-02  0.9110340E-01
       -2   -1    0    0    0  501  0.00000000000E+00  0.00000000000E+00  0.32516082893E+03  0.32516082894E+03  0.25500000920E-02 0. -1.
        2   -1    0    0  501    0  0.00000000000E+00  0.00000000000E+00 -0.11124635872E+04  0.11124635872E+04  0.25500000920E-02 0.  1.
    10030    2    1    2    0    0  0.00000000000E+00  0.00000000000E+00 -0.78730275822E+03  0.14376244161E+04  0.12028791829E+04 0.  0.
        3    1    3    3  502    0  0.53252454577E+03 -0.26624852754E+03 -0.49547742717E+03  0.77457637538E+03  0.10100000352E+00 0.  1.
       -3    1    3    3    0  502 -0.53252454577E+03  0.26624852754E+03 -0.29182533105E+03  0.66304804072E+03  0.10100000352E+00 0. -1.
</event>
<event>
 5   0  0.2134992E-03  0.1216328E+04  0.7818609E-02  0.9098683E-01
       -1   -1    0    0    0  501  0.00000000000E+00  0.00000000000E+00  0.29093438369E+03  0.29093438374E+03  0.50400001928E-02 0.  1.
        1   -1    0    0  501    0  0.00000000000E+00  0.00000000000E+00 -0.12712953339E+04  0.12712953339E+04  0.50400001928E-02 0. -1.
    10030    2    1    2    0    0  0.00000000000E+00  0.00000000000E+00 -0.98036095020E+03  0.15622297176E+04  0.12163281210E+04 0.  0.
        4    1    3    3  502    0  0.42978375900E+02  0.73736249848E+02 -0.12635636398E+04  0.12664433900E+04  0.12699999809E+01 0. -1.
       -4    1    3    3    0  502 -0.42978375900E+02 -0.73736249848E+02  0.28320268959E+03  0.29578632765E+03  0.12699999809E+01 0.  1.
</event>
<event>
 5   0  0.2047109E-03  0.1170620E+04  0.7818609E-02  0.9138969E-01
        1   -1    0    0  501    0  0.00000000000E+00  0.00000000000E+00  0.11771562170E+04  0.11771562170E+04  0.50400001928E-02 0.  1.
       -1   -1    0    0    0  501  0.00000000000E+00  0.00000000000E+00 -0.29103011617E+03  0.29103011622E+03  0.50400001928E-02 0. -1.
    10030    2    1    2    0    0  0.00000000000E+00  0.00000000000E+00  0.88612610084E+03  0.14681863332E+04  0.11706201957E+04 0.  0.
        1    1    3    3  502    0  0.54041395383E+03  0.21956519601E+03  0.50362644897E+03  0.77064629819E+03  0.50400001928E-02 0. -1.
       -1    1    3    3    0  502 -0.54041395383E+03 -0.21956519601E+03  0.38249965187E+03  0.69754003505E+03  0.50400001928E-02 0.  1.
</event>
<event>
 5   0  0.2078258E-03  0.1196259E+04  0.7818609E-02  0.9116137E-01
        1   -1    0    0  501    0  0.00000000000E+00  0.00000000000E+00  0.52106885576E+03  0.52106885578E+03  0.50400001928E-02 0. -1.
       -1   -1    0    0    0  501  0.00000000000E+00  0.00000000000E+00 -0.68658679218E+03  0.68658679219E+03  0.50400001928E-02 0.  1.
    10030    2    1    2    0    0  0.00000000000E+00  0.00000000000E+00 -0.16551793642E+03  0.12076556480E+04  0.11962591595E+04 0.  0.
        3    1    3    3  502    0 -0.42903825133E+03  0.41027735119E+03 -0.15665231452E+03  0.61395544126E+03  0.10100000352E+00 0.  1.
       -3    1    3    3    0  502  0.42903825133E+03 -0.41027735119E+03 -0.88656219033E+01  0.59370020672E+03  0.10100000352E+00 0. -1.
</event>
<event>
 5   0  0.3725376E-03  0.1247217E+04  0.7818609E-02  0.9072503E-01
       -2   -1    0    0    0  501  0.00000000000E+00  0.00000000000E+00  0.16374150789E+03  0.16374150791E+03  0.25500000920E-02 0.  1.
        2   -1    0    0  501    0  0.00000000000E+00  0.00000000000E+00 -0.23750097272E+04  0.23750097272E+04  0.25500000920E-02 0. -1.
    10030    2    1    2    0    0  0.00000000000E+00  0.00000000000E+00 -0.22112682193E+04  0.25387512352E+04  0.12472171808E+04 0.  0.
        4    1    3    3  502    0 -0.22387250490E+03 -0.51967251659E+03 -0.57207741572E+03  0.80464439688E+03  0.12699999809E+01 0.  1.
       -4    1    3    3    0  502  0.22387250490E+03  0.51967251659E+03 -0.16391908036E+04  0.17341068383E+04  0.12699999809E+01 0. -1.
</event>
<event>
 5   0  0.3725376E-03  0.1235726E+04  0.7818609E-02  0.9082147E-01
       -2   -1    0    0    0  501  0.00000000000E+00  0.00000000000E+00  0.13145166250E+04  0.13145166250E+04  0.25500000920E-02 0.  1.
        2   -1    0    0  501    0  0.00000000000E+00  0.00000000000E+00 -0.29041471897E+03  0.29041471898E+03  0.25500000920E-02 0. -1.
    10030    2    1    2    0    0  0.00000000000E+00  0.00000000000E+00  0.10241019060E+04  0.16049313440E+04  0.12357264685E+04 0.  0.
        4    1    3    3  502    0  0.52660294004E+03 -0.20207826665E+03  0.18449398482E+03  0.59345254709E+03  0.12699999809E+01 0. -1.
       -4    1    3    3    0  502 -0.52660294004E+03  0.20207826665E+03  0.83960792123E+03  0.10114787969E+04  0.12699999809E+01 0.  1.
</event>
<event>
 5   0  0.1397500E-03  0.1202774E+04  0.7818609E-02  0.9110432E-01
       -4   -1    0    0    0  501  0.00000000000E+00  0.00000000000E+00  0.11456496507E+04  0.11456503546E+04  0.12699999809E+01 0. -1.
        4   -1    0    0  501    0  0.00000000000E+00  0.00000000000E+00 -0.31568480696E+03  0.31568736155E+03  0.12699999809E+01 0.  1.
    10030    2    1    2    0    0  0.00000000000E+00  0.00000000000E+00  0.82996484372E+03  0.14613377161E+04  0.12027744090E+04 0.  0.
        5    1    3    3  502    0 -0.14469712861E+03  0.54527209418E+03  0.66805147362E+03  0.87439909488E+03  0.46999998093E+01 0. -1.
       -5    1    3    3    0  502  0.14469712861E+03 -0.54527209418E+03  0.16191337010E+03  0.58693862127E+03  0.46999998093E+01 0.  1.
</event>
<event>
 5   0  0.2078258E-03  0.1210850E+04  0.7818609E-02  0.9103413E-01
       -1   -1    0    0    0  501  0.00000000000E+00  0.00000000000E+00  0.48865055389E+03  0.48865055392E+03  0.50400001928E-02 0.  1.
        1   -1    0    0  501    0  0.00000000000E+00  0.00000000000E+00 -0.75010489205E+03  0.75010489207E+03  0.50400001928E-02 0. -1.
    10030    2    1    2    0    0  0.00000000000E+00  0.00000000000E+00 -0.26145433816E+03  0.12387554460E+04  0.12108495712E+04 0.  0.
        3    1    3    3  502    0  0.15021323934E+03 -0.16467583209E+03  0.44514626853E+03  0.49783266018E+03  0.10100000352E+00 0.  1.
       -3    1    3    3    0  502 -0.15021323934E+03  0.16467583209E+03 -0.70660060669E+03  0.74092278581E+03  0.10100000352E+00 0. -1.
</event>
<event>
 5   0  0.2025294E-03  0.1255897E+04  0.7818609E-02  0.9065289E-01
       -1   -1    0    0    0  501  0.00000000000E+00  0.00000000000E+00  0.70517447351E+03  0.70517447353E+03  0.50400001928E-02 0. -1.
        1   -1    0    0  501    0  0.00000000000E+00  0.00000000000E+00 -0.55917986621E+03  0.55917986623E+03  0.50400001928E-02 0.  1.
    10030    2    1    2    0    0  0.00000000000E+00  0.00000000000E+00  0.14599460731E+03  0.12643543398E+04  0.12558970782E+04 0.  0.
        5    1    3    3  502    0  0.34569285681E+03  0.42088355788E+03 -0.24159823621E+03  0.59585091951E+03  0.46999998093E+01 0.  1.
       -5    1    3    3    0  502 -0.34569285681E+03 -0.42088355788E+03  0.38759284351E+03  0.66850342025E+03  0.46999998093E+01 0. -1.
</event>
<event>
 5   0  0.3706035E-03  0.1205222E+04  0.7818609E-02  0.9108298E-01
       -2   -1    0    0    0  501  0.00000000000E+00  0.00000000000E+00  0.26717489836E+03  0.26717489837E+03  0.25500000920E-02 0.  1.
        2   -1    0    0  501    0  0.00000000000E+00  0.00000000000E+00 -0.13591851980E+04  0.13591851980E+04  0.25500000920E-02 0. -1.
    10030    2    1    2    0    0  0.00000000000E+00  0.00000000000E+00 -0.10920102996E+04  0.16263600963E+04  0.12052222486E+04 0.  0.
        2    1    3    3  502    0 -0.58973606912E+03 -0.12355490456E+03 -0.53351135521E+03  0.80479116037E+03  0.25500000920E-02 0.  1.
       -2    1    3    3    0  502  0.58973606912E+03  0.12355490456E+03 -0.55849894438E+03  0.82156893596E+03  0.25500000920E-02 0. -1.
</event>
<event>
 5   0  0.3650180E-03  0.1176696E+04  0.7818609E-02  0.9133502E-01
       -2   -1    0    0    0  501  0.00000000000E+00  0.00000000000E+00  0.30082146541E+03  0.30082146542E+03  0.25500000920E-02 0.  1.
        2   -1    0    0  501    0  0.00000000000E+00  0.00000000000E+00 -0.11506940503E+04  0.11506940503E+04  0.25500000920E-02 0. -1.
    10030    2    1    2    0    0  0.00000000000E+00  0.00000000000E+00 -0.84987258487E+03  0.14515155157E+04  0.11766961723E+04 0.  0.
        3    1    3    3  502    0 -0.51998930180E+02  0.48373768543E+03 -0.83303020107E+03  0.96469962327E+03  0.10100000352E+00 0. -1.
       -3    1    3    3    0  502  0.51998930180E+02 -0.48373768543E+03 -0.16842383806E+02  0.48681589244E+03  0.10100000352E+00 0.  1.
</event>
<event>
 5   0  0.3626049E-03  0.1224673E+04  0.7818609E-02  0.9091531E-01
       -2   -1    0    0    0  501  0.00000000000E+00  0.00000000000E+00  0.38640228290E+03  0.38640228290E+03  0.25500000920E-02 0. -1.
        2   -1    0    0  501    0  0.00000000000E+00  0.00000000000E+00 -0.97037651990E+03  0.97037651990E+03  0.25500000920E-02 0.  1.
    10030    2    1    2    0    0  0.00000000000E+00  0.00000000000E+00 -0.58397423700E+03  0.13567788028E+04  0.12246725318E+04 0.  0.
        1    1    3    3  502    0 -0.44355151623E+03 -0.25223841160E+03  0.83045582890E+02  0.51697072712E+03  0.50400001928E-02 0. -1.
       -1    1    3    3    0  502  0.44355151623E+03  0.25223841160E+03 -0.66701981989E+03  0.83980807569E+03  0.50400001928E-02 0.  1.
</event>
<event>
 5   0  0.3706035E-03  0.1326957E+04  0.7818609E-02  0.9008457E-01
       -2   -1    0    0    0  501  0.00000000000E+00  0.00000000000E+00  0.44781432865E+03  0.44781432866E+03  0.25500000920E-02 0. -1.
        2   -1    0    0  501    0  0.00000000000E+00  0.00000000000E+00 -0.98300489331E+03  0.98300489332E+03  0.25500000920E-02 0.  1.
    10030    2    1    2    0    0  0.00000000000E+00  0.00000000000E+00 -0.53519056466E+03  0.14308192220E+04  0.13269569343E+04 0.  0.
        2    1    3    3  502    0 -0.63632105864E+02  0.49427324709E+03 -0.73988364220E+03  0.89206664084E+03  0.25500000920E-02 0.  1.
       -2    1    3    3    0  502  0.63632105864E+02 -0.49427324709E+03  0.20469307754E+03  0.53875258114E+03  0.25500000920E-02 0. -1.
</event>
<event>
 5   0  0.3650180E-03  0.1222200E+04  0.7818609E-02  0.9093644E-01
       -2   -1    0    0    0  501  0.00000000000E+00  0.00000000000E+00  0.51345575055E+03  0.51345575056E+03  0.25500000920E-02 0.  1.
        2   -1    0    0  501    0  0.00000000000E+00  0.00000000000E+00 -0.72731361961E+03  0.72731361961E+03  0.25500000920E-02 0. -1.
    10030    2    1    2    0    0  0.00000000000E+00  0.00000000000E+00 -0.21385786906E+03  0.12407693702E+04  0.12222002462E+04 0.  0.
        3    1    3    3  502    0 -0.54345877880E+03 -0.23839185319E+03 -0.25497052507E+03  0.64590099766E+03  0.10100000352E+00 0. -1.
       -3    1    3    3    0  502  0.54345877880E+03  0.23839185319E+03  0.41112656017E+02  0.59486837251E+03  0.10100000352E+00 0.  1.
</event>
<event>
 5   0  0.2078258E-03  0.1188399E+04  0.7818609E-02  0.9123072E-01
        1   -1    0    0  501    0  0.00000000000E+00  0.00000000000E+00  0.54770573932E+03  0.54770573934E+03  0.50400001928E-02 0.  1.
       -1   -1    0    0    0  501  0.00000000000E+00  0.00000000000E+00 -0.64463950280E+03  0.64463950282E+03  0.50400001928E-02 0. -1.
    10030    2    1    2    0    0  0.00000000000E+00  0.00000000000E+00 -0.96933763482E+02  0.11923452422E+04  0.11883985114E+04 0.  0.
        3    1    3    3  502    0 -0.19910541246E+03 -0.55079029835E+03  0.52164905463E+02  0.58799158633E+03  0.10100000352E+00 0.  1.
       -3    1    3    3    0  502  0.19910541246E+03  0.55079029835E+03 -0.14909866895E+03  0.60435365583E+03  0.10100000352E+00 0. -1.
</event>
<event>
 5   0  0.3751091E-03  0.1177893E+04  0.7818609E-02  0.9132430E-01
        2   -1    0    0  501    0  0.00000000000E+00  0.00000000000E+00  0.14026181436E+04  0.14026181436E+04  0.25500000920E-02 0.  1.
       -2   -1    0    0    0  501  0.00000000000E+00  0.00000000000E+00 -0.24729303525E+03  0.24729303527E+03  0.25500000920E-02 0. -1.
    10030    2    1    2    0    0  0.00000000000E+00  0.00000000000E+00  0.11553251083E+04  0.16499111788E+04  0.11778925215E+04 0.  0.
        5    1    3    3  502    0 -0.26456692894E+03  0.12945682822E+03  0.12920093676E+04  0.13251660372E+04  0.46999998093E+01 0.  1.
       -5    1    3    3    0  502  0.26456692894E+03 -0.12945682822E+03 -0.13668425929E+03  0.32474514161E+03  0.46999998093E+01 0. -1.
</event>
<event>
 5   0  0.2025294E-03  0.1059655E+04  0.7818609E-02  0.9245433E-01
        1   -1    0    0  501    0  0.00000000000E+00  0.00000000000E+00  0.69375949404E+03  0.69375949405E+03  0.50400001928E-02 0.  1.
       -1   -1    0    0    0  501  0.00000000000E+00  0.00000000000E+00 -0.40463160903E+03  0.40463160906E+03  0.50400001928E-02 0. -1.
    10030    2    1    2    0    0  0.00000000000E+00  0.00000000000E+00  0.28912788500E+03  0.10983911031E+04  0.10596546992E+04 0.  0.
        5    1    3    3  502    0  0.66698898534E+02  0.24235656142E+02  0.68878906362E+03  0.69245113492E+03  0.46999998093E+01 0.  1.
       -5    1    3    3    0  502 -0.66698898534E+02 -0.24235656142E+02 -0.39966117861E+03  0.40593996820E+03  0.46999998093E+01 0. -1.
</event>
<event>
 5   0  0.2078258E-03  0.1214559E+04  0.7818609E-02  0.9100208E-01
        1   -1    0    0  501    0  0.00000000000E+00  0.00000000000E+00  0.62216318332E+03  0.62216318334E+03  0.50400001928E-02 0. -1.
       -1   -1    0    0    0  501  0.00000000000E+00  0.00000000000E+00 -0.59275157299E+03  0.59275157301E+03  0.50400001928E-02 0.  1.
    10030    2    1    2    0    0  0.00000000000E+00  0.00000000000E+00  0.29411610338E+02  0.12149147564E+04  0.12145586945E+04 0.  0.
        3    1    3    3  502    0  0.23706630434E+03 -0.36499646964E+03  0.43834541773E+03  0.61771317855E+03  0.10100000352E+00 0. -1.
       -3    1    3    3    0  502 -0.23706630434E+03  0.36499646964E+03 -0.40893380739E+03  0.59720157781E+03  0.10100000352E+00 0.  1.
</event>
<event>
 5   0  0.3650180E-03  0.1208804E+04  0.7818609E-02  0.9105185E-01
        2   -1    0    0  501    0  0.00000000000E+00  0.00000000000E+00  0.21180649884E+04  0.21180649884E+04  0.25500000920E-02 0. -1.
       -2   -1    0    0    0  501  0.00000000000E+00  0.00000000000E+00 -0.17246967224E+03  0.17246967225E+03  0.25500000920E-02 0.  1.
    10030    2    1    2    0    0  0.00000000000E+00  0.00000000000E+00  0.19455953161E+04  0.22905346606E+04  0.12088043255E+04 0.  0.
        3    1    3    3  502    0  0.11899913355E+03 -0.36686905803E+03  0.18545735409E+04  0.18942536072E+04  0.10100000352E+00 0. -1.
       -3    1    3    3    0  502 -0.11899913355E+03  0.36686905803E+03  0.91021775200E+02  0.39628105341E+03  0.10100000352E+00 0.  1.
</event>
<event>
 5   0  0.2047109E-03  0.1262687E+04  0.7818609E-02  0.9059689E-01
        1   -1    0    0  501    0  0.00000000000E+00  0.00000000000E+00  0.83456668659E+03  0.83456668661E+03  0.50400001928E-02 0. -1.
       -1   -1    0    0    0  501  0.00000000000E+00  0.00000000000E+00 -0.47760683880E+03  0.47760683882E+03  0.50400001928E-02 0.  1.
    10030    2    1    2    0    0  0.00000000000E+00  0.00000000000E+00  0.35695984780E+03  0.13121735254E+04  0.12626872249E+04 0.  0.
        1    1    3    3  502    0 -0.37728823014E+03 -0.48629181976E+03  0.32459115485E+03  0.69583443461E+03  0.50400001928E-02 0. -1.
       -1    1    3    3    0  502  0.37728823014E+03  0.48629181976E+03  0.32368692952E+02  0.61633909082E+03  0.50400001928E-02 0.  1.
</event>
<event>
 5   0  0.2078258E-03  0.9949836E+03  0.7818609E-02  0.9314064E-01
        1   -1    0    0  501    0  0.00000000000E+00  0.00000000000E+00  0.13225407662E+04  0.13225407662E+04  0.50400001928E-02 0. -1.
       -1   -1    0    0    0  501  0.00000000000E+00  0.00000000000E+00 -0.18713835297E+03  0.18713835303E+03  0.50400001928E-02 0.  1.
    10030    2    1    2    0    0  0.00000000000E+00  0.00000000000E+00  0.11354024132E+04  0.15096791192E+04  0.99498361950E+03 0.  0.
        3    1    3    3  502    0 -0.14629989150E+03 -0.27554067949E+03 -0.20279210070E+02  0.31263010231E+03  0.10100000352E+00 0.  1.
       -3    1    3    3    0  502  0.14629989150E+03  0.27554067949E+03  0.11556816233E+04  0.11970490169E+04  0.10100000352E+00 0. -1.
</event>
<event>
 5   0  0.2096270E-03  0.1190283E+04  0.7818609E-02  0.9121405E-01
       -1   -1    0    0    0  501  0.00000000000E+00  0.00000000000E+00  0.24035304612E+03  0.24035304617E+03  0.50400001928E-02 0. -1.
        1   -1    0    0  501    0  0.00000000000E+00  0.00000000000E+00 -0.14736370593E+04  0.14736370593E+04  0.50400001928E-02 0.  1.
    10030    2    1    2    0    0  0.00000000000E+00  0.00000000000E+00 -0.12332840132E+04  0.17139901055E+04  0.11902825818E+04 0.  0.
        2    1    3    3  502    0 -0.36994310856E+03  0.10735430842E+03  0.36626603078E+02  0.38694232021E+03  0.25500000920E-02 0. -1.
       -2    1    3    3    0  502  0.36994310856E+03 -0.10735430842E+03 -0.12699106163E+04  0.13270477853E+04  0.25500000920E-02 0.  1.
</event>
<event>
 5   0  0.2025294E-03  0.1186038E+04  0.7818609E-02  0.9125166E-01
        1   -1    0    0  501    0  0.00000000000E+00  0.00000000000E+00  0.41026260719E+03  0.41026260722E+03  0.50400001928E-02 0. -1.
       -1   -1    0    0    0  501  0.00000000000E+00  0.00000000000E+00 -0.85718665604E+03  0.85718665605E+03  0.50400001928E-02 0.  1.
    10030    2    1    2    0    0  0.00000000000E+00  0.00000000000E+00 -0.44692404885E+03  0.12674492633E+04  0.11860381653E+04 0.  0.
        5    1    3    3  502    0  0.51254203735E+03 -0.29450970949E+03 -0.27374762165E+03  0.65145618379E+03  0.46999998093E+01 0.  1.
       -5    1    3    3    0  502 -0.51254203735E+03  0.29450970949E+03 -0.17317642720E+03  0.61599307948E+03  0.46999998093E+01 0. -1.
</event>
<event>
 5   0  0.3725376E-03  0.1416830E+04  0.7818609E-02  0.8941726E-01
        2   -1    0    0  501    0  0.00000000000E+00  0.00000000000E+00  0.18476769721E+04  0.18476769721E+04  0.25500000920E-02 0.  1.
       -2   -1    0    0    0  501  0.00000000000E+00  0.00000000000E+00 -0.27161223601E+03  0.27161223602E+03  0.25500000920E-02 0. -1.
    10030    2    1    2    0    0  0.00000000000E+00  0.00000000000E+00  0.15760647361E+04  0.21192892081E+04  0.14168298046E+04 0.  0.
        4    1    3    3  502    0 -0.23237677946E+03 -0.49059658184E+03  0.14688516923E+04  0.15659536649E+04  0.12699999809E+01 0.  1.
       -4    1    3    3    0  502  0.23237677946E+03  0.49059658184E+03  0.10721304381E+03  0.55333554323E+03  0.12699999809E+01 0. -1.
</event>
<event>
 5   0  0.3626049E-03  0.1142213E+04  0.7818609E-02  0.9164997E-01
        2   -1    0    0  501    0  0.00000000000E+00  0.00000000000E+00  0.11500033119E+04  0.11500033119E+04  0.25500000920E-02 0.  1.
       -2   -1    0    0    0  501  0.00000000000E+00  0.00000000000E+00 -0.28361890602E+03  0.28361890603E+03  0.25500000920E-02 0. -1.
    10030    2    1    2    0    0  0.00000000000E+00  0.00000000000E+00  0.86638440584E+03  0.14336222179E+04  0.11422130821E+04 0.  0.
        1    1    3    3  502    0 -0.64205871943E+02 -0.17775212169E+03 -0.24323201678E+03  0.30802601314E+03  0.50400001928E-02 0. -1.
       -1    1    3    3    0  502  0.64205871943E+02  0.17775212169E+03  0.11096164226E+04  0.11255962047E+04  0.50400001928E-02 0.  1.
</event>
<event>
 5   0  0.2134992E-03  0.1200063E+04  0.7818609E-02  0.9112801E-01
       -1   -1    0    0    0  501  0.00000000000E+00  0.00000000000E+00  0.27562653652E+03  0.27562653656E+03  0.50400001928E-02 0. -1.
        1   -1    0    0  501    0  0.00000000000E+00  0.00000000000E+00 -0.13062525407E+04  0.13062525407E+04  0.50400001928E-02 0.  1.
    10030    2    1    2    0    0  0.00000000000E+00  0.00000000000E+00 -0.10306260042E+04  0.15818790773E+04  0.12000631044E+04 0.  0.
        4    1    3    3  502    0 -0.31745172203E+03 -0.19116823923E+03  0.10676419553E+03  0.38564374474E+03  0.12699999809E+01 0. -1.
       -4    1    3    3    0  502  0.31745172203E+03  0.19116823923E+03 -0.11373901997E+04  0.11962353325E+04  0.12699999809E+01 0.  1.
</event>
<event>
 5   0  0.3706035E-03  0.1194143E+04  0.7818609E-02  0.9117999E-01
        2   -1    0    0  501    0  0.00000000000E+00  0.00000000000E+00  0.91661166598E+03  0.91661166598E+03  0.25500000920E-02 0.  1.
       -2   -1    0    0    0  501  0.00000000000E+00  0.00000000000E+00 -0.38892634876E+03  0.38892634877E+03  0.25500000920E-02 0. -1.
    10030    2    1    2    0    0  0.00000000000E+00  0.00000000000E+00  0.52768531722E+03  0.13055380148E+04  0.11941430877E+04 0.  0.
        2    1    3    3  502    0  0.38584794344E+02  0.39735405197E+02  0.91379700946E+03  0.91547401016E+03  0.25500000920E-02 0.  1.
       -2    1    3    3    0  502 -0.38584794344E+02 -0.39735405197E+02 -0.38611169225E+03  0.39006400459E+03  0.25500000920E-02 0. -1.
</event>
<event>
 5   0  0.2025294E-03  0.1201236E+04  0.7818609E-02  0.9111775E-01
        1   -1    0    0  501    0  0.00000000000E+00  0.00000000000E+00  0.17273267174E+04  0.17273267174E+04  0.50400001928E-02 0.  1.
       -1   -1    0    0    0  501  0.00000000000E+00  0.00000000000E+00 -0.20884411334E+03  0.20884411340E+03  0.50400001928E-02 0. -1.
    10030    2    1    2    0    0  0.00000000000E+00  0.00000000000E+00  0.15184826041E+04  0.19361708308E+04  0.12012360581E+04 0.  0.
        5    1    3    3  502    0  0.13881155088E+03  0.15029461910E+03 -0.15091765154E+03  0.25427415664E+03  0.46999998093E+01 0. -1.
       -5    1    3    3    0  502 -0.13881155088E+03 -0.15029461910E+03  0.16694002556E+04  0.16818966742E+04  0.46999998093E+01 0.  1.
</event>
<event>
 5   0  0.3706035E-03  0.1185244E+04  0.7818609E-02  0.9125871E-01
       -2   -1    0    0    0  501  0.00000000000E+00  0.00000000000E+00  0.10699166567E+04  0.10699166568E+04  0.25500000920E-02 0. -1.
        2   -1    0    0  501    0  0.00000000000E+00  0.00000000000E+00 -0.32825080925E+03  0.32825080926E+03  0.25500000920E-02 0.  1.
    10030    2    1    2    0    0  0.00000000000E+00  0.00000000000E+00  0.74166584750E+03  0.13981674660E+04  0.11852442928E+04 0.  0.
        2    1    3    3  502    0 -0.10879863545E+03  0.55528641911E+03  0.57860071506E+03  0.80929533410E+03  0.25500000920E-02 0. -1.
       -2    1    3    3    0  502  0.10879863545E+03 -0.55528641911E+03  0.16306513243E+03  0.58887213191E+03  0.25500000920E-02 0.  1.
</event>
<event>
 5   0  0.2134992E-03  0.1199998E+04  0.7818609E-02  0.9112859E-01
        1   -1    0    0  501    0  0.00000000000E+00  0.00000000000E+00  0.14648449595E+04  0.14648449595E+04  0.50400001928E-02 0. -1.
       -1   -1    0    0    0  501  0.00000000000E+00  0.00000000000E+00 -0.24575883239E+03  0.24575883244E+03  0.50400001928E-02 0.  1.
    10030    2    1    2    0    0  0.00000000000E+00  0.00000000000E+00  0.12190861271E+04  0.17106037919E+04  0.11999976449E+04 0.  0.
        4    1    3    3  502    0 -0.42270000468E+03 -0.34925295590E+03  0.26228076291E+03  0.60782047732E+03  0.12699999809E+01 0.  1.
       -4    1    3    3    0  502  0.42270000468E+03  0.34925295590E+03  0.95680536418E+03  0.11027833146E+04  0.12699999809E+01 0. -1.
</event>
<event>
 5   0  0.2096270E-03  0.1186409E+04  0.7818609E-02  0.9124837E-01
       -1   -1    0    0    0  501  0.00000000000E+00  0.00000000000E+00  0.57292360259E+03  0.57292360262E+03  0.50400001928E-02 0. -1.
        1   -1    0    0  501    0  0.00000000000E+00  0.00000000000E+00 -0.61420296481E+03  0.61420296483E+03  0.50400001928E-02 0.  1.
    10030    2    1    2    0    0  0.00000000000E+00  0.00000000000E+00 -0.41279362214E+02  0.11871265674E+04  0.11864086570E+04 0.  0.
        2    1    3    3  502    0 -0.21894310814E+03  0.32620097373E+03 -0.46537259591E+03  0.60902776037E+03  0.25500000920E-02 0.  1.
       -2    1    3    3    0  502  0.21894310814E+03 -0.32620097373E+03  0.42409323370E+03  0.57809880708E+03  0.25500000920E-02 0. -1.
</event>
<event>
 5   0  0.2096270E-03  0.1201107E+04  0.7818609E-02  0.9111888E-01
       -1   -1    0    0    0  501  0.00000000000E+00  0.00000000000E+00  0.10801671621E+04  0.10801671621E+04  0.50400001928E-02 0.  1.
        1   -1    0    0  501    0  0.00000000000E+00  0.00000000000E+00 -0.33389718985E+03  0.33389718988E+03  0.50400001928E-02 0. -1.
    10030    2    1    2    0    0  0.00000000000E+00  0.00000000000E+00  0.74626997221E+03  0.14140643520E+04  0.12011074557E+04 0.  0.
        2    1    3    3  502    0 -0.30658182986E+03 -0.14965438620E+03 -0.20873726366E+03  0.39995012058E+03  0.25500000920E-02 0. -1.
       -2    1    3    3    0  502  0.30658182986E+03  0.14965438620E+03  0.95500723587E+03  0.10141142314E+04  0.25500000920E-02 0.  1.
</event>
<event>
 5   0  0.3725376E-03  0.1207276E+04  0.7818609E-02  0.9106512E-01
       -2   -1    0    0    0  501  0.00000000000E+00  0.00000000000E+00  0.13035860595E+04  0.13035860595E+04  0.25500000920E-02 0. -1.
        2   -1    0    0  501    0  0.00000000000E+00  0.00000000000E+00 -0.27952023509E+03  0.27952023510E+03  0.25500000920E-02 0.  1.
    10030    2    1    2    0    0  0.00000000000E+00  0.00000000000E+00  0.10240658244E+04  0.15831062946E+04  0.12072757462E+04 0.  0.
        4    1    3    3  502    0  0.21073844302E+03  0.75414562907E+02 -0.22309226285E+03  0.31602186365E+03  0.12699999809E+01 0.  1.
       -4    1    3    3    0  502 -0.21073844302E+03 -0.75414562907E+02  0.12471580872E+04  0.12670844309E+04  0.12699999809E+01 0. -1.
</event>
<event>
 5   0  0.2025294E-03  0.1247181E+04  0.7818609E-02  0.9072533E-01
       -1   -1    0    0    0  501  0.00000000000E+00  0.00000000000E+00  0.81994745422E+03  0.81994745424E+03  0.50400001928E-02 0. -1.
        1   -1    0    0  501    0  0.00000000000E+00  0.00000000000E+00 -0.47425590184E+03  0.47425590187E+03  0.50400001928E-02 0.  1.
    10030    2    1    2    0    0  0.00000000000E+00  0.00000000000E+00  0.34569155238E+03  0.12942033561E+04  0.12471806916E+04 0.  0.
        5    1    3    3  502    0  0.16156340860E+03  0.38171367692E+03  0.65628044727E+03  0.77623075281E+03  0.46999998093E+01 0. -1.
       -5    1    3    3    0  502 -0.16156340860E+03 -0.38171367692E+03 -0.31058889489E+03  0.51797260330E+03  0.46999998093E+01 0.  1.
</event>
<event>
 5   0  0.3751091E-03  0.1042542E+04  0.7818609E-02  0.9263078E-01
        2   -1    0    0  501    0  0.00000000000E+00  0.00000000000E+00  0.53328249080E+03  0.53328249081E+03  0.25500000920E-02 0. -1.
       -2   -1    0    0    0  501  0.00000000000E+00  0.00000000000E+00 -0.50953022446E+03  0.50953022447E+03  0.25500000920E-02 0.  1.
    10030    2    1    2    0    0  0.00000000000E+00  0.00000000000E+00  0.23752266340E+02  0.10428127153E+04  0.10425421761E+04 0.  0.
        5    1    3    3  502    0  0.31819213073E+03  0.40064823691E+03  0.11158256731E+03  0.52367738267E+03  0.46999998093E+01 0. -1.
       -5    1    3    3    0  502 -0.31819213073E+03 -0.40064823691E+03 -0.87830300968E+02  0.51913533261E+03  0.46999998093E+01 0.  1.
</event>
<event>
 5   0  0.3751091E-03  0.1196743E+04  0.7818609E-02  0.9115712E-01
        2   -1    0    0  501    0  0.00000000000E+00  0.00000000000E+00  0.30537604925E+03  0.30537604926E+03  0.25500000920E-02 0. -1.
       -2   -1    0    0    0  501  0.00000000000E+00  0.00000000000E+00 -0.11724837875E+04  0.11724837875E+04  0.25500000920E-02 0.  1.
    10030    2    1    2    0    0  0.00000000000E+00  0.00000000000E+00 -0.86710773825E+03  0.14778598368E+04  0.11967430248E+04 0.  0.
        5    1    3    3  502    0 -0.59594373583E+03  0.43702209441E+01 -0.36753175638E+03  0.70019262853E+03  0.46999998093E+01 0. -1.
       -5    1    3    3    0  502  0.59594373583E+03 -0.43702209441E+01 -0.49957598187E+03  0.77766720824E+03  0.46999998093E+01 0.  1.
</event>
<event>
 5   0  0.3725376E-03  0.1182860E+04  0.7818609E-02  0.9127993E-01
       -2   -1    0    0    0  501  0.00000000000E+00  0.00000000000E+00  0.23955101240E+03  0.23955101242E+03  0.25500000920E-02 0.  1.
        2   -1    0    0  501    0  0.00000000000E+00  0.00000000000E+00 -0.14601867945E+04  0.14601867945E+04  0.25500000920E-02 0. -1.
    10030    2    1    2    0    0  0.00000000000E+00  0.00000000000E+00 -0.12206357821E+04  0.16997378069E+04  0.11828596281E+04 0.  0.
        4    1    3    3  502    0 -0.53280292061E+03 -0.25671410731E+03 -0.61398905035E+03  0.85250527972E+03  0.12699999809E+01 0. -1.
       -4    1    3    3    0  502  0.53280292061E+03  0.25671410731E+03 -0.60664673174E+03  0.84723252719E+03  0.12699999809E+01 0.  1.
</event>
<event>
 5   0  0.2134992E-03  0.1203269E+04  0.7818609E-02  0.9110000E-01
        1   -1    0    0  501    0  0.00000000000E+00  0.00000000000E+00  0.50816707912E+03  0.50816707915E+03  0.50400001928E-02 0. -1.
       -1   -1    0    0    0  501  0.00000000000E+00  0.00000000000E+00 -0.71229342978E+03  0.71229342980E+03  0.50400001928E-02 0.  1.
    10030    2    1    2    0    0  0.00000000000E+00  0.00000000000E+00 -0.20412635065E+03  0.12204605089E+04  0.12032690002E+04 0.  0.
        4    1    3    3  502    0  0.78892820314E+02  0.32782249709E+02  0.50198194038E+03  0.50920156555E+03  0.12699999809E+01 0. -1.
       -4    1    3    3    0  502 -0.78892820314E+02 -0.32782249709E+02 -0.70610829103E+03  0.71125894339E+03  0.12699999809E+01 0.  1.
</event>
<event>
 5   0  0.2096270E-03  0.1193493E+04  0.7818609E-02  0.9118571E-01
        1   -1    0    0  501    0  0.00000000000E+00  0.00000000000E+00  0.77949811696E+03  0.77949811698E+03  0.50400001928E-02 0. -1.
       -1   -1    0    0    0  501  0.00000000000E+00  0.00000000000E+00 -0.45684042180E+03  0.45684042183E+03  0.50400001928E-02 0.  1.
    10030    2    1    2    0    0  0.00000000000E+00  0.00000000000E+00  0.32265769516E+03  0.12363385388E+04  0.11934927709E+04 0.  0.
        2    1    3    3  502    0  0.42538198616E+03 -0.49642319028E+01  0.59483980967E+03  0.73130628121E+03  0.25500000920E-02 0. -1.
       -2    1    3    3    0  502 -0.42538198616E+03  0.49642319028E+01 -0.27218211452E+03  0.50503225760E+03  0.25500000920E-02 0.  1.
</event>
<event>
 5   0  0.3706035E-03  0.1235818E+04  0.7818609E-02  0.9082071E-01
       -2   -1    0    0    0  501  0.00000000000E+00  0.00000000000E+00  0.71351041928E+03  0.71351041928E+03  0.25500000920E-02 0.  1.
        2   -1    0    0  501    0  0.00000000000E+00  0.00000000000E+00 -0.53511660844E+03  0.53511660844E+03  0.25500000920E-02 0. -1.
    10030    2    1    2    0    0  0.00000000000E+00  0.00000000000E+00  0.17839381084E+03  0.12486270277E+04  0.12358175847E+04 0.  0.
        2    1    3    3  502    0  0.44926252644E+03  0.42410811604E+03  0.78757144579E+02  0.62282196460E+03  0.25500000920E-02 0. -1.
       -2    1    3    3    0  502 -0.44926252644E+03 -0.42410811604E+03  0.99636666259E+02  0.62580506312E+03  0.25500000920E-02 0.  1.
</event>
<event>
 5   0  0.2096270E-03  0.1224299E+04  0.7818609E-02  0.9091849E-01
        1   -1    0    0  501    0  0.00000000000E+00  0.00000000000E+00  0.88541209129E+03  0.88541209131E+03  0.50400001928E-02 0. -1.
       -1   -1    0    0    0  501  0.00000000000E+00  0.00000000000E+00 -0.42322360838E+03  0.42322360841E+03  0.50400001928E-02 0.  1.
    10030    2    1    2    0    0  0.00000000000E+00  0.00000000000E+00  0.46218848291E+03  0.13086356997E+04  0.12242994735E+04 0.  0.
        2    1    3    3  502    0  0.37439492600E+02  0.45674482042E+03  0.66489545216E+03  0.80752926194E+03  0.25500000920E-02 0. -1.
       -2    1    3    3    0  502 -0.37439492600E+02 -0.45674482042E+03 -0.20270696925E+03  0.50110643777E+03  0.25500000920E-02 0.  1.
</event>
<event>
 5   0  0.3650180E-03  0.1194661E+04  0.7818609E-02  0.9117542E-01
        2   -1    0    0  501    0  0.00000000000E+00  0.00000000000E+00  0.11445731407E+04  0.11445731407E+04  0.25500000920E-02 0. -1.
       -2   -1    0    0    0  501  0.00000000000E+00  0.00000000000E+00 -0.31173530798E+03  0.31173530799E+03  0.25500000920E-02 0.  1.
    10030    2    1    2    0    0  0.00000000000E+00  0.00000000000E+00  0.83283783276E+03  0.14563084487E+04  0.11946612249E+04 0.  0.
        3    1    3    3  502    0 -0.36953290901E+03  0.35488589389E+03  0.42069974708E+02  0.51407048300E+03  0.10100000352E+00 0.  1.
       -3    1    3    3    0  502  0.36953290901E+03 -0.35488589389E+03  0.79076785805E+03  0.94223796572E+03  0.10100000352E+00 0. -1.
</event>
<event>
 5   0  0.3751091E-03  0.1217896E+04  0.7818609E-02  0.9097335E-01
       -2   -1    0    0    0  501  0.00000000000E+00  0.00000000000E+00  0.35379649412E+03  0.35379649413E+03  0.25500000920E-02 0.  1.
        2   -1    0    0  501    0  0.00000000000E+00  0.00000000000E+00 -0.10481105395E+04  0.10481105395E+04  0.25500000920E-02 0. -1.
    10030    2    1    2    0    0  0.00000000000E+00  0.00000000000E+00 -0.69431404538E+03  0.14019070336E+04  0.12178962753E+04 0.  0.
        5    1    3    3  502    0  0.18487784562E+03  0.53630946824E+03 -0.60193044755E+03  0.82713361509E+03  0.46999998093E+01 0. -1.
       -5    1    3    3    0  502 -0.18487784562E+03 -0.53630946824E+03 -0.92383597826E+02  0.57477341855E+03  0.46999998093E+01 0.  1.
</event>
<event>
 5   0  0.2025294E-03  0.1178824E+04  0.7818609E-02  0.9131596E-01
       -1   -1    0    0    0  501  0.00000000000E+00  0.00000000000E+00  0.67760031558E+03  0.67760031560E+03  0.50400001928E-02 0. -1.
        1   -1    0    0  501    0  0.00000000000E+00  0.00000000000E+00 -0.51270135083E+03  0.51270135085E+03  0.50400001928E-02 0.  1.
    10030    2    1    2    0    0  0.00000000000E+00  0.00000000000E+00  0.16489896476E+03  0.11903016665E+04  0.11788241551E+04 0.  0.
        5    1    3    3  502    0  0.65144121510E+02 -0.48794910373E+03  0.40971379495E+03  0.64048853867E+03  0.46999998093E+01 0. -1.
       -5    1    3    3    0  502 -0.65144121510E+02  0.48794910373E+03 -0.24481483020E+03  0.54981312778E+03  0.46999998093E+01 0.  1.
</event>
<event>
 5   0  0.2078258E-03  0.1355473E+04  0.7818609E-02  0.8986695E-01
       -1   -1    0    0    0  501  0.00000000000E+00  0.00000000000E+00  0.21728259830E+03  0.21728259836E+03  0.50400001928E-02 0. -1.
        1   -1    0    0  501    0  0.00000000000E+00  0.00000000000E+00 -0.21139608002E+04  0.21139608002E+04  0.50400001928E-02 0.  1.
    10030    2    1    2    0    0  0.00000000000E+00  0.00000000000E+00 -0.18966782019E+04  0.23312433986E+04  0.13554731948E+04 0.  0.
        3    1    3    3  502    0  0.20056351287E+03 -0.34375439394E+03 -0.18918183915E+04  0.19332277783E+04  0.10100000352E+00 0.  1.
       -3    1    3    3    0  502 -0.20056351287E+03  0.34375439394E+03 -0.48598104063E+01  0.39801562030E+03  0.10100000352E+00 0. -1.
</event>
<event>
 5   0  0.3650180E-03  0.1193904E+04  0.7818609E-02  0.9118209E-01
       -2   -1    0    0    0  501  0.00000000000E+00  0.00000000000E+00  0.56118697052E+03  0.56118697053E+03  0.25500000920E-02 0.  1.
        2   -1    0    0  501    0  0.00000000000E+00  0.00000000000E+00 -0.63499608275E+03  0.63499608276E+03  0.25500000920E-02 0. -1.
    10030    2    1    2    0    0  0.00000000000E+00  0.00000000000E+00 -0.73809112227E+02  0.11961830533E+04  0.11939037281E+04 0.  0.
        3    1    3    3  502    0 -0.46692990299E+03 -0.18343635275E+03  0.28725460670E+03  0.57808965489E+03  0.10100000352E+00 0.  1.
       -3    1    3    3    0  502  0.46692990299E+03  0.18343635275E+03 -0.36106371893E+03  0.61809339840E+03  0.10100000352E+00 0. -1.
</event>
<event>
 5   0  0.3626049E-03  0.1203802E+04  0.7818609E-02  0.9109535E-01
        2   -1    0    0  501    0  0.00000000000E+00  0.00000000000E+00  0.14003704068E+04  0.14003704068E+04  0.25500000920E-02 0.  1.
       -2   -1    0    0    0  501  0.00000000000E+00  0.00000000000E+00 -0.25870628055E+03  0.25870628056E+03  0.25500000920E-02 0. -1.
    10030    2    1    2    0    0  0.00000000000E+00  0.00000000000E+00  0.11416641263E+04  0.16590766874E+04  0.12038016769E+04 0.  0.
        1    1    3    3  502    0 -0.10315761207E+03 -0.22476937930E+03 -0.18544800326E+03  0.30911766164E+03  0.50400001928E-02 0. -1.
       -1    1    3    3    0  502  0.10315761207E+03  0.22476937930E+03  0.13271121295E+04  0.13499590257E+04  0.50400001928E-02 0.  1.
</event>
<event>
 5   0  0.3626049E-03  0.1194772E+04  0.7818609E-02  0.9117445E-01
        2   -1    0    0  501    0  0.00000000000E+00  0.00000000000E+00  0.87004992026E+03  0.87004992026E+03  0.25500000920E-02 0. -1.
       -2   -1    0    0    0  501  0.00000000000E+00  0.00000000000E+00 -0.41017200878E+03  0.41017200879E+03  0.25500000920E-02 0.  1.
    10030    2    1    2    0    0  0.00000000000E+00  0.00000000000E+00  0.45987791148E+03  0.12802219290E+04  0.11947721516E+04 0.  0.
        1    1    3    3  502    0 -0.13539612733E+03  0.56553738922E+03  0.83389393614E+02  0.58746782115E+03  0.50400001928E-02 0.  1.
       -1    1    3    3    0  502  0.13539612733E+03 -0.56553738922E+03  0.37648851787E+03  0.69275410790E+03  0.50400001928E-02 0. -1.
</event>
<event>
 5   0  0.3706035E-03  0.1248444E+04  0.7818609E-02  0.9071479E-01
        2   -1    0    0  501    0  0.00000000000E+00  0.00000000000E+00  0.24879558652E+04  0.24879558652E+04  0.25500000920E-02 0.  1.
       -2   -1    0    0    0  501  0.00000000000E+00  0.00000000000E+00 -0.15661572752E+03  0.15661572754E+03  0.25500000920E-02 0. -1.
    10030    2    1    2    0    0  0.00000000000E+00  0.00000000000E+00  0.23313401377E+04  0.26445715927E+04  0.12484438600E+04 0.  0.
        2    1    3    3  502    0 -0.53276832879E+03  0.32379765925E+03  0.10998322805E+04  0.12642460447E+04  0.25500000920E-02 0.  1.
       -2    1    3    3    0  502  0.53276832879E+03 -0.32379765925E+03  0.12315078572E+04  0.13803255481E+04  0.25500000920E-02 0. -1.
</event>
<event>
 5   0  0.2047109E-03  0.1152405E+04  0.7818609E-02  0.9155568E-01
       -1   -1    0    0    0  501  0.00000000000E+00  0.00000000000E+00  0.41077104416E+03  0.41077104419E+03  0.50400001928E-02 0.  1.
        1   -1    0    0  501    0  0.00000000000E+00  0.00000000000E+00 -0.80825853205E+03  0.80825853207E+03  0.50400001928E-02 0. -1.
    10030    2    1    2    0    0  0.00000000000E+00  0.00000000000E+00 -0.39748748789E+03  0.12190295763E+04  0.11524047921E+04 0.  0.
        1    1    3    3  502    0 -0.22541370096E+03  0.40729907540E+03 -0.55794171464E+03  0.72663803256E+03  0.50400001928E-02 0. -1.
       -1    1    3    3    0  502  0.22541370096E+03 -0.40729907540E+03  0.16045422674E+03  0.49239154370E+03  0.50400001928E-02 0.  1.
</event>
<event>
 5   0  0.3626049E-03  0.1258475E+04  0.7818609E-02  0.9063159E-01
       -2   -1    0    0    0  501  0.00000000000E+00  0.00000000000E+00  0.29381927276E+03  0.29381927277E+03  0.25500000920E-02 0. -1.
        2   -1    0    0  501    0  0.00000000000E+00  0.00000000000E+00 -0.13475625281E+04  0.13475625281E+04  0.25500000920E-02 0.  1.
    10030    2    1    2    0    0  0.00000000000E+00  0.00000000000E+00 -0.10537432553E+04  0.16413818008E+04  0.12584750168E+04 0.  0.
        1    1    3    3  502    0 -0.23340642136E+03 -0.55436709013E+03 -0.28588847333E+03  0.66598321853E+03  0.50400001928E-02 0. -1.
       -1    1    3    3    0  502  0.23340642136E+03  0.55436709013E+03 -0.76785478196E+03  0.97539858230E+03  0.50400001928E-02 0.  1.
</event>
<event>
 5   0  0.3725376E-03  0.1208667E+04  0.7818609E-02  0.9105304E-01
       -2   -1    0    0    0  501  0.00000000000E+00  0.00000000000E+00  0.13143774417E+04  0.13143774417E+04  0.25500000920E-02 0. -1.
        2   -1    0    0  501    0  0.00000000000E+00  0.00000000000E+00 -0.27786468429E+03  0.27786468430E+03  0.25500000920E-02 0.  1.
    10030    2    1    2    0    0  0.00000000000E+00  0.00000000000E+00  0.10365127574E+04  0.15922421260E+04  0.12086671550E+04 0.  0.
        4    1    3    3  502    0  0.42805165124E+03  0.41765554023E+03  0.40376709926E+03  0.72159119296E+03  0.12699999809E+01 0. -1.
       -4    1    3    3    0  502 -0.42805165124E+03 -0.41765554023E+03  0.63274565815E+03  0.87065093305E+03  0.12699999809E+01 0.  1.
</event>
<event>
 5   0  0.3650180E-03  0.1196244E+04  0.7818609E-02  0.9116150E-01
        2   -1    0    0  501    0  0.00000000000E+00  0.00000000000E+00  0.11491352906E+04  0.11491352906E+04  0.25500000920E-02 0. -1.
       -2   -1    0    0    0  501  0.00000000000E+00  0.00000000000E+00 -0.31132101576E+03  0.31132101577E+03  0.25500000920E-02 0.  1.
    10030    2    1    2    0    0  0.00000000000E+00  0.00000000000E+00  0.83781427484E+03  0.14604563064E+04  0.11962440653E+04 0.  0.
        3    1    3    3  502    0 -0.52355494232E+03 -0.82596914712E+01  0.65968621997E+02  0.52775929118E+03  0.10100000352E+00 0.  1.
       -3    1    3    3    0  502  0.52355494232E+03  0.82596914712E+01  0.77184565285E+03  0.93269701520E+03  0.10100000352E+00 0. -1.
</event>
<event>
 5   0  0.2025294E-03  0.1198315E+04  0.7818609E-02  0.9114332E-01
        1   -1    0    0  501    0  0.00000000000E+00  0.00000000000E+00  0.35716814050E+03  0.35716814053E+03  0.50400001928E-02 0.  1.
       -1   -1    0    0    0  501  0.00000000000E+00  0.00000000000E+00 -0.10051004470E+04  0.10051004470E+04  0.50400001928E-02 0. -1.
    10030    2    1    2    0    0  0.00000000000E+00  0.00000000000E+00 -0.64793230646E+03  0.13622685875E+04  0.11983152468E+04 0.  0.
        5    1    3    3  502    0 -0.53102484515E+03  0.14496945148E+02 -0.89824750556E+01  0.53131941659E+03  0.46999998093E+01 0.  1.
       -5    1    3    3    0  502  0.53102484515E+03 -0.14496945148E+02 -0.63894983140E+03  0.83094917091E+03  0.46999998093E+01 0. -1.
</event>
<event>
 5   0  0.2096270E-03  0.1217288E+04  0.7818609E-02  0.9097858E-01
        1   -1    0    0  501    0  0.00000000000E+00  0.00000000000E+00  0.73566756201E+03  0.73566756202E+03  0.50400001928E-02 0. -1.
       -1   -1    0    0    0  501  0.00000000000E+00  0.00000000000E+00 -0.50355283017E+03  0.50355283019E+03  0.50400001928E-02 0.  1.
    10030    2    1    2    0    0  0.00000000000E+00  0.00000000000E+00  0.23211473184E+03  0.12392203922E+04  0.12172879412E+04 0.  0.
        2    1    3    3  502    0  0.14964859162E+02 -0.42753937972E+03 -0.32467908690E+03  0.53705714566E+03  0.25500000920E-02 0.  1.
       -2    1    3    3    0  502 -0.14964859162E+02  0.42753937972E+03  0.55679381874E+03  0.70216324656E+03  0.25500000920E-02 0. -1.
</event>
<event>
 5   0  0.3626049E-03  0.1180169E+04  0.7818609E-02  0.9130393E-01
        2   -1    0    0  501    0  0.00000000000E+00  0.00000000000E+00  0.64696231532E+03  0.64696231533E+03  0.25500000920E-02 0. -1.
       -2   -1    0    0    0  501  0.00000000000E+00  0.00000000000E+00 -0.53820753547E+03  0.53820753548E+03  0.25500000920E-02 0.  1.
    10030    2    1    2    0    0  0.00000000000E+00  0.00000000000E+00  0.10875477985E+03  0.11851698508E+04  0.11801694680E+04 0.  0.
        1    1    3    3  502    0  0.49052123431E+03  0.12477300613E+03 -0.25025688958E+03  0.56463076003E+03  0.50400001928E-02 0.  1.
       -1    1    3    3    0  502 -0.49052123431E+03 -0.12477300613E+03  0.35901166943E+03  0.62053909078E+03  0.50400001928E-02 0. -1.
</event>
<event>
 5   0  0.3725376E-03  0.1227345E+04  0.7818609E-02  0.9089253E-01
        2   -1    0    0  501    0  0.00000000000E+00  0.00000000000E+00  0.63109054575E+03  0.63109054575E+03  0.25500000920E-02 0.  1.
       -2   -1    0    0    0  501  0.00000000000E+00  0.00000000000E+00 -0.59673493058E+03  0.59673493058E+03  0.25500000920E-02 0. -1.
    10030    2    1    2    0    0  0.00000000000E+00  0.00000000000E+00  0.34355615169E+02  0.12278254763E+04  0.12273447324E+04 0.  0.
        4    1    3    3  502    0  0.14498524748E+03  0.57055677696E+03  0.19055582573E+03  0.61876400456E+03  0.12699999809E+01 0.  1.
       -4    1    3    3    0  502 -0.14498524748E+03 -0.57055677696E+03 -0.15620021056E+03  0.60906147177E+03  0.12699999809E+01 0. -1.
</event>
<event>
 5   0  0.3650180E-03  0.1236965E+04  0.7818609E-02  0.9081103E-01
        2   -1    0    0  501    0  0.00000000000E+00  0.00000000000E+00  0.30148194762E+03  0.30148194763E+03  0.25500000920E-02 0. -1.
       -2   -1    0    0    0  501  0.00000000000E+00  0.00000000000E+00 -0.12688000711E+04  0.12688000711E+04  0.25500000920E-02 0.  1.
    10030    2    1    2    0    0  0.00000000000E+00  0.00000000000E+00 -0.96731812352E+03  0.15702820188E+04  0.12369645372E+04 0.  0.
        3    1    3    3  502    0  0.20344940661E+03  0.25408901330E+03  0.18394799221E+03  0.37388469047E+03  0.10100000352E+00 0. -1.
       -3    1    3    3    0  502 -0.20344940661E+03 -0.25408901330E+03 -0.11512661157E+04  0.11963973283E+04  0.10100000352E+00 0.  1.
</event>
<event>
 5   0  0.2047109E-03  0.1156549E+04  0.7818609E-02  0.9151763E-01
        1   -1    0    0  501    0  0.00000000000E+00  0.00000000000E+00  0.28342243409E+03  0.28342243413E+03  0.50400001928E-02 0.  1.
       -1   -1    0    0    0  501  0.00000000000E+00  0.00000000000E+00 -0.11798693440E+04  0.11798693440E+04  0.50400001928E-02 0. -1.
    10030    2    1    2    0    0  0.00000000000E+00  0.00000000000E+00 -0.89644690987E+03  0.14632917781E+04  0.11565490762E+04 0.  0.
        1    1    3    3  502    0 -0.13842895774E+03  0.48845592914E+03 -0.97938074413E+02  0.51705283820E+03  0.50400001928E-02 0.  1.
       -1    1    3    3    0  502  0.13842895774E+03 -0.48845592914E+03 -0.79850883545E+03  0.94623893989E+03  0.50400001928E-02 0. -1.
</event>
<event>
 5   0  0.3706035E-03  0.1196657E+04  0.7818609E-02  0.9115788E-01
        2   -1    0    0  501    0  0.00000000000E+00  0.00000000000E+00  0.71068638553E+03  0.71068638554E+03  0.25500000920E-02 0. -1.
       -2   -1    0    0    0  501  0.00000000000E+00  0.00000000000E+00 -0.50373372531E+03  0.50373372532E+03  0.25500000920E-02 0.  1.
    10030    2    1    2    0    0  0.00000000000E+00  0.00000000000E+00  0.20695266022E+03  0.12144201109E+04  0.11966565096E+04 0.  0.
        2    1    3    3  502    0 -0.42517853251E+03  0.19816018199E+03 -0.27345667319E+03  0.54297586904E+03  0.25500000920E-02 0.  1.
       -2    1    3    3    0  502  0.42517853251E+03 -0.19816018199E+03  0.48040933342E+03  0.67144424182E+03  0.25500000920E-02 0. -1.
</event>
<event>
 5   0  0.2047109E-03  0.1198846E+04  0.7818609E-02  0.9113867E-01
       -1   -1    0    0    0  501  0.00000000000E+00  0.00000000000E+00  0.29997216820E+03  0.29997216825E+03  0.50400001928E-02 0.  1.
        1   -1    0    0  501    0  0.00000000000E+00  0.00000000000E+00 -0.11978045111E+04  0.11978045111E+04  0.50400001928E-02 0. -1.
    10030    2    1    2    0    0  0.00000000000E+00  0.00000000000E+00 -0.89783234287E+03  0.14977766793E+04  0.11988461391E+04 0.  0.
        1    1    3    3  502    0  0.26913623344E+03 -0.30849810588E+03  0.98096822294E+02  0.42098501167E+03  0.50400001928E-02 0.  1.
       -1    1    3    3    0  502 -0.26913623344E+03  0.30849810588E+03 -0.99592916516E+03  0.10767916677E+04  0.50400001928E-02 0. -1.
</event>
<event>
 5   0  0.2096270E-03  0.1251816E+04  0.7818609E-02  0.9068673E-01
       -1   -1    0    0    0  501  0.00000000000E+00  0.00000000000E+00  0.31909639878E+03  0.31909639882E+03  0.50400001928E-02 0. -1.
        1   -1    0    0  501    0  0.00000000000E+00  0.00000000000E+00 -0.12277203238E+04  0.12277203238E+04  0.50400001928E-02 0.  1.
    10030    2    1    2    0    0  0.00000000000E+00  0.00000000000E+00 -0.90862392502E+03  0.15468167226E+04  0.12518164946E+04 0.  0.
        2    1    3    3  502    0 -0.54746868726E+02  0.39664812386E+03  0.14013339373E+03  0.42422201952E+03  0.25500000920E-02 0. -1.
       -2    1    3    3    0  502  0.54746868726E+02 -0.39664812386E+03 -0.10487573188E+04  0.11225947031E+04  0.25500000920E-02 0.  1.
</event>
<event>
 5   0  0.3751091E-03  0.1211399E+04  0.7818609E-02  0.9102938E-01
        2   -1    0    0  501    0  0.00000000000E+00  0.00000000000E+00  0.17655963587E+04  0.17655963587E+04  0.25500000920E-02 0.  1.
       -2   -1    0    0    0  501  0.00000000000E+00  0.00000000000E+00 -0.20778904870E+03  0.20778904871E+03  0.25500000920E-02 0. -1.
    10030    2    1    2    0    0  0.00000000000E+00  0.00000000000E+00  0.15578073100E+04  0.19733854074E+04  0.12113985105E+04 0.  0.
        5    1    3    3  502    0  0.44891825255E+03  0.40657805193E+03  0.77234942811E+03  0.98151874097E+03  0.46999998093E+01 0. -1.
       -5    1    3    3    0  502 -0.44891825255E+03 -0.40657805193E+03  0.78545788191E+03  0.99186666646E+03  0.46999998093E+01 0.  1.
</event>
<event>
 5   0  0.2047109E-03  0.1211374E+04  0.7818609E-02  0.9102959E-01
       -1   -1    0    0    0  501  0.00000000000E+00  0.00000000000E+00  0.76607220830E+03  0.76607220831E+03  0.50400001928E-02 0. -1.
        1   -1    0    0  501    0  0.00000000000E+00  0.00000000000E+00 -0.47887975091E+03  0.47887975093E+03  0.50400001928E-02 0.  1.
    10030    2    1    2    0    0  0.00000000000E+00  0.00000000000E+00  0.28719245739E+03  0.12449519592E+04  0.12113735482E+04 0.  0.
        1    1    3    3  502    0  0.49687419267E+03  0.12894516190E+03  0.47398144657E+03  0.69869108327E+03  0.50400001928E-02 0. -1.
       -1    1    3    3    0  502 -0.49687419267E+03 -0.12894516190E+03 -0.18678898918E+03  0.54626087598E+03  0.50400001928E-02 0.  1.
</event>
<event>
 5   0  0.3725376E-03  0.1183197E+04  0.7818609E-02  0.9127693E-01
        2   -1    0    0  501    0  0.00000000000E+00  0.00000000000E+00  0.98336709257E+03  0.98336709257E+03  0.25500000920E-02 0. -1.
       -2   -1    0    0    0  501  0.00000000000E+00  0.00000000000E+00 -0.35590829414E+03  0.35590829415E+03  0.25500000920E-02 0.  1.
    10030    2    1    2    0    0  0.00000000000E+00  0.00000000000E+00  0.62745879843E+03  0.13392753867E+04  0.11831965254E+04 0.  0.
        4    1    3    3  502    0 -0.20848135945E+03 -0.17561499640E+02 -0.31263278340E+03  0.37618313847E+03  0.12699999809E+01 0.  1.
       -4    1    3    3    0  502  0.20848135945E+03  0.17561499640E+02  0.94009158184E+03  0.96309224825E+03  0.12699999809E+01 0. -1.
</event>
<event>
 5   0  0.1397500E-03  0.1188462E+04  0.7818609E-02  0.9123016E-01
        3   -1    0    0  501    0  0.00000000000E+00  0.00000000000E+00  0.68830315367E+03  0.68830316108E+03  0.10100000352E+00 0.  1.
       -3   -1    0    0    0  501  0.00000000000E+00  0.00000000000E+00 -0.51301560348E+03  0.51301561343E+03  0.10100000352E+00 0. -1.
    10030    2    1    2    0    0  0.00000000000E+00  0.00000000000E+00  0.17528755019E+03  0.12013187745E+04  0.11884616413E+04 0.  0.
        2    1    3    3  502    0  0.19935666319E+03  0.18042314317E+03 -0.44800855430E+03  0.52250096123E+03  0.25500000920E-02 0. -1.
       -2    1    3    3    0  502 -0.19935666319E+03 -0.18042314317E+03  0.62329610449E+03  0.67881781328E+03  0.25500000920E-02 0.  1.
</event>
<event>
 5   0  0.3650180E-03  0.1175633E+04  0.7818609E-02  0.9134457E-01
       -2   -1    0    0    0  501  0.00000000000E+00  0.00000000000E+00  0.25318422455E+03  0.25318422457E+03  0.25500000920E-02 0.  1.
        2   -1    0    0  501    0  0.00000000000E+00  0.00000000000E+00 -0.13647301201E+04  0.13647301201E+04  0.25500000920E-02 0. -1.
    10030    2    1    2    0    0  0.00000000000E+00  0.00000000000E+00 -0.11115458955E+04  0.16179143446E+04  0.11756328291E+04 0.  0.
        3    1    3    3  502    0  0.46959769756E+03 -0.34611112910E+03 -0.45640720810E+03  0.74069052988E+03  0.10100000352E+00 0. -1.
       -3    1    3    3    0  502 -0.46959769756E+03  0.34611112910E+03 -0.65513868742E+03  0.87722381477E+03  0.10100000352E+00 0.  1.
</event>
<event>
 5   0  0.3650180E-03  0.1226871E+04  0.7818609E-02  0.9089656E-01
       -2   -1    0    0    0  501  0.00000000000E+00  0.00000000000E+00  0.11677313457E+04  0.11677313457E+04  0.25500000920E-02 0. -1.
        2   -1    0    0  501    0  0.00000000000E+00  0.00000000000E+00 -0.32225149471E+03  0.32225149472E+03  0.25500000920E-02 0.  1.
    10030    2    1    2    0    0  0.00000000000E+00  0.00000000000E+00  0.84547985102E+03  0.14899828404E+04  0.12268710961E+04 0.  0.
        3    1    3    3  502    0  0.21885289279E+03 -0.31093875108E+03  0.10073516581E+04  0.10767250665E+04  0.10100000352E+00 0. -1.
       -3    1    3    3    0  502 -0.21885289279E+03  0.31093875108E+03 -0.16187180706E+03  0.41325777394E+03  0.10100000352E+00 0.  1.
</event>
<event>
 5   0  0.2078258E-03  0.1199493E+04  0.7818609E-02  0.9113300E-01
       -1   -1    0    0    0  501  0.00000000000E+00  0.00000000000E+00  0.42485799717E+03  0.42485799720E+03  0.50400001928E-02 0. -1.
        1   -1    0    0  501    0  0.00000000000E+00  0.00000000000E+00 -0.84662596644E+03  0.84662596645E+03  0.50400001928E-02 0.  1.
    10030    2    1    2    0    0  0.00000000000E+00  0.00000000000E+00 -0.42176796927E+03  0.12714839637E+04  0.11994929137E+04 0.  0.
        3    1    3    3  502    0  0.57415563697E+03 -0.95280586365E+02 -0.36435875165E+03  0.68665158247E+03  0.10100000352E+00 0.  1.
       -3    1    3    3    0  502 -0.57415563697E+03  0.95280586365E+02 -0.57409217619E+02  0.58483238118E+03  0.10100000352E+00 0. -1.
</event>
<event>
 5   0  0.3706035E-03  0.1204385E+04  0.7818609E-02  0.9109027E-01
        2   -1    0    0  501    0  0.00000000000E+00  0.00000000000E+00  0.12868414778E+04  0.12868414778E+04  0.25500000920E-02 0.  1.
       -2   -1    0    0    0  501  0.00000000000E+00  0.00000000000E+00 -0.28180315247E+03  0.28180315248E+03  0.25500000920E-02 0. -1.
    10030    2    1    2    0    0  0.00000000000E+00  0.00000000000E+00  0.10050383254E+04  0.15686446303E+04  0.12043852958E+04 0.  0.
        2    1    3    3  502    0  0.37486983181E+03  0.85422173265E+02 -0.10113477056E+03  0.39755827285E+03  0.25500000920E-02 0. -1.
       -2    1    3    3    0  502 -0.37486983181E+03 -0.85422173265E+02  0.11061730959E+04  0.11710863575E+04  0.25500000920E-02 0.  1.
</event>
<event>
 5   0  0.3725376E-03  0.1209699E+04  0.7818609E-02  0.9104409E-01
       -2   -1    0    0    0  501  0.00000000000E+00  0.00000000000E+00  0.44531212614E+03  0.44531212615E+03  0.25500000920E-02 0.  1.
        2   -1    0    0  501    0  0.00000000000E+00  0.00000000000E+00 -0.82154211386E+03  0.82154211387E+03  0.25500000920E-02 0. -1.
    10030    2    1    2    0    0  0.00000000000E+00  0.00000000000E+00 -0.37622998772E+03  0.12668542400E+04  0.12096985830E+04 0.  0.
        4    1    3    3  502    0  0.29277301899E+03  0.29716372940E+03 -0.64677934089E+03  0.76964111859E+03  0.12699999809E+01 0. -1.
       -4    1    3    3    0  502 -0.29277301899E+03 -0.29716372940E+03  0.27054935317E+03  0.49721312143E+03  0.12699999809E+01 0.  1.
</event>
<event>
 5   0  0.3725376E-03  0.1213654E+04  0.7818609E-02  0.9100989E-01
        2   -1    0    0  501    0  0.00000000000E+00  0.00000000000E+00  0.66477483101E+03  0.66477483102E+03  0.25500000920E-02 0.  1.
       -2   -1    0    0    0  501  0.00000000000E+00  0.00000000000E+00 -0.55393017137E+03  0.55393017137E+03  0.25500000920E-02 0. -1.
    10030    2    1    2    0    0  0.00000000000E+00  0.00000000000E+00  0.11084465964E+03  0.12187050024E+04  0.12136537168E+04 0.  0.
        4    1    3    3  502    0  0.39563924853E+03  0.24675518876E+03  0.44539249143E+03  0.64482138805E+03  0.12699999809E+01 0.  1.
       -4    1    3    3    0  502 -0.39563924853E+03 -0.24675518876E+03 -0.33454783179E+03  0.57388361434E+03  0.12699999809E+01 0. -1.
</event>
<event>
 5   0  0.2134992E-03  0.1214180E+04  0.7818609E-02  0.9100535E-01
       -1   -1    0    0    0  501  0.00000000000E+00  0.00000000000E+00  0.31894339596E+03  0.31894339600E+03  0.50400001928E-02 0. -1.
        1   -1    0    0  501    0  0.00000000000E+00  0.00000000000E+00 -0.11555597804E+04  0.11555597804E+04  0.50400001928E-02 0.  1.
    10030    2    1    2    0    0  0.00000000000E+00  0.00000000000E+00 -0.83661638442E+03  0.14745031764E+04  0.12141798230E+04 0.  0.
        4    1    3    3  502    0  0.45902255188E+02 -0.60314130149E+03 -0.35555633899E+03  0.70164689815E+03  0.12699999809E+01 0. -1.
       -4    1    3    3    0  502 -0.45902255188E+02  0.60314130149E+03 -0.48106004543E+03  0.77285627823E+03  0.12699999809E+01 0.  1.
</event>
<event>
 5   0  0.2078258E-03  0.1210955E+04  0.7818609E-02  0.9103321E-01
       -1   -1    0    0    0  501  0.00000000000E+00  0.00000000000E+00  0.11959783409E+04  0.11959783409E+04  0.50400001928E-02 0. -1.
        1   -1    0    0  501    0  0.00000000000E+00  0.00000000000E+00 -0.30653000167E+03  0.30653000171E+03  0.50400001928E-02 0.  1.
    10030    2    1    2    0    0  0.00000000000E+00  0.00000000000E+00  0.88944833926E+03  0.15025083426E+04  0.12109553962E+04 0.  0.
        3    1    3    3  502    0  0.51043641861E+03  0.27520125589E+03  0.66078141829E+03  0.87915479959E+03  0.10100000352E+00 0. -1.
       -3    1    3    3    0  502 -0.51043641861E+03 -0.27520125589E+03  0.22866692096E+03  0.62335354305E+03  0.10100000352E+00 0.  1.
</event>
<event>
 5   0  0.2047109E-03  0.1202817E+04  0.7818609E-02  0.9110394E-01
       -1   -1    0    0    0  501  0.00000000000E+00  0.00000000000E+00  0.45711524047E+03  0.45711524050E+03  0.50400001928E-02 0. -1.
        1   -1    0    0  501    0  0.00000000000E+00  0.00000000000E+00 -0.79124940156E+03  0.79124940158E+03  0.50400001928E-02 0.  1.
    10030    2    1    2    0    0  0.00000000000E+00  0.00000000000E+00 -0.33413416109E+03  0.12483646421E+04  0.12028169611E+04 0.  0.
        1    1    3    3  502    0 -0.27590690144E+03  0.17268536105E+03 -0.69193188521E+03  0.76466632329E+03  0.50400001928E-02 0.  1.
       -1    1    3    3    0  502  0.27590690144E+03 -0.17268536105E+03  0.35779772412E+03  0.48369831878E+03  0.50400001928E-02 0. -1.
</event>
<event>
 5   0  0.2134992E-03  0.1227604E+04  0.7818609E-02  0.9089032E-01
       -1   -1    0    0    0  501  0.00000000000E+00  0.00000000000E+00  0.43496891384E+03  0.43496891386E+03  0.50400001928E-02 0.  1.
        1   -1    0    0  501    0  0.00000000000E+00  0.00000000000E+00 -0.86616116401E+03  0.86616116402E+03  0.50400001928E-02 0. -1.
    10030    2    1    2    0    0  0.00000000000E+00  0.00000000000E+00 -0.43119225017E+03  0.13011300779E+04  0.12276044652E+04 0.  0.
        4    1    3    3  502    0  0.62898129472E+02  0.59631051492E+03 -0.76555365894E+02  0.60448717260E+03  0.12699999809E+01 0. -1.
       -4    1    3    3    0  502 -0.62898129472E+02 -0.59631051492E+03 -0.35463688428E+03  0.69664290528E+03  0.12699999809E+01 0.  1.
</event>
<event>
 5   0  0.2047109E-03  0.1200543E+04  0.7818609E-02  0.9112381E-01
       -1   -1    0    0    0  501  0.00000000000E+00  0.00000000000E+00  0.16101219883E+03  0.16101219890E+03  0.50400001928E-02 0.  1.
        1   -1    0    0  501    0  0.00000000000E+00  0.00000000000E+00 -0.22378794328E+04  0.22378794328E+04  0.50400001928E-02 0. -1.
    10030    2    1    2    0    0  0.00000000000E+00  0.00000000000E+00 -0.20768672340E+04  0.23988916317E+04  0.12005430243E+04 0.  0.
        1    1    3    3  502    0  0.55885548042E+03 -0.31712077227E+02 -0.14716306305E+04  0.15744909706E+04  0.50400001928E-02 0. -1.
       -1    1    3    3    0  502 -0.55885548042E+03  0.31712077227E+02 -0.60523660349E+03  0.82440066113E+03  0.50400001928E-02 0.  1.
</event>
<event>
 5   0  0.3706035E-03  0.1205640E+04  0.7818609E-02  0.9107935E-01
       -2   -1    0    0    0  501  0.00000000000E+00  0.00000000000E+00  0.66699733940E+03  0.66699733941E+03  0.25500000920E-02 0. -1.
        2   -1    0    0  501    0  0.00000000000E+00  0.00000000000E+00 -0.54481726746E+03  0.54481726747E+03  0.25500000920E-02 0.  1.
    10030    2    1    2    0    0  0.00000000000E+00  0.00000000000E+00  0.12218007194E+03  0.12118146069E+04  0.12056395280E+04 0.  0.
        2    1    3    3  502    0  0.10858877608E+03 -0.22278658642E+03  0.61341914349E+03  0.66159536802E+03  0.25500000920E-02 0. -1.
       -2    1    3    3    0  502 -0.10858877608E+03  0.22278658642E+03 -0.49123907155E+03  0.55021923885E+03  0.25500000920E-02 0.  1.
</event>
<event>
 5   0  0.2134992E-03  0.1175712E+04  0.7818609E-02  0.9134386E-01
        1   -1    0    0  501    0  0.00000000000E+00  0.00000000000E+00  0.94634360520E+03  0.94634360521E+03  0.50400001928E-02 0. -1.
       -1   -1    0    0    0  501  0.00000000000E+00  0.00000000000E+00 -0.36516817251E+03  0.36516817254E+03  0.50400001928E-02 0.  1.
    10030    2    1    2    0    0  0.00000000000E+00  0.00000000000E+00  0.58117543269E+03  0.13115117778E+04  0.11757118098E+04 0.  0.
        4    1    3    3  502    0  0.58387763071E+03 -0.46838319093E+02  0.34598277682E+03  0.68030332245E+03  0.12699999809E+01 0.  1.
       -4    1    3    3    0  502 -0.58387763071E+03  0.46838319093E+02  0.23519265587E+03  0.63120845531E+03  0.12699999809E+01 0. -1.
</event>
<event>
 5   0  0.3725376E-03  0.1221951E+04  0.7818609E-02  0.9093857E-01
       -2   -1    0    0    0  501  0.00000000000E+00  0.00000000000E+00  0.48916658055E+03  0.48916658056E+03  0.25500000920E-02 0. -1.
        2   -1    0    0  501    0  0.00000000000E+00  0.00000000000E+00 -0.76311693511E+03  0.76311693511E+03  0.25500000920E-02 0.  1.
    10030    2    1    2    0    0  0.00000000000E+00  0.00000000000E+00 -0.27395035455E+03  0.12522835157E+04  0.12219513930E+04 0.  0.
        4    1    3    3  502    0  0.57308277373E+02  0.32885783193E+03 -0.66139806403E+03  0.74086484887E+03  0.12699999809E+01 0. -1.
       -4    1    3    3    0  502 -0.57308277373E+02 -0.32885783193E+03  0.38744770948E+03  0.51141866681E+03  0.12699999809E+01 0.  1.
</event>
<event>
 5   0  0.2047109E-03  0.1211530E+04  0.7818609E-02  0.9102823E-01
       -1   -1    0    0    0  501  0.00000000000E+00  0.00000000000E+00  0.48655612934E+03  0.48655612937E+03  0.50400001928E-02 0. -1.
        1   -1    0    0  501    0  0.00000000000E+00  0.00000000000E+00 -0.75418123375E+03  0.75418123376E+03  0.50400001928E-02 0.  1.
    10030    2    1    2    0    0  0.00000000000E+00  0.00000000000E+00 -0.26762510440E+03  0.12407373631E+04  0.12115304403E+04 0.  0.
        1    1    3    3  502    0 -0.55866240066E+02 -0.49400322963E+03 -0.48826511637E+03  0.69682354406E+03  0.50400001928E-02 0.  1.
       -1    1    3    3    0  502  0.55866240066E+02  0.49400322963E+03  0.22064001197E+03  0.54391381907E+03  0.50400001928E-02 0. -1.
</event>
<event>
 5   0  0.2078258E-03  0.1211263E+04  0.7818609E-02  0.9103055E-01
        1   -1    0    0  501    0  0.00000000000E+00  0.00000000000E+00  0.91720624797E+03  0.91720624798E+03  0.50400001928E-02 0. -1.
       -1   -1    0    0    0  501  0.00000000000E+00  0.00000000000E+00 -0.39989874640E+03  0.39989874643E+03  0.50400001928E-02 0.  1.
    10030    2    1    2    0    0  0.00000000000E+00  0.00000000000E+00  0.51730750157E+03  0.13171049944E+04  0.12112631899E+04 0.  0.
        3    1    3    3  502    0 -0.60349595771E+03 -0.44873397960E+02  0.28458331075E+03  0.66873661764E+03  0.10100000352E+00 0.  1.
       -3    1    3    3    0  502  0.60349595771E+03  0.44873397960E+02  0.23272419081E+03  0.64836837678E+03  0.10100000352E+00 0. -1.
</event>
<event>
 5   0  0.3706035E-03  0.1286776E+04  0.7818609E-02  0.9040118E-01
       -2   -1    0    0    0  501  0.00000000000E+00  0.00000000000E+00  0.19840359593E+04  0.19840359593E+04  0.25500000920E-02 0.  1.
        2   -1    0    0  501    0  0.00000000000E+00  0.00000000000E+00 -0.20863928523E+03  0.20863928525E+03  0.25500000920E-02 0. -1.
    10030    2    1    2    0    0  0.00000000000E+00  0.00000000000E+00  0.17753966741E+04  0.21926752446E+04  0.12867755740E+04 0.  0.
        2    1    3    3  502    0  0.52692203414E+01  0.29439482782E+02  0.19828508498E+04  0.19830763829E+04  0.25500000920E-02 0.  1.
       -2    1    3    3    0  502 -0.52692203414E+01 -0.29439482782E+02 -0.20745417567E+03  0.20959886173E+03  0.25500000920E-02 0. -1.
</event>
<event>
 5   0  0.3650180E-03  0.1190205E+04  0.7818609E-02  0.9121474E-01
       -2   -1    0    0    0  501  0.00000000000E+00  0.00000000000E+00  0.87914387898E+03  0.87914387899E+03  0.25500000920E-02 0.  1.
        2   -1    0    0  501    0  0.00000000000E+00  0.00000000000E+00 -0.40283143208E+03  0.40283143209E+03  0.25500000920E-02 0. -1.
    10030    2    1    2    0    0  0.00000000000E+00  0.00000000000E+00  0.47631244690E+03  0.12819753111E+04  0.11902046677E+04 0.  0.
        3    1    3    3  502    0 -0.38120377425E+03  0.24801315851E+03 -0.17526119335E+03  0.48738418152E+03  0.10100000352E+00 0. -1.
       -3    1    3    3    0  502  0.38120377425E+03 -0.24801315851E+03  0.65157364025E+03  0.79459112956E+03  0.10100000352E+00 0.  1.
</event>
<event>
 5   0  0.3751091E-03  0.1186611E+04  0.7818609E-02  0.9124658E-01
       -2   -1    0    0    0  501  0.00000000000E+00  0.00000000000E+00  0.10679875068E+04  0.10679875068E+04  0.25500000920E-02 0. -1.
        2   -1    0    0  501    0  0.00000000000E+00  0.00000000000E+00 -0.32960237270E+03  0.32960237271E+03  0.25500000920E-02 0.  1.
    10030    2    1    2    0    0  0.00000000000E+00  0.00000000000E+00  0.73838513412E+03  0.13975898795E+04  0.11866106628E+04 0.  0.
        5    1    3    3  502    0 -0.46640112908E+03 -0.27423245800E+03  0.65589835770E+03  0.85026948661E+03  0.46999998093E+01 0. -1.
       -5    1    3    3    0  502  0.46640112908E+03  0.27423245800E+03  0.82486776421E+02  0.54732039292E+03  0.46999998093E+01 0.  1.
</event>
<event>
 5   0  0.2134992E-03  0.1190460E+04  0.7818609E-02  0.9121248E-01
        1   -1    0    0  501    0  0.00000000000E+00  0.00000000000E+00  0.59493650010E+03  0.59493650012E+03  0.50400001928E-02 0. -1.
       -1   -1    0    0    0  501  0.00000000000E+00  0.00000000000E+00 -0.59552371981E+03  0.59552371984E+03  0.50400001928E-02 0.  1.
    10030    2    1    2    0    0  0.00000000000E+00  0.00000000000E+00 -0.58721971400E+00  0.11904602200E+04  0.11904600751E+04 0.  0.
        4    1    3    3  502    0  0.49580174553E+03  0.31749695942E+03  0.87304885988E+02  0.59518690017E+03  0.12699999809E+01 0. -1.
       -4    1    3    3    0  502 -0.49580174553E+03 -0.31749695942E+03 -0.87892105702E+02  0.59527331979E+03  0.12699999809E+01 0.  1.
</event>
<event>
 5   0  0.2047109E-03  0.1192920E+04  0.7818609E-02  0.9119076E-01
       -1   -1    0    0    0  501  0.00000000000E+00  0.00000000000E+00  0.82273275711E+03  0.82273275713E+03  0.50400001928E-02 0.  1.
        1   -1    0    0  501    0  0.00000000000E+00  0.00000000000E+00 -0.43241839662E+03  0.43241839665E+03  0.50400001928E-02 0. -1.
    10030    2    1    2    0    0  0.00000000000E+00  0.00000000000E+00  0.39031436049E+03  0.12551511538E+04  0.11929204160E+04 0.  0.
        1    1    3    3  502    0  0.20916006863E+03 -0.49580196374E+03 -0.75552981960E+02  0.54339283641E+03  0.50400001928E-02 0. -1.
       -1    1    3    3    0  502 -0.20916006863E+03  0.49580196374E+03  0.46586734245E+03  0.71175831737E+03  0.50400001928E-02 0.  1.
</event>
<event>
 5   0  0.2078258E-03  0.1200408E+04  0.7818609E-02  0.9112499E-01
       -1   -1    0    0    0  501  0.00000000000E+00  0.00000000000E+00  0.57927739818E+03  0.57927739820E+03  0.50400001928E-02 0. -1.
        1   -1    0    0  501    0  0.00000000000E+00  0.00000000000E+00 -0.62188657505E+03  0.62188657507E+03  0.50400001928E-02 0.  1.
    10030    2    1    2    0    0  0.00000000000E+00  0.00000000000E+00 -0.42609176866E+02  0.12011639733E+04  0.12004079926E+04 0.  0.
        3    1    3    3  502    0 -0.37482364165E+03  0.29844676161E+03 -0.38303134385E+03  0.61341360633E+03  0.10100000352E+00 0.  1.
       -3    1    3    3    0  502  0.37482364165E+03 -0.29844676161E+03  0.34042216699E+03  0.58775036694E+03  0.10100000352E+00 0. -1.
</event>
<event>
 5   0  0.3650180E-03  0.1190807E+04  0.7818609E-02  0.9120941E-01
        2   -1    0    0  501    0  0.00000000000E+00  0.00000000000E+00  0.15202901507E+04  0.15202901507E+04  0.25500000920E-02 0.  1.
       -2   -1    0    0    0  501  0.00000000000E+00  0.00000000000E+00 -0.23318286028E+03  0.23318286030E+03  0.25500000920E-02 0. -1.
    10030    2    1    2    0    0  0.00000000000E+00  0.00000000000E+00  0.12871072904E+04  0.17534730110E+04  0.11908074669E+04 0.  0.
        3    1    3    3  502    0  0.18914187862E+03  0.32982661541E+03  0.13182535761E+04  0.13719886106E+04  0.10100000352E+00 0.  1.
       -3    1    3    3    0  502 -0.18914187862E+03 -0.32982661541E+03 -0.31146285644E+02  0.38148440045E+03  0.10100000352E+00 0. -1.
</event>
<event>
 5   0  0.3706035E-03  0.1129800E+04  0.7818609E-02  0.9176624E-01
       -2   -1    0    0    0  501  0.00000000000E+00  0.00000000000E+00  0.26398470056E+03  0.26398470058E+03  0.25500000920E-02 0. -1.
        2   -1    0    0  501    0  0.00000000000E+00  0.00000000000E+00 -0.12088269241E+04  0.12088269241E+04  0.25500000920E-02 0.  1.
    10030    2    1    2    0    0  0.00000000000E+00  0.00000000000E+00 -0.94484222356E+03  0.14728116247E+04  0.11297996523E+04 0.  0.
        2    1    3    3  502    0  0.54372817996E+03  0.15177878742E+03 -0.49959991960E+03  0.75384163699E+03  0.25500000920E-02 0.  1.
       -2    1    3    3    0  502 -0.54372817996E+03 -0.15177878742E+03 -0.44524230396E+03  0.71896998771E+03  0.25500000920E-02 0. -1.
</event>
<event>
 5   0  0.2096270E-03  0.1177052E+04  0.7818609E-02  0.9133183E-01
       -1   -1    0    0    0  501  0.00000000000E+00  0.00000000000E+00  0.49233765916E+03  0.49233765919E+03  0.50400001928E-02 0. -1.
        1   -1    0    0  501    0  0.00000000000E+00  0.00000000000E+00 -0.70350683082E+03  0.70350683084E+03  0.50400001928E-02 0.  1.
    10030    2    1    2    0    0  0.00000000000E+00  0.00000000000E+00 -0.21116917166E+03  0.11958444900E+04  0.11770520911E+04 0.  0.
        2    1    3    3  502    0  0.29817383053E+03 -0.24095099078E+03  0.34808462519E+03  0.51781069849E+03  0.25500000920E-02 0. -1.
       -2    1    3    3    0  502 -0.29817383053E+03  0.24095099078E+03 -0.55925379685E+03  0.67803379154E+03  0.25500000920E-02 0.  1.
</event>
<event>
 5   0  0.2096270E-03  0.1289447E+04  0.7818609E-02  0.9037976E-01
        1   -1    0    0  501    0  0.00000000000E+00  0.00000000000E+00  0.37902768213E+03  0.37902768216E+03  0.50400001928E-02 0.  1.
       -1   -1    0    0    0  501  0.00000000000E+00  0.00000000000E+00 -0.10966710903E+04  0.10966710903E+04  0.50400001928E-02 0. -1.
    10030    2    1    2    0    0  0.00000000000E+00  0.00000000000E+00 -0.71764340816E+03  0.14756987725E+04  0.12894474808E+04 0.  0.
        2    1    3    3  502    0 -0.31630893035E+03  0.53360000327E+03 -0.55995860484E+03  0.83566377332E+03  0.25500000920E-02 0.  1.
       -2    1    3    3    0  502  0.31630893035E+03 -0.53360000327E+03 -0.15768480332E+03  0.64003499913E+03  0.25500000920E-02 0. -1.
</event>
<event>
 5   0  0.3626049E-03  0.1198929E+04  0.7818609E-02  0.9113794E-01
       -2   -1    0    0    0  501  0.00000000000E+00  0.00000000000E+00  0.22236039877E+03  0.22236039878E+03  0.25500000920E-02 0.  1.
        2   -1    0    0  501    0  0.00000000000E+00  0.00000000000E+00 -0.16161052079E+04  0.16161052079E+04  0.25500000920E-02 0. -1.
    10030    2    1    2    0    0  0.00000000000E+00  0.00000000000E+00 -0.13937448092E+04  0.18384656067E+04  0.11989291864E+04 0.  0.
        1    1    3    3  502    0 -0.49402289883E+03  0.59400505989E+02 -0.12095284309E+04  0.13078784615E+04  0.50400001928E-02 0. -1.
       -1    1    3    3    0  502  0.49402289883E+03 -0.59400505989E+02 -0.18421637823E+03  0.53058714525E+03  0.50400001928E-02 0.  1.
</event>
<event>
 5   0  0.2078258E-03  0.1192646E+04  0.7818609E-02  0.9119318E-01
       -1   -1    0    0    0  501  0.00000000000E+00  0.00000000000E+00  0.31510350209E+03  0.31510350213E+03  0.50400001928E-02 0.  1.
        1   -1    0    0  501    0  0.00000000000E+00  0.00000000000E+00 -0.11285219410E+04  0.11285219410E+04  0.50400001928E-02 0. -1.
    10030    2    1    2    0    0  0.00000000000E+00  0.00000000000E+00 -0.81341843889E+03  0.14436254431E+04  0.11926461601E+04 0.  0.
        3    1    3    3  502    0  0.53766064147E+03 -0.12794746339E+03 -0.13563657910E+03  0.56907539972E+03  0.10100000352E+00 0.  1.
       -3    1    3    3    0  502 -0.53766064147E+03  0.12794746339E+03 -0.67778185978E+03  0.87455004341E+03  0.10100000352E+00 0. -1.
</event>
<event>
 5   0  0.3626049E-03  0.1209226E+04  0.7818609E-02  0.9104819E-01
       -2   -1    0    0    0  501  0.00000000000E+00  0.00000000000E+00  0.19276288871E+03  0.19276288873E+03  0.25500000920E-02 0. -1.
        2   -1    0    0  501    0  0.00000000000E+00  0.00000000000E+00 -0.18964080566E+04  0.18964080566E+04  0.25500000920E-02 0.  1.
    10030    2    1    2    0    0  0.00000000000E+00  0.00000000000E+00 -0.17036451679E+04  0.20891709453E+04  0.12092263563E+04 0.  0.
        1    1    3    3  502    0  0.42185314773E+03 -0.30729794883E+03 -0.13791650405E+04  0.14746146332E+04  0.50400001928E-02 0.  1.
       -1    1    3    3    0  502 -0.42185314773E+03  0.30729794883E+03 -0.32448012736E+03  0.61455631206E+03  0.50400001928E-02 0. -1.
</event>
<event>
 5   0  0.2096270E-03  0.1221639E+04  0.7818609E-02  0.9094124E-01
       -1   -1    0    0    0  501  0.00000000000E+00  0.00000000000E+00  0.83576145366E+03  0.83576145368E+03  0.50400001928E-02 0.  1.
        1   -1    0    0  501    0  0.00000000000E+00  0.00000000000E+00 -0.44641991212E+03  0.44641991215E+03  0.50400001928E-02 0. -1.
    10030    2    1    2    0    0  0.00000000000E+00  0.00000000000E+00  0.38934154155E+03  0.12821813658E+04  0.12216391525E+04 0.  0.
        2    1    3    3  502    0 -0.21657320549E+03  0.92260179013E+02  0.78623872617E+03  0.82072360055E+03  0.25500000920E-02 0.  1.
       -2    1    3    3    0  502  0.21657320549E+03 -0.92260179013E+02 -0.39689718462E+03  0.46145776528E+03  0.25500000920E-02 0. -1.
</event>
<event>
 5   0  0.2134992E-03  0.1212707E+04  0.7818609E-02  0.9101807E-01
       -1   -1    0    0    0  501  0.00000000000E+00  0.00000000000E+00  0.77438079707E+03  0.77438079709E+03  0.50400001928E-02 0.  1.
        1   -1    0    0  501    0  0.00000000000E+00  0.00000000000E+00 -0.47478495523E+03  0.47478495525E+03  0.50400001928E-02 0. -1.
    10030    2    1    2    0    0  0.00000000000E+00  0.00000000000E+00  0.29959584185E+03  0.12491657523E+04  0.12127066456E+04 0.  0.
        4    1    3    3  502    0 -0.26676474520E+03 -0.35139931233E+03 -0.27866154865E+03  0.52182255374E+03  0.12699999809E+01 0. -1.
       -4    1    3    3    0  502  0.26676474520E+03  0.35139931233E+03  0.57825739050E+03  0.72734319861E+03  0.12699999809E+01 0.  1.
</event>
<event>
 5   0  0.3725376E-03  0.1200444E+04  0.7818609E-02  0.9112468E-01
        2   -1    0    0  501    0  0.00000000000E+00  0.00000000000E+00  0.34822094592E+03  0.34822094593E+03  0.25500000920E-02 0. -1.
       -2   -1    0    0    0  501  0.00000000000E+00  0.00000000000E+00 -0.10345921023E+04  0.10345921023E+04  0.25500000920E-02 0.  1.
    10030    2    1    2    0    0  0.00000000000E+00  0.00000000000E+00 -0.68637115635E+03  0.13828130482E+04  0.12004443186E+04 0.  0.
        4    1    3    3  502    0  0.55889710117E+03 -0.10294694789E+03 -0.12071038547E+03  0.58097904768E+03  0.12699999809E+01 0. -1.
       -4    1    3    3    0  502 -0.55889710117E+03  0.10294694789E+03 -0.56566077088E+03  0.80183400052E+03  0.12699999809E+01 0.  1.
</event>
<event>
 5   0  0.3706035E-03  0.1186886E+04  0.7818609E-02  0.9124413E-01
       -2   -1    0    0    0  501  0.00000000000E+00  0.00000000000E+00  0.24695211446E+03  0.24695211448E+03  0.25500000920E-02 0.  1.
        2   -1    0    0  501    0  0.00000000000E+00  0.00000000000E+00 -0.14260842659E+04  0.14260842659E+04  0.25500000920E-02 0. -1.
    10030    2    1    2    0    0  0.00000000000E+00  0.00000000000E+00 -0.11791321514E+04  0.16730363803E+04  0.11868858831E+04 0.  0.
        2    1    3    3  502    0 -0.83750700415E+02 -0.20211687664E+03 -0.13671618642E+04  0.13845565985E+04  0.25500000920E-02 0. -1.
       -2    1    3    3    0  502  0.83750700415E+02  0.20211687664E+03  0.18802971276E+03  0.28847978184E+03  0.25500000920E-02 0.  1.
</event>
<event>
 5   0  0.2025294E-03  0.1197076E+04  0.7818609E-02  0.9115420E-01
       -1   -1    0    0    0  501  0.00000000000E+00  0.00000000000E+00  0.50844558790E+03  0.50844558792E+03  0.50400001928E-02 0. -1.
        1   -1    0    0  501    0  0.00000000000E+00  0.00000000000E+00 -0.70459401978E+03  0.70459401980E+03  0.50400001928E-02 0.  1.
    10030    2    1    2    0    0  0.00000000000E+00  0.00000000000E+00 -0.19614843188E+03  0.12130396077E+04  0.11970759719E+04 0.  0.
        5    1    3    3  502    0  0.51736144227E+03 -0.30089599544E+03 -0.93071927134E+02  0.60571093406E+03  0.46999998093E+01 0. -1.
       -5    1    3    3    0  502 -0.51736144227E+03  0.30089599544E+03 -0.10307650475E+03  0.60732867366E+03  0.46999998093E+01 0.  1.
</event>
<event>
 5   0  0.3751091E-03  0.1202247E+04  0.7818609E-02  0.9110892E-01
        2   -1    0    0  501    0  0.00000000000E+00  0.00000000000E+00  0.11370057942E+04  0.11370057942E+04  0.25500000920E-02 0. -1.
       -2   -1    0    0    0  501  0.00000000000E+00  0.00000000000E+00 -0.31780812414E+03  0.31780812415E+03  0.25500000920E-02 0.  1.
    10030    2    1    2    0    0  0.00000000000E+00  0.00000000000E+00  0.81919767005E+03  0.14548139184E+04  0.12022473599E+04 0.  0.
        5    1    3    3  502    0  0.45554393249E+03  0.37922389954E+03  0.28861185195E+03  0.65927985825E+03  0.46999998093E+01 0.  1.
       -5    1    3    3    0  502 -0.45554393249E+03 -0.37922389954E+03  0.53058581811E+03  0.79553406010E+03  0.46999998093E+01 0. -1.
</event>
<event>
 5   0  0.3706035E-03  0.1205089E+04  0.7818609E-02  0.9108414E-01
        2   -1    0    0  501    0  0.00000000000E+00  0.00000000000E+00  0.58876550625E+03  0.58876550626E+03  0.25500000920E-02 0. -1.
       -2   -1    0    0    0  501  0.00000000000E+00  0.00000000000E+00 -0.61664597136E+03  0.61664597137E+03  0.25500000920E-02 0.  1.
    10030    2    1    2    0    0  0.00000000000E+00  0.00000000000E+00 -0.27880465114E+02  0.12054114776E+04  0.12050890050E+04 0.  0.
        2    1    3    3  502    0 -0.12071882777E+03  0.48938503266E+03  0.31628312982E+03  0.59506786485E+03  0.25500000920E-02 0. -1.
       -2    1    3    3    0  502  0.12071882777E+03 -0.48938503266E+03 -0.34416359494E+03  0.61034361277E+03  0.25500000920E-02 0.  1.
</event>
<event>
 5   0  0.1397500E-03  0.1198012E+04  0.7818609E-02  0.9114598E-01
        4   -1    0    0  501    0  0.00000000000E+00  0.00000000000E+00  0.54050661018E+03  0.54050810220E+03  0.12699999809E+01 0.  1.
       -4   -1    0    0    0  501  0.00000000000E+00  0.00000000000E+00 -0.66383377173E+03  0.66383498657E+03  0.12699999809E+01 0. -1.
    10030    2    1    2    0    0  0.00000000000E+00  0.00000000000E+00 -0.12332716155E+03  0.12043430888E+04  0.11980119727E+04 0.  0.
        4    1    3    3  502    0  0.44110919922E+03 -0.26375729968E+03  0.24763316062E+03  0.57049893419E+03  0.12699999809E+01 0.  1.
       -4    1    3    3    0  502 -0.44110919922E+03  0.26375729968E+03 -0.37096032217E+03  0.63384415458E+03  0.12699999809E+01 0. -1.
</event>
<event>
 5   0  0.2078258E-03  0.1164685E+04  0.7818609E-02  0.9144342E-01
       -1   -1    0    0    0  501  0.00000000000E+00  0.00000000000E+00  0.10029132308E+04  0.10029132308E+04  0.50400001928E-02 0.  1.
        1   -1    0    0  501    0  0.00000000000E+00  0.00000000000E+00 -0.33813775930E+03  0.33813775933E+03  0.50400001928E-02 0. -1.
    10030    2    1    2    0    0  0.00000000000E+00  0.00000000000E+00  0.66477547149E+03  0.13410509901E+04  0.11646850779E+04 0.  0.
        3    1    3    3  502    0  0.16612798960E+03 -0.54812458913E+03  0.21116610902E+03  0.61043444360E+03  0.10100000352E+00 0.  1.
       -3    1    3    3    0  502 -0.16612798960E+03  0.54812458913E+03  0.45360936246E+03  0.73061654652E+03  0.10100000352E+00 0. -1.
</event>
<event>
 5   0  0.3626049E-03  0.1208336E+04  0.7818609E-02  0.9105591E-01
       -2   -1    0    0    0  501  0.00000000000E+00  0.00000000000E+00  0.11886250104E+04  0.11886250104E+04  0.25500000920E-02 0. -1.
        2   -1    0    0  501    0  0.00000000000E+00  0.00000000000E+00 -0.30709359633E+03  0.30709359634E+03  0.25500000920E-02 0.  1.
    10030    2    1    2    0    0  0.00000000000E+00  0.00000000000E+00  0.88153141406E+03  0.14957186067E+04  0.12083362597E+04 0.  0.
        1    1    3    3  502    0 -0.30476968222E+03  0.50503726702E+02  0.10834668900E+04  0.11266479874E+04  0.50400001928E-02 0. -1.
       -1    1    3    3    0  502  0.30476968222E+03 -0.50503726702E+02 -0.20193547596E+03  0.36907061938E+03  0.50400001928E-02 0.  1.
</event>
<event>
 5   0  0.2078258E-03  0.1093543E+04  0.7818609E-02  0.9211508E-01
       -1   -1    0    0    0  501  0.00000000000E+00  0.00000000000E+00  0.24137523482E+03  0.24137523487E+03  0.50400001928E-02 0.  1.
        1   -1    0    0  501    0  0.00000000000E+00  0.00000000000E+00 -0.12385651300E+04  0.12385651300E+04  0.50400001928E-02 0. -1.
    10030    2    1    2    0    0  0.00000000000E+00  0.00000000000E+00 -0.99718989520E+03  0.14799403649E+04  0.10935427731E+04 0.  0.
        3    1    3    3  502    0 -0.33212448834E+03 -0.11025865385E+03 -0.10671532476E+04  0.11230670997E+04  0.10100000352E+00 0. -1.
       -3    1    3    3    0  502  0.33212448834E+03  0.11025865385E+03  0.69963352382E+02  0.35687326516E+03  0.10100000352E+00 0.  1.
</event>
<event>
 5   0  0.3706035E-03  0.1200752E+04  0.7818609E-02  0.9112199E-01
        2   -1    0    0  501    0  0.00000000000E+00  0.00000000000E+00  0.20527518766E+03  0.20527518768E+03  0.25500000920E-02 0. -1.
       -2   -1    0    0    0  501  0.00000000000E+00  0.00000000000E+00 -0.17559420561E+04  0.17559420561E+04  0.25500000920E-02 0.  1.
    10030    2    1    2    0    0  0.00000000000E+00  0.00000000000E+00 -0.15506668684E+04  0.19612172438E+04  0.12007519896E+04 0.  0.
        2    1    3    3  502    0  0.34083408354E+03 -0.35153426480E+03 -0.20786875080E+03  0.53193385810E+03  0.25500000920E-02 0. -1.
       -2    1    3    3    0  502 -0.34083408354E+03  0.35153426480E+03 -0.13427981176E+04  0.14292833857E+04  0.25500000920E-02 0.  1.
</event>
<event>
 5   0  0.3650180E-03  0.1185846E+04  0.7818609E-02  0.9125337E-01
        2   -1    0    0  501    0  0.00000000000E+00  0.00000000000E+00  0.44792889057E+03  0.44792889058E+03  0.25500000920E-02 0.  1.
       -2   -1    0    0    0  501  0.00000000000E+00  0.00000000000E+00 -0.78485101467E+03  0.78485101467E+03  0.25500000920E-02 0. -1.
    10030    2    1    2    0    0  0.00000000000E+00  0.00000000000E+00 -0.33692212410E+03  0.12327799052E+04  0.11858455958E+04 0.  0.
        3    1    3    3  502    0  0.45465824207E+03 -0.33691038391E+03  0.15561148300E+02  0.56609617859E+03  0.10100000352E+00 0.  1.
       -3    1    3    3    0  502 -0.45465824207E+03  0.33691038391E+03 -0.35248327240E+03  0.66668372666E+03  0.10100000352E+00 0. -1.
</event>
<event>
 5   0  0.3626049E-03  0.9378029E+03  0.7818609E-02  0.9379522E-01
       -2   -1    0    0    0  501  0.00000000000E+00  0.00000000000E+00  0.12705876315E+03  0.12705876317E+03  0.25500000920E-02 0. -1.
        2   -1    0    0  501    0  0.00000000000E+00  0.00000000000E+00 -0.17304480635E+04  0.17304480635E+04  0.25500000920E-02 0.  1.
    10030    2    1    2    0    0  0.00000000000E+00  0.00000000000E+00 -0.16033893004E+04  0.18575068267E+04  0.93780294448E+03 0.  0.
        1    1    3    3  502    0 -0.12953308715E+03 -0.21026592559E+03 -0.12197215828E+02  0.24726373012E+03  0.50400001928E-02 0. -1.
       -1    1    3    3    0  502  0.12953308715E+03  0.21026592559E+03 -0.15911920846E+04  0.16102430966E+04  0.50400001928E-02 0.  1.
</event>
<event>
 5   0  0.3751091E-03  0.1052477E+04  0.7818609E-02  0.9252790E-01
        2   -1    0    0  501    0  0.00000000000E+00  0.00000000000E+00  0.29037438085E+03  0.29037438086E+03  0.25500000920E-02 0. -1.
       -2   -1    0    0    0  501  0.00000000000E+00  0.00000000000E+00 -0.95368922500E+03  0.95368922501E+03  0.25500000920E-02 0.  1.
    10030    2    1    2    0    0  0.00000000000E+00  0.00000000000E+00 -0.66331484415E+03  0.12440636059E+04  0.10524769228E+04 0.  0.
        5    1    3    3  502    0  0.12076260656E+03  0.49249289934E+03 -0.49786656961E+03  0.71065186566E+03  0.46999998093E+01 0.  1.
       -5    1    3    3    0  502 -0.12076260656E+03 -0.49249289934E+03 -0.16544827455E+03  0.53341174021E+03  0.46999998093E+01 0. -1.
</event>
<event>
 5   0  0.2134992E-03  0.1201046E+04  0.7818609E-02  0.9111941E-01
        1   -1    0    0  501    0  0.00000000000E+00  0.00000000000E+00  0.87467149951E+03  0.87467149953E+03  0.50400001928E-02 0. -1.
       -1   -1    0    0    0  501  0.00000000000E+00  0.00000000000E+00 -0.41230115713E+03  0.41230115717E+03  0.50400001928E-02 0.  1.
    10030    2    1    2    0    0  0.00000000000E+00  0.00000000000E+00  0.46237034238E+03  0.12869726567E+04  0.12010463295E+04 0.  0.
        4    1    3    3  502    0 -0.64322123280E+02  0.10581240162E+03 -0.39847084564E+03  0.41726996969E+03  0.12699999809E+01 0.  1.
       -4    1    3    3    0  502  0.64322123280E+02 -0.10581240162E+03  0.86084118802E+03  0.86970268700E+03  0.12699999809E+01 0. -1.
</event>
<event>
 5   0  0.2025294E-03  0.1194238E+04  0.7818609E-02  0.9117915E-01
       -1   -1    0    0    0  501  0.00000000000E+00  0.00000000000E+00  0.21370970256E+03  0.21370970262E+03  0.50400001928E-02 0.  1.
        1   -1    0    0  501    0  0.00000000000E+00  0.00000000000E+00 -0.16683898241E+04  0.16683898241E+04  0.50400001928E-02 0. -1.
    10030    2    1    2    0    0  0.00000000000E+00  0.00000000000E+00 -0.14546801216E+04  0.18820995267E+04  0.11942379882E+04 0.  0.
        5    1    3    3  502    0  0.41382665984E+03 -0.31400153471E+03 -0.26334859786E+03  0.58242943108E+03  0.46999998093E+01 0.  1.
       -5    1    3    3    0  502 -0.41382665984E+03  0.31400153471E+03 -0.11913315237E+04  0.12996700957E+04  0.46999998093E+01 0. -1.
</event>
<event>
 5   0  0.3725376E-03  0.1206739E+04  0.7818609E-02  0.9106978E-01
        2   -1    0    0  501    0  0.00000000000E+00  0.00000000000E+00  0.24975980929E+04  0.24975980929E+04  0.25500000920E-02 0. -1.
       -2   -1    0    0    0  501  0.00000000000E+00  0.00000000000E+00 -0.14576200474E+03  0.14576200477E+03  0.25500000920E-02 0.  1.
    10030    2    1    2    0    0  0.00000000000E+00  0.00000000000E+00  0.23518360882E+04  0.26433600977E+04  0.12067392512E+04 0.  0.
        4    1    3    3  502    0 -0.44127229039E+03  0.17800831867E+03  0.36323113714E+03  0.59862063752E+03  0.12699999809E+01 0.  1.
       -4    1    3    3    0  502  0.44127229039E+03 -0.17800831867E+03  0.19886049510E+04  0.20447394601E+04  0.12699999809E+01 0. -1.
</event>
<event>
 5   0  0.2134992E-03  0.1205272E+04  0.7818609E-02  0.9108254E-01
        1   -1    0    0  501    0  0.00000000000E+00  0.00000000000E+00  0.66423688846E+03  0.66423688848E+03  0.50400001928E-02 0. -1.
       -1   -1    0    0    0  501  0.00000000000E+00  0.00000000000E+00 -0.54674818227E+03  0.54674818230E+03  0.50400001928E-02 0.  1.
    10030    2    1    2    0    0  0.00000000000E+00  0.00000000000E+00  0.11748870618E+03  0.12109850708E+04  0.12052722703E+04 0.  0.
        4    1    3    3  502    0 -0.37730603238E+03 -0.32442931327E+03  0.40028863011E+03  0.63862886066E+03  0.12699999809E+01 0. -1.
       -4    1    3    3    0  502  0.37730603238E+03  0.32442931327E+03 -0.28279992393E+03  0.57235621011E+03  0.12699999809E+01 0.  1.
</event>
<event>
 5   0  0.2047109E-03  0.1194391E+04  0.7818609E-02  0.9117780E-01
        1   -1    0    0  501    0  0.00000000000E+00  0.00000000000E+00  0.11618208888E+04  0.11618208888E+04  0.50400001928E-02 0. -1.
       -1   -1    0    0    0  501  0.00000000000E+00  0.00000000000E+00 -0.30696842181E+03  0.30696842185E+03  0.50400001928E-02 0.  1.
    10030    2    1    2    0    0  0.00000000000E+00  0.00000000000E+00  0.85485246703E+03  0.14687893107E+04  0.11943907647E+04 0.  0.
        1    1    3    3  502    0  0.28905533608E+03 -0.24303005384E+03 -0.14148703189E+03  0.40328051603E+03  0.50400001928E-02 0.  1.
       -1    1    3    3    0  502 -0.28905533608E+03  0.24303005384E+03  0.99633949892E+03  0.10655087947E+04  0.50400001928E-02 0. -1.
</event>
<event>
 5   0  0.3626049E-03  0.1188444E+04  0.7818609E-02  0.9123032E-01
       -2   -1    0    0    0  501  0.00000000000E+00  0.00000000000E+00  0.28188124347E+03  0.28188124348E+03  0.25500000920E-02 0. -1.
        2   -1    0    0  501    0  0.00000000000E+00  0.00000000000E+00 -0.12526540023E+04  0.12526540023E+04  0.25500000920E-02 0.  1.
    10030    2    1    2    0    0  0.00000000000E+00  0.00000000000E+00 -0.97077275886E+03  0.15345352458E+04  0.11884438023E+04 0.  0.
        1    1    3    3  502    0  0.56769835932E+03  0.96238979442E+02 -0.29580952110E+03  0.64733811964E+03  0.50400001928E-02 0.  1.
       -1    1    3    3    0  502 -0.56769835932E+03 -0.96238979442E+02 -0.67496323776E+03  0.88719712617E+03  0.50400001928E-02 0. -1.
</event>
<event>
 5   0  0.2025294E-03  0.1153683E+04  0.7818609E-02  0.9154392E-01
       -1   -1    0    0    0  501  0.00000000000E+00  0.00000000000E+00  0.30101925544E+03  0.30101925548E+03  0.50400001928E-02 0. -1.
        1   -1    0    0  501    0  0.00000000000E+00  0.00000000000E+00 -0.11053987948E+04  0.11053987948E+04  0.50400001928E-02 0.  1.
    10030    2    1    2    0    0  0.00000000000E+00  0.00000000000E+00 -0.80437953933E+03  0.14064180503E+04  0.11536833573E+04 0.  0.
        5    1    3    3  502    0 -0.13891268619E+03  0.24564783005E+03  0.21109290957E+03  0.35245126935E+03  0.46999998093E+01 0. -1.
       -5    1    3    3    0  502  0.13891268619E+03 -0.24564783005E+03 -0.10154724489E+04  0.10539667809E+04  0.46999998093E+01 0.  1.
</event>
<event>
 5   0  0.3725376E-03  0.1207385E+04  0.7818609E-02  0.9106417E-01
       -2   -1    0    0    0  501  0.00000000000E+00  0.00000000000E+00  0.45882846637E+03  0.45882846638E+03  0.25500000920E-02 0. -1.
        2   -1    0    0  501    0  0.00000000000E+00  0.00000000000E+00 -0.79429404037E+03  0.79429404038E+03  0.25500000920E-02 0.  1.
    10030    2    1    2    0    0  0.00000000000E+00  0.00000000000E+00 -0.33546557400E+03  0.12531225068E+04  0.12073851356E+04 0.  0.
        4    1    3    3  502    0 -0.23598458814E+03  0.67051012450E+01 -0.74439652896E+03  0.78093629026E+03  0.12699999809E+01 0.  1.
       -4    1    3    3    0  502  0.23598458814E+03 -0.67051012450E+01  0.40893095496E+03  0.47218621649E+03  0.12699999809E+01 0. -1.
</event>
<event>
 5   0  0.3626049E-03  0.1203140E+04  0.7818609E-02  0.9110112E-01
        2   -1    0    0  501    0  0.00000000000E+00  0.00000000000E+00  0.17064921204E+04  0.17064921204E+04  0.25500000920E-02 0. -1.
       -2   -1    0    0    0  501  0.00000000000E+00  0.00000000000E+00 -0.21206464055E+03  0.21206464057E+03  0.25500000920E-02 0.  1.
    10030    2    1    2    0    0  0.00000000000E+00  0.00000000000E+00  0.14944274799E+04  0.19185567610E+04  0.12031402880E+04 0.  0.
        1    1    3    3  502    0 -0.39989566205E+03  0.58684661850E+02  0.14577190147E+04  0.15127144991E+04  0.50400001928E-02 0. -1.
       -1    1    3    3    0  502  0.39989566205E+03 -0.58684661850E+02  0.36708465155E+02  0.40584226184E+03  0.50400001928E-02 0.  1.
</event>
<event>
 5   0  0.3650180E-03  0.1203242E+04  0.7818609E-02  0.9110023E-01
       -2   -1    0    0    0  501  0.00000000000E+00  0.00000000000E+00  0.34495511354E+03  0.34495511355E+03  0.25500000920E-02 0.  1.
        2   -1    0    0  501    0  0.00000000000E+00  0.00000000000E+00 -0.10492612190E+04  0.10492612190E+04  0.25500000920E-02 0. -1.
    10030    2    1    2    0    0  0.00000000000E+00  0.00000000000E+00 -0.70430610544E+03  0.13942163325E+04  0.12032423246E+04 0.  0.
        3    1    3    3  502    0 -0.17308693641E+03 -0.55473759448E+03 -0.17169393177E+03  0.60594694709E+03  0.10100000352E+00 0.  1.
       -3    1    3    3    0  502  0.17308693641E+03  0.55473759448E+03 -0.53261217367E+03  0.78826938544E+03  0.10100000352E+00 0. -1.
</event>
<event>
 5   0  0.3706035E-03  0.1189637E+04  0.7818609E-02  0.9121976E-01
        2   -1    0    0  501    0  0.00000000000E+00  0.00000000000E+00  0.99464789900E+03  0.99464789900E+03  0.25500000920E-02 0.  1.
       -2   -1    0    0    0  501  0.00000000000E+00  0.00000000000E+00 -0.35571278700E+03  0.35571278700E+03  0.25500000920E-02 0. -1.
    10030    2    1    2    0    0  0.00000000000E+00  0.00000000000E+00  0.63893511200E+03  0.13503606860E+04  0.11896368795E+04 0.  0.
        2    1    3    3  502    0 -0.45286148467E+03 -0.48362400333E+02 -0.11482853941E+03  0.46968930106E+03  0.25500000920E-02 0.  1.
       -2    1    3    3    0  502  0.45286148467E+03  0.48362400333E+02  0.75376365141E+03  0.88067138494E+03  0.25500000920E-02 0. -1.
</event>
<event>
 5   0  0.3626049E-03  0.1204392E+04  0.7818609E-02  0.9109021E-01
        2   -1    0    0  501    0  0.00000000000E+00  0.00000000000E+00  0.27051932091E+03  0.27051932092E+03  0.25500000920E-02 0. -1.
       -2   -1    0    0    0  501  0.00000000000E+00  0.00000000000E+00 -0.13405321959E+04  0.13405321959E+04  0.25500000920E-02 0.  1.
    10030    2    1    2    0    0  0.00000000000E+00  0.00000000000E+00 -0.10700128750E+04  0.16110515168E+04  0.12043917291E+04 0.  0.
        1    1    3    3  502    0 -0.25795715176E+03  0.23459753828E+03  0.12175252380E+03  0.36932583742E+03  0.50400001928E-02 0. -1.
       -1    1    3    3    0  502  0.25795715176E+03 -0.23459753828E+03 -0.11917653988E+04  0.12417256794E+04  0.50400001928E-02 0.  1.
</event>
<event>
 5   0  0.3751091E-03  0.1198985E+04  0.7818609E-02  0.9113746E-01
        2   -1    0    0  501    0  0.00000000000E+00  0.00000000000E+00  0.55792461091E+03  0.55792461092E+03  0.25500000920E-02 0. -1.
       -2   -1    0    0    0  501  0.00000000000E+00  0.00000000000E+00 -0.64415697325E+03  0.64415697325E+03  0.25500000920E-02 0.  1.
    10030    2    1    2    0    0  0.00000000000E+00  0.00000000000E+00 -0.86232362338E+02  0.12020815842E+04  0.11989846182E+04 0.  0.
        5    1    3    3  502    0 -0.80261967721E+02  0.37797496790E+03  0.41639274807E+03  0.56807752153E+03  0.46999998093E+01 0. -1.
       -5    1    3    3    0  502  0.80261967721E+02 -0.37797496790E+03 -0.50262511041E+03  0.63400406264E+03  0.46999998093E+01 0.  1.
</event>
<event>
 5   0  0.3706035E-03  0.1207130E+04  0.7818609E-02  0.9106638E-01
        2   -1    0    0  501    0  0.00000000000E+00  0.00000000000E+00  0.12635627241E+04  0.12635627241E+04  0.25500000920E-02 0. -1.
       -2   -1    0    0    0  501  0.00000000000E+00  0.00000000000E+00 -0.28830453423E+03  0.28830453424E+03  0.25500000920E-02 0.  1.
    10030    2    1    2    0    0  0.00000000000E+00  0.00000000000E+00  0.97525818985E+03  0.15518672583E+04  0.12071302542E+04 0.  0.
        2    1    3    3  502    0  0.25242365232E+03 -0.42660276539E+03  0.93033171995E+03  0.10541464456E+04  0.25500000920E-02 0.  1.
       -2    1    3    3    0  502 -0.25242365232E+03  0.42660276539E+03  0.44926469903E+02  0.49772081270E+03  0.25500000920E-02 0. -1.
</event>
<event>
 5   0  0.2078258E-03  0.1209653E+04  0.7818609E-02  0.9104449E-01
       -1   -1    0    0    0  501  0.00000000000E+00  0.00000000000E+00  0.20993839733E+03  0.20993839739E+03  0.50400001928E-02 0. -1.
        1   -1    0    0  501    0  0.00000000000E+00  0.00000000000E+00 -0.17424890625E+04  0.17424890625E+04  0.50400001928E-02 0.  1.
    10030    2    1    2    0    0  0.00000000000E+00  0.00000000000E+00 -0.15325506652E+04  0.19524274599E+04  0.12096534400E+04 0.  0.
        3    1    3    3  502    0 -0.44278493235E+03  0.33575031993E+03 -0.11517183755E+04  0.12787658114E+04  0.10100000352E+00 0.  1.
       -3    1    3    3    0  502  0.44278493235E+03 -0.33575031993E+03 -0.38083228968E+03  0.67366164854E+03  0.10100000352E+00 0. -1.
</event>
<event>
 5   0  0.2047109E-03  0.1176641E+04  0.7818609E-02  0.9133552E-01
       -1   -1    0    0    0  501  0.00000000000E+00  0.00000000000E+00  0.31866543186E+03  0.31866543190E+03  0.50400001928E-02 0. -1.
        1   -1    0    0  501    0  0.00000000000E+00  0.00000000000E+00 -0.10861571262E+04  0.10861571263E+04  0.50400001928E-02 0.  1.
    10030    2    1    2    0    0  0.00000000000E+00  0.00000000000E+00 -0.76749169438E+03  0.14048225582E+04  0.11766405224E+04 0.  0.
        1    1    3    3  502    0 -0.56098622412E+03 -0.15507265624E+03 -0.28126507686E+03  0.64642332558E+03  0.50400001928E-02 0. -1.
       -1    1    3    3    0  502  0.56098622412E+03  0.15507265624E+03 -0.48622661752E+03  0.75839923258E+03  0.50400001928E-02 0.  1.
</event>
<event>
 5   0  0.3725376E-03  0.1192399E+04  0.7818609E-02  0.9119535E-01
        2   -1    0    0  501    0  0.00000000000E+00  0.00000000000E+00  0.31149541379E+03  0.31149541380E+03  0.25500000920E-02 0.  1.
       -2   -1    0    0    0  501  0.00000000000E+00  0.00000000000E+00 -0.11411212889E+04  0.11411212889E+04  0.25500000920E-02 0. -1.
    10030    2    1    2    0    0  0.00000000000E+00  0.00000000000E+00 -0.82962587508E+03  0.14526167027E+04  0.11923993426E+04 0.  0.
        4    1    3    3  502    0  0.25342922990E+02  0.56990562080E+03 -0.20374687499E+03  0.60576322300E+03  0.12699999809E+01 0.  1.
       -4    1    3    3    0  502 -0.25342922990E+02 -0.56990562080E+03 -0.62587900009E+03  0.84685347967E+03  0.12699999809E+01 0. -1.
</event>
<event>
 5   0  0.3751091E-03  0.1168655E+04  0.7818609E-02  0.9140744E-01
        2   -1    0    0  501    0  0.00000000000E+00  0.00000000000E+00  0.42758568628E+03  0.42758568629E+03  0.25500000920E-02 0.  1.
       -2   -1    0    0    0  501  0.00000000000E+00  0.00000000000E+00 -0.79852628835E+03  0.79852628835E+03  0.25500000920E-02 0. -1.
    10030    2    1    2    0    0  0.00000000000E+00  0.00000000000E+00 -0.37094060207E+03  0.12261119746E+04  0.11686546299E+04 0.  0.
        5    1    3    3  502    0 -0.26376330209E+03  0.80943417487E+02  0.35491954077E+03  0.44956966844E+03  0.46999998093E+01 0.  1.
       -5    1    3    3    0  502  0.26376330209E+03 -0.80943417487E+02 -0.72586014284E+03  0.77654230620E+03  0.46999998093E+01 0. -1.
</event>
<event>
 5   0  0.3751091E-03  0.1227041E+04  0.7818609E-02  0.9089511E-01
        2   -1    0    0  501    0  0.00000000000E+00  0.00000000000E+00  0.12471707599E+04  0.12471707599E+04  0.25500000920E-02 0. -1.
       -2   -1    0    0    0  501  0.00000000000E+00  0.00000000000E+00 -0.30180912512E+03  0.30180912513E+03  0.25500000920E-02 0.  1.
    10030    2    1    2    0    0  0.00000000000E+00  0.00000000000E+00  0.94536163480E+03  0.15489798851E+04  0.12270411826E+04 0.  0.
        5    1    3    3  502    0 -0.33083196549E+03 -0.23559509795E+03  0.10531384767E+04  0.11287504510E+04  0.46999998093E+01 0. -1.
       -5    1    3    3    0  502  0.33083196549E+03  0.23559509795E+03 -0.10777684192E+03  0.42022943402E+03  0.46999998093E+01 0.  1.
</event>
<event>
 5   0  0.2134992E-03  0.1193548E+04  0.7818609E-02  0.9118523E-01
        1   -1    0    0  501    0  0.00000000000E+00  0.00000000000E+00  0.14404783430E+04  0.14404783430E+04  0.50400001928E-02 0. -1.
       -1   -1    0    0    0  501  0.00000000000E+00  0.00000000000E+00 -0.24723688070E+03  0.24723688075E+03  0.50400001928E-02 0.  1.
    10030    2    1    2    0    0  0.00000000000E+00  0.00000000000E+00  0.11932414623E+04  0.16877152238E+04  0.11935482769E+04 0.  0.
        4    1    3    3  502    0  0.43418616721E+03 -0.36636318474E+03  0.85503731041E+03  0.10265622368E+04  0.12699999809E+01 0. -1.
       -4    1    3    3    0  502 -0.43418616721E+03  0.36636318474E+03  0.33820415193E+03  0.66115298700E+03  0.12699999809E+01 0.  1.
</event>
<event>
 5   0  0.2025294E-03  0.1163569E+04  0.7818609E-02  0.9145356E-01
        1   -1    0    0  501    0  0.00000000000E+00  0.00000000000E+00  0.11902362049E+04  0.11902362049E+04  0.50400001928E-02 0.  1.
       -1   -1    0    0    0  501  0.00000000000E+00  0.00000000000E+00 -0.28437461209E+03  0.28437461213E+03  0.50400001928E-02 0. -1.
    10030    2    1    2    0    0  0.00000000000E+00  0.00000000000E+00  0.90586159285E+03  0.14746108171E+04  0.11635685783E+04 0.  0.
        5    1    3    3  502    0 -0.17713533634E+03  0.15807741216E+03 -0.22016331563E+03  0.32381996721E+03  0.46999998093E+01 0. -1.
       -5    1    3    3    0  502  0.17713533634E+03 -0.15807741216E+03  0.11260249085E+04  0.11507908499E+04  0.46999998093E+01 0.  1.
</event>
<event>
 5   0  0.3626049E-03  0.1025373E+04  0.7818609E-02  0.9281145E-01
        2   -1    0    0  501    0  0.00000000000E+00  0.00000000000E+00  0.11512077117E+04  0.11512077117E+04  0.25500000920E-02 0. -1.
       -2   -1    0    0    0  501  0.00000000000E+00  0.00000000000E+00 -0.22832337114E+03  0.22832337115E+03  0.25500000920E-02 0.  1.
    10030    2    1    2    0    0  0.00000000000E+00  0.00000000000E+00  0.92288434060E+03  0.13795310829E+04  0.10253733479E+04 0.  0.
        1    1    3    3  502    0  0.26288782177E+03  0.38774869920E+03  0.18119766316E+03  0.50228642598E+03  0.50400001928E-02 0. -1.
       -1    1    3    3    0  502 -0.26288782177E+03 -0.38774869920E+03  0.74168667744E+03  0.87724465691E+03  0.50400001928E-02 0.  1.
</event>
<event>
 5   0  0.3725376E-03  0.1201699E+04  0.7818609E-02  0.9111370E-01
        2   -1    0    0  501    0  0.00000000000E+00  0.00000000000E+00  0.14496790020E+04  0.14496790020E+04  0.25500000920E-02 0. -1.
       -2   -1    0    0    0  501  0.00000000000E+00  0.00000000000E+00 -0.24903467374E+03  0.24903467375E+03  0.25500000920E-02 0.  1.
    10030    2    1    2    0    0  0.00000000000E+00  0.00000000000E+00  0.12006443283E+04  0.16987136758E+04  0.12016993589E+04 0.  0.
        4    1    3    3  502    0  0.31408078893E+03  0.51112440625E+03  0.64771071854E+03  0.88285088687E+03  0.12699999809E+01 0.  1.
       -4    1    3    3    0  502 -0.31408078893E+03 -0.51112440625E+03  0.55293360975E+03  0.81586278891E+03  0.12699999809E+01 0. -1.
</event>
<event>
 5   0  0.3706035E-03  0.1187356E+04  0.7818609E-02  0.9123996E-01
        2   -1    0    0  501    0  0.00000000000E+00  0.00000000000E+00  0.98367804110E+03  0.98367804110E+03  0.25500000920E-02 0. -1.
       -2   -1    0    0    0  501  0.00000000000E+00  0.00000000000E+00 -0.35830175243E+03  0.35830175244E+03  0.25500000920E-02 0.  1.
    10030    2    1    2    0    0  0.00000000000E+00  0.00000000000E+00  0.62537628866E+03  0.13419797935E+04  0.11873559971E+04 0.  0.
        2    1    3    3  502    0  0.12058431970E+03  0.40468329672E+03  0.78433810716E+03  0.89078359614E+03  0.25500000920E-02 0. -1.
       -2    1    3    3    0  502 -0.12058431970E+03 -0.40468329672E+03 -0.15896181850E+03  0.45119619740E+03  0.25500000920E-02 0.  1.
</event>
<event>
 5   0  0.3706035E-03  0.1205650E+04  0.7818609E-02  0.9107925E-01
       -2   -1    0    0    0  501  0.00000000000E+00  0.00000000000E+00  0.53258545164E+03  0.53258545165E+03  0.25500000920E-02 0.  1.
        2   -1    0    0  501    0  0.00000000000E+00  0.00000000000E+00 -0.68232808358E+03  0.68232808359E+03  0.25500000920E-02 0. -1.
    10030    2    1    2    0    0  0.00000000000E+00  0.00000000000E+00 -0.14974263194E+03  0.12149135352E+04  0.12056500497E+04 0.  0.
        2    1    3    3  502    0 -0.31237035733E+03  0.45602249950E+03 -0.31727363650E+03  0.63733375920E+03  0.25500000920E-02 0. -1.
       -2    1    3    3    0  502  0.31237035733E+03 -0.45602249950E+03  0.16753100456E+03  0.57757977604E+03  0.25500000920E-02 0.  1.
</event>
<event>
 5   0  0.1397500E-03  0.1182158E+04  0.7818609E-02  0.9128618E-01
       -4   -1    0    0    0  501  0.00000000000E+00  0.00000000000E+00  0.28659966634E+03  0.28660248018E+03  0.12699999809E+01 0.  1.
        4   -1    0    0  501    0  0.00000000000E+00  0.00000000000E+00 -0.12190241569E+04  0.12190248185E+04  0.12699999809E+01 0. -1.
    10030    2    1    2    0    0  0.00000000000E+00  0.00000000000E+00 -0.93242449056E+03  0.15056272986E+04  0.11821582516E+04 0.  0.
        5    1    3    3  502    0 -0.54051324703E+02  0.12675147764E+03  0.26583456295E+03  0.29946216396E+03  0.46999998093E+01 0.  1.
       -5    1    3    3    0  502  0.54051324703E+02 -0.12675147764E+03 -0.11982590535E+04  0.12061651347E+04  0.46999998093E+01 0. -1.
</event>
<event>
 5   0  0.2078258E-03  0.1213832E+04  0.7818609E-02  0.9100834E-01
        1   -1    0    0  501    0  0.00000000000E+00  0.00000000000E+00  0.26706519615E+03  0.26706519619E+03  0.50400001928E-02 0. -1.
       -1   -1    0    0    0  501  0.00000000000E+00  0.00000000000E+00 -0.13792410361E+04  0.13792410361E+04  0.50400001928E-02 0.  1.
    10030    2    1    2    0    0  0.00000000000E+00  0.00000000000E+00 -0.11121758400E+04  0.16463062323E+04  0.12138324067E+04 0.  0.
        3    1    3    3  502    0 -0.33629937647E+02  0.45835607325E+03 -0.10937085539E+04  0.11863471978E+04  0.10100000352E+00 0.  1.
       -3    1    3    3    0  502  0.33629937647E+02 -0.45835607325E+03 -0.18467286050E+02  0.45995903453E+03  0.10100000352E+00 0. -1.
</event>
<event>
 5   0  0.3751091E-03  0.1198242E+04  0.7818609E-02  0.9114397E-01
       -2   -1    0    0    0  501  0.00000000000E+00  0.00000000000E+00  0.99569058421E+03  0.99569058421E+03  0.25500000920E-02 0. -1.
        2   -1    0    0  501    0  0.00000000000E+00  0.00000000000E+00 -0.36049925572E+03  0.36049925573E+03  0.25500000920E-02 0.  1.
    10030    2    1    2    0    0  0.00000000000E+00  0.00000000000E+00  0.63519132849E+03  0.13561898399E+04  0.11982415692E+04 0.  0.
        5    1    3    3  502    0  0.55041888516E+03 -0.21043882948E+03  0.19528520869E+03  0.62080903088E+03  0.46999998093E+01 0.  1.
       -5    1    3    3    0  502 -0.55041888516E+03  0.21043882948E+03  0.43990611980E+03  0.73538080906E+03  0.46999998093E+01 0. -1.
</event>
<event>
 5   0  0.3626049E-03  0.1210041E+04  0.7818609E-02  0.9104113E-01
        2   -1    0    0  501    0  0.00000000000E+00  0.00000000000E+00  0.10457226141E+04  0.10457226141E+04  0.25500000920E-02 0. -1.
       -2   -1    0    0    0  501  0.00000000000E+00  0.00000000000E+00 -0.35004502118E+03  0.35004502119E+03  0.25500000920E-02 0.  1.
    10030    2    1    2    0    0  0.00000000000E+00  0.00000000000E+00  0.69567759295E+03  0.13957676353E+04  0.12100413127E+04 0.  0.
        1    1    3    3  502    0 -0.57943600666E+03 -0.95574580845E+02  0.18000968896E+03  0.61423454353E+03  0.50400001928E-02 0.  1.
       -1    1    3    3    0  502  0.57943600666E+03  0.95574580845E+02  0.51566790399E+03  0.78153309178E+03  0.50400001928E-02 0. -1.
</event>
<event>
 5   0  0.2134992E-03  0.1189264E+04  0.7818609E-02  0.9122306E-01
       -1   -1    0    0    0  501  0.00000000000E+00  0.00000000000E+00  0.10187780316E+04  0.10187780317E+04  0.50400001928E-02 0. -1.
        1   -1    0    0  501    0  0.00000000000E+00  0.00000000000E+00 -0.34706992006E+03  0.34706992009E+03  0.50400001928E-02 0.  1.
    10030    2    1    2    0    0  0.00000000000E+00  0.00000000000E+00  0.67170811159E+03  0.13658479517E+04  0.11892639909E+04 0.  0.
        4    1    3    3  502    0 -0.26082937815E+03 -0.14532676572E+03  0.92643922896E+03  0.97336688417E+03  0.12699999809E+01 0. -1.
       -4    1    3    3    0  502  0.26082937815E+03  0.14532676572E+03 -0.25473111738E+03  0.39248106757E+03  0.12699999809E+01 0.  1.
</event>
<event>
 5   0  0.2078258E-03  0.1200024E+04  0.7818609E-02  0.9112835E-01
       -1   -1    0    0    0  501  0.00000000000E+00  0.00000000000E+00  0.31921911923E+03  0.31921911927E+03  0.50400001928E-02 0. -1.
        1   -1    0    0  501    0  0.00000000000E+00  0.00000000000E+00 -0.11277971724E+04  0.11277971724E+04  0.50400001928E-02 0.  1.
    10030    2    1    2    0    0  0.00000000000E+00  0.00000000000E+00 -0.80857805316E+03  0.14470162917E+04  0.12000240332E+04 0.  0.
        3    1    3    3  502    0 -0.19839346861E+02 -0.59259928881E+03 -0.29346549751E+03  0.66158107985E+03  0.10100000352E+00 0. -1.
       -3    1    3    3    0  502  0.19839346861E+02  0.59259928881E+03 -0.51511255565E+03  0.78543521182E+03  0.10100000352E+00 0.  1.
</event>
<event>
 5   0  0.3751091E-03  0.1247180E+04  0.7818609E-02  0.9072534E-01
       -2   -1    0    0    0  501  0.00000000000E+00  0.00000000000E+00  0.28481906827E+03  0.28481906829E+03  0.25500000920E-02 0.  1.
        2   -1    0    0  501    0  0.00000000000E+00  0.00000000000E+00 -0.13653031288E+04  0.13653031288E+04  0.25500000920E-02 0. -1.
    10030    2    1    2    0    0  0.00000000000E+00  0.00000000000E+00 -0.10804840606E+04  0.16501221971E+04  0.12471798027E+04 0.  0.
        5    1    3    3  502    0  0.55367051872E+03 -0.26150717898E+03 -0.69626052400E+03  0.92722049979E+03  0.46999998093E+01 0. -1.
       -5    1    3    3    0  502 -0.55367051872E+03  0.26150717898E+03 -0.38422353655E+03  0.72290169732E+03  0.46999998093E+01 0.  1.
</event>
<event>
 5   0  0.1397500E-03  0.1190255E+04  0.7818609E-02  0.9121429E-01
       -4   -1    0    0    0  501  0.00000000000E+00  0.00000000000E+00  0.24542486932E+03  0.24542815523E+03  0.12699999809E+01 0.  1.
        4   -1    0    0  501    0  0.00000000000E+00  0.00000000000E+00 -0.14431039325E+04  0.14431044914E+04  0.12699999809E+01 0. -1.
    10030    2    1    2    0    0  0.00000000000E+00  0.00000000000E+00 -0.11976790632E+04  0.16885326466E+04  0.11902551660E+04 0.  0.
        2    1    3    3  502    0 -0.61207640600E+02 -0.39602562519E+03 -0.12230276865E+04  0.12870040377E+04  0.25500000920E-02 0. -1.
       -2    1    3    3    0  502  0.61207640600E+02  0.39602562519E+03  0.25348623276E+02  0.40152860892E+03  0.25500000920E-02 0.  1.
</event>
<event>
 5   0  0.3706035E-03  0.1205300E+04  0.7818609E-02  0.9108230E-01
        2   -1    0    0  501    0  0.00000000000E+00  0.00000000000E+00  0.16683753185E+04  0.16683753185E+04  0.25500000920E-02 0.  1.
       -2   -1    0    0    0  501  0.00000000000E+00  0.00000000000E+00 -0.21768910342E+03  0.21768910344E+03  0.25500000920E-02 0. -1.
    10030    2    1    2    0    0  0.00000000000E+00  0.00000000000E+00  0.14506862150E+04  0.18860644219E+04  0.12053001738E+04 0.  0.
        2    1    3    3  502    0 -0.47647862133E+03  0.30940356692E+03  0.10399618693E+04  0.11850245286E+04  0.25500000920E-02 0.  1.
       -2    1    3    3    0  502  0.47647862133E+03 -0.30940356692E+03  0.41072434578E+03  0.70103989333E+03  0.25500000920E-02 0. -1.
</event>
<event>
 5   0  0.3725376E-03  0.1203234E+04  0.7818609E-02  0.9110030E-01
        2   -1    0    0  501    0  0.00000000000E+00  0.00000000000E+00  0.11707509062E+04  0.11707509062E+04  0.25500000920E-02 0. -1.
       -2   -1    0    0    0  501  0.00000000000E+00  0.00000000000E+00 -0.30915463885E+03  0.30915463886E+03  0.25500000920E-02 0.  1.
    10030    2    1    2    0    0  0.00000000000E+00  0.00000000000E+00  0.86159626739E+03  0.14799055451E+04  0.12032340979E+04 0.  0.
        4    1    3    3  502    0 -0.39390530447E+03 -0.43163862558E+03  0.60676194541E+03  0.84239834003E+03  0.12699999809E+01 0. -1.
       -4    1    3    3    0  502  0.39390530447E+03  0.43163862558E+03  0.25483432198E+03  0.63750720508E+03  0.12699999809E+01 0.  1.
</event>
<event>
 5   0  0.2047109E-03  0.1209677E+04  0.7818609E-02  0.9104428E-01
       -1   -1    0    0    0  501  0.00000000000E+00  0.00000000000E+00  0.46510988848E+03  0.46510988851E+03  0.50400001928E-02 0.  1.
        1   -1    0    0  501    0  0.00000000000E+00  0.00000000000E+00 -0.78654480907E+03  0.78654480909E+03  0.50400001928E-02 0. -1.
    10030    2    1    2    0    0  0.00000000000E+00  0.00000000000E+00 -0.32143492059E+03  0.12516546976E+04  0.12096772602E+04 0.  0.
        1    1    3    3  502    0  0.52778933902E+02 -0.58423657498E+03 -0.31317984279E+03  0.66498090601E+03  0.50400001928E-02 0. -1.
       -1    1    3    3    0  502 -0.52778933902E+02  0.58423657498E+03 -0.82550778010E+01  0.58667379159E+03  0.50400001928E-02 0.  1.
</event>
<event>
 5   0  0.2047109E-03  0.1140146E+04  0.7818609E-02  0.9166923E-01
        1   -1    0    0  501    0  0.00000000000E+00  0.00000000000E+00  0.38803556616E+03  0.38803556619E+03  0.50400001928E-02 0. -1.
       -1   -1    0    0    0  501  0.00000000000E+00  0.00000000000E+00 -0.83750888344E+03  0.83750888346E+03  0.50400001928E-02 0.  1.
    10030    2    1    2    0    0  0.00000000000E+00  0.00000000000E+00 -0.44947331728E+03  0.12255444496E+04  0.11401460148E+04 0.  0.
        1    1    3    3  502    0 -0.88239927840E+02 -0.21730185398E+03  0.33377450626E+03  0.40793602643E+03  0.50400001928E-02 0. -1.
       -1    1    3    3    0  502  0.88239927840E+02  0.21730185398E+03 -0.78324782354E+03  0.81760842322E+03  0.50400001928E-02 0.  1.
</event>
<event>
 5   0  0.2078258E-03  0.1204291E+04  0.7818609E-02  0.9109109E-01
       -1   -1    0    0    0  501  0.00000000000E+00  0.00000000000E+00  0.54488085805E+03  0.54488085807E+03  0.50400001928E-02 0.  1.
        1   -1    0    0  501    0  0.00000000000E+00  0.00000000000E+00 -0.66542853546E+03  0.66542853548E+03  0.50400001928E-02 0. -1.
    10030    2    1    2    0    0  0.00000000000E+00  0.00000000000E+00 -0.12054767742E+03  0.12103093936E+04  0.12042911133E+04 0.  0.
        3    1    3    3  502    0 -0.51292137939E+03 -0.35992278619E+01  0.25670361273E+03  0.57358351690E+03  0.10100000352E+00 0.  1.
       -3    1    3    3    0  502  0.51292137939E+03  0.35992278619E+01 -0.37725129015E+03  0.63672587665E+03  0.10100000352E+00 0. -1.
</event>
<event>
 5   0  0.3626049E-03  0.1223741E+04  0.7818609E-02  0.9092326E-01
        2   -1    0    0  501    0  0.00000000000E+00  0.00000000000E+00  0.16866297766E+04  0.16866297766E+04  0.25500000920E-02 0.  1.
       -2   -1    0    0    0  501  0.00000000000E+00  0.00000000000E+00 -0.22197250037E+03  0.22197250039E+03  0.25500000920E-02 0. -1.
    10030    2    1    2    0    0  0.00000000000E+00  0.00000000000E+00  0.14646572762E+04  0.19086022770E+04  0.12237408692E+04 0.  0.
        1    1    3    3  502    0 -0.22603085843E+02 -0.59441239500E+03  0.95589956993E+03  0.11258689900E+04  0.50400001928E-02 0. -1.
       -1    1    3    3    0  502  0.22603085843E+02  0.59441239500E+03  0.50875770630E+03  0.78273328699E+03  0.50400001928E-02 0.  1.
</event>
<event>
 5   0  0.1397500E-03  0.1111932E+04  0.7818609E-02  0.9193639E-01
       -3   -1    0    0    0  501  0.00000000000E+00  0.00000000000E+00  0.22630482141E+03  0.22630484395E+03  0.10100000352E+00 0. -1.
        3   -1    0    0  501    0  0.00000000000E+00  0.00000000000E+00 -0.13658491818E+04  0.13658491855E+04  0.10100000352E+00 0.  1.
    10030    2    1    2    0    0  0.00000000000E+00  0.00000000000E+00 -0.11395443603E+04  0.15921540294E+04  0.11119321491E+04 0.  0.
        1    1    3    3  502    0  0.51651043482E+03  0.20539250085E+03 -0.58604576302E+03  0.80772442396E+03  0.50400001928E-02 0. -1.
       -1    1    3    3    0  502 -0.51651043482E+03 -0.20539250085E+03 -0.55349859732E+03  0.78442960547E+03  0.50400001928E-02 0.  1.
</event>
<event>
 5   0  0.3725376E-03  0.1196902E+04  0.7818609E-02  0.9115573E-01
       -2   -1    0    0    0  501  0.00000000000E+00  0.00000000000E+00  0.31272034987E+03  0.31272034988E+03  0.25500000920E-02 0. -1.
        2   -1    0    0  501    0  0.00000000000E+00  0.00000000000E+00 -0.11452513021E+04  0.11452513021E+04  0.25500000920E-02 0.  1.
    10030    2    1    2    0    0  0.00000000000E+00  0.00000000000E+00 -0.83253095222E+03  0.14579716520E+04  0.11969016466E+04 0.  0.
        4    1    3    3  502    0 -0.46319095141E+03 -0.19127832116E+03 -0.81473929954E+03  0.95652234304E+03  0.12699999809E+01 0.  1.
       -4    1    3    3    0  502  0.46319095141E+03  0.19127832116E+03 -0.17791652671E+02  0.50144930892E+03  0.12699999809E+01 0. -1.
</event>
<event>
 5   0  0.2134992E-03  0.1218819E+04  0.7818609E-02  0.9096542E-01
        1   -1    0    0  501    0  0.00000000000E+00  0.00000000000E+00  0.12485192115E+04  0.12485192115E+04  0.50400001928E-02 0. -1.
       -1   -1    0    0    0  501  0.00000000000E+00  0.00000000000E+00 -0.29745636998E+03  0.29745637002E+03  0.50400001928E-02 0.  1.
    10030    2    1    2    0    0  0.00000000000E+00  0.00000000000E+00  0.95106284147E+03  0.15459755815E+04  0.12188190884E+04 0.  0.
        4    1    3    3  502    0 -0.47348274052E+03 -0.35527178902E+03  0.65923112887E+03  0.88599731592E+03  0.12699999809E+01 0. -1.
       -4    1    3    3    0  502  0.47348274052E+03  0.35527178902E+03  0.29183171260E+03  0.65997826557E+03  0.12699999809E+01 0.  1.
</event>
<event>
 5   0  0.2025294E-03  0.1188698E+04  0.7818609E-02  0.9122807E-01
       -1   -1    0    0    0  501  0.00000000000E+00  0.00000000000E+00  0.31610332570E+03  0.31610332574E+03  0.50400001928E-02 0.  1.
        1   -1    0    0  501    0  0.00000000000E+00  0.00000000000E+00 -0.11175175208E+04  0.11175175208E+04  0.50400001928E-02 0. -1.
    10030    2    1    2    0    0  0.00000000000E+00  0.00000000000E+00 -0.80141419512E+03  0.14336208466E+04  0.11886984561E+04 0.  0.
        5    1    3    3  502    0  0.45621574439E+03 -0.37361388575E+03 -0.31119327975E+03  0.66677094149E+03  0.46999998093E+01 0.  1.
       -5    1    3    3    0  502 -0.45621574439E+03  0.37361388575E+03 -0.49022091537E+03  0.76684990508E+03  0.46999998093E+01 0. -1.
</event>
<event>
 5   0  0.3626049E-03  0.1214107E+04  0.7818609E-02  0.9100598E-01
       -2   -1    0    0    0  501  0.00000000000E+00  0.00000000000E+00  0.86735441984E+03  0.86735441984E+03  0.25500000920E-02 0. -1.
        2   -1    0    0  501    0  0.00000000000E+00  0.00000000000E+00 -0.42487112288E+03  0.42487112289E+03  0.25500000920E-02 0.  1.
    10030    2    1    2    0    0  0.00000000000E+00  0.00000000000E+00  0.44248329696E+03  0.12922255427E+04  0.12141068261E+04 0.  0.
        1    1    3    3  502    0  0.16120446804E+03 -0.51813389024E+03  0.51089976243E+03  0.74529737422E+03  0.50400001928E-02 0. -1.
       -1    1    3    3    0  502 -0.16120446804E+03  0.51813389024E+03 -0.68416465475E+02  0.54692816851E+03  0.50400001928E-02 0.  1.
</event>
<event>
 5   0  0.2078258E-03  0.1192820E+04  0.7818609E-02  0.9119164E-01
       -1   -1    0    0    0  501  0.00000000000E+00  0.00000000000E+00  0.49863148053E+03  0.49863148056E+03  0.50400001928E-02 0. -1.
        1   -1    0    0  501    0  0.00000000000E+00  0.00000000000E+00 -0.71336228785E+03  0.71336228787E+03  0.50400001928E-02 0.  1.
    10030    2    1    2    0    0  0.00000000000E+00  0.00000000000E+00 -0.21473080732E+03  0.12119937684E+04  0.11928200095E+04 0.  0.
        3    1    3    3  502    0 -0.90908045372E+02 -0.30117197373E+03  0.40747058905E+03  0.51478259646E+03  0.10100000352E+00 0. -1.
       -3    1    3    3    0  502  0.90908045372E+02  0.30117197373E+03 -0.62220139637E+03  0.69721117197E+03  0.10100000352E+00 0.  1.
</event>
<event>
 5   0  0.3706035E-03  0.1192898E+04  0.7818609E-02  0.9119096E-01
       -2   -1    0    0    0  501  0.00000000000E+00  0.00000000000E+00  0.24548043383E+03  0.24548043385E+03  0.25500000920E-02 0.  1.
        2   -1    0    0  501    0  0.00000000000E+00  0.00000000000E+00 -0.14492048768E+04  0.14492048768E+04  0.25500000920E-02 0. -1.
    10030    2    1    2    0    0  0.00000000000E+00  0.00000000000E+00 -0.12037244430E+04  0.16946853107E+04  0.11928980541E+04 0.  0.
        2    1    3    3  502    0 -0.77161411803E+02 -0.34375115855E+03  0.81869405208E+02  0.36169233057E+03  0.25500000920E-02 0.  1.
       -2    1    3    3    0  502  0.77161411803E+02  0.34375115855E+03 -0.12855938482E+04  0.13329929801E+04  0.25500000920E-02 0. -1.
</event>
<event>
 5   0  0.3706035E-03  0.1250629E+04  0.7818609E-02  0.9069660E-01
       -2   -1    0    0    0  501  0.00000000000E+00  0.00000000000E+00  0.29772838049E+03  0.29772838050E+03  0.25500000920E-02 0. -1.
        2   -1    0    0  501    0  0.00000000000E+00  0.00000000000E+00 -0.13133390256E+04  0.13133390256E+04  0.25500000920E-02 0.  1.
    10030    2    1    2    0    0  0.00000000000E+00  0.00000000000E+00 -0.10156106451E+04  0.16110674061E+04  0.12506291235E+04 0.  0.
        2    1    3    3  502    0  0.11216092776E+03  0.50546472046E+03 -0.56117675151E+02  0.52079156177E+03  0.25500000920E-02 0. -1.
       -2    1    3    3    0  502 -0.11216092776E+03 -0.50546472046E+03 -0.95949296999E+03  0.10902758444E+04  0.25500000920E-02 0.  1.
</event>
<event>
 5   0  0.3725376E-03  0.1200778E+04  0.7818609E-02  0.9112176E-01
       -2   -1    0    0    0  501  0.00000000000E+00  0.00000000000E+00  0.88783563184E+03  0.88783563184E+03  0.25500000920E-02 0. -1.
        2   -1    0    0  501    0  0.00000000000E+00  0.00000000000E+00 -0.40600626331E+03  0.40600626332E+03  0.25500000920E-02 0.  1.
    10030    2    1    2    0    0  0.00000000000E+00  0.00000000000E+00  0.48182936853E+03  0.12938418952E+04  0.12007777935E+04 0.  0.
        4    1    3    3  502    0 -0.14948783082E+03 -0.57271829574E+03  0.13256073381E+03  0.60656971477E+03  0.12699999809E+01 0.  1.
       -4    1    3    3    0  502  0.14948783082E+03  0.57271829574E+03  0.34926863471E+03  0.68727218038E+03  0.12699999809E+01 0. -1.
</event>
<event>
 5   0  0.3751091E-03  0.1195760E+04  0.7818609E-02  0.9116576E-01
       -2   -1    0    0    0  501  0.00000000000E+00  0.00000000000E+00  0.23078195280E+03  0.23078195282E+03  0.25500000920E-02 0. -1.
        2   -1    0    0  501    0  0.00000000000E+00  0.00000000000E+00 -0.15489112097E+04  0.15489112097E+04  0.25500000920E-02 0.  1.
    10030    2    1    2    0    0  0.00000000000E+00  0.00000000000E+00 -0.13181292569E+04  0.17796931625E+04  0.11957604337E+04 0.  0.
        5    1    3    3  502    0 -0.90963196603E+02  0.58518208427E+03 -0.53700031610E+03  0.79943968151E+03  0.46999998093E+01 0.  1.
       -5    1    3    3    0  502  0.90963196603E+02 -0.58518208427E+03 -0.78112894080E+03  0.98025348101E+03  0.46999998093E+01 0. -1.
</event>
<event>
 5   0  0.3626049E-03  0.1123075E+04  0.7818609E-02  0.9182989E-01
       -2   -1    0    0    0  501  0.00000000000E+00  0.00000000000E+00  0.27118795497E+03  0.27118795498E+03  0.25500000920E-02 0.  1.
        2   -1    0    0  501    0  0.00000000000E+00  0.00000000000E+00 -0.11627525286E+04  0.11627525286E+04  0.25500000920E-02 0. -1.
    10030    2    1    2    0    0  0.00000000000E+00  0.00000000000E+00 -0.89156457359E+03  0.14339404836E+04  0.11230752074E+04 0.  0.
        1    1    3    3  502    0  0.91231559855E+02  0.79569229432E+02  0.25432943614E+03  0.28166988107E+03  0.50400001928E-02 0.  1.
       -1    1    3    3    0  502 -0.91231559855E+02 -0.79569229432E+02 -0.11458940097E+04  0.11522706025E+04  0.50400001928E-02 0. -1.
</event>
<event>
 5   0  0.3751091E-03  0.1215724E+04  0.7818609E-02  0.9099204E-01
        2   -1    0    0  501    0  0.00000000000E+00  0.00000000000E+00  0.67657947070E+03  0.67657947070E+03  0.25500000920E-02 0.  1.
       -2   -1    0    0    0  501  0.00000000000E+00  0.00000000000E+00 -0.54612388526E+03  0.54612388527E+03  0.25500000920E-02 0. -1.
    10030    2    1    2    0    0  0.00000000000E+00  0.00000000000E+00  0.13045558544E+03  0.12227033560E+04  0.12157239970E+04 0.  0.
        5    1    3    3  502    0  0.32397786138E+03  0.26109301875E+03  0.51087759250E+03  0.65890001033E+03  0.46999998093E+01 0.  1.
       -5    1    3    3    0  502 -0.32397786138E+03 -0.26109301875E+03 -0.38042200706E+03  0.56380334564E+03  0.46999998093E+01 0. -1.
</event>
<event>
 5   0  0.2134992E-03  0.1202357E+04  0.7818609E-02  0.9110796E-01
        1   -1    0    0  501    0  0.00000000000E+00  0.00000000000E+00  0.85963418736E+03  0.85963418738E+03  0.50400001928E-02 0. -1.
       -1   -1    0    0    0  501  0.00000000000E+00  0.00000000000E+00 -0.42042968505E+03  0.42042968508E+03  0.50400001928E-02 0.  1.
    10030    2    1    2    0    0  0.00000000000E+00  0.00000000000E+00  0.43920450231E+03  0.12800638725E+04  0.12023572359E+04 0.  0.
        4    1    3    3  502    0  0.14448695158E+03  0.41751278704E+03 -0.21444867514E+03  0.49110411695E+03  0.12699999809E+01 0. -1.
       -4    1    3    3    0  502 -0.14448695158E+03 -0.41751278704E+03  0.65365317745E+03  0.78895975551E+03  0.12699999809E+01 0.  1.
</event>
<event>
 5   0  0.2025294E-03  0.1207029E+04  0.7818609E-02  0.9106726E-01
        1   -1    0    0  501    0  0.00000000000E+00  0.00000000000E+00  0.51127289612E+03  0.51127289614E+03  0.50400001928E-02 0. -1.
       -1   -1    0    0    0  501  0.00000000000E+00  0.00000000000E+00 -0.71239758231E+03  0.71239758233E+03  0.50400001928E-02 0.  1.
    10030    2    1    2    0    0  0.00000000000E+00  0.00000000000E+00 -0.20112468619E+03  0.12236704785E+04  0.12070287074E+04 0.  0.
        5    1    3    3  502    0 -0.31105329710E+03 -0.18578724250E+03  0.38872681529E+03  0.53141479095E+03  0.46999998093E+01 0. -1.
       -5    1    3    3    0  502  0.31105329710E+03  0.18578724250E+03 -0.58985150148E+03  0.69225568752E+03  0.46999998093E+01 0.  1.
</event>
<event>
 5   0  0.3725376E-03  0.1194835E+04  0.7818609E-02  0.9117389E-01
       -2   -1    0    0    0  501  0.00000000000E+00  0.00000000000E+00  0.48247443549E+03  0.48247443550E+03  0.25500000920E-02 0.  1.
        2   -1    0    0  501    0  0.00000000000E+00  0.00000000000E+00 -0.73974468042E+03  0.73974468043E+03  0.25500000920E-02 0. -1.
    10030    2    1    2    0    0  0.00000000000E+00  0.00000000000E+00 -0.25727024493E+03  0.12222191159E+04  0.11948353813E+04 0.  0.
        4    1    3    3  502    0  0.31742971221E+03  0.48323684111E+03 -0.28250469017E+03  0.64349823595E+03  0.12699999809E+01 0. -1.
       -4    1    3    3    0  502 -0.31742971221E+03 -0.48323684111E+03  0.25234445241E+02  0.57872087998E+03  0.12699999809E+01 0.  1.
</event>
<event>
 5   0  0.3706035E-03  0.1192987E+04  0.7818609E-02  0.9119017E-01
        2   -1    0    0  501    0  0.00000000000E+00  0.00000000000E+00  0.17714431097E+04  0.17714431097E+04  0.25500000920E-02 0. -1.
       -2   -1    0    0    0  501  0.00000000000E+00  0.00000000000E+00 -0.20085581295E+03  0.20085581296E+03  0.25500000920E-02 0.  1.
    10030    2    1    2    0    0  0.00000000000E+00  0.00000000000E+00  0.15705872968E+04  0.19722989227E+04  0.11929872521E+04 0.  0.
        2    1    3    3  502    0  0.50744793184E+03  0.21624899220E+03  0.11606113915E+04  0.12850236699E+04  0.25500000920E-02 0.  1.
       -2    1    3    3    0  502 -0.50744793184E+03 -0.21624899220E+03  0.40997590528E+03  0.68727525277E+03  0.25500000920E-02 0. -1.
</event>
<event>
 5   0  0.2025294E-03  0.1206784E+04  0.7818609E-02  0.9106940E-01
        1   -1    0    0  501    0  0.00000000000E+00  0.00000000000E+00  0.10464981456E+04  0.10464981456E+04  0.50400001928E-02 0.  1.
       -1   -1    0    0    0  501  0.00000000000E+00  0.00000000000E+00 -0.34790470024E+03  0.34790470027E+03  0.50400001928E-02 0. -1.
    10030    2    1    2    0    0  0.00000000000E+00  0.00000000000E+00  0.69859344537E+03  0.13944028459E+04  0.12067835327E+04 0.  0.
        5    1    3    3  502    0  0.48806430623E+03 -0.21290396194E+03  0.67718309068E+03  0.86147193357E+03  0.46999998093E+01 0.  1.
       -5    1    3    3    0  502 -0.48806430623E+03  0.21290396194E+03  0.21410354688E+02  0.53293091232E+03  0.46999998093E+01 0. -1.
</event>
<event>
 5   0  0.2096270E-03  0.1193756E+04  0.7818609E-02  0.9118340E-01
        1   -1    0    0  501    0  0.00000000000E+00  0.00000000000E+00  0.17170908650E+04  0.17170908650E+04  0.50400001928E-02 0. -1.
       -1   -1    0    0    0  501  0.00000000000E+00  0.00000000000E+00 -0.20748068465E+03  0.20748068471E+03  0.50400001928E-02 0.  1.
    10030    2    1    2    0    0  0.00000000000E+00  0.00000000000E+00  0.15096101804E+04  0.19245715498E+04  0.11937557344E+04 0.  0.
        2    1    3    3  502    0  0.32045639281E+03 -0.11679144534E+03 -0.34893664595E+02  0.34285581406E+03  0.25500000920E-02 0.  1.
       -2    1    3    3    0  502 -0.32045639281E+03  0.11679144534E+03  0.15445038450E+04  0.15817157357E+04  0.25500000920E-02 0. -1.
</event>
<event>
 5   0  0.3751091E-03  0.1215743E+04  0.7818609E-02  0.9099187E-01
        2   -1    0    0  501    0  0.00000000000E+00  0.00000000000E+00  0.26871506719E+04  0.26871506719E+04  0.25500000920E-02 0. -1.
       -2   -1    0    0    0  501  0.00000000000E+00  0.00000000000E+00 -0.13750907883E+03  0.13750907885E+03  0.25500000920E-02 0.  1.
    10030    2    1    2    0    0  0.00000000000E+00  0.00000000000E+00  0.25496415931E+04  0.28246597508E+04  0.12157427583E+04 0.  0.
        5    1    3    3  502    0 -0.55909660218E+03 -0.12330901775E+03  0.80041751393E+03  0.98411605567E+03  0.46999998093E+01 0.  1.
       -5    1    3    3    0  502  0.55909660218E+03  0.12330901775E+03  0.17492240792E+04  0.18405436951E+04  0.46999998093E+01 0. -1.
</event>
<event>
 5   0  0.2096270E-03  0.1186322E+04  0.7818609E-02  0.9124913E-01
        1   -1    0    0  501    0  0.00000000000E+00  0.00000000000E+00  0.95640088610E+03  0.95640088611E+03  0.50400001928E-02 0. -1.
       -1   -1    0    0    0  501  0.00000000000E+00  0.00000000000E+00 -0.36787939858E+03  0.36787939861E+03  0.50400001928E-02 0.  1.
    10030    2    1    2    0    0  0.00000000000E+00  0.00000000000E+00  0.58852148752E+03  0.13242802847E+04  0.11863223555E+04 0.  0.
        2    1    3    3  502    0 -0.41535699189E+03  0.40597166062E+03  0.15981486761E+03  0.60239124484E+03  0.25500000920E-02 0. -1.
       -2    1    3    3    0  502  0.41535699189E+03 -0.40597166062E+03  0.42870661991E+03  0.72188903988E+03  0.25500000920E-02 0.  1.
</event>
<event>
 5   0  0.2078258E-03  0.1184872E+04  0.7818609E-02  0.9126202E-01
       -1   -1    0    0    0  501  0.00000000000E+00  0.00000000000E+00  0.31189652792E+03  0.31189652796E+03  0.50400001928E-02 0.  1.
        1   -1    0    0  501    0  0.00000000000E+00  0.00000000000E+00 -0.11253100997E+04  0.11253100997E+04  0.50400001928E-02 0. -1.
    10030    2    1    2    0    0  0.00000000000E+00  0.00000000000E+00 -0.81341357181E+03  0.14372066277E+04  0.11848718293E+04 0.  0.
        3    1    3    3  502    0  0.16130779510E+03 -0.53453242760E+03 -0.16644446270E+03  0.58262242514E+03  0.10100000352E+00 0. -1.
       -3    1    3    3    0  502 -0.16130779510E+03  0.53453242760E+03 -0.64696910911E+03  0.85458420255E+03  0.10100000352E+00 0.  1.
</event>
<event>
 5   0  0.2047109E-03  0.1196569E+04  0.7818609E-02  0.9115865E-01
       -1   -1    0    0    0  501  0.00000000000E+00  0.00000000000E+00  0.28086679138E+03  0.28086679142E+03  0.50400001928E-02 0.  1.
        1   -1    0    0  501    0  0.00000000000E+00  0.00000000000E+00 -0.12744283357E+04  0.12744283357E+04  0.50400001928E-02 0. -1.
    10030    2    1    2    0    0  0.00000000000E+00  0.00000000000E+00 -0.99356154429E+03  0.15552951271E+04  0.11965694255E+04 0.  0.
        1    1    3    3  502    0 -0.35448799509E+03 -0.47275069876E+03 -0.37492100437E+03  0.69980048684E+03  0.50400001928E-02 0.  1.
       -1    1    3    3    0  502  0.35448799509E+03  0.47275069876E+03 -0.61864053992E+03  0.85549464025E+03  0.50400001928E-02 0. -1.
</event>
<event>
 5   0  0.3626049E-03  0.1194911E+04  0.7818609E-02  0.9117322E-01
       -2   -1    0    0    0  501  0.00000000000E+00  0.00000000000E+00  0.33647588245E+03  0.33647588246E+03  0.25500000920E-02 0. -1.
        2   -1    0    0  501    0  0.00000000000E+00  0.00000000000E+00 -0.10608585503E+04  0.10608585503E+04  0.25500000920E-02 0.  1.
    10030    2    1    2    0    0  0.00000000000E+00  0.00000000000E+00 -0.72438266785E+03  0.13973344328E+04  0.11949114057E+04 0.  0.
        1    1    3    3  502    0  0.28696084002E+03 -0.64605447294E+02  0.24593588267E+03  0.38341210979E+03  0.50400001928E-02 0. -1.
       -1    1    3    3    0  502 -0.28696084002E+03  0.64605447294E+02 -0.97031855052E+03  0.10139223230E+04  0.50400001928E-02 0.  1.
</event>
<event>
 5   0  0.1397500E-03  0.1234495E+04  0.7818609E-02  0.9083187E-01
        3   -1    0    0  501    0  0.00000000000E+00  0.00000000000E+00  0.93133281020E+03  0.93133281567E+03  0.10100000352E+00 0.  1.
       -3   -1    0    0    0  501  0.00000000000E+00  0.00000000000E+00 -0.40908547243E+03  0.40908548490E+03  0.10100000352E+00 0. -1.
    10030    2    1    2    0    0  0.00000000000E+00  0.00000000000E+00  0.52224733776E+03  0.13404183006E+04  0.12344954187E+04 0.  0.
        3    1    3    3  502    0 -0.43043234091E+03  0.12584371998E+02  0.74129443896E+03  0.85729097858E+03  0.10100000352E+00 0.  1.
       -3    1    3    3    0  502  0.43043234091E+03 -0.12584371998E+02 -0.21904710119E+03  0.48312732200E+03  0.10100000352E+00 0. -1.
</event>
<event>
 5   0  0.3650180E-03  0.1161653E+04  0.7818609E-02  0.9147100E-01
        2   -1    0    0  501    0  0.00000000000E+00  0.00000000000E+00  0.55950425551E+03  0.55950425552E+03  0.25500000920E-02 0.  1.
       -2   -1    0    0    0  501  0.00000000000E+00  0.00000000000E+00 -0.60296115356E+03  0.60296115356E+03  0.25500000920E-02 0. -1.
    10030    2    1    2    0    0  0.00000000000E+00  0.00000000000E+00 -0.43456898047E+02  0.11624654091E+04  0.11616528420E+04 0.  0.
        3    1    3    3  502    0  0.51990214434E+03  0.20131235359E+03 -0.18473627690E+03  0.58732648978E+03  0.10100000352E+00 0.  1.
       -3    1    3    3    0  502 -0.51990214434E+03 -0.20131235359E+03  0.14127937885E+03  0.57513891929E+03  0.10100000352E+00 0. -1.
</event>
<event>
 5   0  0.3751091E-03  0.1197059E+04  0.7818609E-02  0.9115434E-01
       -2   -1    0    0    0  501  0.00000000000E+00  0.00000000000E+00  0.21978400789E+03  0.21978400791E+03  0.25500000920E-02 0. -1.
        2   -1    0    0  501    0  0.00000000000E+00  0.00000000000E+00 -0.16299535566E+04  0.16299535566E+04  0.25500000920E-02 0.  1.
    10030    2    1    2    0    0  0.00000000000E+00  0.00000000000E+00 -0.14101695487E+04  0.18497375645E+04  0.11970592723E+04 0.  0.
        5    1    3    3  502    0  0.21004639736E+03 -0.53616916183E+03 -0.95719386380E+03  0.11170671609E+04  0.46999998093E+01 0.  1.
       -5    1    3    3    0  502 -0.21004639736E+03  0.53616916183E+03 -0.45297568487E+03  0.73267040354E+03  0.46999998093E+01 0. -1.
</event>
<event>
 5   0  0.3725376E-03  0.1198399E+04  0.7818609E-02  0.9114259E-01
        2   -1    0    0  501    0  0.00000000000E+00  0.00000000000E+00  0.10244356315E+04  0.10244356315E+04  0.25500000920E-02 0.  1.
       -2   -1    0    0    0  501  0.00000000000E+00  0.00000000000E+00 -0.35047617344E+03  0.35047617345E+03  0.25500000920E-02 0. -1.
    10030    2    1    2    0    0  0.00000000000E+00  0.00000000000E+00  0.67395945809E+03  0.13749118050E+04  0.11983993993E+04 0.  0.
        4    1    3    3  502    0  0.22462247310E+03 -0.46795192382E+02  0.97203732977E+03  0.99875083420E+03  0.12699999809E+01 0.  1.
       -4    1    3    3    0  502 -0.22462247310E+03  0.46795192382E+02 -0.29807787169E+03  0.37616097078E+03  0.12699999809E+01 0. -1.
</event>
<event>
 5   0  0.3626049E-03  0.1199657E+04  0.7818609E-02  0.9113157E-01
       -2   -1    0    0    0  501  0.00000000000E+00  0.00000000000E+00  0.53139016062E+03  0.53139016063E+03  0.25500000920E-02 0.  1.
        2   -1    0    0  501    0  0.00000000000E+00  0.00000000000E+00 -0.67708120689E+03  0.67708120690E+03  0.25500000920E-02 0. -1.
    10030    2    1    2    0    0  0.00000000000E+00  0.00000000000E+00 -0.14569104627E+03  0.12084713675E+04  0.11996571032E+04 0.  0.
        1    1    3    3  502    0 -0.56732636990E+03 -0.15593628965E+03  0.44712188973E+02  0.59006314601E+03  0.50400001928E-02 0. -1.
       -1    1    3    3    0  502  0.56732636990E+03  0.15593628965E+03 -0.19040323524E+03  0.61840822151E+03  0.50400001928E-02 0.  1.
</event>
<event>
 5   0  0.2096270E-03  0.1214380E+04  0.7818609E-02  0.9100362E-01
        1   -1    0    0  501    0  0.00000000000E+00  0.00000000000E+00  0.14800569324E+04  0.14800569324E+04  0.50400001928E-02 0.  1.
       -1   -1    0    0    0  501  0.00000000000E+00  0.00000000000E+00 -0.24909841896E+03  0.24909841901E+03  0.50400001928E-02 0. -1.
    10030    2    1    2    0    0  0.00000000000E+00  0.00000000000E+00  0.12309585134E+04  0.17291553514E+04  0.12143802401E+04 0.  0.
        2    1    3    3  502    0  0.43791851645E+03  0.14937573676E+03  0.55623968842E+02  0.46602549683E+03  0.25500000920E-02 0. -1.
       -2    1    3    3    0  502 -0.43791851645E+03 -0.14937573676E+03  0.11753345446E+04  0.12631298545E+04  0.25500000920E-02 0.  1.
</event>
<event>
 5   0  0.2078258E-03  0.1222950E+04  0.7818609E-02  0.9093002E-01
        1   -1    0    0  501    0  0.00000000000E+00  0.00000000000E+00  0.12137664332E+04  0.12137664332E+04  0.50400001928E-02 0. -1.
       -1   -1    0    0    0  501  0.00000000000E+00  0.00000000000E+00 -0.30805087869E+03  0.30805087873E+03  0.50400001928E-02 0.  1.
    10030    2    1    2    0    0  0.00000000000E+00  0.00000000000E+00  0.90571555453E+03  0.15218173120E+04  0.12229502301E+04 0.  0.
        3    1    3    3  502    0  0.60640348551E+02 -0.16818088568E+03 -0.27480226654E+03  0.32783892093E+03  0.10100000352E+00 0.  1.
       -3    1    3    3    0  502 -0.60640348551E+02  0.16818088568E+03  0.11805178211E+04  0.11939783910E+04  0.10100000352E+00 0. -1.
</event>
<event>
 5   0  0.3650180E-03  0.1196586E+04  0.7818609E-02  0.9115850E-01
        2   -1    0    0  501    0  0.00000000000E+00  0.00000000000E+00  0.34252298502E+03  0.34252298503E+03  0.25500000920E-02 0. -1.
       -2   -1    0    0    0  501  0.00000000000E+00  0.00000000000E+00 -0.10450518140E+04  0.10450518140E+04  0.25500000920E-02 0.  1.
    10030    2    1    2    0    0  0.00000000000E+00  0.00000000000E+00 -0.70252882893E+03  0.13875747990E+04  0.11965855871E+04 0.  0.
        3    1    3    3  502    0 -0.28743876214E+03 -0.22295589546E+02 -0.95918876795E+03  0.10015793718E+04  0.10100000352E+00 0.  1.
       -3    1    3    3    0  502  0.28743876214E+03  0.22295589546E+02  0.25665993902E+03  0.38599542717E+03  0.10100000352E+00 0. -1.
</event>
<event>
 5   0  0.3650180E-03  0.1191942E+04  0.7818609E-02  0.9119939E-01
        2   -1    0    0  501    0  0.00000000000E+00  0.00000000000E+00  0.94116557358E+03  0.94116557358E+03  0.25500000920E-02 0.  1.
       -2   -1    0    0    0  501  0.00000000000E+00  0.00000000000E+00 -0.37738477349E+03  0.37738477350E+03  0.25500000920E-02 0. -1.
    10030    2    1    2    0    0  0.00000000000E+00  0.00000000000E+00  0.56378080009E+03  0.13185503471E+04  0.11919422080E+04 0.  0.
        3    1    3    3  502    0  0.81735519941E+02  0.43982033068E+03  0.71749244231E+03  0.84552825705E+03  0.10100000352E+00 0.  1.
       -3    1    3    3    0  502 -0.81735519941E+02 -0.43982033068E+03 -0.15371164222E+03  0.47302209003E+03  0.10100000352E+00 0. -1.
</event>
<event>
 5   0  0.2096270E-03  0.1083363E+04  0.7818609E-02  0.9221561E-01
       -1   -1    0    0    0  501  0.00000000000E+00  0.00000000000E+00  0.23856491702E+03  0.23856491707E+03  0.50400001928E-02 0.  1.
        1   -1    0    0  501    0  0.00000000000E+00  0.00000000000E+00 -0.12299326881E+04  0.12299326881E+04  0.50400001928E-02 0. -1.
    10030    2    1    2    0    0  0.00000000000E+00  0.00000000000E+00 -0.99136777109E+03  0.14684976052E+04  0.10833628934E+04 0.  0.
        2    1    3    3  502    0  0.80073396614E+02 -0.25982095035E+03  0.13937889701E+03  0.30552438859E+03  0.25500000920E-02 0.  1.
       -2    1    3    3    0  502 -0.80073396614E+02  0.25982095035E+03 -0.11307466681E+04  0.11629732166E+04  0.25500000920E-02 0. -1.
</event>
<event>
 5   0  0.2047109E-03  0.1198474E+04  0.7818609E-02  0.9114193E-01
       -1   -1    0    0    0  501  0.00000000000E+00  0.00000000000E+00  0.26390022740E+03  0.26390022745E+03  0.50400001928E-02 0.  1.
        1   -1    0    0  501    0  0.00000000000E+00  0.00000000000E+00 -0.13606853113E+04  0.13606853114E+04  0.50400001928E-02 0. -1.
    10030    2    1    2    0    0  0.00000000000E+00  0.00000000000E+00 -0.10967850839E+04  0.16245855388E+04  0.11984743020E+04 0.  0.
        1    1    3    3  502    0  0.26484674065E+03  0.49693892293E+03 -0.27061144396E+03  0.62475806740E+03  0.50400001928E-02 0.  1.
       -1    1    3    3    0  502 -0.26484674065E+03 -0.49693892293E+03 -0.82617363998E+03  0.99982747141E+03  0.50400001928E-02 0. -1.
</event>
<event>
 5   0  0.3751091E-03  0.1236751E+04  0.7818609E-02  0.9081283E-01
       -2   -1    0    0    0  501  0.00000000000E+00  0.00000000000E+00  0.22740205136E+03  0.22740205138E+03  0.25500000920E-02 0. -1.
        2   -1    0    0  501    0  0.00000000000E+00  0.00000000000E+00 -0.16815513598E+04  0.16815513598E+04  0.25500000920E-02 0.  1.
    10030    2    1    2    0    0  0.00000000000E+00  0.00000000000E+00 -0.14541493085E+04  0.19089534112E+04  0.12367509510E+04 0.  0.
        5    1    3    3  502    0 -0.37589598394E+03  0.44744755703E+03 -0.41507284571E+03  0.71680866644E+03  0.46999998093E+01 0. -1.
       -5    1    3    3    0  502  0.37589598394E+03 -0.44744755703E+03 -0.10390764628E+04  0.11921447448E+04  0.46999998093E+01 0.  1.
</event>
<event>
 5   0  0.2134992E-03  0.1202231E+04  0.7818609E-02  0.9110906E-01
       -1   -1    0    0    0  501  0.00000000000E+00  0.00000000000E+00  0.72365653601E+03  0.72365653602E+03  0.50400001928E-02 0.  1.
        1   -1    0    0  501    0  0.00000000000E+00  0.00000000000E+00 -0.49932546318E+03  0.49932546320E+03  0.50400001928E-02 0. -1.
    10030    2    1    2    0    0  0.00000000000E+00  0.00000000000E+00  0.22433107283E+03  0.12229819992E+04  0.12022314836E+04 0.  0.
        4    1    3    3  502    0 -0.42032189112E+03  0.30007209365E+03  0.42508630129E+03  0.66888992367E+03  0.12699999809E+01 0.  1.
       -4    1    3    3    0  502  0.42032189112E+03 -0.30007209365E+03 -0.20075522846E+03  0.55409207556E+03  0.12699999809E+01 0. -1.
</event>
<event>
 5   0  0.2047109E-03  0.1197282E+04  0.7818609E-02  0.9115239E-01
       -1   -1    0    0    0  501  0.00000000000E+00  0.00000000000E+00  0.62324944264E+03  0.62324944266E+03  0.50400001928E-02 0.  1.
        1   -1    0    0  501    0  0.00000000000E+00  0.00000000000E+00 -0.57500419300E+03  0.57500419302E+03  0.50400001928E-02 0. -1.
    10030    2    1    2    0    0  0.00000000000E+00  0.00000000000E+00  0.48245249640E+02  0.11982536357E+04  0.11972819932E+04 0.  0.
        1    1    3    3  502    0 -0.29856406703E+03  0.37973665896E+03  0.37800626049E+03  0.61337522388E+03  0.50400001928E-02 0. -1.
       -1    1    3    3    0  502  0.29856406703E+03 -0.37973665896E+03 -0.32976101085E+03  0.58487841179E+03  0.50400001928E-02 0.  1.
</event>
<event>
 5   0  0.3725376E-03  0.1169766E+04  0.7818609E-02  0.9139740E-01
        2   -1    0    0  501    0  0.00000000000E+00  0.00000000000E+00  0.68338052178E+03  0.68338052178E+03  0.25500000920E-02 0.  1.
       -2   -1    0    0    0  501  0.00000000000E+00  0.00000000000E+00 -0.50058209469E+03  0.50058209469E+03  0.25500000920E-02 0. -1.
    10030    2    1    2    0    0  0.00000000000E+00  0.00000000000E+00  0.18279842709E+03  0.11839626165E+04  0.11697658793E+04 0.  0.
        4    1    3    3  502    0  0.31328391407E+03  0.23196569141E+03 -0.34993351149E+03  0.52384154873E+03  0.12699999809E+01 0.  1.
       -4    1    3    3    0  502 -0.31328391407E+03 -0.23196569141E+03  0.53273193858E+03  0.66012106775E+03  0.12699999809E+01 0. -1.
</event>
<event>
 5   0  0.2078258E-03  0.1194276E+04  0.7818609E-02  0.9117882E-01
       -1   -1    0    0    0  501  0.00000000000E+00  0.00000000000E+00  0.26922475002E+03  0.26922475007E+03  0.50400001928E-02 0. -1.
        1   -1    0    0  501    0  0.00000000000E+00  0.00000000000E+00 -0.13244455339E+04  0.13244455340E+04  0.50400001928E-02 0.  1.
    10030    2    1    2    0    0  0.00000000000E+00  0.00000000000E+00 -0.10552207839E+04  0.15936702840E+04  0.11942755425E+04 0.  0.
        3    1    3    3  502    0  0.27771787270E+03  0.29886281457E+03 -0.11094672893E+04  0.11821014656E+04  0.10100000352E+00 0.  1.
       -3    1    3    3    0  502 -0.27771787270E+03 -0.29886281457E+03  0.54246505383E+02  0.41156881842E+03  0.10100000352E+00 0. -1.
</event>
<event>
 5   0  0.2047109E-03  0.1182375E+04  0.7818609E-02  0.9128425E-01
       -1   -1    0    0    0  501  0.00000000000E+00  0.00000000000E+00  0.73878050370E+03  0.73878050371E+03  0.50400001928E-02 0. -1.
        1   -1    0    0  501    0  0.00000000000E+00  0.00000000000E+00 -0.47308031352E+03  0.47308031354E+03  0.50400001928E-02 0.  1.
    10030    2    1    2    0    0  0.00000000000E+00  0.00000000000E+00  0.26570019018E+03  0.12118608173E+04  0.11823747500E+04 0.  0.
        1    1    3    3  502    0  0.44466458729E+03  0.33346076073E+03 -0.73617905703E+02  0.56066234955E+03  0.50400001928E-02 0.  1.
       -1    1    3    3    0  502 -0.44466458729E+03 -0.33346076073E+03  0.33931809588E+03  0.65119846771E+03  0.50400001928E-02 0. -1.
</event>
<event>
 5   0  0.2047109E-03  0.1199935E+04  0.7818609E-02  0.9112913E-01
       -1   -1    0    0    0  501  0.00000000000E+00  0.00000000000E+00  0.28542255960E+03  0.28542255965E+03  0.50400001928E-02 0. -1.
        1   -1    0    0  501    0  0.00000000000E+00  0.00000000000E+00 -0.12611519862E+04  0.12611519862E+04  0.50400001928E-02 0.  1.
    10030    2    1    2    0    0  0.00000000000E+00  0.00000000000E+00 -0.97572942662E+03  0.15465745459E+04  0.11999353783E+04 0.  0.
        1    1    3    3  502    0 -0.18228330678E+03 -0.93479086154E+02 -0.12146792640E+04  0.12318324796E+04  0.50400001928E-02 0.  1.
       -1    1    3    3    0  502  0.18228330678E+03  0.93479086154E+02  0.23894983735E+03  0.31474206626E+03  0.50400001928E-02 0. -1.
</event>
<event>
 5   0  0.2025294E-03  0.1203884E+04  0.7818609E-02  0.9109464E-01
        1   -1    0    0  501    0  0.00000000000E+00  0.00000000000E+00  0.82290613983E+03  0.82290613985E+03  0.50400001928E-02 0.  1.
       -1   -1    0    0    0  501  0.00000000000E+00  0.00000000000E+00 -0.44031025583E+03  0.44031025586E+03  0.50400001928E-02 0. -1.
    10030    2    1    2    0    0  0.00000000000E+00  0.00000000000E+00  0.38259588401E+03  0.12632163957E+04  0.12038837369E+04 0.  0.
        5    1    3    3  502    0 -0.13901822323E+03 -0.58486838036E+03  0.15956104863E+03  0.62199590592E+03  0.46999998093E+01 0.  1.
       -5    1    3    3    0  502  0.13901822323E+03  0.58486838036E+03  0.22303483538E+03  0.64122048979E+03  0.46999998093E+01 0. -1.
</event>
<event>
 5   0  0.2025294E-03  0.1219136E+04  0.7818609E-02  0.9096270E-01
       -1   -1    0    0    0  501  0.00000000000E+00  0.00000000000E+00  0.17945212939E+03  0.17945212946E+03  0.50400001928E-02 0. -1.
        1   -1    0    0  501    0  0.00000000000E+00  0.00000000000E+00 -0.20705986045E+04  0.20705986045E+04  0.50400001928E-02 0.  1.
    10030    2    1    2    0    0  0.00000000000E+00  0.00000000000E+00 -0.18911464751E+04  0.22500507340E+04  0.12191362988E+04 0.  0.
        5    1    3    3  502    0  0.53009515774E+03  0.28645717136E+03 -0.77548992722E+03  0.98207194466E+03  0.46999998093E+01 0. -1.
       -5    1    3    3    0  502 -0.53009515774E+03 -0.28645717136E+03 -0.11156565479E+04  0.12679787893E+04  0.46999998093E+01 0.  1.
</event>
<event>
 5   0  0.2096270E-03  0.1215768E+04  0.7818609E-02  0.9099166E-01
       -1   -1    0    0    0  501  0.00000000000E+00  0.00000000000E+00  0.59925571202E+03  0.59925571204E+03  0.50400001928E-02 0.  1.
        1   -1    0    0  501    0  0.00000000000E+00  0.00000000000E+00 -0.61663610276E+03  0.61663610278E+03  0.50400001928E-02 0. -1.
    10030    2    1    2    0    0  0.00000000000E+00  0.00000000000E+00 -0.17380390746E+02  0.12158918148E+04  0.12157675877E+04 0.  0.
        2    1    3    3  502    0 -0.49247404031E+03  0.16481428257E+03  0.30729822318E+03  0.60342905639E+03  0.25500000920E-02 0.  1.
       -2    1    3    3    0  502  0.49247404031E+03 -0.16481428257E+03 -0.32467861393E+03  0.61246275843E+03  0.25500000920E-02 0. -1.
</event>
<event>
 5   0  0.2096270E-03  0.9273740E+03  0.7818609E-02  0.9391995E-01
       -1   -1    0    0    0  501  0.00000000000E+00  0.00000000000E+00  0.19120555722E+03  0.19120555728E+03  0.50400001928E-02 0. -1.
        1   -1    0    0  501    0  0.00000000000E+00  0.00000000000E+00 -0.11244737131E+04  0.11244737131E+04  0.50400001928E-02 0.  1.
    10030    2    1    2    0    0  0.00000000000E+00  0.00000000000E+00 -0.93326815589E+03  0.13156792704E+04  0.92737397622E+03 0.  0.
        2    1    3    3  502    0 -0.62407625368E+02  0.45945549820E+03 -0.47145695793E+03  0.66126071236E+03  0.25500000920E-02 0. -1.
       -2    1    3    3    0  502  0.62407625368E+02 -0.45945549820E+03 -0.46181119797E+03  0.65441855804E+03  0.25500000920E-02 0.  1.
</event>
<event>
 5   0  0.2096270E-03  0.1193681E+04  0.7818609E-02  0.9118406E-01
       -1   -1    0    0    0  501  0.00000000000E+00  0.00000000000E+00  0.33110886942E+03  0.33110886946E+03  0.50400001928E-02 0.  1.
        1   -1    0    0  501    0  0.00000000000E+00  0.00000000000E+00 -0.10758347867E+04  0.10758347867E+04  0.50400001928E-02 0. -1.
    10030    2    1    2    0    0  0.00000000000E+00  0.00000000000E+00 -0.74472591729E+03  0.14069436562E+04  0.11936807612E+04 0.  0.
        2    1    3    3  502    0 -0.71819192604E+02 -0.41656610363E+03 -0.86898753767E+03  0.96634603313E+03  0.25500000920E-02 0. -1.
       -2    1    3    3    0  502  0.71819192604E+02  0.41656610363E+03  0.12426162038E+03  0.44059762304E+03  0.25500000920E-02 0.  1.
</event>
<event>
 5   0  0.3751091E-03  0.1210598E+04  0.7818609E-02  0.9103630E-01
        2   -1    0    0  501    0  0.00000000000E+00  0.00000000000E+00  0.23146975984E+04  0.23146975984E+04  0.25500000920E-02 0. -1.
       -2   -1    0    0    0  501  0.00000000000E+00  0.00000000000E+00 -0.15828721963E+03  0.15828721965E+03  0.25500000920E-02 0.  1.
    10030    2    1    2    0    0  0.00000000000E+00  0.00000000000E+00  0.21564103787E+04  0.24729848180E+04  0.12105982771E+04 0.  0.
        5    1    3    3  502    0  0.35949365491E+03 -0.21018145169E+03  0.19755248765E+04  0.20189434262E+04  0.46999998093E+01 0. -1.
       -5    1    3    3    0  502 -0.35949365491E+03  0.21018145169E+03  0.18088550224E+03  0.45404139181E+03  0.46999998093E+01 0.  1.
</event>
<event>
 5   0  0.2047109E-03  0.1209868E+04  0.7818609E-02  0.9104263E-01
       -1   -1    0    0    0  501  0.00000000000E+00  0.00000000000E+00  0.20199652875E+03  0.20199652882E+03  0.50400001928E-02 0. -1.
        1   -1    0    0  501    0  0.00000000000E+00  0.00000000000E+00 -0.18116401383E+04  0.18116401383E+04  0.50400001928E-02 0.  1.
    10030    2    1    2    0    0  0.00000000000E+00  0.00000000000E+00 -0.16096436095E+04  0.20136366671E+04  0.12098677934E+04 0.  0.
        1    1    3    3  502    0  0.51912989919E+03  0.29418880408E+03 -0.97043966519E+03  0.11392085184E+04  0.50400001928E-02 0. -1.
       -1    1    3    3    0  502 -0.51912989919E+03 -0.29418880408E+03 -0.63920394431E+03  0.87442814864E+03  0.50400001928E-02 0.  1.
</event>
<event>
 5   0  0.1397500E-03  0.9049423E+03  0.7818609E-02  0.9419424E-01
       -3   -1    0    0    0  501  0.00000000000E+00  0.00000000000E+00  0.61588408531E+03  0.61588409359E+03  0.10100000352E+00 0. -1.
        3   -1    0    0  501    0  0.00000000000E+00  0.00000000000E+00 -0.33241667578E+03  0.33241669112E+03  0.10100000352E+00 0.  1.
    10030    2    1    2    0    0  0.00000000000E+00  0.00000000000E+00  0.28346740953E+03  0.94830078471E+03  0.90494232193E+03 0.  0.
        4    1    3    3  502    0  0.38047814003E+02  0.44100712833E+03  0.43466423800E+02  0.44477619798E+03  0.12699999809E+01 0.  1.
       -4    1    3    3    0  502 -0.38047814003E+02 -0.44100712833E+03  0.24000098573E+03  0.50352458673E+03  0.12699999809E+01 0. -1.
</event>
<event>
 5   0  0.3751091E-03  0.1206818E+04  0.7818609E-02  0.9106910E-01
       -2   -1    0    0    0  501  0.00000000000E+00  0.00000000000E+00  0.23326107580E+03  0.23326107582E+03  0.25500000920E-02 0. -1.
        2   -1    0    0  501    0  0.00000000000E+00  0.00000000000E+00 -0.15609224808E+04  0.15609224808E+04  0.25500000920E-02 0.  1.
    10030    2    1    2    0    0  0.00000000000E+00  0.00000000000E+00 -0.13276614050E+04  0.17941835566E+04  0.12068180594E+04 0.  0.
        5    1    3    3  502    0  0.15619141931E+03  0.65078635572E+02  0.19723951379E+03  0.25991634052E+03  0.46999998093E+01 0. -1.
       -5    1    3    3    0  502 -0.15619141931E+03 -0.65078635572E+02 -0.15249009188E+04  0.15342672161E+04  0.46999998093E+01 0.  1.
</event>
<event>
 5   0  0.2134992E-03  0.1192748E+04  0.7818609E-02  0.9119228E-01
       -1   -1    0    0    0  501  0.00000000000E+00  0.00000000000E+00  0.20434417641E+03  0.20434417647E+03  0.50400001928E-02 0.  1.
        1   -1    0    0  501    0  0.00000000000E+00  0.00000000000E+00 -0.17405044944E+04  0.17405044944E+04  0.50400001928E-02 0. -1.
    10030    2    1    2    0    0  0.00000000000E+00  0.00000000000E+00 -0.15361603179E+04  0.19448486708E+04  0.11927480161E+04 0.  0.
        4    1    3    3  502    0 -0.53080007506E+03 -0.15533470664E+03 -0.40426853581E+03  0.68506368516E+03  0.12699999809E+01 0.  1.
       -4    1    3    3    0  502  0.53080007506E+03  0.15533470664E+03 -0.11318917821E+04  0.12597849857E+04  0.12699999809E+01 0. -1.
</event>
<event>
 5   0  0.3725376E-03  0.1192336E+04  0.7818609E-02  0.9119591E-01
       -2   -1    0    0    0  501  0.00000000000E+00  0.00000000000E+00  0.38014846249E+03  0.38014846250E+03  0.25500000920E-02 0. -1.
        2   -1    0    0  501    0  0.00000000000E+00  0.00000000000E+00 -0.93494103462E+03  0.93494103463E+03  0.25500000920E-02 0.  1.
    10030    2    1    2    0    0  0.00000000000E+00  0.00000000000E+00 -0.55479257213E+03  0.13150894971E+04  0.11923361889E+04 0.  0.
        4    1    3    3  502    0 -0.12345201768E+03 -0.56113706361E+03 -0.10196250166E+03  0.58353506276E+03  0.12699999809E+01 0. -1.
       -4    1    3    3    0  502  0.12345201768E+03  0.56113706361E+03 -0.45283007048E+03  0.73155443437E+03  0.12699999809E+01 0.  1.
</event>
<event>
 5   0  0.3626049E-03  0.1194523E+04  0.7818609E-02  0.9117664E-01
       -2   -1    0    0    0  501  0.00000000000E+00  0.00000000000E+00  0.45424318038E+03  0.45424318039E+03  0.25500000920E-02 0. -1.
        2   -1    0    0  501    0  0.00000000000E+00  0.00000000000E+00 -0.78530934209E+03  0.78530934210E+03  0.25500000920E-02 0.  1.
    10030    2    1    2    0    0  0.00000000000E+00  0.00000000000E+00 -0.33106616171E+03  0.12395525225E+04  0.11945231905E+04 0.  0.
        1    1    3    3  502    0  0.27902545398E+03 -0.18485572565E+03 -0.67884637706E+03  0.75687465736E+03  0.50400001928E-02 0.  1.
       -1    1    3    3    0  502 -0.27902545398E+03  0.18485572565E+03  0.34778021535E+03  0.48267786513E+03  0.50400001928E-02 0. -1.
</event>
<event>
 5   0  0.2078258E-03  0.1179282E+04  0.7818609E-02  0.9131187E-01
       -1   -1    0    0    0  501  0.00000000000E+00  0.00000000000E+00  0.98560709799E+03  0.98560709800E+03  0.50400001928E-02 0.  1.
        1   -1    0    0  501    0  0.00000000000E+00  0.00000000000E+00 -0.35275349490E+03  0.35275349494E+03  0.50400001928E-02 0. -1.
    10030    2    1    2    0    0  0.00000000000E+00  0.00000000000E+00  0.63285360309E+03  0.13383605929E+04  0.11792817279E+04 0.  0.
        3    1    3    3  502    0 -0.10004200907E+03 -0.30623103223E+03  0.87689761791E+03  0.93420302460E+03  0.10100000352E+00 0.  1.
       -3    1    3    3    0  502  0.10004200907E+03  0.30623103223E+03 -0.24404401482E+03  0.40415756834E+03  0.10100000352E+00 0. -1.
</event>
<event>
 5   0  0.3650180E-03  0.1169378E+04  0.7818609E-02  0.9140091E-01
        2   -1    0    0  501    0  0.00000000000E+00  0.00000000000E+00  0.14429424968E+04  0.14429424968E+04  0.25500000920E-02 0. -1.
       -2   -1    0    0    0  501  0.00000000000E+00  0.00000000000E+00 -0.23691935420E+03  0.23691935421E+03  0.25500000920E-02 0.  1.
    10030    2    1    2    0    0  0.00000000000E+00  0.00000000000E+00  0.12060231426E+04  0.16798618510E+04  0.11693776199E+04 0.  0.
        3    1    3    3  502    0  0.24132452381E+03  0.34549366067E+03  0.11852240705E+04  0.12579187187E+04  0.10100000352E+00 0. -1.
       -3    1    3    3    0  502 -0.24132452381E+03 -0.34549366067E+03  0.20799072161E+02  0.42194313237E+03  0.10100000352E+00 0.  1.
</event>
<event>
 5   0  0.2134992E-03  0.1187557E+04  0.7818609E-02  0.9123818E-01
        1   -1    0    0  501    0  0.00000000000E+00  0.00000000000E+00  0.40142843981E+03  0.40142843984E+03  0.50400001928E-02 0.  1.
       -1   -1    0    0    0  501  0.00000000000E+00  0.00000000000E+00 -0.87829547981E+03  0.87829547982E+03  0.50400001928E-02 0. -1.
    10030    2    1    2    0    0  0.00000000000E+00  0.00000000000E+00 -0.47686704000E+03  0.12797239197E+04  0.11875567931E+04 0.  0.
        4    1    3    3  502    0  0.20723975486E+02  0.58158200015E+02  0.39795861745E+03  0.40272140928E+03  0.12699999809E+01 0.  1.
       -4    1    3    3    0  502 -0.20723975486E+02 -0.58158200015E+02 -0.87482565745E+03  0.87700251038E+03  0.12699999809E+01 0. -1.
</event>
<event>
 5   0  0.3706035E-03  0.1190350E+04  0.7818609E-02  0.9121346E-01
       -2   -1    0    0    0  501  0.00000000000E+00  0.00000000000E+00  0.27157821675E+03  0.27157821676E+03  0.25500000920E-02 0. -1.
        2   -1    0    0  501    0  0.00000000000E+00  0.00000000000E+00 -0.13043499604E+04  0.13043499604E+04  0.25500000920E-02 0.  1.
    10030    2    1    2    0    0  0.00000000000E+00  0.00000000000E+00 -0.10327717436E+04  0.15759281771E+04  0.11903495894E+04 0.  0.
        2    1    3    3  502    0  0.41660079534E+03  0.25369217071E+03 -0.64858929150E+02  0.49205957043E+03  0.25500000920E-02 0. -1.
       -2    1    3    3    0  502 -0.41660079534E+03 -0.25369217071E+03 -0.96791281446E+03  0.10838686067E+04  0.25500000920E-02 0.  1.
</event>
<event>
 5   0  0.2134992E-03  0.1210263E+04  0.7818609E-02  0.9103920E-01
       -1   -1    0    0    0  501  0.00000000000E+00  0.00000000000E+00  0.62574012022E+03  0.62574012024E+03  0.50400001928E-02 0.  1.
        1   -1    0    0  501    0  0.00000000000E+00  0.00000000000E+00 -0.58520171218E+03  0.58520171220E+03  0.50400001928E-02 0. -1.
    10030    2    1    2    0    0  0.00000000000E+00  0.00000000000E+00  0.40538408039E+02  0.12109418324E+04  0.12102630950E+04 0.  0.
        4    1    3    3  502    0  0.10193875596E+03  0.29658748539E+03 -0.49754101124E+03  0.58813630837E+03  0.12699999809E+01 0. -1.
       -4    1    3    3    0  502 -0.10193875596E+03 -0.29658748539E+03  0.53807941928E+03  0.62280552407E+03  0.12699999809E+01 0.  1.
</event>
<event>
 5   0  0.2134992E-03  0.1199380E+04  0.7818609E-02  0.9113399E-01
        1   -1    0    0  501    0  0.00000000000E+00  0.00000000000E+00  0.44867281454E+03  0.44867281457E+03  0.50400001928E-02 0.  1.
       -1   -1    0    0    0  501  0.00000000000E+00  0.00000000000E+00 -0.80153750725E+03  0.80153750726E+03  0.50400001928E-02 0. -1.
    10030    2    1    2    0    0  0.00000000000E+00  0.00000000000E+00 -0.35286469271E+03  0.12502103218E+04  0.11993799888E+04 0.  0.
        4    1    3    3  502    0 -0.19004296555E+02 -0.98695559910E+02 -0.79269392621E+03  0.79904145724E+03  0.12699999809E+01 0. -1.
       -4    1    3    3    0  502  0.19004296555E+02  0.98695559910E+02  0.43982923350E+03  0.45116886459E+03  0.12699999809E+01 0.  1.
</event>
<event>
 5   0  0.2096270E-03  0.1206956E+04  0.7818609E-02  0.9106790E-01
       -1   -1    0    0    0  501  0.00000000000E+00  0.00000000000E+00  0.36858328880E+03  0.36858328884E+03  0.50400001928E-02 0.  1.
        1   -1    0    0  501    0  0.00000000000E+00  0.00000000000E+00 -0.98806850308E+03  0.98806850310E+03  0.50400001928E-02 0. -1.
    10030    2    1    2    0    0  0.00000000000E+00  0.00000000000E+00 -0.61948521428E+03  0.13566517919E+04  0.12069557381E+04 0.  0.
        2    1    3    3  502    0  0.69511039275E+02 -0.16875275129E+03  0.33681891407E+03  0.38308779220E+03  0.25500000920E-02 0.  1.
       -2    1    3    3    0  502 -0.69511039275E+02  0.16875275129E+03 -0.95630412836E+03  0.97356399973E+03  0.25500000920E-02 0. -1.
</event>
<event>
 5   0  0.3706035E-03  0.1201039E+04  0.7818609E-02  0.9111948E-01
        2   -1    0    0  501    0  0.00000000000E+00  0.00000000000E+00  0.13097681485E+04  0.13097681485E+04  0.25500000920E-02 0.  1.
       -2   -1    0    0    0  501  0.00000000000E+00  0.00000000000E+00 -0.27533391982E+03  0.27533391983E+03  0.25500000920E-02 0. -1.
    10030    2    1    2    0    0  0.00000000000E+00  0.00000000000E+00  0.10344342287E+04  0.15851020684E+04  0.12010388810E+04 0.  0.
        2    1    3    3  502    0 -0.49476051416E+03  0.23325337875E+03  0.84432054379E+03  0.10060180345E+04  0.25500000920E-02 0. -1.
       -2    1    3    3    0  502  0.49476051416E+03 -0.23325337875E+03  0.19011368492E+03  0.57908403386E+03  0.25500000920E-02 0.  1.
</event>
<event>
 5   0  0.3626049E-03  0.1231928E+04  0.7818609E-02  0.9085360E-01
       -2   -1    0    0    0  501  0.00000000000E+00  0.00000000000E+00  0.33940584215E+04  0.33940584215E+04  0.25500000920E-02 0.  1.
        2   -1    0    0  501    0  0.00000000000E+00  0.00000000000E+00 -0.11178704857E+03  0.11178704860E+03  0.25500000920E-02 0. -1.
    10030    2    1    2    0    0  0.00000000000E+00  0.00000000000E+00  0.32822713729E+04  0.35058454701E+04  0.12319282019E+04 0.  0.
        1    1    3    3  502    0  0.93511489691E+02 -0.71065107315E+02  0.33618970132E+04  0.33639480043E+04  0.50400001928E-02 0.  1.
       -1    1    3    3    0  502 -0.93511489691E+02  0.71065107315E+02 -0.79625640293E+02  0.14189746580E+03  0.50400001928E-02 0. -1.
</event>
<event>
 5   0  0.1397500E-03  0.1182797E+04  0.7818609E-02  0.9128049E-01
        4   -1    0    0  501    0  0.00000000000E+00  0.00000000000E+00  0.92061302640E+03  0.92061390240E+03  0.12699999809E+01 0. -1.
       -4   -1    0    0    0  501  0.00000000000E+00  0.00000000000E+00 -0.37991045327E+03  0.37991257600E+03  0.12699999809E+01 0.  1.
    10030    2    1    2    0    0  0.00000000000E+00  0.00000000000E+00  0.54070257313E+03  0.13005264784E+04  0.11827974672E+04 0.  0.
        4    1    3    3  502    0  0.53961146457E+03  0.21055117588E+01  0.42596884396E+01  0.53963387933E+03  0.12699999809E+01 0.  1.
       -4    1    3    3    0  502 -0.53961146457E+03 -0.21055117588E+01  0.53644288469E+03  0.76089259907E+03  0.12699999809E+01 0. -1.
</event>
<event>
 5   0  0.3626049E-03  0.9625476E+03  0.7818609E-02  0.9350603E-01
        2   -1    0    0  501    0  0.00000000000E+00  0.00000000000E+00  0.77136584844E+03  0.77136584845E+03  0.25500000920E-02 0. -1.
       -2   -1    0    0    0  501  0.00000000000E+00  0.00000000000E+00 -0.30027834704E+03  0.30027834705E+03  0.25500000920E-02 0.  1.
    10030    2    1    2    0    0  0.00000000000E+00  0.00000000000E+00  0.47108750140E+03  0.10716441955E+04  0.96254758208E+03 0.  0.
        1    1    3    3  502    0 -0.16244913033E+03 -0.47566948623E+02 -0.26604364007E+03  0.31532769145E+03  0.50400001928E-02 0.  1.
       -1    1    3    3    0  502  0.16244913033E+03  0.47566948623E+02  0.73713114147E+03  0.75631650405E+03  0.50400001928E-02 0. -1.
</event>
<event>
 5   0  0.2047109E-03  0.1209956E+04  0.7818609E-02  0.9104187E-01
        1   -1    0    0  501    0  0.00000000000E+00  0.00000000000E+00  0.38939200186E+03  0.38939200189E+03  0.50400001928E-02 0.  1.
       -1   -1    0    0    0  501  0.00000000000E+00  0.00000000000E+00 -0.93992246301E+03  0.93992246302E+03  0.50400001928E-02 0. -1.
    10030    2    1    2    0    0  0.00000000000E+00  0.00000000000E+00 -0.55053046115E+03  0.13293144649E+04  0.12099558496E+04 0.  0.
        1    1    3    3  502    0  0.23050048326E+03  0.31537183932E+03 -0.78279787577E+03  0.87484992093E+03  0.50400001928E-02 0. -1.
       -1    1    3    3    0  502 -0.23050048326E+03 -0.31537183932E+03  0.23226741462E+03  0.45446454398E+03  0.50400001928E-02 0.  1.
</event>
<event>
 5   0  0.3751091E-03  0.1205404E+04  0.7818609E-02  0.9108139E-01
       -2   -1    0    0    0  501  0.00000000000E+00  0.00000000000E+00  0.23697412686E+03  0.23697412687E+03  0.25500000920E-02 0.  1.
        2   -1    0    0  501    0  0.00000000000E+00  0.00000000000E+00 -0.15328675023E+04  0.15328675023E+04  0.25500000920E-02 0. -1.
    10030    2    1    2    0    0  0.00000000000E+00  0.00000000000E+00 -0.12958933755E+04  0.17698416292E+04  0.12054043935E+04 0.  0.
        5    1    3    3  502    0 -0.52242251135E+03 -0.99939232358E+02 -0.23184526192E+03  0.58024774536E+03  0.46999998093E+01 0.  1.
       -5    1    3    3    0  502  0.52242251135E+03  0.99939232358E+02 -0.10640481135E+04  0.11895938838E+04  0.46999998093E+01 0. -1.
</event>
<event>
 5   0  0.1397500E-03  0.1194482E+04  0.7818609E-02  0.9117700E-01
       -3   -1    0    0    0  501  0.00000000000E+00  0.00000000000E+00  0.56721239314E+03  0.56721240213E+03  0.10100000352E+00 0.  1.
        3   -1    0    0  501    0  0.00000000000E+00  0.00000000000E+00 -0.62885968235E+03  0.62885969046E+03  0.10100000352E+00 0. -1.
    10030    2    1    2    0    0  0.00000000000E+00  0.00000000000E+00 -0.61647289207E+02  0.11960720926E+04  0.11944823408E+04 0.  0.
        1    1    3    3  502    0 -0.92199959906E+02 -0.13905719535E+03 -0.60504940853E+03  0.62763247444E+03  0.50400001928E-02 0. -1.
       -1    1    3    3    0  502  0.92199959906E+02  0.13905719535E+03  0.54340211932E+03  0.56843961816E+03  0.50400001928E-02 0.  1.
</event>
<event>
 5   0  0.3725376E-03  0.1095291E+04  0.7818609E-02  0.9209793E-01
       -2   -1    0    0    0  501  0.00000000000E+00  0.00000000000E+00  0.11803425295E+04  0.11803425295E+04  0.25500000920E-02 0.  1.
        2   -1    0    0  501    0  0.00000000000E+00  0.00000000000E+00 -0.25409221959E+03  0.25409221960E+03  0.25500000920E-02 0. -1.
    10030    2    1    2    0    0  0.00000000000E+00  0.00000000000E+00  0.92625030987E+03  0.14344347491E+04  0.10952914739E+04 0.  0.
        4    1    3    3  502    0  0.43310913082E+03  0.28033653694E+03  0.70369292802E+03  0.87255798832E+03  0.12699999809E+01 0.  1.
       -4    1    3    3    0  502 -0.43310913082E+03 -0.28033653694E+03  0.22255738185E+03  0.56187676074E+03  0.12699999809E+01 0. -1.
</event>
<event>
 5   0  0.3725376E-03  0.1214449E+04  0.7818609E-02  0.9100302E-01
        2   -1    0    0  501    0  0.00000000000E+00  0.00000000000E+00  0.14726996443E+04  0.14726996443E+04  0.25500000920E-02 0.  1.
       -2   -1    0    0    0  501  0.00000000000E+00  0.00000000000E+00 -0.25037135843E+03  0.25037135845E+03  0.25500000920E-02 0. -1.
    10030    2    1    2    0    0  0.00000000000E+00  0.00000000000E+00  0.12223282859E+04  0.17230710028E+04  0.12144493576E+04 0.  0.
        4    1    3    3  502    0  0.42549969340E+03 -0.41096751232E+03  0.41675159637E+03  0.72362130375E+03  0.12699999809E+01 0.  1.
       -4    1    3    3    0  502 -0.42549969340E+03  0.41096751232E+03  0.80557668954E+03  0.99944969903E+03  0.12699999809E+01 0. -1.
</event>
<event>
 5   0  0.2096270E-03  0.1201219E+04  0.7818609E-02  0.9111791E-01
        1   -1    0    0  501    0  0.00000000000E+00  0.00000000000E+00  0.32506056324E+03  0.32506056328E+03  0.50400001928E-02 0.  1.
       -1   -1    0    0    0  501  0.00000000000E+00  0.00000000000E+00 -0.11097363262E+04  0.11097363262E+04  0.50400001928E-02 0. -1.
    10030    2    1    2    0    0  0.00000000000E+00  0.00000000000E+00 -0.78467576298E+03  0.14347968895E+04  0.12012185734E+04 0.  0.
        2    1    3    3  502    0 -0.13636009042E+03 -0.45254622552E+03 -0.83499340642E+03  0.95948222978E+03  0.25500000920E-02 0. -1.
       -2    1    3    3    0  502  0.13636009042E+03  0.45254622552E+03  0.50317643445E+02  0.47531465972E+03  0.25500000920E-02 0.  1.
</event>
<event>
 5   0  0.2078258E-03  0.1194744E+04  0.7818609E-02  0.9117469E-01
        1   -1    0    0  501    0  0.00000000000E+00  0.00000000000E+00  0.55504510075E+03  0.55504510077E+03  0.50400001928E-02 0. -1.
       -1   -1    0    0    0  501  0.00000000000E+00  0.00000000000E+00 -0.64292699248E+03  0.64292699250E+03  0.50400001928E-02 0.  1.
    10030    2    1    2    0    0  0.00000000000E+00  0.00000000000E+00 -0.87881891736E+02  0.11979720933E+04  0.11947442862E+04 0.  0.
        3    1    3    3  502    0 -0.51797917744E+03  0.25515197309E+03  0.10960182022E+03  0.58772232120E+03  0.10100000352E+00 0. -1.
       -3    1    3    3    0  502  0.51797917744E+03 -0.25515197309E+03 -0.19748371195E+03  0.61024977208E+03  0.10100000352E+00 0.  1.
</event>
<event>
 5   0  0.2025294E-03  0.1212102E+04  0.7818609E-02  0.9102329E-01
        1   -1    0    0  501    0  0.00000000000E+00  0.00000000000E+00  0.45683707909E+03  0.45683707912E+03  0.50400001928E-02 0.  1.
       -1   -1    0    0    0  501  0.00000000000E+00  0.00000000000E+00 -0.80400195084E+03  0.80400195085E+03  0.50400001928E-02 0. -1.
    10030    2    1    2    0    0  0.00000000000E+00  0.00000000000E+00 -0.34716487174E+03  0.12608390300E+04  0.12121021456E+04 0.  0.
        5    1    3    3  502    0 -0.37968567751E+03 -0.43394524371E+03  0.20483030097E+02  0.57698469024E+03  0.46999998093E+01 0.  1.
       -5    1    3    3    0  502  0.37968567751E+03  0.43394524371E+03 -0.36764790184E+03  0.68385433973E+03  0.46999998093E+01 0. -1.
</event>
<event>
 5   0  0.3725376E-03  0.1166031E+04  0.7818609E-02  0.9143120E-01
        2   -1    0    0  501    0  0.00000000000E+00  0.00000000000E+00  0.20231152376E+03  0.20231152378E+03  0.25500000920E-02 0. -1.
       -2   -1    0    0    0  501  0.00000000000E+00  0.00000000000E+00 -0.16801176401E+04  0.16801176401E+04  0.25500000920E-02 0.  1.
    10030    2    1    2    0    0  0.00000000000E+00  0.00000000000E+00 -0.14778061164E+04  0.18824291639E+04  0.11660311486E+04 0.  0.
        4    1    3    3  502    0 -0.39140469215E+03 -0.20636325328E+02 -0.14356803716E+04  0.14882215001E+04  0.12699999809E+01 0.  1.
       -4    1    3    3    0  502  0.39140469215E+03  0.20636325328E+02 -0.42125744770E+02  0.39420766384E+03  0.12699999809E+01 0. -1.
</event>
<event>
 5   0  0.3751091E-03  0.1208944E+04  0.7818609E-02  0.9105064E-01
        2   -1    0    0  501    0  0.00000000000E+00  0.00000000000E+00  0.34880711327E+03  0.34880711328E+03  0.25500000920E-02 0.  1.
       -2   -1    0    0    0  501  0.00000000000E+00  0.00000000000E+00 -0.10475307311E+04  0.10475307311E+04  0.25500000920E-02 0. -1.
    10030    2    1    2    0    0  0.00000000000E+00  0.00000000000E+00 -0.69872361784E+03  0.13963378444E+04  0.12089436222E+04 0.  0.
        5    1    3    3  502    0 -0.31428490477E+03  0.17121358121E+03 -0.91197568712E+03  0.97969935984E+03  0.46999998093E+01 0. -1.
       -5    1    3    3    0  502  0.31428490477E+03 -0.17121358121E+03  0.21325206928E+03  0.41663848455E+03  0.46999998093E+01 0.  1.
</event>
<event>
 5   0  0.3626049E-03  0.1123117E+04  0.7818609E-02  0.9182949E-01
       -2   -1    0    0    0  501  0.00000000000E+00  0.00000000000E+00  0.17886205163E+03  0.17886205165E+03  0.25500000920E-02 0. -1.
        2   -1    0    0  501    0  0.00000000000E+00  0.00000000000E+00 -0.17630796865E+04  0.17630796865E+04  0.25500000920E-02 0.  1.
    10030    2    1    2    0    0  0.00000000000E+00  0.00000000000E+00 -0.15842176348E+04  0.19419417381E+04  0.11231171799E+04 0.  0.
        1    1    3    3  502    0 -0.33077731902E+03  0.15527718011E+03 -0.15293948860E+04  0.15724418447E+04  0.50400001928E-02 0.  1.
       -1    1    3    3    0  502  0.33077731902E+03 -0.15527718011E+03 -0.54822748805E+02  0.36949989344E+03  0.50400001928E-02 0. -1.
</event>
<event>
 5   0  0.3626049E-03  0.1123067E+04  0.7818609E-02  0.9182996E-01
        2   -1    0    0  501    0  0.00000000000E+00  0.00000000000E+00  0.73759898668E+03  0.73759898668E+03  0.25500000920E-02 0.  1.
       -2   -1    0    0    0  501  0.00000000000E+00  0.00000000000E+00 -0.42749530246E+03  0.42749530247E+03  0.25500000920E-02 0. -1.
    10030    2    1    2    0    0  0.00000000000E+00  0.00000000000E+00  0.31010368422E+03  0.11650942892E+04  0.11230674101E+04 0.  0.
        1    1    3    3  502    0 -0.86961151293E+02 -0.30165898564E+03 -0.32794527196E+03  0.45399172556E+03  0.50400001928E-02 0. -1.
       -1    1    3    3    0  502  0.86961151293E+02  0.30165898564E+03  0.63804895618E+03  0.71110256360E+03  0.50400001928E-02 0.  1.
</event>
<event>
 5   0  0.2025294E-03  0.1198176E+04  0.7818609E-02  0.9114455E-01
       -1   -1    0    0    0  501  0.00000000000E+00  0.00000000000E+00  0.42536648132E+03  0.42536648135E+03  0.50400001928E-02 0. -1.
        1   -1    0    0  501    0  0.00000000000E+00  0.00000000000E+00 -0.84375777679E+03  0.84375777681E+03  0.50400001928E-02 0.  1.
    10030    2    1    2    0    0  0.00000000000E+00  0.00000000000E+00 -0.41839129548E+03  0.12691242582E+04  0.11981757411E+04 0.  0.
        5    1    3    3  502    0 -0.32402812457E+03  0.79396498887E+02 -0.73623956140E+03  0.80831232288E+03  0.46999998093E+01 0.  1.
       -5    1    3    3    0  502  0.32402812457E+03 -0.79396498887E+02  0.31784826592E+03  0.46081193528E+03  0.46999998093E+01 0. -1.
</event>
<event>
 5   0  0.2025294E-03  0.1198902E+04  0.7818609E-02  0.9113818E-01
       -1   -1    0    0    0  501  0.00000000000E+00  0.00000000000E+00  0.42787376659E+03  0.42787376662E+03  0.50400001928E-02 0.  1.
        1   -1    0    0  501    0  0.00000000000E+00  0.00000000000E+00 -0.83983060737E+03  0.83983060739E+03  0.50400001928E-02 0. -1.
    10030    2    1    2    0    0  0.00000000000E+00  0.00000000000E+00 -0.41195684078E+03  0.12677043740E+04  0.11989019731E+04 0.  0.
        5    1    3    3  502    0 -0.17919302990E+03  0.29605875405E+03 -0.72351383890E+03  0.80203197748E+03  0.46999998093E+01 0. -1.
       -5    1    3    3    0  502  0.17919302990E+03 -0.29605875405E+03  0.31155699812E+03  0.46567239653E+03  0.46999998093E+01 0.  1.
</event>
<event>
 5   0  0.3725376E-03  0.1211572E+04  0.7818609E-02  0.9102787E-01
       -2   -1    0    0    0  501  0.00000000000E+00  0.00000000000E+00  0.16482542465E+03  0.16482542467E+03  0.25500000920E-02 0. -1.
        2   -1    0    0  501    0  0.00000000000E+00  0.00000000000E+00 -0.22264580205E+04  0.22264580205E+04  0.25500000920E-02 0.  1.
    10030    2    1    2    0    0  0.00000000000E+00  0.00000000000E+00 -0.20616325959E+04  0.23912834452E+04  0.12115723482E+04 0.  0.
        4    1    3    3  502    0 -0.54627745790E+02 -0.20523116843E+03 -0.21505707544E+04  0.21610322084E+04  0.12699999809E+01 0.  1.
       -4    1    3    3    0  502  0.54627745790E+02  0.20523116843E+03  0.88938158533E+02  0.23025123680E+03  0.12699999809E+01 0. -1.
</event>
<event>
 5   0  0.2134992E-03  0.1196847E+04  0.7818609E-02  0.9115621E-01
        1   -1    0    0  501    0  0.00000000000E+00  0.00000000000E+00  0.18177236503E+04  0.18177236503E+04  0.50400001928E-02 0. -1.
       -1   -1    0    0    0  501  0.00000000000E+00  0.00000000000E+00 -0.19701040955E+03  0.19701040962E+03  0.50400001928E-02 0.  1.
    10030    2    1    2    0    0  0.00000000000E+00  0.00000000000E+00  0.16207132408E+04  0.20147340599E+04  0.11968466583E+04 0.  0.
        4    1    3    3  502    0  0.30684009180E+03  0.51243015310E+03  0.87274045756E+03  0.10575504824E+04  0.12699999809E+01 0.  1.
       -4    1    3    3    0  502 -0.30684009180E+03 -0.51243015310E+03  0.74797278321E+03  0.95718357751E+03  0.12699999809E+01 0. -1.
</event>
<event>
 5   0  0.3725376E-03  0.1197600E+04  0.7818609E-02  0.9114960E-01
       -2   -1    0    0    0  501  0.00000000000E+00  0.00000000000E+00  0.50491342485E+03  0.50491342486E+03  0.25500000920E-02 0. -1.
        2   -1    0    0  501    0  0.00000000000E+00  0.00000000000E+00 -0.71014455302E+03  0.71014455302E+03  0.25500000920E-02 0.  1.
    10030    2    1    2    0    0  0.00000000000E+00  0.00000000000E+00 -0.20523112817E+03  0.12150579779E+04  0.11976001309E+04 0.  0.
        4    1    3    3  502    0 -0.24537450217E+03 -0.41812953422E+03  0.25396031801E+03  0.54730102296E+03  0.12699999809E+01 0. -1.
       -4    1    3    3    0  502  0.24537450217E+03  0.41812953422E+03 -0.45919144618E+03  0.66775695492E+03  0.12699999809E+01 0.  1.
</event>
<event>
 5   0  0.2078258E-03  0.1189501E+04  0.7818609E-02  0.9122096E-01
        1   -1    0    0  501    0  0.00000000000E+00  0.00000000000E+00  0.95328020167E+03  0.95328020168E+03  0.50400001928E-02 0.  1.
       -1   -1    0    0    0  501  0.00000000000E+00  0.00000000000E+00 -0.37106442202E+03  0.37106442205E+03  0.50400001928E-02 0. -1.
    10030    2    1    2    0    0  0.00000000000E+00  0.00000000000E+00  0.58221577965E+03  0.13243446237E+04  0.11895013528E+04 0.  0.
        3    1    3    3  502    0 -0.58791615797E+03  0.25289936414E+02  0.38716307081E+03  0.70440062698E+03  0.10100000352E+00 0.  1.
       -3    1    3    3    0  502  0.58791615797E+03 -0.25289936414E+02  0.19505270884E+03  0.61994399675E+03  0.10100000352E+00 0. -1.
</event>
<event>
 5   0  0.2134992E-03  0.1202104E+04  0.7818609E-02  0.9111017E-01
       -1   -1    0    0    0  501  0.00000000000E+00  0.00000000000E+00  0.76612736495E+03  0.76612736496E+03  0.50400001928E-02 0. -1.
        1   -1    0    0  501    0  0.00000000000E+00  0.00000000000E+00 -0.47154492264E+03  0.47154492266E+03  0.50400001928E-02 0.  1.
    10030    2    1    2    0    0  0.00000000000E+00  0.00000000000E+00  0.29458244231E+03  0.12376722876E+04  0.12021039374E+04 0.  0.
        4    1    3    3  502    0  0.55882542125E+03  0.19275726729E+02 -0.79696136144E+02  0.56481013810E+03  0.12699999809E+01 0.  1.
       -4    1    3    3    0  502 -0.55882542125E+03 -0.19275726729E+02  0.37427857845E+03  0.67286214953E+03  0.12699999809E+01 0. -1.
</event>
<event>
 5   0  0.2096270E-03  0.1208121E+04  0.7818609E-02  0.9105777E-01
       -1   -1    0    0    0  501  0.00000000000E+00  0.00000000000E+00  0.78344322766E+03  0.78344322767E+03  0.50400001928E-02 0.  1.
        1   -1    0    0  501    0  0.00000000000E+00  0.00000000000E+00 -0.46575080529E+03  0.46575080532E+03  0.50400001928E-02 0. -1.
    10030    2    1    2    0    0  0.00000000000E+00  0.00000000000E+00  0.31769242236E+03  0.12491940330E+04  0.12081213750E+04 0.  0.
        2    1    3    3  502    0  0.41683724111E+02  0.57451943287E+03  0.34690639176E+03  0.67242408959E+03  0.25500000920E-02 0.  1.
       -2    1    3    3    0  502 -0.41683724111E+02 -0.57451943287E+03 -0.29213969397E+02  0.57676994341E+03  0.25500000920E-02 0. -1.
</event>
<event>
 5   0  0.3626049E-03  0.1107736E+04  0.7818609E-02  0.9197684E-01
        2   -1    0    0  501    0  0.00000000000E+00  0.00000000000E+00  0.14863848247E+04  0.14863848247E+04  0.25500000920E-02 0.  1.
       -2   -1    0    0    0  501  0.00000000000E+00  0.00000000000E+00 -0.20638665846E+03  0.20638665848E+03  0.25500000920E-02 0. -1.
    10030    2    1    2    0    0  0.00000000000E+00  0.00000000000E+00  0.12799981662E+04  0.16927714832E+04  0.11077364256E+04 0.  0.
        1    1    3    3  502    0 -0.94280504819E+02  0.16510228728E+03  0.14349563481E+04  0.14474969084E+04  0.50400001928E-02 0.  1.
       -1    1    3    3    0  502  0.94280504819E+02 -0.16510228728E+03 -0.15495818190E+03  0.24527457474E+03  0.50400001928E-02 0. -1.
</event>
<event>
 5   0  0.2047109E-03  0.1169341E+04  0.7818609E-02  0.9140124E-01
        1   -1    0    0  501    0  0.00000000000E+00  0.00000000000E+00  0.16557249232E+04  0.16557249232E+04  0.50400001928E-02 0.  1.
       -1   -1    0    0    0  501  0.00000000000E+00  0.00000000000E+00 -0.20645921422E+03  0.20645921428E+03  0.50400001928E-02 0. -1.
    10030    2    1    2    0    0  0.00000000000E+00  0.00000000000E+00  0.14492657090E+04  0.18621841375E+04  0.11693411250E+04 0.  0.
        1    1    3    3  502    0  0.95736776848E+01 -0.53139929162E+03  0.11126389990E+04  0.12330622063E+04  0.50400001928E-02 0. -1.
       -1    1    3    3    0  502 -0.95736776848E+01  0.53139929162E+03  0.33662671001E+03  0.62912193123E+03  0.50400001928E-02 0.  1.
</event>
<event>
 5   0  0.3626049E-03  0.1219970E+04  0.7818609E-02  0.9095554E-01
       -2   -1    0    0    0  501  0.00000000000E+00  0.00000000000E+00  0.58124068176E+03  0.58124068177E+03  0.25500000920E-02 0.  1.
        2   -1    0    0  501    0  0.00000000000E+00  0.00000000000E+00 -0.64015076373E+03  0.64015076373E+03  0.25500000920E-02 0. -1.
    10030    2    1    2    0    0  0.00000000000E+00  0.00000000000E+00 -0.58910081962E+02  0.12213914455E+04  0.12199699445E+04 0.  0.
        1    1    3    3  502    0 -0.35312587938E+03  0.95237047253E+02 -0.51819768402E+03  0.63426872980E+03  0.50400001928E-02 0. -1.
       -1    1    3    3    0  502  0.35312587938E+03 -0.95237047253E+02  0.45928760206E+03  0.58712271570E+03  0.50400001928E-02 0.  1.
</event>
<event>
 5   0  0.3706035E-03  0.1190340E+04  0.7818609E-02  0.9121354E-01
        2   -1    0    0  501    0  0.00000000000E+00  0.00000000000E+00  0.66012108605E+03  0.66012108605E+03  0.25500000920E-02 0. -1.
       -2   -1    0    0    0  501  0.00000000000E+00  0.00000000000E+00 -0.53660948258E+03  0.53660948259E+03  0.25500000920E-02 0.  1.
    10030    2    1    2    0    0  0.00000000000E+00  0.00000000000E+00  0.12351160347E+03  0.11967305686E+04  0.11903398413E+04 0.  0.
        2    1    3    3  502    0 -0.37075869991E+03  0.35334141887E+02 -0.40497439323E+03  0.55019521474E+03  0.25500000920E-02 0.  1.
       -2    1    3    3    0  502  0.37075869991E+03 -0.35334141887E+02  0.52848599669E+03  0.64653535390E+03  0.25500000920E-02 0. -1.
</event>
<event>
 5   0  0.3725376E-03  0.1191832E+04  0.7818609E-02  0.9120036E-01
       -2   -1    0    0    0  501  0.00000000000E+00  0.00000000000E+00  0.10092520075E+04  0.10092520075E+04  0.25500000920E-02 0.  1.
        2   -1    0    0  501    0  0.00000000000E+00  0.00000000000E+00 -0.35186043831E+03  0.35186043832E+03  0.25500000920E-02 0. -1.
    10030    2    1    2    0    0  0.00000000000E+00  0.00000000000E+00  0.65739156923E+03  0.13611124459E+04  0.11918319575E+04 0.  0.
        4    1    3    3  502    0 -0.49280474215E+03 -0.32388483118E+03  0.23074453813E+03  0.63324762339E+03  0.12699999809E+01 0.  1.
       -4    1    3    3    0  502  0.49280474215E+03  0.32388483118E+03  0.42664703109E+03  0.72786482248E+03  0.12699999809E+01 0. -1.
</event>
<event>
 5   0  0.2134992E-03  0.1215679E+04  0.7818609E-02  0.9099242E-01
       -1   -1    0    0    0  501  0.00000000000E+00  0.00000000000E+00  0.32192197823E+03  0.32192197827E+03  0.50400001928E-02 0.  1.
        1   -1    0    0  501    0  0.00000000000E+00  0.00000000000E+00 -0.11476977987E+04  0.11476977987E+04  0.50400001928E-02 0. -1.
    10030    2    1    2    0    0  0.00000000000E+00  0.00000000000E+00 -0.82577582048E+03  0.14696197770E+04  0.12156794739E+04 0.  0.
        4    1    3    3  502    0 -0.30420518041E+03  0.20636176265E+03  0.17232050941E+03  0.40598268404E+03  0.12699999809E+01 0.  1.
       -4    1    3    3    0  502  0.30420518041E+03 -0.20636176265E+03 -0.99809632990E+03  0.10636370930E+04  0.12699999809E+01 0. -1.
</event>
<event>
 5   0  0.2047109E-03  0.1271111E+04  0.7818609E-02  0.9052793E-01
        1   -1    0    0  501    0  0.00000000000E+00  0.00000000000E+00  0.69709172581E+03  0.69709172583E+03  0.50400001928E-02 0.  1.
       -1   -1    0    0    0  501  0.00000000000E+00  0.00000000000E+00 -0.57945176430E+03  0.57945176432E+03  0.50400001928E-02 0. -1.
    10030    2    1    2    0    0  0.00000000000E+00  0.00000000000E+00  0.11763996151E+03  0.12765434901E+04  0.12711113727E+04 0.  0.
        1    1    3    3  502    0  0.19963816549E+03  0.84663770590E+02 -0.54115060210E+03  0.58298141081E+03  0.50400001928E-02 0. -1.
       -1    1    3    3    0  502 -0.19963816549E+03 -0.84663770590E+02  0.65879056361E+03  0.69356207934E+03  0.50400001928E-02 0.  1.
</event>
<event>
 5   0  0.3725376E-03  0.1056446E+04  0.7818609E-02  0.9248715E-01
       -2   -1    0    0    0  501  0.00000000000E+00  0.00000000000E+00  0.20644556882E+03  0.20644556884E+03  0.25500000920E-02 0.  1.
        2   -1    0    0  501    0  0.00000000000E+00  0.00000000000E+00 -0.13515394802E+04  0.13515394802E+04  0.25500000920E-02 0. -1.
    10030    2    1    2    0    0  0.00000000000E+00  0.00000000000E+00 -0.11450939113E+04  0.15579850490E+04  0.10564456196E+04 0.  0.
        4    1    3    3  502    0 -0.66613629685E+01 -0.39203129373E+03 -0.50553141134E+02  0.39533548032E+03  0.12699999809E+01 0.  1.
       -4    1    3    3    0  502  0.66613629685E+01  0.39203129373E+03 -0.10945407702E+04  0.11626495687E+04  0.12699999809E+01 0. -1.
</event>
<event>
 5   0  0.3751091E-03  0.1197726E+04  0.7818609E-02  0.9114849E-01
       -2   -1    0    0    0  501  0.00000000000E+00  0.00000000000E+00  0.37135203219E+03  0.37135203220E+03  0.25500000920E-02 0.  1.
        2   -1    0    0  501    0  0.00000000000E+00  0.00000000000E+00 -0.96575994167E+03  0.96575994167E+03  0.25500000920E-02 0. -1.
    10030    2    1    2    0    0  0.00000000000E+00  0.00000000000E+00 -0.59440790948E+03  0.13371119739E+04  0.11977260404E+04 0.  0.
        5    1    3    3  502    0  0.50208213000E+03 -0.61409339922E+02 -0.65506673565E+03  0.82764248952E+03  0.46999998093E+01 0. -1.
       -5    1    3    3    0  502 -0.50208213000E+03  0.61409339922E+02  0.60658826178E+02  0.50946948435E+03  0.46999998093E+01 0.  1.
</event>
<event>
 5   0  0.2096270E-03  0.1190814E+04  0.7818609E-02  0.9120935E-01
       -1   -1    0    0    0  501  0.00000000000E+00  0.00000000000E+00  0.21918443060E+03  0.21918443066E+03  0.50400001928E-02 0.  1.
        1   -1    0    0  501    0  0.00000000000E+00  0.00000000000E+00 -0.16174036532E+04  0.16174036532E+04  0.50400001928E-02 0. -1.
    10030    2    1    2    0    0  0.00000000000E+00  0.00000000000E+00 -0.13982192226E+04  0.18365880839E+04  0.11908143413E+04 0.  0.
        2    1    3    3  502    0  0.45889918974E+02 -0.58794336974E+03 -0.82560052041E+03  0.10145932732E+04  0.25500000920E-02 0. -1.
       -2    1    3    3    0  502 -0.45889918974E+02  0.58794336974E+03 -0.57261870221E+03  0.82199481070E+03  0.25500000920E-02 0.  1.
</event>
<event>
 5   0  0.1397500E-03  0.1202469E+04  0.7818609E-02  0.9110698E-01
        3   -1    0    0  501    0  0.00000000000E+00  0.00000000000E+00  0.88540951578E+03  0.88540952154E+03  0.10100000352E+00 0. -1.
       -3   -1    0    0    0  501  0.00000000000E+00  0.00000000000E+00 -0.40826653811E+03  0.40826655060E+03  0.10100000352E+00 0.  1.
    10030    2    1    2    0    0  0.00000000000E+00  0.00000000000E+00  0.47714297767E+03  0.12936760721E+04  0.12024692755E+04 0.  0.
        5    1    3    3  502    0 -0.22691853308E+03 -0.15751775977E+03 -0.33593333272E+03  0.43494500725E+03  0.46999998093E+01 0.  1.
       -5    1    3    3    0  502  0.22691853308E+03  0.15751775977E+03  0.81307631039E+03  0.85873106489E+03  0.46999998093E+01 0. -1.
</event>
<event>
 5   0  0.2078258E-03  0.1261454E+04  0.7818609E-02  0.9060704E-01
        1   -1    0    0  501    0  0.00000000000E+00  0.00000000000E+00  0.85331886441E+03  0.85331886443E+03  0.50400001928E-02 0.  1.
       -1   -1    0    0    0  501  0.00000000000E+00  0.00000000000E+00 -0.46619923637E+03  0.46619923640E+03  0.50400001928E-02 0. -1.
    10030    2    1    2    0    0  0.00000000000E+00  0.00000000000E+00  0.38711962804E+03  0.13195181008E+04  0.12614540864E+04 0.  0.
        3    1    3    3  502    0  0.57969916106E+03  0.22859026023E+03  0.91541274150E+02  0.62982889698E+03  0.10100000352E+00 0. -1.
       -3    1    3    3    0  502 -0.57969916106E+03 -0.22859026023E+03  0.29557835389E+03  0.68968920384E+03  0.10100000352E+00 0.  1.
</event>
<event>
 5   0  0.3706035E-03  0.1200958E+04  0.7818609E-02  0.9112019E-01
       -2   -1    0    0    0  501  0.00000000000E+00  0.00000000000E+00  0.60952216223E+03  0.60952216223E+03  0.25500000920E-02 0. -1.
        2   -1    0    0  501    0  0.00000000000E+00  0.00000000000E+00 -0.59156954410E+03  0.59156954411E+03  0.25500000920E-02 0.  1.
    10030    2    1    2    0    0  0.00000000000E+00  0.00000000000E+00  0.17952618126E+02  0.12010917063E+04  0.12009575307E+04 0.  0.
        2    1    3    3  502    0  0.46231408236E+03  0.55360752696E+02  0.38819623481E+03  0.60621402195E+03  0.25500000920E-02 0. -1.
       -2    1    3    3    0  502 -0.46231408236E+03 -0.55360752696E+02 -0.37024361668E+03  0.59487768439E+03  0.25500000920E-02 0.  1.
</event>
<event>
 5   0  0.3725376E-03  0.1200645E+04  0.7818609E-02  0.9112292E-01
       -2   -1    0    0    0  501  0.00000000000E+00  0.00000000000E+00  0.77244309026E+03  0.77244309026E+03  0.25500000920E-02 0. -1.
        2   -1    0    0  501    0  0.00000000000E+00  0.00000000000E+00 -0.46655481978E+03  0.46655481978E+03  0.25500000920E-02 0.  1.
    10030    2    1    2    0    0  0.00000000000E+00  0.00000000000E+00  0.30588827048E+03  0.12389979100E+04  0.12006449047E+04 0.  0.
        4    1    3    3  502    0 -0.50296192301E+03 -0.65926045692E+02 -0.17835397424E+03  0.53770688346E+03  0.12699999809E+01 0.  1.
       -4    1    3    3    0  502  0.50296192301E+03  0.65926045692E+02  0.48424224472E+03  0.70129102659E+03  0.12699999809E+01 0. -1.
</event>
<event>
 5   0  0.2047109E-03  0.1194194E+04  0.7818609E-02  0.9117953E-01
       -1   -1    0    0    0  501  0.00000000000E+00  0.00000000000E+00  0.13283863123E+04  0.13283863123E+04  0.50400001928E-02 0.  1.
        1   -1    0    0  501    0  0.00000000000E+00  0.00000000000E+00 -0.26838958178E+03  0.26838958183E+03  0.50400001928E-02 0. -1.
    10030    2    1    2    0    0  0.00000000000E+00  0.00000000000E+00  0.10599967305E+04  0.15967758941E+04  0.11941943675E+04 0.  0.
        1    1    3    3  502    0 -0.31357772620E+03 -0.38818125340E+03  0.96842013371E+03  0.10894279376E+04  0.50400001928E-02 0.  1.
       -1    1    3    3    0  502  0.31357772620E+03  0.38818125340E+03  0.91576596779E+02  0.50734795649E+03  0.50400001928E-02 0. -1.
</event>
<event>
 5   0  0.2047109E-03  0.1195627E+04  0.7818609E-02  0.9116693E-01
       -1   -1    0    0    0  501  0.00000000000E+00  0.00000000000E+00  0.35236308988E+03  0.35236308992E+03  0.50400001928E-02 0. -1.
        1   -1    0    0  501    0  0.00000000000E+00  0.00000000000E+00 -0.10142408798E+04  0.10142408798E+04  0.50400001928E-02 0.  1.
    10030    2    1    2    0    0  0.00000000000E+00  0.00000000000E+00 -0.66187778990E+03  0.13666039697E+04  0.11956271163E+04 0.  0.
        1    1    3    3  502    0  0.16575174979E+03  0.18795641260E+03 -0.95130548306E+03  0.98375981709E+03  0.50400001928E-02 0.  1.
       -1    1    3    3    0  502 -0.16575174979E+03 -0.18795641260E+03  0.28942769316E+03  0.38284415261E+03  0.50400001928E-02 0. -1.
</event>
<event>
 5   0  0.3650180E-03  0.1197741E+04  0.7818609E-02  0.9114836E-01
       -2   -1    0    0    0  501  0.00000000000E+00  0.00000000000E+00  0.55918347146E+03  0.55918347147E+03  0.25500000920E-02 0.  1.
        2   -1    0    0  501    0  0.00000000000E+00  0.00000000000E+00 -0.64137444137E+03  0.64137444138E+03  0.25500000920E-02 0. -1.
    10030    2    1    2    0    0  0.00000000000E+00  0.00000000000E+00 -0.82190969914E+02  0.12005579128E+04  0.11977411851E+04 0.  0.
        3    1    3    3  502    0  0.26754291392E+03  0.22868426476E+03 -0.52676593856E+03  0.63352826927E+03  0.10100000352E+00 0. -1.
       -3    1    3    3    0  502 -0.26754291392E+03 -0.22868426476E+03  0.44457496865E+03  0.56702964357E+03  0.10100000352E+00 0.  1.
</event>
<event>
 5   0  0.2134992E-03  0.1167762E+04  0.7818609E-02  0.9141552E-01
        1   -1    0    0  501    0  0.00000000000E+00  0.00000000000E+00  0.59004073182E+03  0.59004073184E+03  0.50400001928E-02 0. -1.
       -1   -1    0    0    0  501  0.00000000000E+00  0.00000000000E+00 -0.57778575864E+03  0.57778575866E+03  0.50400001928E-02 0.  1.
    10030    2    1    2    0    0  0.00000000000E+00  0.00000000000E+00  0.12254973184E+02  0.11678264905E+04  0.11677621879E+04 0.  0.
        4    1    3    3  502    0 -0.18066441961E+02  0.58242763287E+03  0.43104854012E+02  0.58430127948E+03  0.12699999809E+01 0.  1.
       -4    1    3    3    0  502  0.18066441961E+02 -0.58242763287E+03 -0.30849880828E+02  0.58352521103E+03  0.12699999809E+01 0. -1.
</event>
<event>
 5   0  0.2047109E-03  0.1203775E+04  0.7818609E-02  0.9109559E-01
        1   -1    0    0  501    0  0.00000000000E+00  0.00000000000E+00  0.28459863225E+03  0.28459863229E+03  0.50400001928E-02 0. -1.
       -1   -1    0    0    0  501  0.00000000000E+00  0.00000000000E+00 -0.12729097603E+04  0.12729097603E+04  0.50400001928E-02 0.  1.
    10030    2    1    2    0    0  0.00000000000E+00  0.00000000000E+00 -0.98831112804E+03  0.15575083926E+04  0.12037746912E+04 0.  0.
        1    1    3    3  502    0  0.50679576050E+03  0.22056820917E+03 -0.18585951285E+03  0.58312608954E+03  0.50400001928E-02 0.  1.
       -1    1    3    3    0  502 -0.50679576050E+03 -0.22056820917E+03 -0.80245161519E+03  0.97438230305E+03  0.50400001928E-02 0. -1.
</event>
<event>
 5   0  0.2047109E-03  0.1202004E+04  0.7818609E-02  0.9111105E-01
        1   -1    0    0  501    0  0.00000000000E+00  0.00000000000E+00  0.12304191847E+04  0.12304191847E+04  0.50400001928E-02 0. -1.
       -1   -1    0    0    0  501  0.00000000000E+00  0.00000000000E+00 -0.29356109578E+03  0.29356109583E+03  0.50400001928E-02 0.  1.
    10030    2    1    2    0    0  0.00000000000E+00  0.00000000000E+00  0.93685808891E+03  0.15239802805E+04  0.12020036675E+04 0.  0.
        1    1    3    3  502    0  0.11063926516E+03  0.22577678654E+03 -0.22367631702E+03  0.33652236056E+03  0.50400001928E-02 0.  1.
       -1    1    3    3    0  502 -0.11063926516E+03 -0.22577678654E+03  0.11605344059E+04  0.11874579200E+04  0.50400001928E-02 0. -1.
</event>
<event>
 5   0  0.2078258E-03  0.1167773E+04  0.7818609E-02  0.9141542E-01
        1   -1    0    0  501    0  0.00000000000E+00  0.00000000000E+00  0.43345251269E+03  0.43345251272E+03  0.50400001928E-02 0. -1.
       -1   -1    0    0    0  501  0.00000000000E+00  0.00000000000E+00 -0.78652944480E+03  0.78652944482E+03  0.50400001928E-02 0.  1.
    10030    2    1    2    0    0  0.00000000000E+00  0.00000000000E+00 -0.35307693211E+03  0.12199819575E+04  0.11677725193E+04 0.  0.
        3    1    3    3  502    0  0.20633731525E+03  0.35022249136E+03  0.26135804759E+03  0.48325864747E+03  0.10100000352E+00 0. -1.
       -3    1    3    3    0  502 -0.20633731525E+03 -0.35022249136E+03 -0.61443497970E+03  0.73672331007E+03  0.10100000352E+00 0.  1.
</event>
<event>
 5   0  0.1397500E-03  0.1197612E+04  0.7818609E-02  0.9114950E-01
        4   -1    0    0  501    0  0.00000000000E+00  0.00000000000E+00  0.33743433141E+03  0.33743672134E+03  0.12699999809E+01 0.  1.
       -4   -1    0    0    0  501  0.00000000000E+00  0.00000000000E+00 -0.10626250523E+04  0.10626258112E+04  0.12699999809E+01 0. -1.
    10030    2    1    2    0    0  0.00000000000E+00  0.00000000000E+00 -0.72519072089E+03  0.14000625326E+04  0.11976115870E+04 0.  0.
        2    1    3    3  502    0 -0.34213064881E+03  0.49090319484E+03 -0.38948469939E+03  0.71395914353E+03  0.25500000920E-02 0. -1.
       -2    1    3    3    0  502  0.34213064881E+03 -0.49090319484E+03 -0.33570602150E+03  0.68610338903E+03  0.25500000920E-02 0.  1.
</event>
<event>
 5   0  0.2134992E-03  0.1217943E+04  0.7818609E-02  0.9097295E-01
       -1   -1    0    0    0  501  0.00000000000E+00  0.00000000000E+00  0.75173660083E+03  0.75173660085E+03  0.50400001928E-02 0.  1.
        1   -1    0    0  501    0  0.00000000000E+00  0.00000000000E+00 -0.49331914874E+03  0.49331914876E+03  0.50400001928E-02 0. -1.
    10030    2    1    2    0    0  0.00000000000E+00  0.00000000000E+00  0.25841745210E+03  0.12450557496E+04  0.12179426259E+04 0.  0.
        4    1    3    3  502    0 -0.45580787360E+02 -0.19540085690E+03 -0.45855633423E+03  0.50053434210E+03  0.12699999809E+01 0. -1.
       -4    1    3    3    0  502  0.45580787360E+02  0.19540085690E+03  0.71697378633E+03  0.74452140751E+03  0.12699999809E+01 0.  1.
</event>
<event>
 5   0  0.2047109E-03  0.1214695E+04  0.7818609E-02  0.9100091E-01
       -1   -1    0    0    0  501  0.00000000000E+00  0.00000000000E+00  0.63480754724E+03  0.63480754726E+03  0.50400001928E-02 0. -1.
        1   -1    0    0  501    0  0.00000000000E+00  0.00000000000E+00 -0.58107487732E+03  0.58107487734E+03  0.50400001928E-02 0.  1.
    10030    2    1    2    0    0  0.00000000000E+00  0.00000000000E+00  0.53732669921E+02  0.12158824246E+04  0.12146945586E+04 0.  0.
        1    1    3    3  502    0  0.41621604517E+03  0.99460606044E+02 -0.40453367317E+03  0.58887664342E+03  0.50400001928E-02 0.  1.
       -1    1    3    3    0  502 -0.41621604517E+03 -0.99460606044E+02  0.45826634309E+03  0.62700578119E+03  0.50400001928E-02 0. -1.
</event>
<event>
 5   0  0.2047109E-03  0.1180518E+04  0.7818609E-02  0.9130082E-01
        1   -1    0    0  501    0  0.00000000000E+00  0.00000000000E+00  0.12952737306E+04  0.12952737306E+04  0.50400001928E-02 0.  1.
       -1   -1    0    0    0  501  0.00000000000E+00  0.00000000000E+00 -0.26898239085E+03  0.26898239090E+03  0.50400001928E-02 0. -1.
    10030    2    1    2    0    0  0.00000000000E+00  0.00000000000E+00  0.10262913398E+04  0.15642561215E+04  0.11805182335E+04 0.  0.
        1    1    3    3  502    0  0.14510867061E+03 -0.56879323088E+03  0.59508059622E+03  0.83588467016E+03  0.50400001928E-02 0.  1.
       -1    1    3    3    0  502 -0.14510867061E+03  0.56879323088E+03  0.43121074354E+03  0.72837145135E+03  0.50400001928E-02 0. -1.
</event>
<event>
 5   0  0.3751091E-03  0.1182739E+04  0.7818609E-02  0.9128101E-01
       -2   -1    0    0    0  501  0.00000000000E+00  0.00000000000E+00  0.18974783419E+03  0.18974783420E+03  0.25500000920E-02 0.  1.
        2   -1    0    0  501    0  0.00000000000E+00  0.00000000000E+00 -0.18430650026E+04  0.18430650026E+04  0.25500000920E-02 0. -1.
    10030    2    1    2    0    0  0.00000000000E+00  0.00000000000E+00 -0.16533171684E+04  0.20328128368E+04  0.11827385045E+04 0.  0.
        5    1    3    3  502    0 -0.53391873911E+03 -0.23600358641E+03 -0.98906384497E+03  0.11484930527E+04  0.46999998093E+01 0.  1.
       -5    1    3    3    0  502  0.53391873911E+03  0.23600358641E+03 -0.66425332343E+03  0.88431978405E+03  0.46999998093E+01 0. -1.
</event>
<event>
 5   0  0.3725376E-03  0.1144087E+04  0.7818609E-02  0.9163256E-01
       -2   -1    0    0    0  501  0.00000000000E+00  0.00000000000E+00  0.46317600002E+03  0.46317600002E+03  0.25500000920E-02 0.  1.
        2   -1    0    0  501    0  0.00000000000E+00  0.00000000000E+00 -0.70649939210E+03  0.70649939210E+03  0.25500000920E-02 0. -1.
    10030    2    1    2    0    0  0.00000000000E+00  0.00000000000E+00 -0.24332339208E+03  0.11696753921E+04  0.11440866444E+04 0.  0.
        4    1    3    3  502    0 -0.14378440798E+03 -0.26162448802E+03  0.37721799102E+03  0.48105753747E+03  0.12699999809E+01 0.  1.
       -4    1    3    3    0  502  0.14378440798E+03  0.26162448802E+03 -0.62054138310E+03  0.68861785466E+03  0.12699999809E+01 0. -1.
</event>
<event>
 5   0  0.2025294E-03  0.1200934E+04  0.7818609E-02  0.9112039E-01
       -1   -1    0    0    0  501  0.00000000000E+00  0.00000000000E+00  0.55836864282E+03  0.55836864284E+03  0.50400001928E-02 0. -1.
        1   -1    0    0  501    0  0.00000000000E+00  0.00000000000E+00 -0.64573978102E+03  0.64573978104E+03  0.50400001928E-02 0.  1.
    10030    2    1    2    0    0  0.00000000000E+00  0.00000000000E+00 -0.87371138202E+02  0.12041084239E+04  0.12009343782E+04 0.  0.
        5    1    3    3  502    0  0.57485914935E+03 -0.12139061260E+03 -0.16786780096E+03  0.61106498101E+03  0.46999998093E+01 0.  1.
       -5    1    3    3    0  502 -0.57485914935E+03  0.12139061260E+03  0.80496662755E+02  0.59304344287E+03  0.46999998093E+01 0. -1.
</event>
<event>
 5   0  0.3725376E-03  0.1200288E+04  0.7818609E-02  0.9112605E-01
        2   -1    0    0  501    0  0.00000000000E+00  0.00000000000E+00  0.92731623025E+03  0.92731623026E+03  0.25500000920E-02 0. -1.
       -2   -1    0    0    0  501  0.00000000000E+00  0.00000000000E+00 -0.38840335858E+03  0.38840335859E+03  0.25500000920E-02 0.  1.
    10030    2    1    2    0    0  0.00000000000E+00  0.00000000000E+00  0.53891287167E+03  0.13157195888E+04  0.12002878626E+04 0.  0.
        4    1    3    3  502    0 -0.18915130294E+03  0.56921182664E+03  0.29112642863E+03  0.66673572676E+03  0.12699999809E+01 0.  1.
       -4    1    3    3    0  502  0.18915130294E+03 -0.56921182664E+03  0.24778644304E+03  0.64898386208E+03  0.12699999809E+01 0. -1.
</event>
<event>
 5   0  0.2078258E-03  0.1186045E+04  0.7818609E-02  0.9125160E-01
       -1   -1    0    0    0  501  0.00000000000E+00  0.00000000000E+00  0.87524102907E+03  0.87524102909E+03  0.50400001928E-02 0.  1.
        1   -1    0    0  501    0  0.00000000000E+00  0.00000000000E+00 -0.40180418938E+03  0.40180418941E+03  0.50400001928E-02 0. -1.
    10030    2    1    2    0    0  0.00000000000E+00  0.00000000000E+00  0.47343683970E+03  0.12770452185E+04  0.11860447078E+04 0.  0.
        3    1    3    3  502    0  0.15519191681E+03 -0.48554345968E+03  0.56301885494E+03  0.75949142425E+03  0.10100000352E+00 0. -1.
       -3    1    3    3    0  502 -0.15519191681E+03  0.48554345968E+03 -0.89582015243E+02  0.51755379425E+03  0.10100000352E+00 0.  1.
</event>
<event>
 5   0  0.3706035E-03  0.1195863E+04  0.7818609E-02  0.9116485E-01
        2   -1    0    0  501    0  0.00000000000E+00  0.00000000000E+00  0.46351295868E+03  0.46351295868E+03  0.25500000920E-02 0. -1.
       -2   -1    0    0    0  501  0.00000000000E+00  0.00000000000E+00 -0.77133170837E+03  0.77133170837E+03  0.25500000920E-02 0.  1.
    10030    2    1    2    0    0  0.00000000000E+00  0.00000000000E+00 -0.30781874969E+03  0.12348446671E+04  0.11958632736E+04 0.  0.
        2    1    3    3  502    0  0.20749848077E+03  0.54780370531E+03 -0.27772511589E+03  0.64828678767E+03  0.25500000920E-02 0.  1.
       -2    1    3    3    0  502 -0.20749848077E+03 -0.54780370531E+03 -0.30093633805E+02  0.58655787939E+03  0.25500000920E-02 0. -1.
</event>
<event>
 5   0  0.3626049E-03  0.1228942E+04  0.7818609E-02  0.9087894E-01
        2   -1    0    0  501    0  0.00000000000E+00  0.00000000000E+00  0.22770514238E+04  0.22770514238E+04  0.25500000920E-02 0. -1.
       -2   -1    0    0    0  501  0.00000000000E+00  0.00000000000E+00 -0.16581744670E+03  0.16581744672E+03  0.25500000920E-02 0.  1.
    10030    2    1    2    0    0  0.00000000000E+00  0.00000000000E+00  0.21112339771E+04  0.24428688705E+04  0.12289423959E+04 0.  0.
        1    1    3    3  502    0 -0.41068453580E+03  0.14726752583E+03  0.19551303543E+03  0.47809503151E+03  0.50400001928E-02 0.  1.
       -1    1    3    3    0  502  0.41068453580E+03 -0.14726752583E+03  0.19157209416E+04  0.19647738390E+04  0.50400001928E-02 0. -1.
</event>
<event>
 5   0  0.2134992E-03  0.1198780E+04  0.7818609E-02  0.9113925E-01
       -1   -1    0    0    0  501  0.00000000000E+00  0.00000000000E+00  0.20253325329E+03  0.20253325335E+03  0.50400001928E-02 0.  1.
        1   -1    0    0  501    0  0.00000000000E+00  0.00000000000E+00 -0.17738741281E+04  0.17738741281E+04  0.50400001928E-02 0. -1.
    10030    2    1    2    0    0  0.00000000000E+00  0.00000000000E+00 -0.15713408748E+04  0.19764073814E+04  0.11987802103E+04 0.  0.
        4    1    3    3  502    0  0.10191275520E+03  0.56926174627E+03 -0.10454189156E+04  0.11947164799E+04  0.12699999809E+01 0. -1.
       -4    1    3    3    0  502 -0.10191275520E+03 -0.56926174627E+03 -0.52592195923E+03  0.78169090153E+03  0.12699999809E+01 0.  1.
</event>
<event>
 5   0  0.3626049E-03  0.1206228E+04  0.7818609E-02  0.9107423E-01
        2   -1    0    0  501    0  0.00000000000E+00  0.00000000000E+00  0.58691437304E+03  0.58691437305E+03  0.25500000920E-02 0. -1.
       -2   -1    0    0    0  501  0.00000000000E+00  0.00000000000E+00 -0.61976028333E+03  0.61976028333E+03  0.25500000920E-02 0.  1.
    10030    2    1    2    0    0  0.00000000000E+00  0.00000000000E+00 -0.32845910282E+02  0.12066746564E+04  0.12062275376E+04 0.  0.
        1    1    3    3  502    0 -0.11064484638E+03 -0.36642887014E+03 -0.48267921030E+03  0.61602891083E+03  0.50400001928E-02 0.  1.
       -1    1    3    3    0  502  0.11064484638E+03  0.36642887014E+03  0.44983330002E+03  0.59064574555E+03  0.50400001928E-02 0. -1.
</event>
<event>
 5   0  0.2096270E-03  0.1107611E+04  0.7818609E-02  0.9197805E-01
        1   -1    0    0  501    0  0.00000000000E+00  0.00000000000E+00  0.17024378765E+04  0.17024378765E+04  0.50400001928E-02 0. -1.
       -1   -1    0    0    0  501  0.00000000000E+00  0.00000000000E+00 -0.18015368884E+03  0.18015368891E+03  0.50400001928E-02 0.  1.
    10030    2    1    2    0    0  0.00000000000E+00  0.00000000000E+00  0.15222841877E+04  0.18825915655E+04  0.11076108767E+04 0.  0.
        2    1    3    3  502    0  0.23759535862E+03  0.44076858352E+03  0.11632607044E+04  0.12664533016E+04  0.25500000920E-02 0. -1.
       -2    1    3    3    0  502 -0.23759535862E+03 -0.44076858352E+03  0.35902348329E+03  0.61613826388E+03  0.25500000920E-02 0.  1.
</event>
<event>
 5   0  0.3725376E-03  0.1172223E+04  0.7818609E-02  0.9137523E-01
       -2   -1    0    0    0  501  0.00000000000E+00  0.00000000000E+00  0.32152299996E+03  0.32152299997E+03  0.25500000920E-02 0. -1.
        2   -1    0    0  501    0  0.00000000000E+00  0.00000000000E+00 -0.10684355577E+04  0.10684355577E+04  0.25500000920E-02 0.  1.
    10030    2    1    2    0    0  0.00000000000E+00  0.00000000000E+00 -0.74691255771E+03  0.13899585576E+04  0.11722228555E+04 0.  0.
        4    1    3    3  502    0 -0.55371526992E+03 -0.12228916827E+03 -0.54920988496E+03  0.78942279639E+03  0.12699999809E+01 0.  1.
       -4    1    3    3    0  502  0.55371526992E+03  0.12228916827E+03 -0.19770267275E+03  0.60053576124E+03  0.12699999809E+01 0. -1.
</event>
<event>
 5   0  0.3650180E-03  0.1196982E+04  0.7818609E-02  0.9115502E-01
       -2   -1    0    0    0  501  0.00000000000E+00  0.00000000000E+00  0.65592877589E+03  0.65592877589E+03  0.25500000920E-02 0. -1.
        2   -1    0    0  501    0  0.00000000000E+00  0.00000000000E+00 -0.54608275171E+03  0.54608275172E+03  0.25500000920E-02 0.  1.
    10030    2    1    2    0    0  0.00000000000E+00  0.00000000000E+00  0.10984602418E+03  0.12020115276E+04  0.11969818560E+04 0.  0.
        3    1    3    3  502    0 -0.36901877596E+03  0.11616356830E+03  0.51348450008E+03  0.64291148196E+03  0.10100000352E+00 0. -1.
       -3    1    3    3    0  502  0.36901877596E+03 -0.11616356830E+03 -0.40363847591E+03  0.55910004565E+03  0.10100000352E+00 0.  1.
</event>
<event>
 5   0  0.2096270E-03  0.1159264E+04  0.7818609E-02  0.9149279E-01
       -1   -1    0    0    0  501  0.00000000000E+00  0.00000000000E+00  0.29178185451E+03  0.29178185456E+03  0.50400001928E-02 0.  1.
        1   -1    0    0  501    0  0.00000000000E+00  0.00000000000E+00 -0.11514542197E+04  0.11514542197E+04  0.50400001928E-02 0. -1.
    10030    2    1    2    0    0  0.00000000000E+00  0.00000000000E+00 -0.85967236516E+03  0.14432360742E+04  0.11592643316E+04 0.  0.
        2    1    3    3  502    0  0.25584156571E+03 -0.78970505727E+02  0.21017691077E+03  0.34039033674E+03  0.25500000920E-02 0.  1.
       -2    1    3    3    0  502 -0.25584156571E+03  0.78970505727E+02 -0.10698492759E+04  0.11028457375E+04  0.25500000920E-02 0. -1.
</event>
<event>
 5   0  0.2134992E-03  0.1174234E+04  0.7818609E-02  0.9135713E-01
       -1   -1    0    0    0  501  0.00000000000E+00  0.00000000000E+00  0.27007932802E+03  0.27007932807E+03  0.50400001928E-02 0.  1.
        1   -1    0    0  501    0  0.00000000000E+00  0.00000000000E+00 -0.12763157092E+04  0.12763157092E+04  0.50400001928E-02 0. -1.
    10030    2    1    2    0    0  0.00000000000E+00  0.00000000000E+00 -0.10062363812E+04  0.15463950373E+04  0.11742342000E+04 0.  0.
        4    1    3    3  502    0 -0.55485603625E+03 -0.35232198581E+02 -0.25464436828E+03  0.61151606355E+03  0.12699999809E+01 0.  1.
       -4    1    3    3    0  502  0.55485603625E+03  0.35232198581E+02 -0.75159201292E+03  0.93487897375E+03  0.12699999809E+01 0. -1.
</event>
<event>
 5   0  0.2078258E-03  0.1208150E+04  0.7818609E-02  0.9105753E-01
        1   -1    0    0  501    0  0.00000000000E+00  0.00000000000E+00  0.38438007341E+03  0.38438007344E+03  0.50400001928E-02 0.  1.
       -1   -1    0    0    0  501  0.00000000000E+00  0.00000000000E+00 -0.94933754735E+03  0.94933754737E+03  0.50400001928E-02 0. -1.
    10030    2    1    2    0    0  0.00000000000E+00  0.00000000000E+00 -0.56495747394E+03  0.13337176208E+04  0.12081497195E+04 0.  0.
        3    1    3    3  502    0 -0.29451555562E+03 -0.51341509192E+03 -0.14921804316E+03  0.61041011109E+03  0.10100000352E+00 0.  1.
       -3    1    3    3    0  502  0.29451555562E+03  0.51341509192E+03 -0.41573943078E+03  0.72330750972E+03  0.10100000352E+00 0. -1.
</event>
<event>
 5   0  0.2078258E-03  0.1213930E+04  0.7818609E-02  0.9100750E-01
        1   -1    0    0  501    0  0.00000000000E+00  0.00000000000E+00  0.11994032290E+04  0.11994032290E+04  0.50400001928E-02 0. -1.
       -1   -1    0    0    0  501  0.00000000000E+00  0.00000000000E+00 -0.30715832234E+03  0.30715832238E+03  0.50400001928E-02 0.  1.
    10030    2    1    2    0    0  0.00000000000E+00  0.00000000000E+00  0.89224490668E+03  0.15065615514E+04  0.12139302841E+04 0.  0.
        3    1    3    3  502    0  0.83887293007E+02  0.44552441112E+03 -0.54746147968E+02  0.45664672314E+03  0.10100000352E+00 0.  1.
       -3    1    3    3    0  502 -0.83887293007E+02 -0.44552441112E+03  0.94699105465E+03  0.10499148283E+04  0.10100000352E+00 0. -1.
</event>
<event>
 5   0  0.3650180E-03  0.1191961E+04  0.7818609E-02  0.9119922E-01
        2   -1    0    0  501    0  0.00000000000E+00  0.00000000000E+00  0.67568025380E+03  0.67568025380E+03  0.25500000920E-02 0.  1.
       -2   -1    0    0    0  501  0.00000000000E+00  0.00000000000E+00 -0.52568162179E+03  0.52568162180E+03  0.25500000920E-02 0. -1.
    10030    2    1    2    0    0  0.00000000000E+00  0.00000000000E+00  0.14999863200E+03  0.12013618756E+04  0.11919608914E+04 0.  0.
        3    1    3    3  502    0  0.13886800219E+03 -0.54180834199E+03  0.28241863852E+03  0.62657872535E+03  0.10100000352E+00 0.  1.
       -3    1    3    3    0  502 -0.13886800219E+03  0.54180834199E+03 -0.13242000652E+03  0.57478315025E+03  0.10100000352E+00 0. -1.
</event>
<event>
 5   0  0.3751091E-03  0.1154735E+04  0.7818609E-02  0.9153426E-01
        2   -1    0    0  501    0  0.00000000000E+00  0.00000000000E+00  0.68669933049E+03  0.68669933050E+03  0.25500000920E-02 0. -1.
       -2   -1    0    0    0  501  0.00000000000E+00  0.00000000000E+00 -0.48544288458E+03  0.48544288459E+03  0.25500000920E-02 0.  1.
    10030    2    1    2    0    0  0.00000000000E+00  0.00000000000E+00  0.20125644591E+03  0.11721422151E+04  0.11547351278E+04 0.  0.
        5    1    3    3  502    0 -0.54004569614E+03  0.19120601611E+03  0.27980371333E+02  0.57359749450E+03  0.46999998093E+01 0. -1.
       -5    1    3    3    0  502  0.54004569614E+03 -0.19120601611E+03  0.17327607458E+03  0.59854472058E+03  0.46999998093E+01 0.  1.
</event>
<event>
 5   0  0.3706035E-03  0.1172855E+04  0.7818609E-02  0.9136954E-01
        2   -1    0    0  501    0  0.00000000000E+00  0.00000000000E+00  0.10139366959E+04  0.10139366959E+04  0.25500000920E-02 0. -1.
       -2   -1    0    0    0  501  0.00000000000E+00  0.00000000000E+00 -0.33917030222E+03  0.33917030223E+03  0.25500000920E-02 0.  1.
    10030    2    1    2    0    0  0.00000000000E+00  0.00000000000E+00  0.67476639366E+03  0.13531069981E+04  0.11728550048E+04 0.  0.
        2    1    3    3  502    0 -0.23337844536E+03  0.68896523653E+02  0.95294277928E+03  0.98352029482E+03  0.25500000920E-02 0. -1.
       -2    1    3    3    0  502  0.23337844536E+03 -0.68896523653E+02 -0.27817638562E+03  0.36958670329E+03  0.25500000920E-02 0.  1.
</event>
<event>
 5   0  0.2047109E-03  0.1214536E+04  0.7818609E-02  0.9100228E-01
       -1   -1    0    0    0  501  0.00000000000E+00  0.00000000000E+00  0.24596527985E+03  0.24596527991E+03  0.50400001928E-02 0. -1.
        1   -1    0    0  501    0  0.00000000000E+00  0.00000000000E+00 -0.14992942243E+04  0.14992942243E+04  0.50400001928E-02 0.  1.
    10030    2    1    2    0    0  0.00000000000E+00  0.00000000000E+00 -0.12533289445E+04  0.17452595043E+04  0.12145358348E+04 0.  0.
        1    1    3    3  502    0  0.73568575968E+02  0.18977320883E+03  0.19549223154E+03  0.28221165599E+03  0.50400001928E-02 0. -1.
       -1    1    3    3    0  502 -0.73568575968E+02 -0.18977320883E+03 -0.14488211760E+04  0.14630478483E+04  0.50400001928E-02 0.  1.
</event>
<event>
 5   0  0.3706035E-03  0.1161411E+04  0.7818609E-02  0.9147321E-01
        2   -1    0    0  501    0  0.00000000000E+00  0.00000000000E+00  0.18659638594E+04  0.18659638594E+04  0.25500000920E-02 0. -1.
       -2   -1    0    0    0  501  0.00000000000E+00  0.00000000000E+00 -0.18072095150E+03  0.18072095152E+03  0.25500000920E-02 0.  1.
    10030    2    1    2    0    0  0.00000000000E+00  0.00000000000E+00  0.16852429079E+04  0.20466848109E+04  0.11614108044E+04 0.  0.
        2    1    3    3  502    0  0.40332352050E+03  0.36304305535E+03  0.47826516858E+03  0.72333097107E+03  0.25500000920E-02 0.  1.
       -2    1    3    3    0  502 -0.40332352050E+03 -0.36304305535E+03  0.12069777393E+04  0.13233538398E+04  0.25500000920E-02 0. -1.
</event>
<event>
 5   0  0.2047109E-03  0.1281961E+04  0.7818609E-02  0.9043994E-01
        1   -1    0    0  501    0  0.00000000000E+00  0.00000000000E+00  0.37280575042E+03  0.37280575045E+03  0.50400001928E-02 0.  1.
       -1   -1    0    0    0  501  0.00000000000E+00  0.00000000000E+00 -0.11020639806E+04  0.11020639806E+04  0.50400001928E-02 0. -1.
    10030    2    1    2    0    0  0.00000000000E+00  0.00000000000E+00 -0.72925823015E+03  0.14748697310E+04  0.12819606691E+04 0.  0.
        1    1    3    3  502    0 -0.18726634722E+03 -0.40792275729E+01 -0.10698745477E+04  0.10861477214E+04  0.50400001928E-02 0. -1.
       -1    1    3    3    0  502  0.18726634722E+03  0.40792275729E+01  0.34061631758E+03  0.38872200958E+03  0.50400001928E-02 0.  1.
</event>
<event>
 5   0  0.2025294E-03  0.1255830E+04  0.7818609E-02  0.9065345E-01
        1   -1    0    0  501    0  0.00000000000E+00  0.00000000000E+00  0.10709036254E+04  0.10709036254E+04  0.50400001928E-02 0. -1.
       -1   -1    0    0    0  501  0.00000000000E+00  0.00000000000E+00 -0.36817273187E+03  0.36817273190E+03  0.50400001928E-02 0.  1.
    10030    2    1    2    0    0  0.00000000000E+00  0.00000000000E+00  0.70273089355E+03  0.14390763573E+04  0.12558304238E+04 0.  0.
        5    1    3    3  502    0 -0.60766899988E+03 -0.60899233712E+02  0.51854787045E+03  0.80117683069E+03  0.46999998093E+01 0. -1.
       -5    1    3    3    0  502  0.60766899988E+03  0.60899233712E+02  0.18418302310E+03  0.63789952664E+03  0.46999998093E+01 0.  1.
</event>
<event>
 5   0  0.3725376E-03  0.1212456E+04  0.7818609E-02  0.9102023E-01
        2   -1    0    0  501    0  0.00000000000E+00  0.00000000000E+00  0.12558239309E+04  0.12558239309E+04  0.25500000920E-02 0.  1.
       -2   -1    0    0    0  501  0.00000000000E+00  0.00000000000E+00 -0.29264633732E+03  0.29264633733E+03  0.25500000920E-02 0. -1.
    10030    2    1    2    0    0  0.00000000000E+00  0.00000000000E+00  0.96317759361E+03  0.15484702683E+04  0.12124558115E+04 0.  0.
        4    1    3    3  502    0  0.25847539867E+02  0.59637962313E+03  0.34658700027E+03  0.69026148079E+03  0.12699999809E+01 0.  1.
       -4    1    3    3    0  502 -0.25847539867E+02 -0.59637962313E+03  0.61659059334E+03  0.85820878747E+03  0.12699999809E+01 0. -1.
</event>
<event>
 5   0  0.2078258E-03  0.1200849E+04  0.7818609E-02  0.9112114E-01
       -1   -1    0    0    0  501  0.00000000000E+00  0.00000000000E+00  0.38847519601E+03  0.38847519604E+03  0.50400001928E-02 0. -1.
        1   -1    0    0  501    0  0.00000000000E+00  0.00000000000E+00 -0.92801167182E+03  0.92801167184E+03  0.50400001928E-02 0.  1.
    10030    2    1    2    0    0  0.00000000000E+00  0.00000000000E+00 -0.53953647581E+03  0.13164868679E+04  0.12008488933E+04 0.  0.
        3    1    3    3  502    0  0.36928461119E+03  0.44532129165E+03 -0.44595282675E+03  0.73044925268E+03  0.10100000352E+00 0.  1.
       -3    1    3    3    0  502 -0.36928461119E+03 -0.44532129165E+03 -0.93583649065E+02  0.58603761520E+03  0.10100000352E+00 0. -1.
</event>
<event>
 5   0  0.1397500E-03  0.1142317E+04  0.7818609E-02  0.9164901E-01
        3   -1    0    0  501    0  0.00000000000E+00  0.00000000000E+00  0.20105377490E+03  0.20105380027E+03  0.10100000352E+00 0.  1.
       -3   -1    0    0    0  501  0.00000000000E+00  0.00000000000E+00 -0.16225605732E+04  0.16225605763E+04  0.10100000352E+00 0. -1.
    10030    2    1    2    0    0  0.00000000000E+00  0.00000000000E+00 -0.14215067983E+04  0.18236143766E+04  0.11423168636E+04 0.  0.
        4    1    3    3  502    0  0.26322307012E+03  0.26878793087E+02 -0.15188173225E+04  0.15416927471E+04  0.12699999809E+01 0. -1.
       -4    1    3    3    0  502 -0.26322307012E+03 -0.26878793087E+02  0.97310524272E+02  0.28192162953E+03  0.12699999809E+01 0.  1.
</event>
<event>
 5   0  0.2047109E-03  0.1188289E+04  0.7818609E-02  0.9123169E-01
        1   -1    0    0  501    0  0.00000000000E+00  0.00000000000E+00  0.57034480761E+03  0.57034480763E+03  0.50400001928E-02 0. -1.
       -1   -1    0    0    0  501  0.00000000000E+00  0.00000000000E+00 -0.61893742229E+03  0.61893742231E+03  0.50400001928E-02 0.  1.
    10030    2    1    2    0    0  0.00000000000E+00  0.00000000000E+00 -0.48592614679E+02  0.11892822299E+04  0.11882890979E+04 0.  0.
        1    1    3    3  502    0  0.35485388237E+03  0.29428702344E+02 -0.50032016337E+03  0.61409086645E+03  0.50400001928E-02 0.  1.
       -1    1    3    3    0  502 -0.35485388237E+03 -0.29428702344E+02  0.45172754869E+03  0.57519136349E+03  0.50400001928E-02 0. -1.
</event>
<event>
 5   0  0.2096270E-03  0.1195533E+04  0.7818609E-02  0.9116775E-01
        1   -1    0    0  501    0  0.00000000000E+00  0.00000000000E+00  0.16492134306E+04  0.16492134306E+04  0.50400001928E-02 0.  1.
       -1   -1    0    0    0  501  0.00000000000E+00  0.00000000000E+00 -0.21666384739E+03  0.21666384745E+03  0.50400001928E-02 0. -1.
    10030    2    1    2    0    0  0.00000000000E+00  0.00000000000E+00  0.14325495832E+04  0.18658772781E+04  0.11955332318E+04 0.  0.
        2    1    3    3  502    0 -0.52133517120E+02 -0.51099147542E+03  0.11934907983E+04  0.12993269324E+04  0.25500000920E-02 0.  1.
       -2    1    3    3    0  502  0.52133517120E+02  0.51099147542E+03  0.23905878493E+03  0.56655034571E+03  0.25500000920E-02 0. -1.
</event>
<event>
 5   0  0.2134992E-03  0.1226962E+04  0.7818609E-02  0.9089579E-01
       -1   -1    0    0    0  501  0.00000000000E+00  0.00000000000E+00  0.16118223818E+04  0.16118223818E+04  0.50400001928E-02 0.  1.
        1   -1    0    0  501    0  0.00000000000E+00  0.00000000000E+00 -0.23349905460E+03  0.23349905466E+03  0.50400001928E-02 0. -1.
    10030    2    1    2    0    0  0.00000000000E+00  0.00000000000E+00  0.13783233272E+04  0.18453214365E+04  0.12269621060E+04 0.  0.
        4    1    3    3  502    0  0.53170546591E+03 -0.29690249936E+03  0.57766852187E+03  0.83938330378E+03  0.12699999809E+01 0.  1.
       -4    1    3    3    0  502 -0.53170546591E+03  0.29690249936E+03  0.80065480535E+03  0.10059381327E+04  0.12699999809E+01 0. -1.
</event>
<event>
 5   0  0.2025294E-03  0.1194727E+04  0.7818609E-02  0.9117485E-01
       -1   -1    0    0    0  501  0.00000000000E+00  0.00000000000E+00  0.61600898244E+03  0.61600898246E+03  0.50400001928E-02 0. -1.
        1   -1    0    0  501    0  0.00000000000E+00  0.00000000000E+00 -0.57928199873E+03  0.57928199875E+03  0.50400001928E-02 0.  1.
    10030    2    1    2    0    0  0.00000000000E+00  0.00000000000E+00  0.36726983711E+02  0.11952909812E+04  0.11947266040E+04 0.  0.
        5    1    3    3  502    0  0.42818862180E+03  0.34686948995E+03  0.24903017597E+03  0.60473304642E+03  0.46999998093E+01 0. -1.
       -5    1    3    3    0  502 -0.42818862180E+03 -0.34686948995E+03 -0.21230319226E+03  0.59055793478E+03  0.46999998093E+01 0.  1.
</event>
<event>
 5   0  0.3626049E-03  0.1191481E+04  0.7818609E-02  0.9120346E-01
        2   -1    0    0  501    0  0.00000000000E+00  0.00000000000E+00  0.17871071508E+04  0.17871071508E+04  0.25500000920E-02 0.  1.
       -2   -1    0    0    0  501  0.00000000000E+00  0.00000000000E+00 -0.19859298249E+03  0.19859298251E+03  0.25500000920E-02 0. -1.
    10030    2    1    2    0    0  0.00000000000E+00  0.00000000000E+00  0.15885141683E+04  0.19857001333E+04  0.11914813286E+04 0.  0.
        1    1    3    3  502    0 -0.25511423098E+03  0.17589454666E+03  0.16422255080E+04  0.16712051883E+04  0.50400001928E-02 0.  1.
       -1    1    3    3    0  502  0.25511423098E+03 -0.17589454666E+03 -0.53711339667E+02  0.31449494499E+03  0.50400001928E-02 0. -1.
</event>
<event>
 5   0  0.2096270E-03  0.1209595E+04  0.7818609E-02  0.9104499E-01
       -1   -1    0    0    0  501  0.00000000000E+00  0.00000000000E+00  0.71547063193E+03  0.71547063195E+03  0.50400001928E-02 0.  1.
        1   -1    0    0  501    0  0.00000000000E+00  0.00000000000E+00 -0.51124401525E+03  0.51124401528E+03  0.50400001928E-02 0. -1.
    10030    2    1    2    0    0  0.00000000000E+00  0.00000000000E+00  0.20422661668E+03  0.12267146472E+04  0.12095951036E+04 0.  0.
        2    1    3    3  502    0  0.55894088813E+03  0.21515705903E+03  0.16824283890E+02  0.59915818697E+03  0.25500000920E-02 0.  1.
       -2    1    3    3    0  502 -0.55894088813E+03 -0.21515705903E+03  0.18740233279E+03  0.62755646026E+03  0.25500000920E-02 0. -1.
</event>
<event>
 5   0  0.3650180E-03  0.1249914E+04  0.7818609E-02  0.9070255E-01
       -2   -1    0    0    0  501  0.00000000000E+00  0.00000000000E+00  0.24677447792E+03  0.24677447793E+03  0.25500000920E-02 0. -1.
        2   -1    0    0  501    0  0.00000000000E+00  0.00000000000E+00 -0.15827050458E+04  0.15827050458E+04  0.25500000920E-02 0.  1.
    10030    2    1    2    0    0  0.00000000000E+00  0.00000000000E+00 -0.13359305679E+04  0.18294795237E+04  0.12499139353E+04 0.  0.
        3    1    3    3  502    0  0.49959409614E+03 -0.65207549659E+02 -0.12674847631E+03  0.51953004906E+03  0.10100000352E+00 0. -1.
       -3    1    3    3    0  502 -0.49959409614E+03  0.65207549659E+02 -0.12091820915E+04  0.13099494747E+04  0.10100000352E+00 0.  1.
</event>
<event>
 5   0  0.2134992E-03  0.1032327E+04  0.7818609E-02  0.9273782E-01
        1   -1    0    0  501    0  0.00000000000E+00  0.00000000000E+00  0.39326280900E+03  0.39326280903E+03  0.50400001928E-02 0. -1.
       -1   -1    0    0    0  501  0.00000000000E+00  0.00000000000E+00 -0.67747304319E+03  0.67747304321E+03  0.50400001928E-02 0.  1.
    10030    2    1    2    0    0  0.00000000000E+00  0.00000000000E+00 -0.28421023418E+03  0.10707358522E+04  0.10323273745E+04 0.  0.
        4    1    3    3  502    0  0.17809674860E+03 -0.25507669119E+03  0.28509367595E+03  0.42197462864E+03  0.12699999809E+01 0. -1.
       -4    1    3    3    0  502 -0.17809674860E+03  0.25507669119E+03 -0.56930391013E+03  0.64876122360E+03  0.12699999809E+01 0.  1.
</event>
<event>
 5   0  0.3626049E-03  0.1206779E+04  0.7818609E-02  0.9106944E-01
       -2   -1    0    0    0  501  0.00000000000E+00  0.00000000000E+00  0.16615796859E+03  0.16615796861E+03  0.25500000920E-02 0.  1.
        2   -1    0    0  501    0  0.00000000000E+00  0.00000000000E+00 -0.21911610673E+04  0.21911610673E+04  0.25500000920E-02 0. -1.
    10030    2    1    2    0    0  0.00000000000E+00  0.00000000000E+00 -0.20250030987E+04  0.23573190359E+04  0.12067789720E+04 0.  0.
        1    1    3    3  502    0 -0.54046050228E+03  0.76768038697E+02 -0.15146728467E+04  0.16100387321E+04  0.50400001928E-02 0. -1.
       -1    1    3    3    0  502  0.54046050228E+03 -0.76768038697E+02 -0.51033025193E+03  0.74728030374E+03  0.50400001928E-02 0.  1.
</event>
<event>
 5   0  0.2078258E-03  0.1191539E+04  0.7818609E-02  0.9120295E-01
       -1   -1    0    0    0  501  0.00000000000E+00  0.00000000000E+00  0.54859156508E+03  0.54859156510E+03  0.50400001928E-02 0.  1.
        1   -1    0    0  501    0  0.00000000000E+00  0.00000000000E+00 -0.64700413424E+03  0.64700413426E+03  0.50400001928E-02 0. -1.
    10030    2    1    2    0    0  0.00000000000E+00  0.00000000000E+00 -0.98412569162E+02  0.11955956994E+04  0.11915385191E+04 0.  0.
        3    1    3    3  502    0  0.42832332383E+03 -0.17331827460E+03  0.32816058839E+03  0.56673580796E+03  0.10100000352E+00 0.  1.
       -3    1    3    3    0  502 -0.42832332383E+03  0.17331827460E+03 -0.42657315756E+03  0.62885989139E+03  0.10100000352E+00 0. -1.
</event>
<event>
 5   0  0.3725376E-03  0.1190117E+04  0.7818609E-02  0.9121551E-01
       -2   -1    0    0    0  501  0.00000000000E+00  0.00000000000E+00  0.65708458474E+03  0.65708458475E+03  0.25500000920E-02 0.  1.
        2   -1    0    0  501    0  0.00000000000E+00  0.00000000000E+00 -0.53888743622E+03  0.53888743622E+03  0.25500000920E-02 0. -1.
    10030    2    1    2    0    0  0.00000000000E+00  0.00000000000E+00  0.11819714853E+03  0.11959720210E+04  0.11901170148E+04 0.  0.
        4    1    3    3  502    0  0.50051996183E+03  0.31439040430E+03  0.12822255670E+03  0.60481748938E+03  0.12699999809E+01 0.  1.
       -4    1    3    3    0  502 -0.50051996183E+03 -0.31439040430E+03 -0.10025408175E+02  0.59115453159E+03  0.12699999809E+01 0. -1.
</event>
<event>
 5   0  0.1397500E-03  0.1204701E+04  0.7818609E-02  0.9108752E-01
       -3   -1    0    0    0  501  0.00000000000E+00  0.00000000000E+00  0.61517134287E+03  0.61517135116E+03  0.10100000352E+00 0. -1.
        3   -1    0    0  501    0  0.00000000000E+00  0.00000000000E+00 -0.58979671524E+03  0.58979672389E+03  0.10100000352E+00 0.  1.
    10030    2    1    2    0    0  0.00000000000E+00  0.00000000000E+00  0.25374627629E+02  0.12049680750E+04  0.12047008716E+04 0.  0.
        3    1    3    3  502    0  0.38349930295E+03  0.43074334886E+03  0.18654902339E+03  0.60614527655E+03  0.10100000352E+00 0. -1.
       -3    1    3    3    0  502 -0.38349930295E+03 -0.43074334886E+03 -0.16117439576E+03  0.59882279850E+03  0.10100000352E+00 0.  1.
</event>
<event>
 5   0  0.3725376E-03  0.1189750E+04  0.7818609E-02  0.9121876E-01
        2   -1    0    0  501    0  0.00000000000E+00  0.00000000000E+00  0.20455640564E+04  0.20455640564E+04  0.25500000920E-02 0. -1.
       -2   -1    0    0    0  501  0.00000000000E+00  0.00000000000E+00 -0.17299694488E+03  0.17299694490E+03  0.25500000920E-02 0.  1.
    10030    2    1    2    0    0  0.00000000000E+00  0.00000000000E+00  0.18725671115E+04  0.22185610013E+04  0.11897501121E+04 0.  0.
        4    1    3    3  502    0  0.43373841459E+02 -0.13233882441E+03  0.20147350329E+04  0.20195429484E+04  0.12699999809E+01 0. -1.
       -4    1    3    3    0  502 -0.43373841459E+02  0.13233882441E+03 -0.14216792146E+03  0.19901805286E+03  0.12699999809E+01 0.  1.
</event>
<event>
 5   0  0.3751091E-03  0.1187978E+04  0.7818609E-02  0.9123445E-01
       -2   -1    0    0    0  501  0.00000000000E+00  0.00000000000E+00  0.21420278221E+03  0.21420278222E+03  0.25500000920E-02 0.  1.
        2   -1    0    0  501    0  0.00000000000E+00  0.00000000000E+00 -0.16471454076E+04  0.16471454076E+04  0.25500000920E-02 0. -1.
    10030    2    1    2    0    0  0.00000000000E+00  0.00000000000E+00 -0.14329426254E+04  0.18613481899E+04  0.11879783315E+04 0.  0.
        5    1    3    3  502    0 -0.51841784198E+03 -0.18961907487E+03 -0.37288163482E+03  0.66616458628E+03  0.46999998093E+01 0.  1.
       -5    1    3    3    0  502  0.51841784198E+03  0.18961907487E+03 -0.10600609906E+04  0.11951836036E+04  0.46999998093E+01 0. -1.
</event>
<event>
 5   0  0.3706035E-03  0.1200350E+04  0.7818609E-02  0.9112551E-01
       -2   -1    0    0    0  501  0.00000000000E+00  0.00000000000E+00  0.26467178086E+03  0.26467178087E+03  0.25500000920E-02 0.  1.
        2   -1    0    0  501    0  0.00000000000E+00  0.00000000000E+00 -0.13609679333E+04  0.13609679333E+04  0.25500000920E-02 0. -1.
    10030    2    1    2    0    0  0.00000000000E+00  0.00000000000E+00 -0.10962961524E+04  0.16256397141E+04  0.12003496267E+04 0.  0.
        2    1    3    3  502    0 -0.14112094411E+03  0.58330843485E+03 -0.53896716902E+03  0.80662845246E+03  0.25500000920E-02 0. -1.
       -2    1    3    3    0  502  0.14112094411E+03 -0.58330843485E+03 -0.55732898339E+03  0.81901126169E+03  0.25500000920E-02 0.  1.
</event>
<event>
 5   0  0.3650180E-03  0.1203878E+04  0.7818609E-02  0.9109469E-01
       -2   -1    0    0    0  501  0.00000000000E+00  0.00000000000E+00  0.25581974691E+03  0.25581974693E+03  0.25500000920E-02 0. -1.
        2   -1    0    0  501    0  0.00000000000E+00  0.00000000000E+00 -0.14163514061E+04  0.14163514061E+04  0.25500000920E-02 0.  1.
    10030    2    1    2    0    0  0.00000000000E+00  0.00000000000E+00 -0.11605316592E+04  0.16721711531E+04  0.12038781637E+04 0.  0.
        3    1    3    3  502    0  0.37016238072E+03  0.23672049541E+03 -0.11517354496E+04  0.12327008303E+04  0.10100000352E+00 0.  1.
       -3    1    3    3    0  502 -0.37016238072E+03 -0.23672049541E+03 -0.87962096175E+01  0.43947032272E+03  0.10100000352E+00 0. -1.
</event>
<event>
 5   0  0.3650180E-03  0.1213910E+04  0.7818609E-02  0.9100767E-01
       -2   -1    0    0    0  501  0.00000000000E+00  0.00000000000E+00  0.60018735847E+03  0.60018735848E+03  0.25500000920E-02 0.  1.
        2   -1    0    0  501    0  0.00000000000E+00  0.00000000000E+00 -0.61379945267E+03  0.61379945268E+03  0.25500000920E-02 0. -1.
    10030    2    1    2    0    0  0.00000000000E+00  0.00000000000E+00 -0.13612094198E+02  0.12139868112E+04  0.12139104945E+04 0.  0.
        3    1    3    3  502    0  0.64892193195E+02  0.18699128690E+03  0.56700517620E+03  0.60055942100E+03  0.10100000352E+00 0.  1.
       -3    1    3    3    0  502 -0.64892193195E+02 -0.18699128690E+03 -0.58061727039E+03  0.61342739016E+03  0.10100000352E+00 0. -1.
</event>
<event>
 5   0  0.3706035E-03  0.1235416E+04  0.7818609E-02  0.9082410E-01
        2   -1    0    0  501    0  0.00000000000E+00  0.00000000000E+00  0.98686714620E+03  0.98686714620E+03  0.25500000920E-02 0.  1.
       -2   -1    0    0    0  501  0.00000000000E+00  0.00000000000E+00 -0.38664060116E+03  0.38664060117E+03  0.25500000920E-02 0. -1.
    10030    2    1    2    0    0  0.00000000000E+00  0.00000000000E+00  0.60022654504E+03  0.13735077474E+04  0.12354155684E+04 0.  0.
        2    1    3    3  502    0 -0.51355602909E+03 -0.21823732984E+03  0.59467269892E+03  0.81547712781E+03  0.25500000920E-02 0.  1.
       -2    1    3    3    0  502  0.51355602909E+03  0.21823732984E+03  0.55538461186E+01  0.55803061955E+03  0.25500000920E-02 0. -1.
</event>
<event>
 5   0  0.1397500E-03  0.1199080E+04  0.7818609E-02  0.9113662E-01
       -3   -1    0    0    0  501  0.00000000000E+00  0.00000000000E+00  0.51524043116E+03  0.51524044106E+03  0.10100000352E+00 0. -1.
        3   -1    0    0  501    0  0.00000000000E+00  0.00000000000E+00 -0.69763240780E+03  0.69763241511E+03  0.10100000352E+00 0.  1.
    10030    2    1    2    0    0  0.00000000000E+00  0.00000000000E+00 -0.18239197664E+03  0.12128728562E+04  0.11990803693E+04 0.  0.
        1    1    3    3  502    0  0.58331469721E+03 -0.28383786677E+02 -0.22835348810E+03  0.62706219060E+03  0.50400001928E-02 0.  1.
       -1    1    3    3    0  502 -0.58331469721E+03  0.28383786677E+02  0.45961511460E+02  0.58581066557E+03  0.50400001928E-02 0. -1.
</event>
<event>
 5   0  0.1397500E-03  0.1189083E+04  0.7818609E-02  0.9122466E-01
       -4   -1    0    0    0  501  0.00000000000E+00  0.00000000000E+00  0.11511641207E+04  0.11511648213E+04  0.12699999809E+01 0.  1.
        4   -1    0    0  501    0  0.00000000000E+00  0.00000000000E+00 -0.30706069800E+03  0.30706332434E+03  0.12699999809E+01 0. -1.
    10030    2    1    2    0    0  0.00000000000E+00  0.00000000000E+00  0.84410342271E+03  0.14582281456E+04  0.11890831495E+04 0.  0.
        4    1    3    3  502    0  0.30453222135E+03  0.51010857340E+03  0.45021608323E+03  0.74541717514E+03  0.12699999809E+01 0.  1.
       -4    1    3    3    0  502 -0.30453222135E+03 -0.51010857340E+03  0.39388733947E+03  0.71281097045E+03  0.12699999809E+01 0. -1.
</event>
<event>
 5   0  0.3650180E-03  0.1210431E+04  0.7818609E-02  0.9103775E-01
        2   -1    0    0  501    0  0.00000000000E+00  0.00000000000E+00  0.10688033485E+04  0.10688033485E+04  0.25500000920E-02 0.  1.
       -2   -1    0    0    0  501  0.00000000000E+00  0.00000000000E+00 -0.34270621013E+03  0.34270621014E+03  0.25500000920E-02 0. -1.
    10030    2    1    2    0    0  0.00000000000E+00  0.00000000000E+00  0.72609713837E+03  0.14115095586E+04  0.12104305762E+04 0.  0.
        3    1    3    3  502    0  0.14792957292E+03 -0.33846465166E+03  0.92211134444E+03  0.99334325422E+03  0.10100000352E+00 0.  1.
       -3    1    3    3    0  502 -0.14792957292E+03  0.33846465166E+03 -0.19601420607E+03  0.41816630442E+03  0.10100000352E+00 0. -1.
</event>
<event>
 5   0  0.2134992E-03  0.1191258E+04  0.7818609E-02  0.9120543E-01
       -1   -1    0    0    0  501  0.00000000000E+00  0.00000000000E+00  0.17791173487E+03  0.17791173494E+03  0.50400001928E-02 0. -1.
        1   -1    0    0  501    0  0.00000000000E+00  0.00000000000E+00 -0.19941010432E+04  0.19941010432E+04  0.50400001928E-02 0.  1.
    10030    2    1    2    0    0  0.00000000000E+00  0.00000000000E+00 -0.18161893083E+04  0.21720127781E+04  0.11912581184E+04 0.  0.
        4    1    3    3  502    0 -0.22226305112E+03 -0.45595997790E+03 -0.14773359998E+04  0.15619934810E+04  0.12699999809E+01 0.  1.
       -4    1    3    3    0  502  0.22226305112E+03  0.45595997790E+03 -0.33885330853E+03  0.61001929719E+03  0.12699999809E+01 0. -1.
</event>
<event>
 5   0  0.3626049E-03  0.1219912E+04  0.7818609E-02  0.9095604E-01
        2   -1    0    0  501    0  0.00000000000E+00  0.00000000000E+00  0.15706644880E+04  0.15706644880E+04  0.25500000920E-02 0.  1.
       -2   -1    0    0    0  501  0.00000000000E+00  0.00000000000E+00 -0.23687203192E+03  0.23687203193E+03  0.25500000920E-02 0. -1.
    10030    2    1    2    0    0  0.00000000000E+00  0.00000000000E+00  0.13337924561E+04  0.18075365200E+04  0.12199122735E+04 0.  0.
        1    1    3    3  502    0 -0.58817757396E+03 -0.11075203508E+03  0.84112992426E+03  0.10323363896E+04  0.50400001928E-02 0.  1.
       -1    1    3    3    0  502  0.58817757396E+03  0.11075203508E+03  0.49266253184E+03  0.77520013035E+03  0.50400001928E-02 0. -1.
</event>
<event>
 5   0  0.3706035E-03  0.1202675E+04  0.7818609E-02  0.9110519E-01
       -2   -1    0    0    0  501  0.00000000000E+00  0.00000000000E+00  0.45077777699E+03  0.45077777699E+03  0.25500000920E-02 0. -1.
        2   -1    0    0  501    0  0.00000000000E+00  0.00000000000E+00 -0.80218358797E+03  0.80218358797E+03  0.25500000920E-02 0.  1.
    10030    2    1    2    0    0  0.00000000000E+00  0.00000000000E+00 -0.35140581098E+03  0.12529613650E+04  0.12026745770E+04 0.  0.
        2    1    3    3  502    0  0.29667493720E+03 -0.23128346197E+02 -0.72009911118E+03  0.77916215815E+03  0.25500000920E-02 0.  1.
       -2    1    3    3    0  502 -0.29667493720E+03  0.23128346197E+02  0.36869330020E+03  0.47379920682E+03  0.25500000920E-02 0. -1.
</event>
<event>
 5   0  0.2096270E-03  0.1198537E+04  0.7818609E-02  0.9114138E-01
       -1   -1    0    0    0  501  0.00000000000E+00  0.00000000000E+00  0.83164589893E+03  0.83164589894E+03  0.50400001928E-02 0.  1.
        1   -1    0    0  501    0  0.00000000000E+00  0.00000000000E+00 -0.43182152051E+03  0.43182152054E+03  0.50400001928E-02 0. -1.
    10030    2    1    2    0    0  0.00000000000E+00  0.00000000000E+00  0.39982437842E+03  0.12634674195E+04  0.11985367689E+04 0.  0.
        2    1    3    3  502    0  0.15198774028E+03  0.54494076415E+03  0.40826016965E+03  0.69766544687E+03  0.25500000920E-02 0. -1.
       -2    1    3    3    0  502 -0.15198774028E+03 -0.54494076415E+03 -0.84357912234E+01  0.56580197261E+03  0.25500000920E-02 0.  1.
</event>
<event>
 5   0  0.3751091E-03  0.1232740E+04  0.7818609E-02  0.9084672E-01
       -2   -1    0    0    0  501  0.00000000000E+00  0.00000000000E+00  0.48700680897E+03  0.48700680898E+03  0.25500000920E-02 0.  1.
        2   -1    0    0  501    0  0.00000000000E+00  0.00000000000E+00 -0.78009572473E+03  0.78009572474E+03  0.25500000920E-02 0. -1.
    10030    2    1    2    0    0  0.00000000000E+00  0.00000000000E+00 -0.29308891577E+03  0.12671025337E+04  0.12327399233E+04 0.  0.
        5    1    3    3  502    0  0.47622700071E+03  0.15704405649E+03  0.22182340604E+03  0.54834542521E+03  0.46999998093E+01 0.  1.
       -5    1    3    3    0  502 -0.47622700071E+03 -0.15704405649E+03 -0.51491232180E+03  0.71875710851E+03  0.46999998093E+01 0. -1.
</event>
<event>
 5   0  0.2078258E-03  0.1244780E+04  0.7818609E-02  0.9074539E-01
       -1   -1    0    0    0  501  0.00000000000E+00  0.00000000000E+00  0.18904609312E+03  0.18904609318E+03  0.50400001928E-02 0. -1.
        1   -1    0    0  501    0  0.00000000000E+00  0.00000000000E+00 -0.20490721520E+04  0.20490721520E+04  0.50400001928E-02 0.  1.
    10030    2    1    2    0    0  0.00000000000E+00  0.00000000000E+00 -0.18600260589E+04  0.22381182452E+04  0.12447796350E+04 0.  0.
        3    1    3    3  502    0  0.19661302653E+03  0.50538131476E+03 -0.14792203371E+04  0.15754871537E+04  0.10100000352E+00 0.  1.
       -3    1    3    3    0  502 -0.19661302653E+03 -0.50538131476E+03 -0.38080572181E+03  0.66263109153E+03  0.10100000352E+00 0. -1.
</event>
<event>
 5   0  0.2078258E-03  0.1197717E+04  0.7818609E-02  0.9114857E-01
        1   -1    0    0  501    0  0.00000000000E+00  0.00000000000E+00  0.97034506946E+03  0.97034506948E+03  0.50400001928E-02 0.  1.
       -1   -1    0    0    0  501  0.00000000000E+00  0.00000000000E+00 -0.36959182826E+03  0.36959182830E+03  0.50400001928E-02 0. -1.
    10030    2    1    2    0    0  0.00000000000E+00  0.00000000000E+00  0.60075324120E+03  0.13399368978E+04  0.11977171758E+04 0.  0.
        3    1    3    3  502    0  0.13534004824E+02  0.57338865696E+03  0.10766086859E+03  0.58356541540E+03  0.10100000352E+00 0.  1.
       -3    1    3    3    0  502 -0.13534004824E+02 -0.57338865696E+03  0.49309237261E+03  0.75637148237E+03  0.10100000352E+00 0. -1.
</event>
<event>
 5   0  0.2134992E-03  0.1184574E+04  0.7818609E-02  0.9126467E-01
       -1   -1    0    0    0  501  0.00000000000E+00  0.00000000000E+00  0.45178271879E+03  0.45178271882E+03  0.50400001928E-02 0.  1.
        1   -1    0    0  501    0  0.00000000000E+00  0.00000000000E+00 -0.77648868892E+03  0.77648868894E+03  0.50400001928E-02 0. -1.
    10030    2    1    2    0    0  0.00000000000E+00  0.00000000000E+00 -0.32470597014E+03  0.12282714078E+04  0.11845744738E+04 0.  0.
        4    1    3    3  502    0  0.13955551795E+03  0.40858254504E+03 -0.58275604175E+03  0.72527350413E+03  0.12699999809E+01 0. -1.
       -4    1    3    3    0  502 -0.13955551795E+03 -0.40858254504E+03  0.25805007161E+03  0.50299790363E+03  0.12699999809E+01 0.  1.
</event>
<event>
 5   0  0.3725376E-03  0.1188746E+04  0.7818609E-02  0.9122764E-01
       -2   -1    0    0    0  501  0.00000000000E+00  0.00000000000E+00  0.31968675909E+03  0.31968675910E+03  0.25500000920E-02 0.  1.
        2   -1    0    0  501    0  0.00000000000E+00  0.00000000000E+00 -0.11050798388E+04  0.11050798388E+04  0.25500000920E-02 0. -1.
    10030    2    1    2    0    0  0.00000000000E+00  0.00000000000E+00 -0.78539307968E+03  0.14247665979E+04  0.11887462172E+04 0.  0.
        4    1    3    3  502    0 -0.50505850071E+03 -0.29130989850E+03 -0.53108695998E+03  0.78867009457E+03  0.12699999809E+01 0. -1.
       -4    1    3    3    0  502  0.50505850071E+03  0.29130989850E+03 -0.25430611970E+03  0.63609650331E+03  0.12699999809E+01 0.  1.
</event>
<event>
 5   0  0.3706035E-03  0.1322486E+04  0.7818609E-02  0.9011921E-01
       -2   -1    0    0    0  501  0.00000000000E+00  0.00000000000E+00  0.28768340594E+03  0.28768340595E+03  0.25500000920E-02 0. -1.
        2   -1    0    0  501    0  0.00000000000E+00  0.00000000000E+00 -0.15198728834E+04  0.15198728834E+04  0.25500000920E-02 0.  1.
    10030    2    1    2    0    0  0.00000000000E+00  0.00000000000E+00 -0.12321894775E+04  0.18075562894E+04  0.13224858528E+04 0.  0.
        2    1    3    3  502    0 -0.44178417254E+03 -0.23522378275E+03 -0.12067281217E+04  0.13064058491E+04  0.25500000920E-02 0.  1.
       -2    1    3    3    0  502  0.44178417254E+03  0.23522378275E+03 -0.25461355808E+02  0.50115044021E+03  0.25500000920E-02 0. -1.
</event>
<event>
 5   0  0.3725376E-03  0.1187639E+04  0.7818609E-02  0.9123745E-01
        2   -1    0    0  501    0  0.00000000000E+00  0.00000000000E+00  0.82422425064E+03  0.82422425065E+03  0.25500000920E-02 0.  1.
       -2   -1    0    0    0  501  0.00000000000E+00  0.00000000000E+00 -0.42782239012E+03  0.42782239013E+03  0.25500000920E-02 0. -1.
    10030    2    1    2    0    0  0.00000000000E+00  0.00000000000E+00  0.39640186052E+03  0.12520466408E+04  0.11876389837E+04 0.  0.
        4    1    3    3  502    0 -0.10844919046E+03 -0.57527329677E+03  0.93203566509E+02  0.59278082847E+03  0.12699999809E+01 0. -1.
       -4    1    3    3    0  502  0.10844919046E+03  0.57527329677E+03  0.30319829402E+03  0.65926581231E+03  0.12699999809E+01 0.  1.
</event>
<event>
 5   0  0.3626049E-03  0.1199299E+04  0.7818609E-02  0.9113470E-01
       -2   -1    0    0    0  501  0.00000000000E+00  0.00000000000E+00  0.50987460709E+03  0.50987460709E+03  0.25500000920E-02 0. -1.
        2   -1    0    0  501    0  0.00000000000E+00  0.00000000000E+00 -0.70523119076E+03  0.70523119076E+03  0.25500000920E-02 0.  1.
    10030    2    1    2    0    0  0.00000000000E+00  0.00000000000E+00 -0.19535658367E+03  0.12151057979E+04  0.11992989224E+04 0.  0.
        1    1    3    3  502    0  0.41039048235E+03  0.43704919725E+03 -0.10996777198E+03  0.60952871936E+03  0.50400001928E-02 0.  1.
       -1    1    3    3    0  502 -0.41039048235E+03 -0.43704919725E+03 -0.85388811684E+02  0.60557707850E+03  0.50400001928E-02 0. -1.
</event>
<event>
 5   0  0.3650180E-03  0.1192642E+04  0.7818609E-02  0.9119322E-01
       -2   -1    0    0    0  501  0.00000000000E+00  0.00000000000E+00  0.71640635886E+03  0.71640635886E+03  0.25500000920E-02 0. -1.
        2   -1    0    0  501    0  0.00000000000E+00  0.00000000000E+00 -0.49636429085E+03  0.49636429086E+03  0.25500000920E-02 0.  1.
    10030    2    1    2    0    0  0.00000000000E+00  0.00000000000E+00  0.22004206801E+03  0.12127706497E+04  0.11926416633E+04 0.  0.
        3    1    3    3  502    0 -0.35884530430E+02 -0.42776223819E+02  0.71374243206E+03  0.71592302266E+03  0.10100000352E+00 0. -1.
       -3    1    3    3    0  502  0.35884530430E+02  0.42776223819E+02 -0.49370036405E+03  0.49684762706E+03  0.10100000352E+00 0.  1.
</event>
<event>
 5   0  0.2047109E-03  0.1214162E+04  0.7818609E-02  0.9100550E-01
        1   -1    0    0  501    0  0.00000000000E+00  0.00000000000E+00  0.75093869881E+03  0.75093869883E+03  0.50400001928E-02 0. -1.
       -1   -1    0    0    0  501  0.00000000000E+00  0.00000000000E+00 -0.49078249864E+03  0.49078249866E+03  0.50400001928E-02 0.  1.
    10030    2    1    2    0    0  0.00000000000E+00  0.00000000000E+00  0.26015620017E+03  0.12417211975E+04  0.12141623795E+04 0.  0.
        1    1    3    3  502    0 -0.17646840400E+03 -0.39102982247E+03  0.56936478526E+03  0.71289668143E+03  0.50400001928E-02 0. -1.
       -1    1    3    3    0  502  0.17646840400E+03  0.39102982247E+03 -0.30920858509E+03  0.52882451606E+03  0.50400001928E-02 0.  1.
</event>
<event>
 5   0  0.3706035E-03  0.1135906E+04  0.7818609E-02  0.9170885E-01
       -2   -1    0    0    0  501  0.00000000000E+00  0.00000000000E+00  0.18191398941E+03  0.18191398942E+03  0.25500000920E-02 0.  1.
        2   -1    0    0  501    0  0.00000000000E+00  0.00000000000E+00 -0.17732032215E+04  0.17732032215E+04  0.25500000920E-02 0. -1.
    10030    2    1    2    0    0  0.00000000000E+00  0.00000000000E+00 -0.15912892321E+04  0.19551172109E+04  0.11359057568E+04 0.  0.
        2    1    3    3  502    0 -0.18679759193E+03 -0.52217787279E+03 -0.10064992938E+04  0.11491753128E+04  0.25500000920E-02 0. -1.
       -2    1    3    3    0  502  0.18679759193E+03  0.52217787279E+03 -0.58478993834E+03  0.80594189813E+03  0.25500000920E-02 0.  1.
</event>
<event>
 5   0  0.2096270E-03  0.1198524E+04  0.7818609E-02  0.9114149E-01
        1   -1    0    0  501    0  0.00000000000E+00  0.00000000000E+00  0.13202772399E+04  0.13202772399E+04  0.50400001928E-02 0. -1.
       -1   -1    0    0    0  501  0.00000000000E+00  0.00000000000E+00 -0.27199981945E+03  0.27199981950E+03  0.50400001928E-02 0.  1.
    10030    2    1    2    0    0  0.00000000000E+00  0.00000000000E+00  0.10482774204E+04  0.15922770594E+04  0.11985243776E+04 0.  0.
        2    1    3    3  502    0 -0.48965224188E+03  0.34289297513E+03  0.46808381454E+03  0.75923472511E+03  0.25500000920E-02 0.  1.
       -2    1    3    3    0  502  0.48965224188E+03 -0.34289297513E+03  0.58019360588E+03  0.83304233426E+03  0.25500000920E-02 0. -1.
</event>
<event>
 5   0  0.3725376E-03  0.1208176E+04  0.7818609E-02  0.9105730E-01
       -2   -1    0    0    0  501  0.00000000000E+00  0.00000000000E+00  0.81859444576E+03  0.81859444576E+03  0.25500000920E-02 0.  1.
        2   -1    0    0  501    0  0.00000000000E+00  0.00000000000E+00 -0.44579122247E+03  0.44579122248E+03  0.25500000920E-02 0. -1.
    10030    2    1    2    0    0  0.00000000000E+00  0.00000000000E+00  0.37280322328E+03  0.12643856682E+04  0.12081758460E+04 0.  0.
        4    1    3    3  502    0  0.37273076552E+02 -0.35083955479E+03  0.69956471349E+03  0.78349861308E+03  0.12699999809E+01 0.  1.
       -4    1    3    3    0  502 -0.37273076552E+02  0.35083955479E+03 -0.32676149021E+03  0.48088705516E+03  0.12699999809E+01 0. -1.
</event>
<event>
 5   0  0.3725376E-03  0.1208200E+04  0.7818609E-02  0.9105709E-01
       -2   -1    0    0    0  501  0.00000000000E+00  0.00000000000E+00  0.37880284066E+03  0.37880284067E+03  0.25500000920E-02 0. -1.
        2   -1    0    0  501    0  0.00000000000E+00  0.00000000000E+00 -0.96339557248E+03  0.96339557248E+03  0.25500000920E-02 0.  1.
    10030    2    1    2    0    0  0.00000000000E+00  0.00000000000E+00 -0.58459273182E+03  0.13421984131E+04  0.12082002806E+04 0.  0.
        4    1    3    3  502    0  0.94139271358E+01 -0.13985574891E+03  0.36048533908E+03  0.38678100409E+03  0.12699999809E+01 0. -1.
       -4    1    3    3    0  502 -0.94139271358E+01  0.13985574891E+03 -0.94507807091E+03  0.95541740906E+03  0.12699999809E+01 0.  1.
</event>
<event>
 5   0  0.2047109E-03  0.1204951E+04  0.7818609E-02  0.9108534E-01
       -1   -1    0    0    0  501  0.00000000000E+00  0.00000000000E+00  0.19583771650E+03  0.19583771657E+03  0.50400001928E-02 0. -1.
        1   -1    0    0  501    0  0.00000000000E+00  0.00000000000E+00 -0.18534556430E+04  0.18534556430E+04  0.50400001928E-02 0.  1.
    10030    2    1    2    0    0  0.00000000000E+00  0.00000000000E+00 -0.16576179265E+04  0.20492933596E+04  0.12049506560E+04 0.  0.
        1    1    3    3  502    0  0.20018640017E+03  0.18176550655E+03 -0.17444630361E+04  0.17652944736E+04  0.50400001928E-02 0.  1.
       -1    1    3    3    0  502 -0.20018640017E+03 -0.18176550655E+03  0.86845109552E+02  0.28399888602E+03  0.50400001928E-02 0. -1.
</event>
<event>
 5   0  0.2078258E-03  0.1196192E+04  0.7818609E-02  0.9116196E-01
       -1   -1    0    0    0  501  0.00000000000E+00  0.00000000000E+00  0.24569596077E+03  0.24569596083E+03  0.50400001928E-02 0. -1.
        1   -1    0    0  501    0  0.00000000000E+00  0.00000000000E+00 -0.14559408525E+04  0.14559408525E+04  0.50400001928E-02 0.  1.
    10030    2    1    2    0    0  0.00000000000E+00  0.00000000000E+00 -0.12102448917E+04  0.17016368133E+04  0.11961919355E+04 0.  0.
        3    1    3    3  502    0  0.11565917345E+03 -0.31185878577E+03 -0.13122372377E+04  0.13537353969E+04  0.10100000352E+00 0.  1.
       -3    1    3    3    0  502 -0.11565917345E+03  0.31185878577E+03  0.10199234602E+03  0.34790141637E+03  0.10100000352E+00 0. -1.
</event>
<event>
 5   0  0.3650180E-03  0.1202224E+04  0.7818609E-02  0.9110912E-01
       -2   -1    0    0    0  501  0.00000000000E+00  0.00000000000E+00  0.32932888581E+03  0.32932888582E+03  0.25500000920E-02 0.  1.
        2   -1    0    0  501    0  0.00000000000E+00  0.00000000000E+00 -0.10971882544E+04  0.10971882544E+04  0.25500000920E-02 0. -1.
    10030    2    1    2    0    0  0.00000000000E+00  0.00000000000E+00 -0.76785936863E+03  0.14265171403E+04  0.12022242476E+04 0.  0.
        3    1    3    3  502    0 -0.49668115180E+03  0.30496650918E+03 -0.20938345352E+03  0.61930459313E+03  0.10100000352E+00 0.  1.
       -3    1    3    3    0  502  0.49668115180E+03 -0.30496650918E+03 -0.55847591511E+03  0.80721254712E+03  0.10100000352E+00 0. -1.
</event>
<event>
 5   0  0.2025294E-03  0.1192363E+04  0.7818609E-02  0.9119567E-01
        1   -1    0    0  501    0  0.00000000000E+00  0.00000000000E+00  0.83920145768E+03  0.83920145770E+03  0.50400001928E-02 0. -1.
       -1   -1    0    0    0  501  0.00000000000E+00  0.00000000000E+00 -0.42353653701E+03  0.42353653704E+03  0.50400001928E-02 0.  1.
    10030    2    1    2    0    0  0.00000000000E+00  0.00000000000E+00  0.41566492068E+03  0.12627379947E+04  0.11923631649E+04 0.  0.
        5    1    3    3  502    0  0.56395254115E+03  0.16049973593E+03  0.32193066752E+03  0.66892755855E+03  0.46999998093E+01 0. -1.
       -5    1    3    3    0  502 -0.56395254115E+03 -0.16049973593E+03  0.93734253157E+02  0.59381043618E+03  0.46999998093E+01 0.  1.
</event>
<event>
 5   0  0.2134992E-03  0.1195425E+04  0.7818609E-02  0.9116870E-01
        1   -1    0    0  501    0  0.00000000000E+00  0.00000000000E+00  0.46063140642E+03  0.46063140645E+03  0.50400001928E-02 0. -1.
       -1   -1    0    0    0  501  0.00000000000E+00  0.00000000000E+00 -0.77558845193E+03  0.77558845194E+03  0.50400001928E-02 0.  1.
    10030    2    1    2    0    0  0.00000000000E+00  0.00000000000E+00 -0.31495704551E+03  0.12362198584E+04  0.11954252790E+04 0.  0.
        4    1    3    3  502    0 -0.14017520379E+03 -0.43253112031E+03  0.24373891826E+03  0.51589003767E+03  0.12699999809E+01 0. -1.
       -4    1    3    3    0  502  0.14017520379E+03  0.43253112031E+03 -0.55869596377E+03  0.72032982072E+03  0.12699999809E+01 0.  1.
</event>
<event>
 5   0  0.3725376E-03  0.1203129E+04  0.7818609E-02  0.9110122E-01
       -2   -1    0    0    0  501  0.00000000000E+00  0.00000000000E+00  0.34693241405E+03  0.34693241406E+03  0.25500000920E-02 0. -1.
        2   -1    0    0  501    0  0.00000000000E+00  0.00000000000E+00 -0.10430840268E+04  0.10430840268E+04  0.25500000920E-02 0.  1.
    10030    2    1    2    0    0  0.00000000000E+00  0.00000000000E+00 -0.69615161270E+03  0.13900164408E+04  0.12031286872E+04 0.  0.
        4    1    3    3  502    0  0.50882725147E+03 -0.14647513958E+03 -0.18212226116E+02  0.52980509287E+03  0.12699999809E+01 0.  1.
       -4    1    3    3    0  502 -0.50882725147E+03  0.14647513958E+03 -0.67793938659E+03  0.86021134795E+03  0.12699999809E+01 0. -1.
</event>
<event>
 5   0  0.3626049E-03  0.1191919E+04  0.7818609E-02  0.9119959E-01
        2   -1    0    0  501    0  0.00000000000E+00  0.00000000000E+00  0.16006156173E+04  0.16006156173E+04  0.25500000920E-02 0.  1.
       -2   -1    0    0    0  501  0.00000000000E+00  0.00000000000E+00 -0.22189442314E+03  0.22189442315E+03  0.25500000920E-02 0. -1.
    10030    2    1    2    0    0  0.00000000000E+00  0.00000000000E+00  0.13787211942E+04  0.18225100404E+04  0.11919189219E+04 0.  0.
        1    1    3    3  502    0  0.54359318678E+03 -0.17344639883E+03  0.95238689331E+03  0.11102333091E+04  0.50400001928E-02 0.  1.
       -1    1    3    3    0  502 -0.54359318678E+03  0.17344639883E+03  0.42633430085E+03  0.71227673139E+03  0.50400001928E-02 0. -1.
</event>
<event>
 5   0  0.2096270E-03  0.1231522E+04  0.7818609E-02  0.9085704E-01
       -1   -1    0    0    0  501  0.00000000000E+00  0.00000000000E+00  0.36374514117E+03  0.36374514121E+03  0.50400001928E-02 0. -1.
        1   -1    0    0  501    0  0.00000000000E+00  0.00000000000E+00 -0.10423827027E+04  0.10423827027E+04  0.50400001928E-02 0.  1.
    10030    2    1    2    0    0  0.00000000000E+00  0.00000000000E+00 -0.67863756155E+03  0.14061278439E+04  0.12315220556E+04 0.  0.
        2    1    3    3  502    0 -0.41456450833E+02 -0.58316588300E+03 -0.11862540558E+03  0.59655097961E+03  0.25500000920E-02 0. -1.
       -2    1    3    3    0  502  0.41456450833E+02  0.58316588300E+03 -0.56001215597E+03  0.80957686433E+03  0.25500000920E-02 0.  1.
</event>
<event>
 5   0  0.3706035E-03  0.1211052E+04  0.7818609E-02  0.9103237E-01
        2   -1    0    0  501    0  0.00000000000E+00  0.00000000000E+00  0.21996808782E+04  0.21996808782E+04  0.25500000920E-02 0. -1.
       -2   -1    0    0    0  501  0.00000000000E+00  0.00000000000E+00 -0.16668857727E+03  0.16668857729E+03  0.25500000920E-02 0.  1.
    10030    2    1    2    0    0  0.00000000000E+00  0.00000000000E+00  0.20329923009E+04  0.23663694555E+04  0.12110518999E+04 0.  0.
        2    1    3    3  502    0  0.26106159664E+03  0.13307241300E+03 -0.18928599930E+02  0.29363194009E+03  0.25500000920E-02 0.  1.
       -2    1    3    3    0  502 -0.26106159664E+03 -0.13307241300E+03  0.20519209008E+04  0.20727375154E+04  0.25500000920E-02 0. -1.
</event>
<event>
 5   0  0.3626049E-03  0.1187767E+04  0.7818609E-02  0.9123632E-01
       -2   -1    0    0    0  501  0.00000000000E+00  0.00000000000E+00  0.34180022509E+03  0.34180022510E+03  0.25500000920E-02 0. -1.
        2   -1    0    0  501    0  0.00000000000E+00  0.00000000000E+00 -0.10318826945E+04  0.10318826945E+04  0.25500000920E-02 0.  1.
    10030    2    1    2    0    0  0.00000000000E+00  0.00000000000E+00 -0.69008246941E+03  0.13736829196E+04  0.11877672116E+04 0.  0.
        1    1    3    3  502    0  0.89247985434E+02  0.32773684883E+03 -0.90844965727E+03  0.96987495318E+03  0.50400001928E-02 0.  1.
       -1    1    3    3    0  502 -0.89247985434E+02 -0.32773684883E+03  0.21836718786E+03  0.40380796642E+03  0.50400001928E-02 0. -1.
</event>
<event>
 5   0  0.3650180E-03  0.1083432E+04  0.7818609E-02  0.9221492E-01
        2   -1    0    0  501    0  0.00000000000E+00  0.00000000000E+00  0.10042277330E+04  0.10042277330E+04  0.25500000920E-02 0. -1.
       -2   -1    0    0    0  501  0.00000000000E+00  0.00000000000E+00 -0.29222104005E+03  0.29222104006E+03  0.25500000920E-02 0.  1.
    10030    2    1    2    0    0  0.00000000000E+00  0.00000000000E+00  0.71200669298E+03  0.12964487731E+04  0.10834324577E+04 0.  0.
        3    1    3    3  502    0 -0.45908623953E+03  0.21783141628E+03  0.13135306563E+03  0.52484696750E+03  0.10100000352E+00 0.  1.
       -3    1    3    3    0  502  0.45908623953E+03 -0.21783141628E+03  0.58065362735E+03  0.77160180560E+03  0.10100000352E+00 0. -1.
</event>
<event>
 5   0  0.3706035E-03  0.1186741E+04  0.7818609E-02  0.9124542E-01
        2   -1    0    0  501    0  0.00000000000E+00  0.00000000000E+00  0.89490285242E+03  0.89490285243E+03  0.25500000920E-02 0.  1.
       -2   -1    0    0    0  501  0.00000000000E+00  0.00000000000E+00 -0.39343787669E+03  0.39343787670E+03  0.25500000920E-02 0. -1.
    10030    2    1    2    0    0  0.00000000000E+00  0.00000000000E+00  0.50146497573E+03  0.12883407291E+04  0.11867412154E+04 0.  0.
        2    1    3    3  502    0 -0.12815337772E+03  0.20949336575E+03  0.83714188700E+03  0.87242036742E+03  0.25500000920E-02 0.  1.
       -2    1    3    3    0  502  0.12815337772E+03 -0.20949336575E+03 -0.33567691127E+03  0.41592036170E+03  0.25500000920E-02 0. -1.
</event>
<event>
 5   0  0.2025294E-03  0.1215968E+04  0.7818609E-02  0.9098994E-01
       -1   -1    0    0    0  501  0.00000000000E+00  0.00000000000E+00  0.89596383398E+03  0.89596383399E+03  0.50400001928E-02 0.  1.
        1   -1    0    0  501    0  0.00000000000E+00  0.00000000000E+00 -0.41256621132E+03  0.41256621135E+03  0.50400001928E-02 0. -1.
    10030    2    1    2    0    0  0.00000000000E+00  0.00000000000E+00  0.48339762266E+03  0.13085300453E+04  0.12159677701E+04 0.  0.
        5    1    3    3  502    0 -0.59534607271E+03  0.12130956614E+03  0.21838499069E+03  0.64565242297E+03  0.46999998093E+01 0. -1.
       -5    1    3    3    0  502  0.59534607271E+03 -0.12130956614E+03  0.26501263198E+03  0.66287762237E+03  0.46999998093E+01 0.  1.
</event>
<event>
 5   0  0.3725376E-03  0.1201078E+04  0.7818609E-02  0.9111913E-01
       -2   -1    0    0    0  501  0.00000000000E+00  0.00000000000E+00  0.73324026818E+03  0.73324026819E+03  0.25500000920E-02 0.  1.
        2   -1    0    0  501    0  0.00000000000E+00  0.00000000000E+00 -0.49185403638E+03  0.49185403638E+03  0.25500000920E-02 0. -1.
    10030    2    1    2    0    0  0.00000000000E+00  0.00000000000E+00  0.24138623180E+03  0.12250943046E+04  0.12010781582E+04 0.  0.
        4    1    3    3  502    0 -0.30113687029E+03  0.13523894213E+03  0.63239404765E+03  0.71337005160E+03  0.12699999809E+01 0.  1.
       -4    1    3    3    0  502  0.30113687029E+03 -0.13523894213E+03 -0.39100781585E+03  0.51172425297E+03  0.12699999809E+01 0. -1.
</event>
<event>
 5   0  0.2078258E-03  0.1275052E+04  0.7818609E-02  0.9049586E-01
        1   -1    0    0  501    0  0.00000000000E+00  0.00000000000E+00  0.66012656450E+03  0.66012656452E+03  0.50400001928E-02 0.  1.
       -1   -1    0    0    0  501  0.00000000000E+00  0.00000000000E+00 -0.61569953402E+03  0.61569953404E+03  0.50400001928E-02 0. -1.
    10030    2    1    2    0    0  0.00000000000E+00  0.00000000000E+00  0.44427030482E+02  0.12758260986E+04  0.12750523412E+04 0.  0.
        3    1    3    3  502    0  0.77449025400E+02 -0.63186326830E+03 -0.12304761496E+02  0.63671104805E+03  0.10100000352E+00 0. -1.
       -3    1    3    3    0  502 -0.77449025400E+02  0.63186326830E+03  0.56731791977E+02  0.63911505050E+03  0.10100000352E+00 0.  1.
</event>
<event>
 5   0  0.2047109E-03  0.1217424E+04  0.7818609E-02  0.9097741E-01
        1   -1    0    0  501    0  0.00000000000E+00  0.00000000000E+00  0.16346402115E+04  0.16346402115E+04  0.50400001928E-02 0. -1.
       -1   -1    0    0    0  501  0.00000000000E+00  0.00000000000E+00 -0.22667390135E+03  0.22667390140E+03  0.50400001928E-02 0.  1.
    10030    2    1    2    0    0  0.00000000000E+00  0.00000000000E+00  0.14079663101E+04  0.18613141129E+04  0.12174239592E+04 0.  0.
        1    1    3    3  502    0 -0.93396189459E+02 -0.36041434368E+03  0.14402522288E+04  0.14875980068E+04  0.50400001928E-02 0. -1.
       -1    1    3    3    0  502  0.93396189459E+02  0.36041434368E+03 -0.32285918701E+02  0.37371610603E+03  0.50400001928E-02 0.  1.
</event>
<event>
 5   0  0.3650180E-03  0.1195935E+04  0.7818609E-02  0.9116422E-01
       -2   -1    0    0    0  501  0.00000000000E+00  0.00000000000E+00  0.58028920530E+03  0.58028920531E+03  0.25500000920E-02 0.  1.
        2   -1    0    0  501    0  0.00000000000E+00  0.00000000000E+00 -0.61618413487E+03  0.61618413488E+03  0.25500000920E-02 0. -1.
    10030    2    1    2    0    0  0.00000000000E+00  0.00000000000E+00 -0.35894929566E+02  0.11964733402E+04  0.11959347841E+04 0.  0.
        3    1    3    3  502    0  0.30760464472E+03  0.13291070076E+03 -0.51342711015E+03  0.61310136149E+03  0.10100000352E+00 0. -1.
       -3    1    3    3    0  502 -0.30760464472E+03 -0.13291070076E+03  0.47753218058E+03  0.58337197869E+03  0.10100000352E+00 0.  1.
</event>
<event>
 5   0  0.1397500E-03  0.1211008E+04  0.7818609E-02  0.9103275E-01
       -3   -1    0    0    0  501  0.00000000000E+00  0.00000000000E+00  0.39272606652E+03  0.39272607951E+03  0.10100000352E+00 0. -1.
        3   -1    0    0  501    0  0.00000000000E+00  0.00000000000E+00 -0.93356506809E+03  0.93356507355E+03  0.10100000352E+00 0.  1.
    10030    2    1    2    0    0  0.00000000000E+00  0.00000000000E+00 -0.54083900157E+03  0.13262911531E+04  0.12110084216E+04 0.  0.
        4    1    3    3  502    0  0.26017675266E+03  0.54237014825E+03 -0.19472875523E+03  0.63228017631E+03  0.12699999809E+01 0.  1.
       -4    1    3    3    0  502 -0.26017675266E+03 -0.54237014825E+03 -0.34611024633E+03  0.69401097676E+03  0.12699999809E+01 0. -1.
</event>
<event>
 5   0  0.2078258E-03  0.1204477E+04  0.7818609E-02  0.9108947E-01
       -1   -1    0    0    0  501  0.00000000000E+00  0.00000000000E+00  0.40744288939E+03  0.40744288942E+03  0.50400001928E-02 0. -1.
        1   -1    0    0  501    0  0.00000000000E+00  0.00000000000E+00 -0.89016384380E+03  0.89016384381E+03  0.50400001928E-02 0.  1.
    10030    2    1    2    0    0  0.00000000000E+00  0.00000000000E+00 -0.48272095441E+03  0.12976067332E+04  0.12044765312E+04 0.  0.
        3    1    3    3  502    0  0.81584110016E+02 -0.29666848859E+02  0.40066699286E+03  0.40996358167E+03  0.10100000352E+00 0. -1.
       -3    1    3    3    0  502 -0.81584110016E+02  0.29666848859E+02 -0.88338794727E+03  0.88764315156E+03  0.10100000352E+00 0.  1.
</event>
<event>
 5   0  0.2134992E-03  0.1168975E+04  0.7818609E-02  0.9140455E-01
        1   -1    0    0  501    0  0.00000000000E+00  0.00000000000E+00  0.11900658273E+04  0.11900658273E+04  0.50400001928E-02 0.  1.
       -1   -1    0    0    0  501  0.00000000000E+00  0.00000000000E+00 -0.28706429772E+03  0.28706429777E+03  0.50400001928E-02 0. -1.
    10030    2    1    2    0    0  0.00000000000E+00  0.00000000000E+00  0.90300152955E+03  0.14771301251E+04  0.11689746122E+04 0.  0.
        4    1    3    3  502    0  0.32066612077E+03 -0.48864901267E+03  0.44596685194E+03  0.73518206216E+03  0.12699999809E+01 0. -1.
       -4    1    3    3    0  502 -0.32066612077E+03  0.48864901267E+03  0.45703467761E+03  0.74194806290E+03  0.12699999809E+01 0.  1.
</event>
<event>
 5   0  0.2025294E-03  0.1219028E+04  0.7818609E-02  0.9096362E-01
       -1   -1    0    0    0  501  0.00000000000E+00  0.00000000000E+00  0.53417875402E+03  0.53417875405E+03  0.50400001928E-02 0.  1.
        1   -1    0    0  501    0  0.00000000000E+00  0.00000000000E+00 -0.69547428708E+03  0.69547428710E+03  0.50400001928E-02 0. -1.
    10030    2    1    2    0    0  0.00000000000E+00  0.00000000000E+00 -0.16129553306E+03  0.12296530411E+04  0.12190284462E+04 0.  0.
        5    1    3    3  502    0  0.30847772407E+03  0.51807231867E+03  0.91679494957E+01  0.60304525114E+03  0.46999998093E+01 0.  1.
       -5    1    3    3    0  502 -0.30847772407E+03 -0.51807231867E+03 -0.17046348256E+03  0.62660779001E+03  0.46999998093E+01 0. -1.
</event>
<event>
 5   0  0.2134992E-03  0.8941145E+03  0.7818609E-02  0.9432969E-01
        1   -1    0    0  501    0  0.00000000000E+00  0.00000000000E+00  0.71466218499E+03  0.71466218501E+03  0.50400001928E-02 0.  1.
       -1   -1    0    0    0  501  0.00000000000E+00  0.00000000000E+00 -0.27965688336E+03  0.27965688340E+03  0.50400001928E-02 0. -1.
    10030    2    1    2    0    0  0.00000000000E+00  0.00000000000E+00  0.43500530164E+03  0.99431906841E+03  0.89411453257E+03 0.  0.
        4    1    3    3  502    0  0.31942708050E+02 -0.19093044316E+03  0.66563261658E+03  0.69321220696E+03  0.12699999809E+01 0.  1.
       -4    1    3    3    0  502 -0.31942708050E+02  0.19093044316E+03 -0.23062731494E+03  0.30110686146E+03  0.12699999809E+01 0. -1.
</event>
<event>
 5   0  0.3650180E-03  0.1271416E+04  0.7818609E-02  0.9052545E-01
       -2   -1    0    0    0  501  0.00000000000E+00  0.00000000000E+00  0.49789371331E+03  0.49789371332E+03  0.25500000920E-02 0.  1.
        2   -1    0    0  501    0  0.00000000000E+00  0.00000000000E+00 -0.81166839308E+03  0.81166839309E+03  0.25500000920E-02 0. -1.
    10030    2    1    2    0    0  0.00000000000E+00  0.00000000000E+00 -0.31377467977E+03  0.13095621064E+04  0.12714158882E+04 0.  0.
        3    1    3    3  502    0 -0.57544337260E+03 -0.24804520178E+03 -0.46609263839E+02  0.62835812310E+03  0.10100000352E+00 0.  1.
       -3    1    3    3    0  502  0.57544337260E+03  0.24804520178E+03 -0.26716541593E+03  0.68120398330E+03  0.10100000352E+00 0. -1.
</event>
<event>
 5   0  0.2047109E-03  0.1245838E+04  0.7818609E-02  0.9073655E-01
        1   -1    0    0  501    0  0.00000000000E+00  0.00000000000E+00  0.82523896873E+03  0.82523896875E+03  0.50400001928E-02 0.  1.
       -1   -1    0    0    0  501  0.00000000000E+00  0.00000000000E+00 -0.47020068201E+03  0.47020068204E+03  0.50400001928E-02 0. -1.
    10030    2    1    2    0    0  0.00000000000E+00  0.00000000000E+00  0.35503828672E+03  0.12954396508E+04  0.12458377518E+04 0.  0.
        1    1    3    3  502    0  0.11621539933E+03 -0.39369160991E+02 -0.45751020890E+03  0.47367873201E+03  0.50400001928E-02 0. -1.
       -1    1    3    3    0  502 -0.11621539933E+03  0.39369160991E+02  0.81254849562E+03  0.82176091878E+03  0.50400001928E-02 0.  1.
</event>
<event>
 5   0  0.3650180E-03  0.1208898E+04  0.7818609E-02  0.9105103E-01
        2   -1    0    0  501    0  0.00000000000E+00  0.00000000000E+00  0.16755622952E+04  0.16755622952E+04  0.25500000920E-02 0.  1.
       -2   -1    0    0    0  501  0.00000000000E+00  0.00000000000E+00 -0.21805139577E+03  0.21805139578E+03  0.25500000920E-02 0. -1.
    10030    2    1    2    0    0  0.00000000000E+00  0.00000000000E+00  0.14575108995E+04  0.18936136910E+04  0.12088981714E+04 0.  0.
        3    1    3    3  502    0 -0.50150986285E+03 -0.23404988771E+03  0.34806249802E+03  0.65378819598E+03  0.10100000352E+00 0.  1.
       -3    1    3    3    0  502  0.50150986285E+03  0.23404988771E+03  0.11094484015E+04  0.12398254950E+04  0.10100000352E+00 0. -1.
</event>
<event>
 5   0  0.3725376E-03  0.1180809E+04  0.7818609E-02  0.9129822E-01
       -2   -1    0    0    0  501  0.00000000000E+00  0.00000000000E+00  0.71461657040E+03  0.71461657040E+03  0.25500000920E-02 0.  1.
        2   -1    0    0  501    0  0.00000000000E+00  0.00000000000E+00 -0.48778249996E+03  0.48778249996E+03  0.25500000920E-02 0. -1.
    10030    2    1    2    0    0  0.00000000000E+00  0.00000000000E+00  0.22683407044E+03  0.12023990704E+04  0.11808089722E+04 0.  0.
        4    1    3    3  502    0  0.73499115183E+01  0.85660524247E+02  0.70820665114E+03  0.71340733121E+03  0.12699999809E+01 0.  1.
       -4    1    3    3    0  502 -0.73499115183E+01 -0.85660524247E+02 -0.48137258070E+03  0.48899173915E+03  0.12699999809E+01 0. -1.
</event>
<event>
 5   0  0.2134992E-03  0.1202210E+04  0.7818609E-02  0.9110924E-01
        1   -1    0    0  501    0  0.00000000000E+00  0.00000000000E+00  0.52592970378E+03  0.52592970381E+03  0.50400001928E-02 0.  1.
       -1   -1    0    0    0  501  0.00000000000E+00  0.00000000000E+00 -0.68702597116E+03  0.68702597118E+03  0.50400001928E-02 0. -1.
    10030    2    1    2    0    0  0.00000000000E+00  0.00000000000E+00 -0.16109626738E+03  0.12129556750E+04  0.12022102404E+04 0.  0.
        4    1    3    3  502    0  0.48724140241E+03 -0.34926301849E+03 -0.36144400046E+02  0.60058044496E+03  0.12699999809E+01 0.  1.
       -4    1    3    3    0  502 -0.48724140241E+03  0.34926301849E+03 -0.12495186733E+03  0.61237523003E+03  0.12699999809E+01 0. -1.
</event>
<event>
 5   0  0.2047109E-03  0.1231911E+04  0.7818609E-02  0.9085374E-01
       -1   -1    0    0    0  501  0.00000000000E+00  0.00000000000E+00  0.19240842912E+03  0.19240842918E+03  0.50400001928E-02 0. -1.
        1   -1    0    0  501    0  0.00000000000E+00  0.00000000000E+00 -0.19718542196E+04  0.19718542196E+04  0.50400001928E-02 0.  1.
    10030    2    1    2    0    0  0.00000000000E+00  0.00000000000E+00 -0.17794457905E+04  0.21642626488E+04  0.12319113165E+04 0.  0.
        1    1    3    3  502    0 -0.53989647943E+02 -0.58873173911E+03 -0.58603239319E+03  0.83243853143E+03  0.50400001928E-02 0. -1.
       -1    1    3    3    0  502  0.53989647943E+02  0.58873173911E+03 -0.11934133973E+04  0.13318241174E+04  0.50400001928E-02 0.  1.
</event>
<event>
 5   0  0.3706035E-03  0.1205012E+04  0.7818609E-02  0.9108481E-01
        2   -1    0    0  501    0  0.00000000000E+00  0.00000000000E+00  0.23115349056E+04  0.23115349056E+04  0.25500000920E-02 0. -1.
       -2   -1    0    0    0  501  0.00000000000E+00  0.00000000000E+00 -0.15704427816E+03  0.15704427818E+03  0.25500000920E-02 0.  1.
    10030    2    1    2    0    0  0.00000000000E+00  0.00000000000E+00  0.21544906274E+04  0.24685791837E+04  0.12050117522E+04 0.  0.
        2    1    3    3  502    0  0.50557181604E+03 -0.33552743976E+02  0.17451140599E+04  0.18171823601E+04  0.25500000920E-02 0. -1.
       -2    1    3    3    0  502 -0.50557181604E+03  0.33552743976E+02  0.40937656745E+03  0.65139682359E+03  0.25500000920E-02 0.  1.
</event>
<event>
 5   0  0.3650180E-03  0.1184965E+04  0.7818609E-02  0.9126119E-01
       -2   -1    0    0    0  501  0.00000000000E+00  0.00000000000E+00  0.72815355898E+03  0.72815355898E+03  0.25500000920E-02 0.  1.
        2   -1    0    0  501    0  0.00000000000E+00  0.00000000000E+00 -0.48209008895E+03  0.48209008895E+03  0.25500000920E-02 0. -1.
    10030    2    1    2    0    0  0.00000000000E+00  0.00000000000E+00  0.24606347003E+03  0.12102436479E+04  0.11849651708E+04 0.  0.
        3    1    3    3  502    0 -0.36191341360E+03 -0.44077900539E+03 -0.40917303475E+02  0.57178814823E+03  0.10100000352E+00 0. -1.
       -3    1    3    3    0  502  0.36191341360E+03  0.44077900539E+03  0.28698077351E+03  0.63845549970E+03  0.10100000352E+00 0.  1.
</event>
<event>
 5   0  0.2134992E-03  0.1194471E+04  0.7818609E-02  0.9117710E-01
       -1   -1    0    0    0  501  0.00000000000E+00  0.00000000000E+00  0.28628765648E+03  0.28628765652E+03  0.50400001928E-02 0.  1.
        1   -1    0    0  501    0  0.00000000000E+00  0.00000000000E+00 -0.12459161118E+04  0.12459161118E+04  0.50400001928E-02 0. -1.
    10030    2    1    2    0    0  0.00000000000E+00  0.00000000000E+00 -0.95962845536E+03  0.15322037684E+04  0.11944712703E+04 0.  0.
        4    1    3    3  502    0 -0.18167966234E+03 -0.18771547901E+03 -0.11687388640E+04  0.11975795363E+04  0.12699999809E+01 0. -1.
       -4    1    3    3    0  502  0.18167966234E+03  0.18771547901E+03  0.20911040863E+03  0.33462423203E+03  0.12699999809E+01 0.  1.
</event>
<event>
 5   0  0.2096270E-03  0.1200173E+04  0.7818609E-02  0.9112705E-01
       -1   -1    0    0    0  501  0.00000000000E+00  0.00000000000E+00  0.63208152992E+03  0.63208152994E+03  0.50400001928E-02 0. -1.
        1   -1    0    0  501    0  0.00000000000E+00  0.00000000000E+00 -0.56971131112E+03  0.56971131114E+03  0.50400001928E-02 0.  1.
    10030    2    1    2    0    0  0.00000000000E+00  0.00000000000E+00  0.62370218798E+02  0.12017928411E+04  0.12001733161E+04 0.  0.
        2    1    3    3  502    0 -0.23404337052E+03  0.38029797376E+03 -0.37023131389E+03  0.58006385332E+03  0.25500000920E-02 0.  1.
       -2    1    3    3    0  502  0.23404337052E+03 -0.38029797376E+03  0.43260153269E+03  0.62172898776E+03  0.25500000920E-02 0. -1.
</event>
<event>
 5   0  0.2047109E-03  0.1217003E+04  0.7818609E-02  0.9098103E-01
       -1   -1    0    0    0  501  0.00000000000E+00  0.00000000000E+00  0.66650552666E+03  0.66650552668E+03  0.50400001928E-02 0. -1.
        1   -1    0    0  501    0  0.00000000000E+00  0.00000000000E+00 -0.55554537104E+03  0.55554537106E+03  0.50400001928E-02 0.  1.
    10030    2    1    2    0    0  0.00000000000E+00  0.00000000000E+00  0.11096015562E+03  0.12220508977E+04  0.12170029747E+04 0.  0.
        1    1    3    3  502    0 -0.60211399841E+03  0.75415720991E+02  0.10089223525E+03  0.61514879599E+03  0.50400001928E-02 0.  1.
       -1    1    3    3    0  502  0.60211399841E+03 -0.75415720991E+02  0.10067920375E+02  0.60690210174E+03  0.50400001928E-02 0. -1.
</event>
<event>
 5   0  0.3706035E-03  0.1217663E+04  0.7818609E-02  0.9097535E-01
       -2   -1    0    0    0  501  0.00000000000E+00  0.00000000000E+00  0.36527219879E+03  0.36527219880E+03  0.25500000920E-02 0.  1.
        2   -1    0    0  501    0  0.00000000000E+00  0.00000000000E+00 -0.10147941471E+04  0.10147941471E+04  0.25500000920E-02 0. -1.
    10030    2    1    2    0    0  0.00000000000E+00  0.00000000000E+00 -0.64952194829E+03  0.13800663459E+04  0.12176634830E+04 0.  0.
        2    1    3    3  502    0 -0.46770500777E+03  0.36344793280E+03 -0.48437634839E+03  0.76515542280E+03  0.25500000920E-02 0. -1.
       -2    1    3    3    0  502  0.46770500777E+03 -0.36344793280E+03 -0.16514559990E+03  0.61491092308E+03  0.25500000920E-02 0.  1.
</event>
<event>
 5   0  0.2025294E-03  0.1220851E+04  0.7818609E-02  0.9094799E-01
       -1   -1    0    0    0  501  0.00000000000E+00  0.00000000000E+00  0.35903501104E+03  0.35903501108E+03  0.50400001928E-02 0.  1.
        1   -1    0    0  501    0  0.00000000000E+00  0.00000000000E+00 -0.10378350695E+04  0.10378350695E+04  0.50400001928E-02 0. -1.
    10030    2    1    2    0    0  0.00000000000E+00  0.00000000000E+00 -0.67880005841E+03  0.13968700805E+04  0.12208507290E+04 0.  0.
        5    1    3    3  502    0  0.74334605322E+02 -0.29386440897E+03  0.26681450482E+03  0.40384897473E+03  0.46999998093E+01 0.  1.
       -5    1    3    3    0  502 -0.74334605322E+02  0.29386440897E+03 -0.94561456323E+03  0.99302110581E+03  0.46999998093E+01 0. -1.
</event>
<event>
 5   0  0.2078258E-03  0.1201231E+04  0.7818609E-02  0.9111780E-01
        1   -1    0    0  501    0  0.00000000000E+00  0.00000000000E+00  0.79073345128E+03  0.79073345130E+03  0.50400001928E-02 0. -1.
       -1   -1    0    0    0  501  0.00000000000E+00  0.00000000000E+00 -0.45620799058E+03  0.45620799061E+03  0.50400001928E-02 0.  1.
    10030    2    1    2    0    0  0.00000000000E+00  0.00000000000E+00  0.33452546070E+03  0.12469414419E+04  0.12012309002E+04 0.  0.
        3    1    3    3  502    0 -0.55324117352E+02 -0.50755086071E+03 -0.16111379956E+03  0.53537491609E+03  0.10100000352E+00 0.  1.
       -3    1    3    3    0  502  0.55324117352E+02  0.50755086071E+03  0.49563926025E+03  0.71156652582E+03  0.10100000352E+00 0. -1.
</event>
<event>
 5   0  0.3650180E-03  0.1203782E+04  0.7818609E-02  0.9109553E-01
        2   -1    0    0  501    0  0.00000000000E+00  0.00000000000E+00  0.52615936924E+03  0.52615936925E+03  0.25500000920E-02 0. -1.
       -2   -1    0    0    0  501  0.00000000000E+00  0.00000000000E+00 -0.68852233234E+03  0.68852233234E+03  0.25500000920E-02 0.  1.
    10030    2    1    2    0    0  0.00000000000E+00  0.00000000000E+00 -0.16236296310E+03  0.12146817016E+04  0.12037815019E+04 0.  0.
        3    1    3    3  502    0  0.11756993147E+03  0.58679010155E+03 -0.16356835820E+02  0.59867592932E+03  0.10100000352E+00 0.  1.
       -3    1    3    3    0  502 -0.11756993147E+03 -0.58679010155E+03 -0.14600612728E+03  0.61600577227E+03  0.10100000352E+00 0. -1.
</event>
<event>
 5   0  0.3650180E-03  0.1207131E+04  0.7818609E-02  0.9106638E-01
        2   -1    0    0  501    0  0.00000000000E+00  0.00000000000E+00  0.20380295366E+04  0.20380295366E+04  0.25500000920E-02 0.  1.
       -2   -1    0    0    0  501  0.00000000000E+00  0.00000000000E+00 -0.17874680654E+03  0.17874680656E+03  0.25500000920E-02 0. -1.
    10030    2    1    2    0    0  0.00000000000E+00  0.00000000000E+00  0.18592827300E+04  0.22167763431E+04  0.12071309313E+04 0.  0.
        3    1    3    3  502    0  0.41835623166E+03  0.30063591512E+03  0.15071226517E+04  0.15927405902E+04  0.10100000352E+00 0.  1.
       -3    1    3    3    0  502 -0.41835623166E+03 -0.30063591512E+03  0.35216007831E+03  0.62403575297E+03  0.10100000352E+00 0. -1.
</event>
<event>
 5   0  0.2047109E-03  0.1206313E+04  0.7818609E-02  0.9107349E-01
       -1   -1    0    0    0  501  0.00000000000E+00  0.00000000000E+00  0.53974061034E+03  0.53974061036E+03  0.50400001928E-02 0.  1.
        1   -1    0    0  501    0  0.00000000000E+00  0.00000000000E+00 -0.67402322666E+03  0.67402322668E+03  0.50400001928E-02 0. -1.
    10030    2    1    2    0    0  0.00000000000E+00  0.00000000000E+00 -0.13428261633E+03  0.12137638370E+04  0.12063129076E+04 0.  0.
        1    1    3    3  502    0 -0.37026750005E+03 -0.44780593586E+03  0.95627873545E+02  0.58887423786E+03  0.50400001928E-02 0.  1.
       -1    1    3    3    0  502  0.37026750005E+03  0.44780593586E+03 -0.22991048987E+03  0.62488959918E+03  0.50400001928E-02 0. -1.
</event>
<event>
 5   0  0.3626049E-03  0.1190122E+04  0.7818609E-02  0.9121547E-01
       -2   -1    0    0    0  501  0.00000000000E+00  0.00000000000E+00  0.35651687268E+03  0.35651687269E+03  0.25500000920E-02 0.  1.
        2   -1    0    0  501    0  0.00000000000E+00  0.00000000000E+00 -0.99321345134E+03  0.99321345135E+03  0.25500000920E-02 0. -1.
    10030    2    1    2    0    0  0.00000000000E+00  0.00000000000E+00 -0.63669657866E+03  0.13497303240E+04  0.11901215965E+04 0.  0.
        1    1    3    3  502    0 -0.28453742168E+03 -0.10773096025E+03 -0.89833267400E+03  0.94845616521E+03  0.50400001928E-02 0. -1.
       -1    1    3    3    0  502  0.28453742168E+03  0.10773096025E+03  0.26163609534E+03  0.40127415882E+03  0.50400001928E-02 0.  1.
</event>
<event>
 5   0  0.2096270E-03  0.1207728E+04  0.7818609E-02  0.9106119E-01
       -1   -1    0    0    0  501  0.00000000000E+00  0.00000000000E+00  0.71536169293E+03  0.71536169295E+03  0.50400001928E-02 0.  1.
        1   -1    0    0  501    0  0.00000000000E+00  0.00000000000E+00 -0.50974434618E+03  0.50974434620E+03  0.50400001928E-02 0. -1.
    10030    2    1    2    0    0  0.00000000000E+00  0.00000000000E+00  0.20561734676E+03  0.12251060392E+04  0.12077277482E+04 0.  0.
        2    1    3    3  502    0  0.11300301644E+03 -0.10574820705E+02  0.70444503841E+03  0.71352948132E+03  0.25500000920E-02 0.  1.
       -2    1    3    3    0  502 -0.11300301644E+03  0.10574820705E+02 -0.49882769165E+03  0.51157655783E+03  0.25500000920E-02 0. -1.
</event>
<event>
 5   0  0.2047109E-03  0.1206380E+04  0.7818609E-02  0.9107290E-01
       -1   -1    0    0    0  501  0.00000000000E+00  0.00000000000E+00  0.23491195305E+03  0.23491195311E+03  0.50400001928E-02 0.  1.
        1   -1    0    0  501    0  0.00000000000E+00  0.00000000000E+00 -0.15488285593E+04  0.15488285593E+04  0.50400001928E-02 0. -1.
    10030    2    1    2    0    0  0.00000000000E+00  0.00000000000E+00 -0.13139166063E+04  0.17837405124E+04  0.12063802748E+04 0.  0.
        1    1    3    3  502    0 -0.12285255099E+03 -0.57395672196E+03 -0.86247298266E+03  0.10432539067E+04  0.50400001928E-02 0.  1.
       -1    1    3    3    0  502  0.12285255099E+03  0.57395672196E+03 -0.45144362360E+03  0.74048660574E+03  0.50400001928E-02 0. -1.
</event>
<event>
 5   0  0.1397500E-03  0.1140415E+04  0.7818609E-02  0.9166672E-01
       -4   -1    0    0    0  501  0.00000000000E+00  0.00000000000E+00  0.84527284546E+03  0.84527379953E+03  0.12699999809E+01 0.  1.
        4   -1    0    0  501    0  0.00000000000E+00  0.00000000000E+00 -0.38465082557E+03  0.38465292214E+03  0.12699999809E+01 0. -1.
    10030    2    1    2    0    0  0.00000000000E+00  0.00000000000E+00  0.46062201989E+03  0.12299267217E+04  0.11404153171E+04 0.  0.
        1    1    3    3  502    0  0.13517130381E+03  0.37767573207E+03  0.66736778703E+03  0.77864626317E+03  0.50400001928E-02 0.  1.
       -1    1    3    3    0  502 -0.13517130381E+03 -0.37767573207E+03 -0.20674576714E+03  0.45128045849E+03  0.50400001928E-02 0. -1.
</event>
<event>
 5   0  0.3626049E-03  0.1204533E+04  0.7818609E-02  0.9108898E-01
        2   -1    0    0  501    0  0.00000000000E+00  0.00000000000E+00  0.20400630458E+04  0.20400630458E+04  0.25500000920E-02 0. -1.
       -2   -1    0    0    0  501  0.00000000000E+00  0.00000000000E+00 -0.17780099090E+03  0.17780099092E+03  0.25500000920E-02 0.  1.
    10030    2    1    2    0    0  0.00000000000E+00  0.00000000000E+00  0.18622620549E+04  0.22178640367E+04  0.12045334882E+04 0.  0.
        1    1    3    3  502    0 -0.58632503481E+03 -0.74742276859E+02  0.11439685250E+04  0.12876441436E+04  0.50400001928E-02 0. -1.
       -1    1    3    3    0  502  0.58632503481E+03  0.74742276859E+02  0.71829352996E+03  0.93021989315E+03  0.50400001928E-02 0.  1.
</event>
<event>
 5   0  0.2096270E-03  0.1002164E+04  0.7818609E-02  0.9306174E-01
        1   -1    0    0  501    0  0.00000000000E+00  0.00000000000E+00  0.11622149606E+04  0.11622149606E+04  0.50400001928E-02 0. -1.
       -1   -1    0    0    0  501  0.00000000000E+00  0.00000000000E+00 -0.21603858597E+03  0.21603858603E+03  0.50400001928E-02 0.  1.
    10030    2    1    2    0    0  0.00000000000E+00  0.00000000000E+00  0.94617637458E+03  0.13782535466E+04  0.10021642115E+04 0.  0.
        2    1    3    3  502    0  0.13374750795E+03 -0.27961330020E+03  0.10145550519E+04  0.10608458639E+04  0.25500000920E-02 0. -1.
       -2    1    3    3    0  502 -0.13374750795E+03  0.27961330020E+03 -0.68378677322E+02  0.31740768272E+03  0.25500000920E-02 0.  1.
</event>
<event>
 5   0  0.2096270E-03  0.1216395E+04  0.7818609E-02  0.9098626E-01
        1   -1    0    0  501    0  0.00000000000E+00  0.00000000000E+00  0.36871427732E+03  0.36871427735E+03  0.50400001928E-02 0.  1.
       -1   -1    0    0    0  501  0.00000000000E+00  0.00000000000E+00 -0.10032272625E+04  0.10032272625E+04  0.50400001928E-02 0. -1.
    10030    2    1    2    0    0  0.00000000000E+00  0.00000000000E+00 -0.63451298522E+03  0.13719415399E+04  0.12163950265E+04 0.  0.
        2    1    3    3  502    0 -0.38152125802E+03 -0.41929308950E+03 -0.56574517073E+03  0.80089497653E+03  0.25500000920E-02 0. -1.
       -2    1    3    3    0  502  0.38152125802E+03  0.41929308950E+03 -0.68767814486E+02  0.57104656337E+03  0.25500000920E-02 0.  1.
</event>
<event>
 5   0  0.3706035E-03  0.1113335E+04  0.7818609E-02  0.9192292E-01
        2   -1    0    0  501    0  0.00000000000E+00  0.00000000000E+00  0.11014991769E+04  0.11014991769E+04  0.25500000920E-02 0. -1.
       -2   -1    0    0    0  501  0.00000000000E+00  0.00000000000E+00 -0.28132428859E+03  0.28132428860E+03  0.25500000920E-02 0.  1.
    10030    2    1    2    0    0  0.00000000000E+00  0.00000000000E+00  0.82017488827E+03  0.13828234655E+04  0.11133345810E+04 0.  0.
        2    1    3    3  502    0  0.45950259754E+03  0.30081868806E+03  0.29731349959E+03  0.62452368833E+03  0.25500000920E-02 0.  1.
       -2    1    3    3    0  502 -0.45950259754E+03 -0.30081868806E+03  0.52286138868E+03  0.75829977714E+03  0.25500000920E-02 0. -1.
</event>
<event>
 5   0  0.1397500E-03  0.1189815E+04  0.7818609E-02  0.9121819E-01
        3   -1    0    0  501    0  0.00000000000E+00  0.00000000000E+00  0.83447473028E+03  0.83447473639E+03  0.10100000352E+00 0.  1.
       -3   -1    0    0    0  501  0.00000000000E+00  0.00000000000E+00 -0.42411684300E+03  0.42411685502E+03  0.10100000352E+00 0. -1.
    10030    2    1    2    0    0  0.00000000000E+00  0.00000000000E+00  0.41035788728E+03  0.12585915914E+04  0.11898147748E+04 0.  0.
        5    1    3    3  502    0 -0.13972840741E+03 -0.89627537741E+02  0.80945819987E+03  0.82631821395E+03  0.46999998093E+01 0.  1.
       -5    1    3    3    0  502  0.13972840741E+03  0.89627537741E+02 -0.39910031259E+03  0.43227337747E+03  0.46999998093E+01 0. -1.
</event>
<event>
 5   0  0.2078258E-03  0.1198797E+04  0.7818609E-02  0.9113910E-01
        1   -1    0    0  501    0  0.00000000000E+00  0.00000000000E+00  0.10488508754E+04  0.10488508754E+04  0.50400001928E-02 0.  1.
       -1   -1    0    0    0  501  0.00000000000E+00  0.00000000000E+00 -0.34254520441E+03  0.34254520444E+03  0.50400001928E-02 0. -1.
    10030    2    1    2    0    0  0.00000000000E+00  0.00000000000E+00  0.70630567101E+03  0.13913960799E+04  0.11987974600E+04 0.  0.
        3    1    3    3  502    0 -0.38977865844E+03  0.21422063561E+03 -0.11322586184E+03  0.45895314498E+03  0.10100000352E+00 0. -1.
       -3    1    3    3    0  502  0.38977865844E+03 -0.21422063561E+03  0.81953153285E+03  0.93244293489E+03  0.10100000352E+00 0.  1.
</event>
<event>
 5   0  0.3751091E-03  0.1201093E+04  0.7818609E-02  0.9111900E-01
       -2   -1    0    0    0  501  0.00000000000E+00  0.00000000000E+00  0.16443275864E+03  0.16443275866E+03  0.25500000920E-02 0.  1.
        2   -1    0    0  501    0  0.00000000000E+00  0.00000000000E+00 -0.21933344101E+04  0.21933344101E+04  0.25500000920E-02 0. -1.
    10030    2    1    2    0    0  0.00000000000E+00  0.00000000000E+00 -0.20289016514E+04  0.23577671687E+04  0.12010928818E+04 0.  0.
        5    1    3    3  502    0  0.29214276500E+03  0.40502120858E+03 -0.35971918406E+03  0.61547506523E+03  0.46999998093E+01 0.  1.
       -5    1    3    3    0  502 -0.29214276500E+03 -0.40502120858E+03 -0.16691824674E+04  0.17422921035E+04  0.46999998093E+01 0. -1.
</event>
<event>
 5   0  0.2078258E-03  0.1217759E+04  0.7818609E-02  0.9097453E-01
       -1   -1    0    0    0  501  0.00000000000E+00  0.00000000000E+00  0.30898609377E+03  0.30898609381E+03  0.50400001928E-02 0. -1.
        1   -1    0    0  501    0  0.00000000000E+00  0.00000000000E+00 -0.11998402971E+04  0.11998402971E+04  0.50400001928E-02 0.  1.
    10030    2    1    2    0    0  0.00000000000E+00  0.00000000000E+00 -0.89085420331E+03  0.15088263909E+04  0.12177585419E+04 0.  0.
        3    1    3    3  502    0  0.23268825491E+03 -0.52855846436E+02  0.24864095946E+03  0.34461558496E+03  0.10100000352E+00 0. -1.
       -3    1    3    3    0  502 -0.23268825491E+03  0.52855846436E+02 -0.11394951628E+04  0.11642108059E+04  0.10100000352E+00 0.  1.
</event>
<event>
 5   0  0.3706035E-03  0.1172023E+04  0.7818609E-02  0.9137703E-01
       -2   -1    0    0    0  501  0.00000000000E+00  0.00000000000E+00  0.30838602742E+03  0.30838602743E+03  0.25500000920E-02 0.  1.
        2   -1    0    0  501    0  0.00000000000E+00  0.00000000000E+00 -0.11135702743E+04  0.11135702743E+04  0.25500000920E-02 0. -1.
    10030    2    1    2    0    0  0.00000000000E+00  0.00000000000E+00 -0.80518424688E+03  0.14219563017E+04  0.11720230598E+04 0.  0.
        2    1    3    3  502    0  0.25726353088E+03  0.21079050468E+03 -0.98796749673E+03  0.10424475698E+04  0.25500000920E-02 0. -1.
       -2    1    3    3    0  502 -0.25726353088E+03 -0.21079050468E+03  0.18278324985E+03  0.37950873193E+03  0.25500000920E-02 0.  1.
</event>
<event>
 5   0  0.3706035E-03  0.1184174E+04  0.7818609E-02  0.9126823E-01
        2   -1    0    0  501    0  0.00000000000E+00  0.00000000000E+00  0.93780321339E+03  0.93780321339E+03  0.25500000920E-02 0.  1.
       -2   -1    0    0    0  501  0.00000000000E+00  0.00000000000E+00 -0.37381741576E+03  0.37381741577E+03  0.25500000920E-02 0. -1.
    10030    2    1    2    0    0  0.00000000000E+00  0.00000000000E+00  0.56398579763E+03  0.13116206292E+04  0.11841742671E+04 0.  0.
        2    1    3    3  502    0  0.27182359615E+03  0.49203166545E+03  0.76010602876E+02  0.56723966627E+03  0.25500000920E-02 0. -1.
       -2    1    3    3    0  502 -0.27182359615E+03 -0.49203166545E+03  0.48797519475E+03  0.74438096290E+03  0.25500000920E-02 0.  1.
</event>
<event>
 5   0  0.2047109E-03  0.1190336E+04  0.7818609E-02  0.9121358E-01
       -1   -1    0    0    0  501  0.00000000000E+00  0.00000000000E+00  0.57409404695E+03  0.57409404698E+03  0.50400001928E-02 0. -1.
        1   -1    0    0  501    0  0.00000000000E+00  0.00000000000E+00 -0.61701554933E+03  0.61701554935E+03  0.50400001928E-02 0.  1.
    10030    2    1    2    0    0  0.00000000000E+00  0.00000000000E+00 -0.42921502373E+02  0.11911095963E+04  0.11903360093E+04 0.  0.
        1    1    3    3  502    0  0.49550200526E+03 -0.32050611785E+03  0.55910550101E+02  0.59276673189E+03  0.50400001928E-02 0.  1.
       -1    1    3    3    0  502 -0.49550200526E+03  0.32050611785E+03 -0.98832052474E+02  0.59834286443E+03  0.50400001928E-02 0. -1.
</event>
<event>
 5   0  0.3650180E-03  0.1207736E+04  0.7818609E-02  0.9106112E-01
       -2   -1    0    0    0  501  0.00000000000E+00  0.00000000000E+00  0.18446272310E+04  0.18446272310E+04  0.25500000920E-02 0. -1.
        2   -1    0    0  501    0  0.00000000000E+00  0.00000000000E+00 -0.19768567868E+03  0.19768567869E+03  0.25500000920E-02 0.  1.
    10030    2    1    2    0    0  0.00000000000E+00  0.00000000000E+00  0.16469415523E+04  0.20423129097E+04  0.12077357096E+04 0.  0.
        3    1    3    3  502    0 -0.26987302307E+03  0.18609254419E+03 -0.34122183758E+02  0.32958491654E+03  0.10100000352E+00 0.  1.
       -3    1    3    3    0  502  0.26987302307E+03 -0.18609254419E+03  0.16810637361E+04  0.17127279932E+04  0.10100000352E+00 0. -1.
</event>
<event>
 5   0  0.3706035E-03  0.1197433E+04  0.7818609E-02  0.9115107E-01
        2   -1    0    0  501    0  0.00000000000E+00  0.00000000000E+00  0.70075000054E+03  0.70075000055E+03  0.25500000920E-02 0.  1.
       -2   -1    0    0    0  501  0.00000000000E+00  0.00000000000E+00 -0.51153935475E+03  0.51153935476E+03  0.25500000920E-02 0. -1.
    10030    2    1    2    0    0  0.00000000000E+00  0.00000000000E+00  0.18921064579E+03  0.12122893553E+04  0.11974325920E+04 0.  0.
        2    1    3    3  502    0 -0.52555246003E+03 -0.67554588745E+02 -0.18758616252E+03  0.56210103992E+03  0.25500000920E-02 0.  1.
       -2    1    3    3    0  502  0.52555246003E+03  0.67554588745E+02  0.37679680831E+03  0.65018831538E+03  0.25500000920E-02 0. -1.
</event>
<event>
 5   0  0.2078258E-03  0.1192580E+04  0.7818609E-02  0.9119376E-01
        1   -1    0    0  501    0  0.00000000000E+00  0.00000000000E+00  0.62955043069E+03  0.62955043071E+03  0.50400001928E-02 0. -1.
       -1   -1    0    0    0  501  0.00000000000E+00  0.00000000000E+00 -0.56478713109E+03  0.56478713111E+03  0.50400001928E-02 0.  1.
    10030    2    1    2    0    0  0.00000000000E+00  0.00000000000E+00  0.64763299595E+02  0.11943375618E+04  0.11925803648E+04 0.  0.
        3    1    3    3  502    0 -0.51426742021E+03  0.10749180142E+03 -0.25005606365E+03  0.58185351424E+03  0.10100000352E+00 0.  1.
       -3    1    3    3    0  502  0.51426742021E+03 -0.10749180142E+03  0.31481936325E+03  0.61248404758E+03  0.10100000352E+00 0. -1.
</event>
<event>
 5   0  0.2078258E-03  0.1192090E+04  0.7818609E-02  0.9119808E-01
       -1   -1    0    0    0  501  0.00000000000E+00  0.00000000000E+00  0.25448183849E+03  0.25448183854E+03  0.50400001928E-02 0.  1.
        1   -1    0    0  501    0  0.00000000000E+00  0.00000000000E+00 -0.13960521208E+04  0.13960521208E+04  0.50400001928E-02 0. -1.
    10030    2    1    2    0    0  0.00000000000E+00  0.00000000000E+00 -0.11415702823E+04  0.16505339593E+04  0.11920904502E+04 0.  0.
        3    1    3    3  502    0 -0.51998796581E+03 -0.94953952663E+02 -0.18942147518E+03  0.56150177487E+03  0.10100000352E+00 0.  1.
       -3    1    3    3    0  502  0.51998796581E+03  0.94953952663E+02 -0.95214880709E+03  0.10890321844E+04  0.10100000352E+00 0. -1.
</event>
<event>
 5   0  0.2134992E-03  0.1194661E+04  0.7818609E-02  0.9117543E-01
       -1   -1    0    0    0  501  0.00000000000E+00  0.00000000000E+00  0.31768607349E+03  0.31768607353E+03  0.50400001928E-02 0. -1.
        1   -1    0    0  501    0  0.00000000000E+00  0.00000000000E+00 -0.11231324910E+04  0.11231324910E+04  0.50400001928E-02 0.  1.
    10030    2    1    2    0    0  0.00000000000E+00  0.00000000000E+00 -0.80544641747E+03  0.14408185645E+04  0.11946607068E+04 0.  0.
        4    1    3    3  502    0 -0.39426443964E+03  0.44754621397E+03 -0.36345941250E+03  0.69846003424E+03  0.12699999809E+01 0.  1.
       -4    1    3    3    0  502  0.39426443964E+03 -0.44754621397E+03 -0.44198700497E+03  0.74235853027E+03  0.12699999809E+01 0. -1.
</event>
<event>
 5   0  0.3650180E-03  0.1128412E+04  0.7818609E-02  0.9177934E-01
       -2   -1    0    0    0  501  0.00000000000E+00  0.00000000000E+00  0.30481392366E+03  0.30481392367E+03  0.25500000920E-02 0.  1.
        2   -1    0    0  501    0  0.00000000000E+00  0.00000000000E+00 -0.10443367394E+04  0.10443367394E+04  0.25500000920E-02 0. -1.
    10030    2    1    2    0    0  0.00000000000E+00  0.00000000000E+00 -0.73952281574E+03  0.13491506631E+04  0.11284119446E+04 0.  0.
        3    1    3    3  502    0 -0.47774444917E+03 -0.67730325693E+02 -0.20155377547E+02  0.48294244500E+03  0.10100000352E+00 0.  1.
       -3    1    3    3    0  502  0.47774444917E+03  0.67730325693E+02 -0.71936743820E+03  0.86620821808E+03  0.10100000352E+00 0. -1.
</event>
<event>
 5   0  0.3706035E-03  0.1160759E+04  0.7818609E-02  0.9147915E-01
        2   -1    0    0  501    0  0.00000000000E+00  0.00000000000E+00  0.13779541854E+04  0.13779541854E+04  0.25500000920E-02 0. -1.
       -2   -1    0    0    0  501  0.00000000000E+00  0.00000000000E+00 -0.24444974821E+03  0.24444974822E+03  0.25500000920E-02 0.  1.
    10030    2    1    2    0    0  0.00000000000E+00  0.00000000000E+00  0.11335044372E+04  0.16224039336E+04  0.11607593268E+04 0.  0.
        2    1    3    3  502    0  0.46676050140E+03  0.34434572608E+03  0.59474861322E+03  0.83076185377E+03  0.25500000920E-02 0. -1.
       -2    1    3    3    0  502 -0.46676050140E+03 -0.34434572608E+03  0.53875582399E+03  0.79164207987E+03  0.25500000920E-02 0.  1.
</event>
<event>
 5   0  0.3725376E-03  0.1288642E+04  0.7818609E-02  0.9038621E-01
       -2   -1    0    0    0  501  0.00000000000E+00  0.00000000000E+00  0.26025225269E+03  0.26025225271E+03  0.25500000920E-02 0. -1.
        2   -1    0    0  501    0  0.00000000000E+00  0.00000000000E+00 -0.15951824655E+04  0.15951824656E+04  0.25500000920E-02 0.  1.
    10030    2    1    2    0    0  0.00000000000E+00  0.00000000000E+00 -0.13349302129E+04  0.18554347183E+04  0.12886424332E+04 0.  0.
        4    1    3    3  502    0  0.19466665065E+03 -0.47897191588E+03 -0.12210800223E+04  0.13260268605E+04  0.12699999809E+01 0.  1.
       -4    1    3    3    0  502 -0.19466665065E+03  0.47897191588E+03 -0.11385019060E+03  0.52940785778E+03  0.12699999809E+01 0. -1.
</event>
<event>
 5   0  0.2096270E-03  0.1215866E+04  0.7818609E-02  0.9099081E-01
       -1   -1    0    0    0  501  0.00000000000E+00  0.00000000000E+00  0.40666341205E+03  0.40666341208E+03  0.50400001928E-02 0. -1.
        1   -1    0    0  501    0  0.00000000000E+00  0.00000000000E+00 -0.90881726507E+03  0.90881726508E+03  0.50400001928E-02 0.  1.
    10030    2    1    2    0    0  0.00000000000E+00  0.00000000000E+00 -0.50215385302E+03  0.13154806772E+04  0.12158663248E+04 0.  0.
        2    1    3    3  502    0 -0.51366329636E+03 -0.19837768214E+03  0.27672599070E+02  0.55133425392E+03  0.25500000920E-02 0. -1.
       -2    1    3    3    0  502  0.51366329636E+03  0.19837768214E+03 -0.52982645209E+03  0.76414642323E+03  0.25500000920E-02 0.  1.
</event>
<event>
 5   0  0.1397500E-03  0.1207509E+04  0.7818609E-02  0.9106309E-01
       -3   -1    0    0    0  501  0.00000000000E+00  0.00000000000E+00  0.25466216230E+03  0.25466218233E+03  0.10100000352E+00 0. -1.
        3   -1    0    0  501    0  0.00000000000E+00  0.00000000000E+00 -0.14313856468E+04  0.14313856504E+04  0.10100000352E+00 0.  1.
    10030    2    1    2    0    0  0.00000000000E+00  0.00000000000E+00 -0.11767234845E+04  0.16860478327E+04  0.12075094762E+04 0.  0.
        4    1    3    3  502    0  0.40611293077E+02  0.47261404384E+03 -0.11098853968E+04  0.12070047716E+04  0.12699999809E+01 0.  1.
       -4    1    3    3    0  502 -0.40611293077E+02 -0.47261404384E+03 -0.66838087665E+02  0.47904306114E+03  0.12699999809E+01 0. -1.
</event>
<event>
 5   0  0.3650180E-03  0.1175616E+04  0.7818609E-02  0.9134472E-01
        2   -1    0    0  501    0  0.00000000000E+00  0.00000000000E+00  0.98694144862E+03  0.98694144862E+03  0.25500000920E-02 0. -1.
       -2   -1    0    0    0  501  0.00000000000E+00  0.00000000000E+00 -0.35008987529E+03  0.35008987529E+03  0.25500000920E-02 0.  1.
    10030    2    1    2    0    0  0.00000000000E+00  0.00000000000E+00  0.63685157334E+03  0.13370313239E+04  0.11756159384E+04 0.  0.
        3    1    3    3  502    0  0.32192175890E+03  0.29011195185E+03  0.77009344946E+03  0.88365292653E+03  0.10100000352E+00 0. -1.
       -3    1    3    3    0  502 -0.32192175890E+03 -0.29011195185E+03 -0.13324187613E+03  0.45337839739E+03  0.10100000352E+00 0.  1.
</event>
<event>
 5   0  0.3706035E-03  0.1247619E+04  0.7818609E-02  0.9072167E-01
       -2   -1    0    0    0  501  0.00000000000E+00  0.00000000000E+00  0.20888969974E+03  0.20888969975E+03  0.25500000920E-02 0. -1.
        2   -1    0    0  501    0  0.00000000000E+00  0.00000000000E+00 -0.18628899082E+04  0.18628899082E+04  0.25500000920E-02 0.  1.
    10030    2    1    2    0    0  0.00000000000E+00  0.00000000000E+00 -0.16540002085E+04  0.20717796080E+04  0.12476193547E+04 0.  0.
        2    1    3    3  502    0 -0.18406212683E+03 -0.54597594763E+01 -0.18167288167E+04  0.18260373132E+04  0.25500000920E-02 0.  1.
       -2    1    3    3    0  502  0.18406212683E+03  0.54597594763E+01  0.16272860825E+03  0.24574229481E+03  0.25500000920E-02 0. -1.
</event>
<event>
 5   0  0.2047109E-03  0.1213511E+04  0.7818609E-02  0.9101112E-01
       -1   -1    0    0    0  501  0.00000000000E+00  0.00000000000E+00  0.14455683100E+04  0.14455683100E+04  0.50400001928E-02 0.  1.
        1   -1    0    0  501    0  0.00000000000E+00  0.00000000000E+00 -0.25467654558E+03  0.25467654563E+03  0.50400001928E-02 0. -1.
    10030    2    1    2    0    0  0.00000000000E+00  0.00000000000E+00  0.11908917644E+04  0.17002448556E+04  0.12135111761E+04 0.  0.
        1    1    3    3  502    0  0.53947861942E+03  0.18960734084E+03  0.31117810761E+03  0.65101454607E+03  0.50400001928E-02 0. -1.
       -1    1    3    3    0  502 -0.53947861942E+03 -0.18960734084E+03  0.87971365680E+03  0.10492303096E+04  0.50400001928E-02 0.  1.
</event>
<event>
 5   0  0.2078258E-03  0.1199391E+04  0.7818609E-02  0.9113389E-01
        1   -1    0    0  501    0  0.00000000000E+00  0.00000000000E+00  0.26663901667E+04  0.26663901667E+04  0.50400001928E-02 0. -1.
       -1   -1    0    0    0  501  0.00000000000E+00  0.00000000000E+00 -0.13487708894E+03  0.13487708903E+03  0.50400001928E-02 0.  1.
    10030    2    1    2    0    0  0.00000000000E+00  0.00000000000E+00  0.25315130778E+04  0.28012672557E+04  0.11993914187E+04 0.  0.
        3    1    3    3  502    0 -0.35705774562E+03 -0.34603774368E+02  0.14335040313E+03  0.38631205415E+03  0.10100000352E+00 0.  1.
       -3    1    3    3    0  502  0.35705774562E+03  0.34603774368E+02  0.23881626746E+04  0.24149552016E+04  0.10100000352E+00 0. -1.
</event>
<event>
 5   0  0.2134992E-03  0.1220048E+04  0.7818609E-02  0.9095487E-01
        1   -1    0    0  501    0  0.00000000000E+00  0.00000000000E+00  0.10094360849E+04  0.10094360849E+04  0.50400001928E-02 0.  1.
       -1   -1    0    0    0  501  0.00000000000E+00  0.00000000000E+00 -0.36865089693E+03  0.36865089696E+03  0.50400001928E-02 0. -1.
    10030    2    1    2    0    0  0.00000000000E+00  0.00000000000E+00  0.64078518794E+03  0.13780869819E+04  0.12200483894E+04 0.  0.
        4    1    3    3  502    0 -0.19048065310E+03  0.38912994234E+03  0.80546549614E+03  0.91459349965E+03  0.12699999809E+01 0.  1.
       -4    1    3    3    0  502  0.19048065310E+03 -0.38912994234E+03 -0.16468030820E+03  0.46349348220E+03  0.12699999809E+01 0. -1.
</event>
<event>
 5   0  0.1397500E-03  0.1220012E+04  0.7818609E-02  0.9095519E-01
       -3   -1    0    0    0  501  0.00000000000E+00  0.00000000000E+00  0.93554269567E+03  0.93554270112E+03  0.10100000352E+00 0. -1.
        3   -1    0    0  501    0  0.00000000000E+00  0.00000000000E+00 -0.39774458023E+03  0.39774459306E+03  0.10100000352E+00 0.  1.
    10030    2    1    2    0    0  0.00000000000E+00  0.00000000000E+00  0.53779811544E+03  0.13332872942E+04  0.12200115556E+04 0.  0.
        5    1    3    3  502    0  0.37203756373E+03 -0.34702883637E+03 -0.98863398016E+02  0.51830205823E+03  0.46999998093E+01 0.  1.
       -5    1    3    3    0  502 -0.37203756373E+03  0.34702883637E+03  0.63666151346E+03  0.81498523595E+03  0.46999998093E+01 0. -1.
</event>
<event>
 5   0  0.2047109E-03  0.1199362E+04  0.7818609E-02  0.9113415E-01
       -1   -1    0    0    0  501  0.00000000000E+00  0.00000000000E+00  0.54332696605E+03  0.54332696608E+03  0.50400001928E-02 0.  1.
        1   -1    0    0  501    0  0.00000000000E+00  0.00000000000E+00 -0.66187971512E+03  0.66187971514E+03  0.50400001928E-02 0. -1.
    10030    2    1    2    0    0  0.00000000000E+00  0.00000000000E+00 -0.11855274906E+03  0.12052066812E+04  0.11993616594E+04 0.  0.
        1    1    3    3  502    0  0.83379083568E+02 -0.43300222822E+03 -0.46767318235E+03  0.64277617157E+03  0.50400001928E-02 0. -1.
       -1    1    3    3    0  502 -0.83379083568E+02  0.43300222822E+03  0.34912043328E+03  0.56243050965E+03  0.50400001928E-02 0.  1.
</event>
<event>
 5   0  0.3650180E-03  0.1189039E+04  0.7818609E-02  0.9122505E-01
        2   -1    0    0  501    0  0.00000000000E+00  0.00000000000E+00  0.92071583532E+03  0.92071583532E+03  0.25500000920E-02 0.  1.
       -2   -1    0    0    0  501  0.00000000000E+00  0.00000000000E+00 -0.38389010554E+03  0.38389010555E+03  0.25500000920E-02 0. -1.
    10030    2    1    2    0    0  0.00000000000E+00  0.00000000000E+00  0.53682572977E+03  0.13046059409E+04  0.11890394429E+04 0.  0.
        3    1    3    3  502    0 -0.10261728478E+03  0.56486750273E+03  0.98975239177E+02  0.58258193497E+03  0.10100000352E+00 0.  1.
       -3    1    3    3    0  502  0.10261728478E+03 -0.56486750273E+03  0.43785049060E+03  0.72202400590E+03  0.10100000352E+00 0. -1.
</event>
<event>
 5   0  0.2096270E-03  0.1215287E+04  0.7818609E-02  0.9099581E-01
       -1   -1    0    0    0  501  0.00000000000E+00  0.00000000000E+00  0.13505089112E+04  0.13505089112E+04  0.50400001928E-02 0. -1.
        1   -1    0    0  501    0  0.00000000000E+00  0.00000000000E+00 -0.27340088982E+03  0.27340088986E+03  0.50400001928E-02 0.  1.
    10030    2    1    2    0    0  0.00000000000E+00  0.00000000000E+00  0.10771080214E+04  0.16239098011E+04  0.12152865309E+04 0.  0.
        2    1    3    3  502    0 -0.37044128179E+03 -0.48010495349E+03  0.48675303714E+03  0.77759631480E+03  0.25500000920E-02 0. -1.
       -2    1    3    3    0  502  0.37044128179E+03  0.48010495349E+03  0.59035498424E+03  0.84631348627E+03  0.25500000920E-02 0.  1.
</event>
<event>
 5   0  0.3626049E-03  0.1205926E+04  0.7818609E-02  0.9107685E-01
        2   -1    0    0  501    0  0.00000000000E+00  0.00000000000E+00  0.10225093357E+04  0.10225093357E+04  0.25500000920E-02 0. -1.
       -2   -1    0    0    0  501  0.00000000000E+00  0.00000000000E+00 -0.35556079835E+03  0.35556079836E+03  0.25500000920E-02 0.  1.
    10030    2    1    2    0    0  0.00000000000E+00  0.00000000000E+00  0.66694853734E+03  0.13780701341E+04  0.12059257618E+04 0.  0.
        1    1    3    3  502    0 -0.56747087370E+02  0.15843142118E+03 -0.32817970241E+03  0.36881250554E+03  0.50400001928E-02 0.  1.
       -1    1    3    3    0  502  0.56747087370E+02 -0.15843142118E+03  0.99512823976E+03  0.10092576285E+04  0.50400001928E-02 0. -1.
</event>
<event>
 5   0  0.2096270E-03  0.1212509E+04  0.7818609E-02  0.9101977E-01
        1   -1    0    0  501    0  0.00000000000E+00  0.00000000000E+00  0.67937417218E+03  0.67937417220E+03  0.50400001928E-02 0. -1.
       -1   -1    0    0    0  501  0.00000000000E+00  0.00000000000E+00 -0.54100490997E+03  0.54100491000E+03  0.50400001928E-02 0.  1.
    10030    2    1    2    0    0  0.00000000000E+00  0.00000000000E+00  0.13836926221E+03  0.12203790822E+04  0.12125094027E+04 0.  0.
        2    1    3    3  502    0  0.29668796667E+03  0.15172581149E+02  0.60109439163E+03  0.67049863865E+03  0.25500000920E-02 0. -1.
       -2    1    3    3    0  502 -0.29668796667E+03 -0.15172581149E+02 -0.46272512942E+03  0.54988044354E+03  0.25500000920E-02 0.  1.
</event>
<event>
 5   0  0.2078258E-03  0.1207035E+04  0.7818609E-02  0.9106721E-01
        1   -1    0    0  501    0  0.00000000000E+00  0.00000000000E+00  0.15445603249E+04  0.15445603250E+04  0.50400001928E-02 0.  1.
       -1   -1    0    0    0  501  0.00000000000E+00  0.00000000000E+00 -0.23581699938E+03  0.23581699944E+03  0.50400001928E-02 0. -1.
    10030    2    1    2    0    0  0.00000000000E+00  0.00000000000E+00  0.13087433256E+04  0.17803773244E+04  0.12070353454E+04 0.  0.
        3    1    3    3  502    0  0.43468978147E+03 -0.28852226960E+03  0.20690108873E+03  0.56125607069E+03  0.10100000352E+00 0. -1.
       -3    1    3    3    0  502 -0.43468978147E+03  0.28852226960E+03  0.11018422368E+04  0.12191212537E+04  0.10100000352E+00 0.  1.
</event>
<event>
 5   0  0.3626049E-03  0.1262060E+04  0.7818609E-02  0.9060205E-01
        2   -1    0    0  501    0  0.00000000000E+00  0.00000000000E+00  0.87252230719E+03  0.87252230719E+03  0.25500000920E-02 0. -1.
       -2   -1    0    0    0  501  0.00000000000E+00  0.00000000000E+00 -0.45637692560E+03  0.45637692561E+03  0.25500000920E-02 0.  1.
    10030    2    1    2    0    0  0.00000000000E+00  0.00000000000E+00  0.41614538159E+03  0.13288992328E+04  0.12620602966E+04 0.  0.
        1    1    3    3  502    0 -0.14411166459E+03 -0.15041747770E+03 -0.41912881544E+03  0.46804118775E+03  0.50400001928E-02 0.  1.
       -1    1    3    3    0  502  0.14411166459E+03  0.15041747770E+03  0.83527419703E+03  0.86085804505E+03  0.50400001928E-02 0. -1.
</event>
<event>
 5   0  0.2134992E-03  0.1184448E+04  0.7818609E-02  0.9126579E-01
       -1   -1    0    0    0  501  0.00000000000E+00  0.00000000000E+00  0.50238927070E+03  0.50238927072E+03  0.50400001928E-02 0.  1.
        1   -1    0    0  501    0  0.00000000000E+00  0.00000000000E+00 -0.69812249282E+03  0.69812249284E+03  0.50400001928E-02 0. -1.
    10030    2    1    2    0    0  0.00000000000E+00  0.00000000000E+00 -0.19573322212E+03  0.12005117636E+04  0.11844479728E+04 0.  0.
        4    1    3    3  502    0  0.21885777733E+03 -0.45214112714E+03  0.22007110304E+03  0.54841884435E+03  0.12699999809E+01 0.  1.
       -4    1    3    3    0  502 -0.21885777733E+03  0.45214112714E+03 -0.41580432517E+03  0.65209291920E+03  0.12699999809E+01 0. -1.
</event>
<event>
 5   0  0.3706035E-03  0.1079788E+04  0.7818609E-02  0.9225119E-01
        2   -1    0    0  501    0  0.00000000000E+00  0.00000000000E+00  0.11508628636E+04  0.11508628637E+04  0.25500000920E-02 0.  1.
       -2   -1    0    0    0  501  0.00000000000E+00  0.00000000000E+00 -0.25327555998E+03  0.25327556000E+03  0.25500000920E-02 0. -1.
    10030    2    1    2    0    0  0.00000000000E+00  0.00000000000E+00  0.89758730366E+03  0.14041384236E+04  0.10797878241E+04 0.  0.
        2    1    3    3  502    0  0.15172040401E+03  0.40606047091E+03  0.30277647785E+02  0.43453529545E+03  0.25500000920E-02 0. -1.
       -2    1    3    3    0  502 -0.15172040401E+03 -0.40606047091E+03  0.86730965588E+03  0.96960312820E+03  0.25500000920E-02 0.  1.
</event>
<event>
 5   0  0.2025294E-03  0.1188751E+04  0.7818609E-02  0.9122760E-01
       -1   -1    0    0    0  501  0.00000000000E+00  0.00000000000E+00  0.85422230549E+03  0.85422230551E+03  0.50400001928E-02 0. -1.
        1   -1    0    0  501    0  0.00000000000E+00  0.00000000000E+00 -0.41357154994E+03  0.41357154997E+03  0.50400001928E-02 0.  1.
    10030    2    1    2    0    0  0.00000000000E+00  0.00000000000E+00  0.44065075556E+03  0.12677938555E+04  0.11887506768E+04 0.  0.
        5    1    3    3  502    0 -0.24815642797E+03 -0.10973127092E+02  0.79618986225E+03  0.83405180235E+03  0.46999998093E+01 0. -1.
       -5    1    3    3    0  502  0.24815642797E+03  0.10973127092E+02 -0.35553910669E+03  0.43374205312E+03  0.46999998093E+01 0.  1.
</event>
<event>
 5   0  0.3650180E-03  0.1223407E+04  0.7818609E-02  0.9092611E-01
       -2   -1    0    0    0  501  0.00000000000E+00  0.00000000000E+00  0.93269397056E+03  0.93269397056E+03  0.25500000920E-02 0. -1.
        2   -1    0    0  501    0  0.00000000000E+00  0.00000000000E+00 -0.40118351597E+03  0.40118351598E+03  0.25500000920E-02 0.  1.
    10030    2    1    2    0    0  0.00000000000E+00  0.00000000000E+00  0.53151045459E+03  0.13338774865E+04  0.12234074488E+04 0.  0.
        3    1    3    3  502    0  0.10641075565E+03 -0.58492236034E+03  0.10879781852E+03  0.60439589017E+03  0.10100000352E+00 0.  1.
       -3    1    3    3    0  502 -0.10641075565E+03  0.58492236034E+03  0.42271263607E+03  0.72948159637E+03  0.10100000352E+00 0. -1.
</event>
<event>
 5   0  0.2096270E-03  0.1217272E+04  0.7818609E-02  0.9097871E-01
       -1   -1    0    0    0  501  0.00000000000E+00  0.00000000000E+00  0.38346598595E+03  0.38346598599E+03  0.50400001928E-02 0. -1.
        1   -1    0    0  501    0  0.00000000000E+00  0.00000000000E+00 -0.96602506039E+03  0.96602506041E+03  0.50400001928E-02 0.  1.
    10030    2    1    2    0    0  0.00000000000E+00  0.00000000000E+00 -0.58255907444E+03  0.13494910464E+04  0.12172719536E+04 0.  0.
        2    1    3    3  502    0 -0.36327573056E+03  0.36434147554E+03 -0.65174921899E+03  0.83035595480E+03  0.25500000920E-02 0.  1.
       -2    1    3    3    0  502  0.36327573056E+03 -0.36434147554E+03  0.69190144554E+02  0.51913509159E+03  0.25500000920E-02 0. -1.
</event>
<event>
 5   0  0.3706035E-03  0.1090126E+04  0.7818609E-02  0.9214870E-01
       -2   -1    0    0    0  501  0.00000000000E+00  0.00000000000E+00  0.29663431383E+03  0.29663431384E+03  0.25500000920E-02 0.  1.
        2   -1    0    0  501    0  0.00000000000E+00  0.00000000000E+00 -0.10015476922E+04  0.10015476922E+04  0.25500000920E-02 0. -1.
    10030    2    1    2    0    0  0.00000000000E+00  0.00000000000E+00 -0.70491337840E+03  0.12981820061E+04  0.10901255202E+04 0.  0.
        2    1    3    3  502    0 -0.44002419200E+03 -0.16005401538E+03 -0.68473490737E+03  0.82951821605E+03  0.25500000920E-02 0. -1.
       -2    1    3    3    0  502  0.44002419200E+03  0.16005401538E+03 -0.20178471029E+02  0.46866379003E+03  0.25500000920E-02 0.  1.
</event>
<event>
 5   0  0.3626049E-03  0.1283365E+04  0.7818609E-02  0.9042862E-01
       -2   -1    0    0    0  501  0.00000000000E+00  0.00000000000E+00  0.48071682026E+03  0.48071682027E+03  0.25500000920E-02 0. -1.
        2   -1    0    0  501    0  0.00000000000E+00  0.00000000000E+00 -0.85654673196E+03  0.85654673197E+03  0.25500000920E-02 0.  1.
    10030    2    1    2    0    0  0.00000000000E+00  0.00000000000E+00 -0.37582991170E+03  0.13372635522E+04  0.12833649853E+04 0.  0.
        1    1    3    3  502    0 -0.44424566094E+03  0.43494113161E+03 -0.35342025401E+03  0.71514604886E+03  0.50400001928E-02 0.  1.
       -1    1    3    3    0  502  0.44424566094E+03 -0.43494113161E+03 -0.22409657687E+02  0.62211750338E+03  0.50400001928E-02 0. -1.
</event>
<event>
 5   0  0.2078258E-03  0.1197990E+04  0.7818609E-02  0.9114618E-01
       -1   -1    0    0    0  501  0.00000000000E+00  0.00000000000E+00  0.44142610756E+03  0.44142610759E+03  0.50400001928E-02 0. -1.
        1   -1    0    0  501    0  0.00000000000E+00  0.00000000000E+00 -0.81280848468E+03  0.81280848469E+03  0.50400001928E-02 0.  1.
    10030    2    1    2    0    0  0.00000000000E+00  0.00000000000E+00 -0.37138237711E+03  0.12542345923E+04  0.11979897923E+04 0.  0.
        3    1    3    3  502    0 -0.42223200788E+03 -0.42223966376E+03 -0.13626594014E+03  0.61248234160E+03  0.10100000352E+00 0. -1.
       -3    1    3    3    0  502  0.42223200788E+03  0.42223966376E+03 -0.23511643698E+03  0.64175225069E+03  0.10100000352E+00 0.  1.
</event>
<event>
 5   0  0.2134992E-03  0.1188607E+04  0.7818609E-02  0.9122887E-01
       -1   -1    0    0    0  501  0.00000000000E+00  0.00000000000E+00  0.39822726945E+03  0.39822726948E+03  0.50400001928E-02 0. -1.
        1   -1    0    0  501    0  0.00000000000E+00  0.00000000000E+00 -0.88692294701E+03  0.88692294702E+03  0.50400001928E-02 0.  1.
    10030    2    1    2    0    0  0.00000000000E+00  0.00000000000E+00 -0.48869567756E+03  0.12851502165E+04  0.11886074262E+04 0.  0.
        4    1    3    3  502    0  0.19845403453E+03 -0.43784592883E+03 -0.62216114650E+03  0.78624370670E+03  0.12699999809E+01 0.  1.
       -4    1    3    3    0  502 -0.19845403453E+03  0.43784592883E+03  0.13346546894E+03  0.49890650980E+03  0.12699999809E+01 0. -1.
</event>
<event>
 5   0  0.3706035E-03  0.1196166E+04  0.7818609E-02  0.9116219E-01
        2   -1    0    0  501    0  0.00000000000E+00  0.00000000000E+00  0.51783678383E+03  0.51783678383E+03  0.25500000920E-02 0. -1.
       -2   -1    0    0    0  501  0.00000000000E+00  0.00000000000E+00 -0.69076468865E+03  0.69076468866E+03  0.25500000920E-02 0.  1.
    10030    2    1    2    0    0  0.00000000000E+00  0.00000000000E+00 -0.17292790483E+03  0.12086014725E+04  0.11961661503E+04 0.  0.
        2    1    3    3  502    0  0.56811184106E+03  0.59127788974E+02 -0.26566674635E+03  0.62994125084E+03  0.25500000920E-02 0.  1.
       -2    1    3    3    0  502 -0.56811184106E+03 -0.59127788974E+02  0.92738841526E+02  0.57866022165E+03  0.25500000920E-02 0. -1.
</event>
<event>
 5   0  0.3725376E-03  0.1203451E+04  0.7818609E-02  0.9109841E-01
        2   -1    0    0  501    0  0.00000000000E+00  0.00000000000E+00  0.18273764635E+04  0.18273764635E+04  0.25500000920E-02 0. -1.
       -2   -1    0    0    0  501  0.00000000000E+00  0.00000000000E+00 -0.19813850518E+03  0.19813850519E+03  0.25500000920E-02 0.  1.
    10030    2    1    2    0    0  0.00000000000E+00  0.00000000000E+00  0.16292379583E+04  0.20255149687E+04  0.12034511056E+04 0.  0.
        4    1    3    3  502    0  0.21421086456E+02 -0.32591485440E+02 -0.19600671361E+03  0.19985322752E+03  0.12699999809E+01 0.  1.
       -4    1    3    3    0  502 -0.21421086456E+02  0.32591485440E+02  0.18252446719E+04  0.18256617412E+04  0.12699999809E+01 0. -1.
</event>
<event>
 5   0  0.3650180E-03  0.1177532E+04  0.7818609E-02  0.9132753E-01
       -2   -1    0    0    0  501  0.00000000000E+00  0.00000000000E+00  0.36156976842E+03  0.36156976843E+03  0.25500000920E-02 0. -1.
        2   -1    0    0  501    0  0.00000000000E+00  0.00000000000E+00 -0.95872377427E+03  0.95872377427E+03  0.25500000920E-02 0.  1.
    10030    2    1    2    0    0  0.00000000000E+00  0.00000000000E+00 -0.59715400585E+03  0.13202935427E+04  0.11775322213E+04 0.  0.
        3    1    3    3  502    0  0.38845304362E+02  0.53625658054E+03 -0.56759332611E+03  0.78181984619E+03  0.10100000352E+00 0. -1.
       -3    1    3    3    0  502 -0.38845304362E+02 -0.53625658054E+03 -0.29560679739E+02  0.53847369651E+03  0.10100000352E+00 0.  1.
</event>
<event>
 5   0  0.3751091E-03  0.1114561E+04  0.7818609E-02  0.9191115E-01
       -2   -1    0    0    0  501  0.00000000000E+00  0.00000000000E+00  0.89777953068E+03  0.89777953068E+03  0.25500000920E-02 0. -1.
        2   -1    0    0  501    0  0.00000000000E+00  0.00000000000E+00 -0.34592167002E+03  0.34592167003E+03  0.25500000920E-02 0.  1.
    10030    2    1    2    0    0  0.00000000000E+00  0.00000000000E+00  0.55185786065E+03  0.12437012007E+04  0.11145607109E+04 0.  0.
        5    1    3    3  502    0 -0.14207534740E+02 -0.93936328486E+02  0.88865399296E+03  0.89373032680E+03  0.46999998093E+01 0. -1.
       -5    1    3    3    0  502  0.14207534740E+02  0.93936328486E+02 -0.33679613230E+03  0.34997087391E+03  0.46999998093E+01 0.  1.
</event>
<event>
 5   0  0.2134992E-03  0.1202400E+04  0.7818609E-02  0.9110758E-01
       -1   -1    0    0    0  501  0.00000000000E+00  0.00000000000E+00  0.20260278840E+03  0.20260278846E+03  0.50400001928E-02 0. -1.
        1   -1    0    0  501    0  0.00000000000E+00  0.00000000000E+00 -0.17839911286E+04  0.17839911286E+04  0.50400001928E-02 0.  1.
    10030    2    1    2    0    0  0.00000000000E+00  0.00000000000E+00 -0.15813883402E+04  0.19865939171E+04  0.12024002282E+04 0.  0.
        4    1    3    3  502    0 -0.48704775251E+03 -0.31293928517E+03 -0.10586010575E+04  0.12065588760E+04  0.12699999809E+01 0.  1.
       -4    1    3    3    0  502  0.48704775251E+03  0.31293928517E+03 -0.52278728268E+03  0.78003504105E+03  0.12699999809E+01 0. -1.
</event>
<event>
 5   0  0.2025294E-03  0.1195359E+04  0.7818609E-02  0.9116928E-01
        1   -1    0    0  501    0  0.00000000000E+00  0.00000000000E+00  0.51651139146E+03  0.51651139149E+03  0.50400001928E-02 0.  1.
       -1   -1    0    0    0  501  0.00000000000E+00  0.00000000000E+00 -0.69160313245E+03  0.69160313247E+03  0.50400001928E-02 0. -1.
    10030    2    1    2    0    0  0.00000000000E+00  0.00000000000E+00 -0.17509174099E+03  0.12081145240E+04  0.11953591867E+04 0.  0.
        5    1    3    3  502    0  0.43523653622E+03 -0.33526363420E+02 -0.50012233822E+03  0.66385186803E+03  0.46999998093E+01 0. -1.
       -5    1    3    3    0  502 -0.43523653622E+03  0.33526363420E+02  0.32503059723E+03  0.54426265593E+03  0.46999998093E+01 0.  1.
</event>
<event>
 5   0  0.2047109E-03  0.1179693E+04  0.7818609E-02  0.9130819E-01
       -1   -1    0    0    0  501  0.00000000000E+00  0.00000000000E+00  0.58985986055E+03  0.58985986057E+03  0.50400001928E-02 0.  1.
        1   -1    0    0  501    0  0.00000000000E+00  0.00000000000E+00 -0.58983315976E+03  0.58983315978E+03  0.50400001928E-02 0. -1.
    10030    2    1    2    0    0  0.00000000000E+00  0.00000000000E+00  0.26700789936E-01  0.11796930203E+04  0.11796930200E+04 0.  0.
        1    1    3    3  502    0  0.54699598167E+03  0.21592561842E+03 -0.45707855886E+02  0.58984547533E+03  0.50400001928E-02 0.  1.
       -1    1    3    3    0  502 -0.54699598167E+03 -0.21592561842E+03  0.45734556676E+02  0.58984754501E+03  0.50400001928E-02 0. -1.
</event>
<event>
 5   0  0.3725376E-03  0.1193872E+04  0.7818609E-02  0.9118237E-01
       -2   -1    0    0    0  501  0.00000000000E+00  0.00000000000E+00  0.27378713037E+03  0.27378713038E+03  0.25500000920E-02 0. -1.
        2   -1    0    0  501    0  0.00000000000E+00  0.00000000000E+00 -0.13014946533E+04  0.13014946533E+04  0.25500000920E-02 0.  1.
    10030    2    1    2    0    0  0.00000000000E+00  0.00000000000E+00 -0.10277075229E+04  0.15752817837E+04  0.11938718295E+04 0.  0.
        4    1    3    3  502    0  0.57990165512E+02 -0.19528553271E+03 -0.12542082046E+04  0.12706451637E+04  0.12699999809E+01 0.  1.
       -4    1    3    3    0  502 -0.57990165512E+02  0.19528553271E+03  0.22650068164E+03  0.30463662004E+03  0.12699999809E+01 0. -1.
</event>
<event>
 5   0  0.3725376E-03  0.1189306E+04  0.7818609E-02  0.9122269E-01
        2   -1    0    0  501    0  0.00000000000E+00  0.00000000000E+00  0.84913108775E+03  0.84913108776E+03  0.25500000920E-02 0. -1.
       -2   -1    0    0    0  501  0.00000000000E+00  0.00000000000E+00 -0.41643993182E+03  0.41643993182E+03  0.25500000920E-02 0.  1.
    10030    2    1    2    0    0  0.00000000000E+00  0.00000000000E+00  0.43269115594E+03  0.12655710196E+04  0.11893058350E+04 0.  0.
        4    1    3    3  502    0  0.39429620636E+03 -0.10027186090E+03 -0.24515454866E+03  0.47500137902E+03  0.12699999809E+01 0.  1.
       -4    1    3    3    0  502 -0.39429620636E+03  0.10027186090E+03  0.67784570460E+03  0.79056964057E+03  0.12699999809E+01 0. -1.
</event>
<event>
 5   0  0.1397500E-03  0.1203516E+04  0.7818609E-02  0.9109784E-01
        3   -1    0    0  501    0  0.00000000000E+00  0.00000000000E+00  0.42115532784E+03  0.42115533995E+03  0.10100000352E+00 0.  1.
       -3   -1    0    0    0  501  0.00000000000E+00  0.00000000000E+00 -0.85980803710E+03  0.85980804303E+03  0.10100000352E+00 0. -1.
    10030    2    1    2    0    0  0.00000000000E+00  0.00000000000E+00 -0.43865270926E+03  0.12809633830E+04  0.12035160943E+04 0.  0.
        2    1    3    3  502    0 -0.52610940980E+03 -0.29203829932E+03 -0.22564719580E+03  0.64264619841E+03  0.25500000920E-02 0.  1.
       -2    1    3    3    0  502  0.52610940980E+03  0.29203829932E+03 -0.21300551346E+03  0.63831718457E+03  0.25500000920E-02 0. -1.
</event>
<event>
 5   0  0.3706035E-03  0.1204452E+04  0.7818609E-02  0.9108969E-01
       -2   -1    0    0    0  501  0.00000000000E+00  0.00000000000E+00  0.96362273787E+03  0.96362273787E+03  0.25500000920E-02 0. -1.
        2   -1    0    0  501    0  0.00000000000E+00  0.00000000000E+00 -0.37636740907E+03  0.37636740908E+03  0.25500000920E-02 0.  1.
    10030    2    1    2    0    0  0.00000000000E+00  0.00000000000E+00  0.58725532880E+03  0.13399901470E+04  0.12044520633E+04 0.  0.
        2    1    3    3  502    0  0.59863900310E+03  0.58658247826E+02  0.32638120744E+03  0.68434942730E+03  0.25500000920E-02 0. -1.
       -2    1    3    3    0  502 -0.59863900310E+03 -0.58658247826E+02  0.26087412135E+03  0.65564071966E+03  0.25500000920E-02 0.  1.
</event>
<event>
 5   0  0.2096270E-03  0.1200992E+04  0.7818609E-02  0.9111989E-01
       -1   -1    0    0    0  501  0.00000000000E+00  0.00000000000E+00  0.50749570113E+03  0.50749570116E+03  0.50400001928E-02 0.  1.
        1   -1    0    0  501    0  0.00000000000E+00  0.00000000000E+00 -0.71053896847E+03  0.71053896849E+03  0.50400001928E-02 0. -1.
    10030    2    1    2    0    0  0.00000000000E+00  0.00000000000E+00 -0.20304326734E+03  0.12180346697E+04  0.12009920433E+04 0.  0.
        2    1    3    3  502    0  0.13091209568E+03  0.42099280791E+02  0.49131163763E+03  0.51019354319E+03  0.25500000920E-02 0.  1.
       -2    1    3    3    0  502 -0.13091209568E+03 -0.42099280791E+02 -0.69435490497E+03  0.70784112646E+03  0.25500000920E-02 0. -1.
</event>
<event>
 5   0  0.2078258E-03  0.1201006E+04  0.7818609E-02  0.9111976E-01
       -1   -1    0    0    0  501  0.00000000000E+00  0.00000000000E+00  0.85946040194E+03  0.85946040195E+03  0.50400001928E-02 0.  1.
        1   -1    0    0  501    0  0.00000000000E+00  0.00000000000E+00 -0.41957016881E+03  0.41957016884E+03  0.50400001928E-02 0. -1.
    10030    2    1    2    0    0  0.00000000000E+00  0.00000000000E+00  0.43989023313E+03  0.12790305708E+04  0.12010061548E+04 0.  0.
        3    1    3    3  502    0 -0.22067117666E+03  0.45938277922E+03  0.55818811944E+03  0.75584541603E+03  0.10100000352E+00 0.  1.
       -3    1    3    3    0  502  0.22067117666E+03 -0.45938277922E+03 -0.11829788631E+03  0.52318515476E+03  0.10100000352E+00 0. -1.
</event>
<event>
 5   0  0.3751091E-03  0.1222422E+04  0.7818609E-02  0.9093454E-01
       -2   -1    0    0    0  501  0.00000000000E+00  0.00000000000E+00  0.28098449863E+03  0.28098449864E+03  0.25500000920E-02 0.  1.
        2   -1    0    0  501    0  0.00000000000E+00  0.00000000000E+00 -0.13295352037E+04  0.13295352037E+04  0.25500000920E-02 0. -1.
    10030    2    1    2    0    0  0.00000000000E+00  0.00000000000E+00 -0.10485507051E+04  0.16105197024E+04  0.12224218300E+04 0.  0.
        5    1    3    3  502    0  0.28238324144E+03 -0.78437691376E+02  0.18234744854E+03  0.34520348849E+03  0.46999998093E+01 0.  1.
       -5    1    3    3    0  502 -0.28238324144E+03  0.78437691376E+02 -0.12308981536E+04  0.12653162139E+04  0.46999998093E+01 0. -1.
</event>
<event>
 5   0  0.3626049E-03  0.1204556E+04  0.7818609E-02  0.9108878E-01
        2   -1    0    0  501    0  0.00000000000E+00  0.00000000000E+00  0.14322695988E+04  0.14322695988E+04  0.25500000920E-02 0. -1.
       -2   -1    0    0    0  501  0.00000000000E+00  0.00000000000E+00 -0.25326168559E+03  0.25326168560E+03  0.25500000920E-02 0.  1.
    10030    2    1    2    0    0  0.00000000000E+00  0.00000000000E+00  0.11790079132E+04  0.16855312844E+04  0.12045563711E+04 0.  0.
        1    1    3    3  502    0  0.21890665376E+03  0.25261212815E+02 -0.19482722712E+03  0.29413585363E+03  0.50400001928E-02 0.  1.
       -1    1    3    3    0  502 -0.21890665376E+03 -0.25261212815E+02  0.13738351403E+04  0.13913954307E+04  0.50400001928E-02 0. -1.
</event>
<event>
 5   0  0.2134992E-03  0.1206599E+04  0.7818609E-02  0.9107100E-01
        1   -1    0    0  501    0  0.00000000000E+00  0.00000000000E+00  0.11915375687E+04  0.11915375687E+04  0.50400001928E-02 0. -1.
       -1   -1    0    0    0  501  0.00000000000E+00  0.00000000000E+00 -0.30546267278E+03  0.30546267282E+03  0.50400001928E-02 0.  1.
    10030    2    1    2    0    0  0.00000000000E+00  0.00000000000E+00  0.88607489589E+03  0.14970002415E+04  0.12065989400E+04 0.  0.
        4    1    3    3  502    0  0.46577918826E+03  0.15906508249E+02  0.91834063396E+03  0.10298322204E+04  0.12699999809E+01 0. -1.
       -4    1    3    3    0  502 -0.46577918826E+03 -0.15906508249E+02 -0.32265738072E+02  0.46716802114E+03  0.12699999809E+01 0.  1.
</event>
<event>
 5   0  0.2134992E-03  0.1195089E+04  0.7818609E-02  0.9117166E-01
       -1   -1    0    0    0  501  0.00000000000E+00  0.00000000000E+00  0.23647374392E+03  0.23647374397E+03  0.50400001928E-02 0.  1.
        1   -1    0    0  501    0  0.00000000000E+00  0.00000000000E+00 -0.15099318756E+04  0.15099318756E+04  0.50400001928E-02 0. -1.
    10030    2    1    2    0    0  0.00000000000E+00  0.00000000000E+00 -0.12734581317E+04  0.17464056196E+04  0.11950886892E+04 0.  0.
        4    1    3    3  502    0  0.42539116892E+02  0.53843778001E+02 -0.15041530883E+04  0.15057180529E+04  0.12699999809E+01 0. -1.
       -4    1    3    3    0  502 -0.42539116892E+02 -0.53843778001E+02  0.23069495656E+03  0.24068756673E+03  0.12699999809E+01 0.  1.
</event>
<event>
 5   0  0.2025294E-03  0.1194853E+04  0.7818609E-02  0.9117374E-01
       -1   -1    0    0    0  501  0.00000000000E+00  0.00000000000E+00  0.35720393707E+03  0.35720393711E+03  0.50400001928E-02 0. -1.
        1   -1    0    0  501    0  0.00000000000E+00  0.00000000000E+00 -0.99920085507E+03  0.99920085508E+03  0.50400001928E-02 0.  1.
    10030    2    1    2    0    0  0.00000000000E+00  0.00000000000E+00 -0.64199691799E+03  0.13564047922E+04  0.11948530946E+04 0.  0.
        5    1    3    3  502    0  0.53110336286E+03 -0.81841122310E+02 -0.24695172196E+02  0.53795975023E+03  0.46999998093E+01 0. -1.
       -5    1    3    3    0  502 -0.53110336286E+03  0.81841122310E+02 -0.61730174580E+03  0.81844504196E+03  0.46999998093E+01 0.  1.
</event>
<event>
 5   0  0.3725376E-03  0.1183796E+04  0.7818609E-02  0.9127159E-01
        2   -1    0    0  501    0  0.00000000000E+00  0.00000000000E+00  0.59559136656E+03  0.59559136657E+03  0.25500000920E-02 0. -1.
       -2   -1    0    0    0  501  0.00000000000E+00  0.00000000000E+00 -0.58822744681E+03  0.58822744682E+03  0.25500000920E-02 0.  1.
    10030    2    1    2    0    0  0.00000000000E+00  0.00000000000E+00  0.73639197486E+01  0.11838188134E+04  0.11837959096E+04 0.  0.
        4    1    3    3  502    0 -0.35661580093E+03 -0.35647147754E+03  0.31367962228E+03  0.59383774056E+03  0.12699999809E+01 0. -1.
       -4    1    3    3    0  502  0.35661580093E+03  0.35647147754E+03 -0.30631570253E+03  0.58998107283E+03  0.12699999809E+01 0.  1.
</event>
<event>
 5   0  0.2025294E-03  0.1201911E+04  0.7818609E-02  0.9111185E-01
        1   -1    0    0  501    0  0.00000000000E+00  0.00000000000E+00  0.34812547113E+03  0.34812547117E+03  0.50400001928E-02 0. -1.
       -1   -1    0    0    0  501  0.00000000000E+00  0.00000000000E+00 -0.10374061695E+04  0.10374061695E+04  0.50400001928E-02 0.  1.
    10030    2    1    2    0    0  0.00000000000E+00  0.00000000000E+00 -0.68928069835E+03  0.13855316407E+04  0.12019109976E+04 0.  0.
        5    1    3    3  502    0  0.28220638877E+03 -0.61821690910E+02  0.26279937154E+03  0.39057389443E+03  0.46999998093E+01 0. -1.
       -5    1    3    3    0  502 -0.28220638877E+03  0.61821690910E+02 -0.95208006989E+03  0.99495774624E+03  0.46999998093E+01 0.  1.
</event>
<event>
 5   0  0.3650180E-03  0.1207776E+04  0.7818609E-02  0.9106078E-01
       -2   -1    0    0    0  501  0.00000000000E+00  0.00000000000E+00  0.70641442976E+03  0.70641442976E+03  0.25500000920E-02 0. -1.
        2   -1    0    0  501    0  0.00000000000E+00  0.00000000000E+00 -0.51624145889E+03  0.51624145890E+03  0.25500000920E-02 0.  1.
    10030    2    1    2    0    0  0.00000000000E+00  0.00000000000E+00  0.19017297086E+03  0.12226558887E+04  0.12077755020E+04 0.  0.
        3    1    3    3  502    0 -0.48922641249E+03 -0.16419498452E+03 -0.22243043055E+03  0.56194108432E+03  0.10100000352E+00 0.  1.
       -3    1    3    3    0  502  0.48922641249E+03  0.16419498452E+03  0.41260340142E+03  0.66071480434E+03  0.10100000352E+00 0. -1.
</event>
<event>
 5   0  0.3650180E-03  0.1200032E+04  0.7818609E-02  0.9112828E-01
       -2   -1    0    0    0  501  0.00000000000E+00  0.00000000000E+00  0.61727763126E+03  0.61727763127E+03  0.25500000920E-02 0. -1.
        2   -1    0    0  501    0  0.00000000000E+00  0.00000000000E+00 -0.58323749000E+03  0.58323749000E+03  0.25500000920E-02 0.  1.
    10030    2    1    2    0    0  0.00000000000E+00  0.00000000000E+00  0.34040141264E+02  0.12005151213E+04  0.12000324267E+04 0.  0.
        3    1    3    3  502    0  0.45573253706E+03  0.21097034045E+03 -0.31146976264E+03  0.59094335865E+03  0.10100000352E+00 0.  1.
       -3    1    3    3    0  502 -0.45573253706E+03 -0.21097034045E+03  0.34550990390E+03  0.60957176262E+03  0.10100000352E+00 0. -1.
</event>
<event>
 5   0  0.1397500E-03  0.1196321E+04  0.7818609E-02  0.9116083E-01
        3   -1    0    0  501    0  0.00000000000E+00  0.00000000000E+00  0.25139312442E+04  0.25139312463E+04  0.10100000352E+00 0. -1.
       -3   -1    0    0    0  501  0.00000000000E+00  0.00000000000E+00 -0.14232524150E+03  0.14232527734E+03  0.10100000352E+00 0.  1.
    10030    2    1    2    0    0  0.00000000000E+00  0.00000000000E+00  0.23716060027E+04  0.26562565236E+04  0.11963208963E+04 0.  0.
        4    1    3    3  502    0 -0.38151100609E+03  0.73274667086E+02  0.21956969956E+04  0.22297997071E+04  0.12699999809E+01 0. -1.
       -4    1    3    3    0  502  0.38151100609E+03 -0.73274667086E+02  0.17590900712E+03  0.42645681644E+03  0.12699999809E+01 0.  1.
</event>
<event>
 5   0  0.2025294E-03  0.1197551E+04  0.7818609E-02  0.9115003E-01
       -1   -1    0    0    0  501  0.00000000000E+00  0.00000000000E+00  0.36431693308E+03  0.36431693311E+03  0.50400001928E-02 0. -1.
        1   -1    0    0  501    0  0.00000000000E+00  0.00000000000E+00 -0.98412173826E+03  0.98412173827E+03  0.50400001928E-02 0.  1.
    10030    2    1    2    0    0  0.00000000000E+00  0.00000000000E+00 -0.61980480518E+03  0.13484386714E+04  0.11975511905E+04 0.  0.
        5    1    3    3  502    0 -0.40541410685E+03 -0.30548902775E+03 -0.66744133314E+03  0.83856077138E+03  0.46999998093E+01 0.  1.
       -5    1    3    3    0  502  0.40541410685E+03  0.30548902775E+03  0.47636527967E+02  0.50987790000E+03  0.46999998093E+01 0. -1.
</event>
<event>
 5   0  0.3650180E-03  0.1227169E+04  0.7818609E-02  0.9089402E-01
       -2   -1    0    0    0  501  0.00000000000E+00  0.00000000000E+00  0.23637894283E+03  0.23637894284E+03  0.25500000920E-02 0. -1.
        2   -1    0    0  501    0  0.00000000000E+00  0.00000000000E+00 -0.15927224012E+04  0.15927224012E+04  0.25500000920E-02 0.  1.
    10030    2    1    2    0    0  0.00000000000E+00  0.00000000000E+00 -0.13563434583E+04  0.18291013440E+04  0.12271691610E+04 0.  0.
        3    1    3    3  502    0  0.48307261614E+03 -0.31756630938E+03 -0.37169804247E+03  0.68728957383E+03  0.10100000352E+00 0. -1.
       -3    1    3    3    0  502 -0.48307261614E+03  0.31756630938E+03 -0.98464541587E+03  0.11418117702E+04  0.10100000352E+00 0.  1.
</event>
<event>
 5   0  0.1397500E-03  0.1182570E+04  0.7818609E-02  0.9128251E-01
        3   -1    0    0  501    0  0.00000000000E+00  0.00000000000E+00  0.32602417034E+03  0.32602418598E+03  0.10100000352E+00 0. -1.
       -3   -1    0    0    0  501  0.00000000000E+00  0.00000000000E+00 -0.10723683181E+04  0.10723683228E+04  0.10100000352E+00 0.  1.
    10030    2    1    2    0    0  0.00000000000E+00  0.00000000000E+00 -0.74634414773E+03  0.13983925088E+04  0.11825700917E+04 0.  0.
        1    1    3    3  502    0  0.19072201080E+01  0.45590452829E+03 -0.81840509420E+03  0.93682414286E+03  0.50400001928E-02 0.  1.
       -1    1    3    3    0  502 -0.19072201080E+01 -0.45590452829E+03  0.72060946470E+02  0.46156836594E+03  0.50400001928E-02 0. -1.
</event>
<event>
 5   0  0.3706035E-03  0.1198378E+04  0.7818609E-02  0.9114277E-01
        2   -1    0    0  501    0  0.00000000000E+00  0.00000000000E+00  0.56642813910E+03  0.56642813910E+03  0.25500000920E-02 0. -1.
       -2   -1    0    0    0  501  0.00000000000E+00  0.00000000000E+00 -0.63384501530E+03  0.63384501530E+03  0.25500000920E-02 0.  1.
    10030    2    1    2    0    0  0.00000000000E+00  0.00000000000E+00 -0.67416876201E+02  0.12002731544E+04  0.11983783251E+04 0.  0.
        2    1    3    3  502    0 -0.29470683747E+03 -0.33290050806E+03  0.36861411545E+03  0.57753894625E+03  0.25500000920E-02 0. -1.
       -2    1    3    3    0  502  0.29470683747E+03  0.33290050806E+03 -0.43603099165E+03  0.62273420815E+03  0.25500000920E-02 0.  1.
</event>
<event>
 5   0  0.3626049E-03  0.1194196E+04  0.7818609E-02  0.9117952E-01
        2   -1    0    0  501    0  0.00000000000E+00  0.00000000000E+00  0.17413920035E+04  0.17413920035E+04  0.25500000920E-02 0. -1.
       -2   -1    0    0    0  501  0.00000000000E+00  0.00000000000E+00 -0.20473615875E+03  0.20473615876E+03  0.25500000920E-02 0.  1.
    10030    2    1    2    0    0  0.00000000000E+00  0.00000000000E+00  0.15366558448E+04  0.19461281623E+04  0.11941958126E+04 0.  0.
        1    1    3    3  502    0  0.29950814559E+03 -0.14217537538E+03 -0.40951584739E+02  0.33405987331E+03  0.50400001928E-02 0.  1.
       -1    1    3    3    0  502 -0.29950814559E+03  0.14217537538E+03  0.15776074295E+04  0.16120682890E+04  0.50400001928E-02 0. -1.
</event>
<event>
 5   0  0.2047109E-03  0.1217377E+04  0.7818609E-02  0.9097781E-01
       -1   -1    0    0    0  501  0.00000000000E+00  0.00000000000E+00  0.62171221288E+03  0.62171221290E+03  0.50400001928E-02 0.  1.
        1   -1    0    0  501    0  0.00000000000E+00  0.00000000000E+00 -0.59593727664E+03  0.59593727666E+03  0.50400001928E-02 0. -1.
    10030    2    1    2    0    0  0.00000000000E+00  0.00000000000E+00  0.25774936245E+02  0.12176494896E+04  0.12173766599E+04 0.  0.
        1    1    3    3  502    0  0.22890502057E+03 -0.73891042399E+02  0.57215863596E+03  0.62066327370E+03  0.50400001928E-02 0.  1.
       -1    1    3    3    0  502 -0.22890502057E+03  0.73891042399E+02 -0.54638369972E+03  0.59698621586E+03  0.50400001928E-02 0. -1.
</event>
<event>
 5   0  0.3725376E-03  0.1088385E+04  0.7818609E-02  0.9216587E-01
        2   -1    0    0  501    0  0.00000000000E+00  0.00000000000E+00  0.99562681700E+03  0.99562681700E+03  0.25500000920E-02 0. -1.
       -2   -1    0    0    0  501  0.00000000000E+00  0.00000000000E+00 -0.29744649649E+03  0.29744649650E+03  0.25500000920E-02 0.  1.
    10030    2    1    2    0    0  0.00000000000E+00  0.00000000000E+00  0.69818032051E+03  0.12930733135E+04  0.10883854254E+04 0.  0.
        4    1    3    3  502    0 -0.40851706135E+03 -0.22686290393E+03  0.68045427061E+03  0.82545296286E+03  0.12699999809E+01 0. -1.
       -4    1    3    3    0  502  0.40851706135E+03  0.22686290393E+03  0.17726049892E+02  0.46762035065E+03  0.12699999809E+01 0.  1.
</event>
<event>
 5   0  0.3725376E-03  0.1183218E+04  0.7818609E-02  0.9127674E-01
       -2   -1    0    0    0  501  0.00000000000E+00  0.00000000000E+00  0.21548608338E+03  0.21548608340E+03  0.25500000920E-02 0. -1.
        2   -1    0    0  501    0  0.00000000000E+00  0.00000000000E+00 -0.16242412603E+04  0.16242412603E+04  0.25500000920E-02 0.  1.
    10030    2    1    2    0    0  0.00000000000E+00  0.00000000000E+00 -0.14087551769E+04  0.18397273437E+04  0.11832183022E+04 0.  0.
        4    1    3    3  502    0  0.37518201352E+03  0.24932901682E+03 -0.10809042113E+03  0.46326197118E+03  0.12699999809E+01 0. -1.
       -4    1    3    3    0  502 -0.37518201352E+03 -0.24932901682E+03 -0.13006647557E+04  0.13764653725E+04  0.12699999809E+01 0.  1.
</event>
<event>
 5   0  0.3751091E-03  0.1159288E+04  0.7818609E-02  0.9149257E-01
       -2   -1    0    0    0  501  0.00000000000E+00  0.00000000000E+00  0.60829867607E+03  0.60829867608E+03  0.25500000920E-02 0.  1.
        2   -1    0    0  501    0  0.00000000000E+00  0.00000000000E+00 -0.55233919155E+03  0.55233919155E+03  0.25500000920E-02 0. -1.
    10030    2    1    2    0    0  0.00000000000E+00  0.00000000000E+00  0.55959484526E+02  0.11606378676E+04  0.11592880556E+04 0.  0.
        5    1    3    3  502    0 -0.15809486638E+03  0.55357694721E+03  0.95316404772E+02  0.58356553211E+03  0.46999998093E+01 0.  1.
       -5    1    3    3    0  502  0.15809486638E+03 -0.55357694721E+03 -0.39356920246E+02  0.57707233552E+03  0.46999998093E+01 0. -1.
</event>
<event>
 5   0  0.2134992E-03  0.1204284E+04  0.7818609E-02  0.9109115E-01
       -1   -1    0    0    0  501  0.00000000000E+00  0.00000000000E+00  0.55807218512E+03  0.55807218514E+03  0.50400001928E-02 0.  1.
        1   -1    0    0  501    0  0.00000000000E+00  0.00000000000E+00 -0.64969145852E+03  0.64969145854E+03  0.50400001928E-02 0. -1.
    10030    2    1    2    0    0  0.00000000000E+00  0.00000000000E+00 -0.91619273407E+02  0.12077636437E+04  0.12042835745E+04 0.  0.
        4    1    3    3  502    0 -0.52085151987E+03 -0.15045333397E+03 -0.30857939521E+03  0.62381517095E+03  0.12699999809E+01 0. -1.
       -4    1    3    3    0  502  0.52085151987E+03  0.15045333397E+03  0.21696012181E+03  0.58394847274E+03  0.12699999809E+01 0.  1.
</event>
<event>
 5   0  0.2096270E-03  0.1195295E+04  0.7818609E-02  0.9116985E-01
        1   -1    0    0  501    0  0.00000000000E+00  0.00000000000E+00  0.34320070752E+03  0.34320070756E+03  0.50400001928E-02 0. -1.
       -1   -1    0    0    0  501  0.00000000000E+00  0.00000000000E+00 -0.10407388345E+04  0.10407388345E+04  0.50400001928E-02 0.  1.
    10030    2    1    2    0    0  0.00000000000E+00  0.00000000000E+00 -0.69753812694E+03  0.13839395420E+04  0.11952946153E+04 0.  0.
        2    1    3    3  502    0 -0.36211130735E+03  0.46288992479E+03 -0.47449084643E+03  0.75533651092E+03  0.25500000920E-02 0.  1.
       -2    1    3    3    0  502  0.36211130735E+03 -0.46288992479E+03 -0.22304728052E+03  0.62860303112E+03  0.25500000920E-02 0. -1.
</event>
<event>
 5   0  0.3650180E-03  0.1190432E+04  0.7818609E-02  0.9121273E-01
        2   -1    0    0  501    0  0.00000000000E+00  0.00000000000E+00  0.10378555697E+04  0.10378555698E+04  0.25500000920E-02 0.  1.
       -2   -1    0    0    0  501  0.00000000000E+00  0.00000000000E+00 -0.34135986553E+03  0.34135986554E+03  0.25500000920E-02 0. -1.
    10030    2    1    2    0    0  0.00000000000E+00  0.00000000000E+00  0.69649570422E+03  0.13792154353E+04  0.11904322538E+04 0.  0.
        3    1    3    3  502    0  0.22534817540E+03  0.45326614184E+03 -0.14539164788E+02  0.50640240226E+03  0.10100000352E+00 0. -1.
       -3    1    3    3    0  502 -0.22534817540E+03 -0.45326614184E+03  0.71103486900E+03  0.87281303304E+03  0.10100000352E+00 0.  1.
</event>
<event>
 5   0  0.3626049E-03  0.1223433E+04  0.7818609E-02  0.9092589E-01
        2   -1    0    0  501    0  0.00000000000E+00  0.00000000000E+00  0.93846091796E+03  0.93846091796E+03  0.25500000920E-02 0. -1.
       -2   -1    0    0    0  501  0.00000000000E+00  0.00000000000E+00 -0.39873511279E+03  0.39873511280E+03  0.25500000920E-02 0.  1.
    10030    2    1    2    0    0  0.00000000000E+00  0.00000000000E+00  0.53972580517E+03  0.13371960308E+04  0.12234333982E+04 0.  0.
        1    1    3    3  502    0 -0.55247783408E+03  0.22170680822E+03  0.42370497227E+03  0.73069252735E+03  0.50400001928E-02 0.  1.
       -1    1    3    3    0  502  0.55247783408E+03 -0.22170680822E+03  0.11602083289E+03  0.60650350341E+03  0.50400001928E-02 0. -1.
</event>
<event>
 5   0  0.3725376E-03  0.1200906E+04  0.7818609E-02  0.9112063E-01
       -2   -1    0    0    0  501  0.00000000000E+00  0.00000000000E+00  0.13292745129E+04  0.13292745129E+04  0.25500000920E-02 0. -1.
        2   -1    0    0  501    0  0.00000000000E+00  0.00000000000E+00 -0.27123372892E+03  0.27123372893E+03  0.25500000920E-02 0.  1.
    10030    2    1    2    0    0  0.00000000000E+00  0.00000000000E+00  0.10580407840E+04  0.16005082419E+04  0.12009064625E+04 0.  0.
        4    1    3    3  502    0 -0.25672909365E+03 -0.41083793747E+03  0.56232413819E+02  0.48771029890E+03  0.12699999809E+01 0.  1.
       -4    1    3    3    0  502  0.25672909365E+03  0.41083793747E+03  0.10018083702E+04  0.11127979430E+04  0.12699999809E+01 0. -1.
</event>
<event>
 5   0  0.2078258E-03  0.1207130E+04  0.7818609E-02  0.9106638E-01
        1   -1    0    0  501    0  0.00000000000E+00  0.00000000000E+00  0.47080265428E+03  0.47080265431E+03  0.50400001928E-02 0.  1.
       -1   -1    0    0    0  501  0.00000000000E+00  0.00000000000E+00 -0.77376568499E+03  0.77376568501E+03  0.50400001928E-02 0. -1.
    10030    2    1    2    0    0  0.00000000000E+00  0.00000000000E+00 -0.30296303071E+03  0.12445683393E+04  0.12071303796E+04 0.  0.
        3    1    3    3  502    0  0.19970249549E+03  0.21908310976E+02 -0.73828146169E+03  0.76512782440E+03  0.10100000352E+00 0. -1.
       -3    1    3    3    0  502 -0.19970249549E+03 -0.21908310976E+02  0.43531843098E+03  0.47944051492E+03  0.10100000352E+00 0.  1.
</event>
<event>
 5   0  0.2047109E-03  0.1195744E+04  0.7818609E-02  0.9116590E-01
       -1   -1    0    0    0  501  0.00000000000E+00  0.00000000000E+00  0.27618995351E+03  0.27618995355E+03  0.50400001928E-02 0. -1.
        1   -1    0    0  501    0  0.00000000000E+00  0.00000000000E+00 -0.12942218459E+04  0.12942218459E+04  0.50400001928E-02 0.  1.
    10030    2    1    2    0    0  0.00000000000E+00  0.00000000000E+00 -0.10180318924E+04  0.15704117995E+04  0.11957442394E+04 0.  0.
        1    1    3    3  502    0  0.16250791456E+03  0.19003382027E+03  0.20422174153E+03  0.32284391722E+03  0.50400001928E-02 0. -1.
       -1    1    3    3    0  502 -0.16250791456E+03 -0.19003382027E+03 -0.12222536339E+04  0.12475678822E+04  0.50400001928E-02 0.  1.
</event>
<event>
 5   0  0.2096270E-03  0.1197254E+04  0.7818609E-02  0.9115264E-01
        1   -1    0    0  501    0  0.00000000000E+00  0.00000000000E+00  0.68688182979E+03  0.68688182980E+03  0.50400001928E-02 0.  1.
       -1   -1    0    0    0  501  0.00000000000E+00  0.00000000000E+00 -0.52171163199E+03  0.52171163201E+03  0.50400001928E-02 0. -1.
    10030    2    1    2    0    0  0.00000000000E+00  0.00000000000E+00  0.16517019780E+03  0.12085934618E+04  0.11972539253E+04 0.  0.
        2    1    3    3  502    0  0.26421848499E+03 -0.26012418975E+03 -0.39184303601E+03  0.53945988431E+03  0.25500000920E-02 0. -1.
       -2    1    3    3    0  502 -0.26421848499E+03  0.26012418975E+03  0.55701323381E+03  0.66913357751E+03  0.25500000920E-02 0.  1.
</event>
<event>
 5   0  0.3626049E-03  0.1187569E+04  0.7818609E-02  0.9123807E-01
        2   -1    0    0  501    0  0.00000000000E+00  0.00000000000E+00  0.59437372330E+03  0.59437372331E+03  0.25500000920E-02 0. -1.
       -2   -1    0    0    0  501  0.00000000000E+00  0.00000000000E+00 -0.59319606191E+03  0.59319606191E+03  0.25500000920E-02 0.  1.
    10030    2    1    2    0    0  0.00000000000E+00  0.00000000000E+00  0.11776613925E+01  0.11875697852E+04  0.11875692013E+04 0.  0.
        1    1    3    3  502    0  0.37678840071E+03  0.45834105309E+03  0.23700139940E+02  0.59380781109E+03  0.50400001928E-02 0. -1.
       -1    1    3    3    0  502 -0.37678840071E+03 -0.45834105309E+03 -0.22522478548E+02  0.59376197413E+03  0.50400001928E-02 0.  1.
</event>
<event>
 5   0  0.3725376E-03  0.1207581E+04  0.7818609E-02  0.9106247E-01
        2   -1    0    0  501    0  0.00000000000E+00  0.00000000000E+00  0.21639187579E+04  0.21639187579E+04  0.25500000920E-02 0. -1.
       -2   -1    0    0    0  501  0.00000000000E+00  0.00000000000E+00 -0.16847353518E+03  0.16847353520E+03  0.25500000920E-02 0.  1.
    10030    2    1    2    0    0  0.00000000000E+00  0.00000000000E+00  0.19954452227E+04  0.23323922931E+04  0.12075811244E+04 0.  0.
        4    1    3    3  502    0  0.39069870417E+02  0.28439754223E+03 -0.28230772215E+02  0.28845624660E+03  0.12699999809E+01 0.  1.
       -4    1    3    3    0  502 -0.39069870417E+02 -0.28439754223E+03  0.20236759949E+04  0.20439360465E+04  0.12699999809E+01 0. -1.
</event>
<event>
 5   0  0.2025294E-03  0.1147656E+04  0.7818609E-02  0.9159948E-01
        1   -1    0    0  501    0  0.00000000000E+00  0.00000000000E+00  0.99863214590E+03  0.99863214591E+03  0.50400001928E-02 0.  1.
       -1   -1    0    0    0  501  0.00000000000E+00  0.00000000000E+00 -0.32972978095E+03  0.32972978099E+03  0.50400001928E-02 0. -1.
    10030    2    1    2    0    0  0.00000000000E+00  0.00000000000E+00  0.66890236495E+03  0.13283619269E+04  0.11476563227E+04 0.  0.
        5    1    3    3  502    0 -0.20933959209E+03 -0.44493474693E+03  0.67676613854E+03  0.83655513274E+03  0.46999998093E+01 0. -1.
       -5    1    3    3    0  502  0.20933959209E+03  0.44493474693E+03 -0.78637735972E+01  0.49180679415E+03  0.46999998093E+01 0.  1.
</event>
<event>
 5   0  0.3626049E-03  0.1191872E+04  0.7818609E-02  0.9120001E-01
        2   -1    0    0  501    0  0.00000000000E+00  0.00000000000E+00  0.82399105606E+03  0.82399105606E+03  0.25500000920E-02 0.  1.
       -2   -1    0    0    0  501  0.00000000000E+00  0.00000000000E+00 -0.43099964227E+03  0.43099964228E+03  0.25500000920E-02 0. -1.
    10030    2    1    2    0    0  0.00000000000E+00  0.00000000000E+00  0.39299141378E+03  0.12549906983E+04  0.11918722254E+04 0.  0.
        1    1    3    3  502    0 -0.28047257304E+02 -0.53134822401E+03  0.47907751520E+03  0.71598383319E+03  0.50400001928E-02 0.  1.
       -1    1    3    3    0  502  0.28047257304E+02  0.53134822401E+03 -0.86086101415E+02  0.53900686515E+03  0.50400001928E-02 0. -1.
</event>
<event>
 5   0  0.2078258E-03  0.1199323E+04  0.7818609E-02  0.9113449E-01
        1   -1    0    0  501    0  0.00000000000E+00  0.00000000000E+00  0.38627542059E+03  0.38627542062E+03  0.50400001928E-02 0. -1.
       -1   -1    0    0    0  501  0.00000000000E+00  0.00000000000E+00 -0.93092595453E+03  0.93092595455E+03  0.50400001928E-02 0.  1.
    10030    2    1    2    0    0  0.00000000000E+00  0.00000000000E+00 -0.54465053395E+03  0.13172013752E+04  0.11993228334E+04 0.  0.
        3    1    3    3  502    0 -0.49249532374E+03 -0.22752036378E+03  0.82794612068E+01  0.54257323885E+03  0.10100000352E+00 0. -1.
       -3    1    3    3    0  502  0.49249532374E+03  0.22752036378E+03 -0.55292999515E+03  0.77462813632E+03  0.10100000352E+00 0.  1.
</event>
<event>
 5   0  0.2025294E-03  0.1221577E+04  0.7818609E-02  0.9094178E-01
        1   -1    0    0  501    0  0.00000000000E+00  0.00000000000E+00  0.70345456115E+03  0.70345456117E+03  0.50400001928E-02 0.  1.
       -1   -1    0    0    0  501  0.00000000000E+00  0.00000000000E+00 -0.53032892518E+03  0.53032892521E+03  0.50400001928E-02 0. -1.
    10030    2    1    2    0    0  0.00000000000E+00  0.00000000000E+00  0.17312563597E+03  0.12337834864E+04  0.12215765246E+04 0.  0.
        5    1    3    3  502    0 -0.11806949192E+02  0.24360228652E+03 -0.47899593163E+03  0.53753201818E+03  0.46999998093E+01 0. -1.
       -5    1    3    3    0  502  0.11806949192E+02 -0.24360228652E+03  0.65212156760E+03  0.69625146820E+03  0.46999998093E+01 0.  1.
</event>
<event>
 5   0  0.2025294E-03  0.1201115E+04  0.7818609E-02  0.9111881E-01
        1   -1    0    0  501    0  0.00000000000E+00  0.00000000000E+00  0.88949807286E+03  0.88949807287E+03  0.50400001928E-02 0.  1.
       -1   -1    0    0    0  501  0.00000000000E+00  0.00000000000E+00 -0.40547512055E+03  0.40547512058E+03  0.50400001928E-02 0. -1.
    10030    2    1    2    0    0  0.00000000000E+00  0.00000000000E+00  0.48402295231E+03  0.12949731935E+04  0.12011150459E+04 0.  0.
        5    1    3    3  502    0 -0.95251180540E+02 -0.35812302163E+03 -0.26748628246E+03  0.45705129616E+03  0.46999998093E+01 0. -1.
       -5    1    3    3    0  502  0.95251180540E+02  0.35812302163E+03  0.75150923477E+03  0.83792189729E+03  0.46999998093E+01 0.  1.
</event>
<event>
 5   0  0.1397500E-03  0.1215813E+04  0.7818609E-02  0.9099127E-01
        4   -1    0    0  501    0  0.00000000000E+00  0.00000000000E+00  0.15289500550E+04  0.15289505824E+04  0.12699999809E+01 0.  1.
       -4   -1    0    0    0  501  0.00000000000E+00  0.00000000000E+00 -0.24169961817E+03  0.24170295473E+03  0.12699999809E+01 0. -1.
    10030    2    1    2    0    0  0.00000000000E+00  0.00000000000E+00  0.12872504368E+04  0.17706535372E+04  0.12158125931E+04 0.  0.
        4    1    3    3  502    0  0.49888149652E+03 -0.67007527964E+02  0.11400170150E+04  0.12461994879E+04  0.12699999809E+01 0.  1.
       -4    1    3    3    0  502 -0.49888149652E+03  0.67007527964E+02  0.14723342186E+03  0.52445404927E+03  0.12699999809E+01 0. -1.
</event>
<event>
 5   0  0.3751091E-03  0.1133597E+04  0.7818609E-02  0.9173051E-01
       -2   -1    0    0    0  501  0.00000000000E+00  0.00000000000E+00  0.52933619899E+03  0.52933619899E+03  0.25500000920E-02 0. -1.
        2   -1    0    0  501    0  0.00000000000E+00  0.00000000000E+00 -0.60691228424E+03  0.60691228425E+03  0.25500000920E-02 0.  1.
    10030    2    1    2    0    0  0.00000000000E+00  0.00000000000E+00 -0.77576085253E+02  0.11362484832E+04  0.11335971801E+04 0.  0.
        5    1    3    3  502    0  0.19411821356E+01 -0.30802105497E+03  0.43809546632E+03  0.53556555724E+03  0.46999998093E+01 0. -1.
       -5    1    3    3    0  502 -0.19411821356E+01  0.30802105497E+03 -0.51567155157E+03  0.60068292600E+03  0.46999998093E+01 0.  1.
</event>
<event>
 5   0  0.3725376E-03  0.1244287E+04  0.7818609E-02  0.9074951E-01
        2   -1    0    0  501    0  0.00000000000E+00  0.00000000000E+00  0.55317849233E+03  0.55317849234E+03  0.25500000920E-02 0. -1.
       -2   -1    0    0    0  501  0.00000000000E+00  0.00000000000E+00 -0.69970668709E+03  0.69970668710E+03  0.25500000920E-02 0.  1.
    10030    2    1    2    0    0  0.00000000000E+00  0.00000000000E+00 -0.14652819476E+03  0.12528851794E+04  0.12442872502E+04 0.  0.
        4    1    3    3  502    0  0.10554153521E+03  0.74955996257E+02 -0.68599477302E+03  0.69810304293E+03  0.12699999809E+01 0.  1.
       -4    1    3    3    0  502 -0.10554153521E+03 -0.74955996257E+02  0.53946657826E+03  0.55478213651E+03  0.12699999809E+01 0. -1.
</event>
<event>
 5   0  0.2047109E-03  0.1209234E+04  0.7818609E-02  0.9104812E-01
       -1   -1    0    0    0  501  0.00000000000E+00  0.00000000000E+00  0.32581732322E+03  0.32581732326E+03  0.50400001928E-02 0. -1.
        1   -1    0    0  501    0  0.00000000000E+00  0.00000000000E+00 -0.11219832381E+04  0.11219832381E+04  0.50400001928E-02 0.  1.
    10030    2    1    2    0    0  0.00000000000E+00  0.00000000000E+00 -0.79616591486E+03  0.14478005613E+04  0.12092337663E+04 0.  0.
        1    1    3    3  502    0 -0.12687037288E+03  0.88422257875E+02  0.30173853021E+03  0.33905859058E+03  0.50400001928E-02 0. -1.
       -1    1    3    3    0  502  0.12687037288E+03 -0.88422257875E+02 -0.10979044451E+04  0.11087419708E+04  0.50400001928E-02 0.  1.
</event>
<event>
 5   0  0.3751091E-03  0.1193002E+04  0.7818609E-02  0.9119004E-01
       -2   -1    0    0    0  501  0.00000000000E+00  0.00000000000E+00  0.15508411258E+03  0.15508411260E+03  0.25500000920E-02 0. -1.
        2   -1    0    0  501    0  0.00000000000E+00  0.00000000000E+00 -0.22943261766E+04  0.22943261766E+04  0.25500000920E-02 0.  1.
    10030    2    1    2    0    0  0.00000000000E+00  0.00000000000E+00 -0.21392420640E+04  0.24494102892E+04  0.11930021611E+04 0.  0.
        5    1    3    3  502    0 -0.32760017128E+03  0.28337012929E+03 -0.19115894314E+04  0.19600552918E+04  0.46999998093E+01 0.  1.
       -5    1    3    3    0  502  0.32760017128E+03 -0.28337012929E+03 -0.22765263259E+03  0.48935499744E+03  0.46999998093E+01 0. -1.
</event>
<event>
 5   0  0.2025294E-03  0.1205209E+04  0.7818609E-02  0.9108309E-01
       -1   -1    0    0    0  501  0.00000000000E+00  0.00000000000E+00  0.25375900885E+03  0.25375900890E+03  0.50400001928E-02 0. -1.
        1   -1    0    0  501    0  0.00000000000E+00  0.00000000000E+00 -0.14310124271E+04  0.14310124271E+04  0.50400001928E-02 0.  1.
    10030    2    1    2    0    0  0.00000000000E+00  0.00000000000E+00 -0.11772534183E+04  0.16847714360E+04  0.12052091855E+04 0.  0.
        5    1    3    3  502    0 -0.27213105587E+03  0.23968598005E+03 -0.12613756382E+04  0.13124767698E+04  0.46999998093E+01 0.  1.
       -5    1    3    3    0  502  0.27213105587E+03 -0.23968598005E+03  0.84122219960E+02  0.37229466621E+03  0.46999998093E+01 0. -1.
</event>
<event>
 5   0  0.3650180E-03  0.1190288E+04  0.7818609E-02  0.9121401E-01
        2   -1    0    0  501    0  0.00000000000E+00  0.00000000000E+00  0.12657953282E+04  0.12657953282E+04  0.25500000920E-02 0. -1.
       -2   -1    0    0    0  501  0.00000000000E+00  0.00000000000E+00 -0.27982098357E+03  0.27982098358E+03  0.25500000920E-02 0.  1.
    10030    2    1    2    0    0  0.00000000000E+00  0.00000000000E+00  0.98597434461E+03  0.15456163117E+04  0.11902875178E+04 0.  0.
        3    1    3    3  502    0  0.48370826227E+03 -0.19247134695E+02  0.43443009977E+02  0.48603646005E+03  0.10100000352E+00 0.  1.
       -3    1    3    3    0  502 -0.48370826227E+03  0.19247134695E+02  0.94253133463E+03  0.10595798517E+04  0.10100000352E+00 0. -1.
</event>
<event>
 5   0  0.3751091E-03  0.1197118E+04  0.7818609E-02  0.9115383E-01
       -2   -1    0    0    0  501  0.00000000000E+00  0.00000000000E+00  0.14377449034E+03  0.14377449037E+03  0.25500000920E-02 0. -1.
        2   -1    0    0  501    0  0.00000000000E+00  0.00000000000E+00 -0.24919075507E+04  0.24919075507E+04  0.25500000920E-02 0.  1.
    10030    2    1    2    0    0  0.00000000000E+00  0.00000000000E+00 -0.23481330603E+04  0.26356820411E+04  0.11971177688E+04 0.  0.
        5    1    3    3  502    0  0.53325980231E+03  0.69828158940E+02 -0.59569362944E+03  0.80256774087E+03  0.46999998093E+01 0.  1.
       -5    1    3    3    0  502 -0.53325980231E+03 -0.69828158940E+02 -0.17524394309E+04  0.18331143002E+04  0.46999998093E+01 0. -1.
</event>
<event>
 5   0  0.2134992E-03  0.1201860E+04  0.7818609E-02  0.9111230E-01
       -1   -1    0    0    0  501  0.00000000000E+00  0.00000000000E+00  0.24695321016E+03  0.24695321021E+03  0.50400001928E-02 0.  1.
        1   -1    0    0  501    0  0.00000000000E+00  0.00000000000E+00 -0.14622877555E+04  0.14622877556E+04  0.50400001928E-02 0. -1.
    10030    2    1    2    0    0  0.00000000000E+00  0.00000000000E+00 -0.12153345454E+04  0.17092409658E+04  0.12018596515E+04 0.  0.
        4    1    3    3  502    0 -0.45763687777E+03  0.75377036588E+02 -0.64255939268E+02  0.46823460805E+03  0.12699999809E+01 0.  1.
       -4    1    3    3    0  502  0.45763687777E+03 -0.75377036588E+02 -0.11510786061E+04  0.12410063577E+04  0.12699999809E+01 0. -1.
</event>
<event>
 5   0  0.3650180E-03  0.1219396E+04  0.7818609E-02  0.9096047E-01
        2   -1    0    0  501    0  0.00000000000E+00  0.00000000000E+00  0.65715709288E+03  0.65715709289E+03  0.25500000920E-02 0. -1.
       -2   -1    0    0    0  501  0.00000000000E+00  0.00000000000E+00 -0.56566625133E+03  0.56566625133E+03  0.25500000920E-02 0.  1.
    10030    2    1    2    0    0  0.00000000000E+00  0.00000000000E+00  0.91490841558E+02  0.12228233442E+04  0.12193958984E+04 0.  0.
        3    1    3    3  502    0  0.42627798300E+03 -0.42669123061E+03 -0.43686265048E+02  0.60472045196E+03  0.10100000352E+00 0. -1.
       -3    1    3    3    0  502 -0.42627798300E+03  0.42669123061E+03  0.13517710661E+03  0.61810289226E+03  0.10100000352E+00 0.  1.
</event>
<event>
 5   0  0.3706035E-03  0.1193970E+04  0.7818609E-02  0.9118151E-01
        2   -1    0    0  501    0  0.00000000000E+00  0.00000000000E+00  0.20643860511E+04  0.20643860511E+04  0.25500000920E-02 0. -1.
       -2   -1    0    0    0  501  0.00000000000E+00  0.00000000000E+00 -0.17263786479E+03  0.17263786481E+03  0.25500000920E-02 0.  1.
    10030    2    1    2    0    0  0.00000000000E+00  0.00000000000E+00  0.18917481863E+04  0.22370239159E+04  0.11939701838E+04 0.  0.
        2    1    3    3  502    0 -0.10889339813E+01 -0.29934784289E+03  0.19136047481E+04  0.19368772415E+04  0.25500000920E-02 0. -1.
       -2    1    3    3    0  502  0.10889339813E+01  0.29934784289E+03 -0.21856561811E+02  0.30014667435E+03  0.25500000920E-02 0.  1.
</event>
<event>
 5   0  0.3725376E-03  0.1131248E+04  0.7818609E-02  0.9175260E-01
        2   -1    0    0  501    0  0.00000000000E+00  0.00000000000E+00  0.11584503269E+04  0.11584503269E+04  0.25500000920E-02 0.  1.
       -2   -1    0    0    0  501  0.00000000000E+00  0.00000000000E+00 -0.27617090283E+03  0.27617090284E+03  0.25500000920E-02 0. -1.
    10030    2    1    2    0    0  0.00000000000E+00  0.00000000000E+00  0.88227942408E+03  0.14346212297E+04  0.11312475815E+04 0.  0.
        4    1    3    3  502    0 -0.19525143800E+03  0.95831190289E+02 -0.22101576331E+03  0.31009082799E+03  0.12699999809E+01 0. -1.
       -4    1    3    3    0  502  0.19525143800E+03 -0.95831190289E+02  0.11032951874E+04  0.11245304018E+04  0.12699999809E+01 0.  1.
</event>
<event>
 5   0  0.3751091E-03  0.1203559E+04  0.7818609E-02  0.9109747E-01
       -2   -1    0    0    0  501  0.00000000000E+00  0.00000000000E+00  0.28062217450E+03  0.28062217451E+03  0.25500000920E-02 0.  1.
        2   -1    0    0  501    0  0.00000000000E+00  0.00000000000E+00 -0.12904843109E+04  0.12904843109E+04  0.25500000920E-02 0. -1.
    10030    2    1    2    0    0  0.00000000000E+00  0.00000000000E+00 -0.10098621364E+04  0.15711064855E+04  0.12035589117E+04 0.  0.
        5    1    3    3  502    0 -0.22031339796E+03 -0.55994653696E+03 -0.51301032351E+03  0.79074635604E+03  0.46999998093E+01 0.  1.
       -5    1    3    3    0  502  0.22031339796E+03  0.55994653696E+03 -0.49685181294E+03  0.78036012942E+03  0.46999998093E+01 0. -1.
</event>
<event>
 5   0  0.3626049E-03  0.1224970E+04  0.7818609E-02  0.9091277E-01
       -2   -1    0    0    0  501  0.00000000000E+00  0.00000000000E+00  0.34777329485E+03  0.34777329486E+03  0.25500000920E-02 0. -1.
        2   -1    0    0  501    0  0.00000000000E+00  0.00000000000E+00 -0.10786843230E+04  0.10786843230E+04  0.25500000920E-02 0.  1.
    10030    2    1    2    0    0  0.00000000000E+00  0.00000000000E+00 -0.73091102811E+03  0.14264576178E+04  0.12249695524E+04 0.  0.
        1    1    3    3  502    0  0.45303550594E+03  0.41186032490E+03 -0.34640972846E+03  0.70346982655E+03  0.50400001928E-02 0. -1.
       -1    1    3    3    0  502 -0.45303550594E+03 -0.41186032490E+03 -0.38450129965E+03  0.72298779127E+03  0.50400001928E-02 0.  1.
</event>
<event>
 5   0  0.3626049E-03  0.1177981E+04  0.7818609E-02  0.9132351E-01
       -2   -1    0    0    0  501  0.00000000000E+00  0.00000000000E+00  0.78884597127E+03  0.78884597128E+03  0.25500000920E-02 0. -1.
        2   -1    0    0  501    0  0.00000000000E+00  0.00000000000E+00 -0.43976886110E+03  0.43976886111E+03  0.25500000920E-02 0.  1.
    10030    2    1    2    0    0  0.00000000000E+00  0.00000000000E+00  0.34907711017E+03  0.12286148324E+04  0.11779811448E+04 0.  0.
        1    1    3    3  502    0  0.39033011191E+03 -0.43672487958E+03  0.23903236764E+03  0.63263155906E+03  0.50400001928E-02 0.  1.
       -1    1    3    3    0  502 -0.39033011191E+03  0.43672487958E+03  0.11004474253E+03  0.59598327333E+03  0.50400001928E-02 0. -1.
</event>
<event>
 5   0  0.2047109E-03  0.1169911E+04  0.7818609E-02  0.9139609E-01
       -1   -1    0    0    0  501  0.00000000000E+00  0.00000000000E+00  0.26440291509E+03  0.26440291514E+03  0.50400001928E-02 0.  1.
        1   -1    0    0  501    0  0.00000000000E+00  0.00000000000E+00 -0.12941337227E+04  0.12941337227E+04  0.50400001928E-02 0. -1.
    10030    2    1    2    0    0  0.00000000000E+00  0.00000000000E+00 -0.10297308076E+04  0.15585366379E+04  0.11699106442E+04 0.  0.
        1    1    3    3  502    0  0.51514227774E+03  0.27519781226E+03 -0.47134298760E+03  0.75051290074E+03  0.50400001928E-02 0.  1.
       -1    1    3    3    0  502 -0.51514227774E+03 -0.27519781226E+03 -0.55838782002E+03  0.80802373713E+03  0.50400001928E-02 0. -1.
</event>
<event>
 5   0  0.2096270E-03  0.1044593E+04  0.7818609E-02  0.9260944E-01
        1   -1    0    0  501    0  0.00000000000E+00  0.00000000000E+00  0.16541786437E+04  0.16541786437E+04  0.50400001928E-02 0.  1.
       -1   -1    0    0    0  501  0.00000000000E+00  0.00000000000E+00 -0.16491182980E+03  0.16491182988E+03  0.50400001928E-02 0. -1.
    10030    2    1    2    0    0  0.00000000000E+00  0.00000000000E+00  0.14892668139E+04  0.18190904736E+04  0.10445929868E+04 0.  0.
        2    1    3    3  502    0 -0.15937865062E+03 -0.25330699244E+03 -0.78942023793E+00  0.29927681147E+03  0.25500000920E-02 0. -1.
       -2    1    3    3    0  502  0.15937865062E+03  0.25330699244E+03  0.14900562341E+04  0.15198136621E+04  0.25500000920E-02 0.  1.
</event>
<event>
 5   0  0.3626049E-03  0.1205354E+04  0.7818609E-02  0.9108183E-01
        2   -1    0    0  501    0  0.00000000000E+00  0.00000000000E+00  0.13335197875E+04  0.13335197875E+04  0.25500000920E-02 0. -1.
       -2   -1    0    0    0  501  0.00000000000E+00  0.00000000000E+00 -0.27237664347E+03  0.27237664348E+03  0.25500000920E-02 0.  1.
    10030    2    1    2    0    0  0.00000000000E+00  0.00000000000E+00  0.10611431441E+04  0.16058964310E+04  0.12053541284E+04 0.  0.
        1    1    3    3  502    0 -0.60247225897E+03 -0.33568893241E+01  0.55101936457E+03  0.81645969386E+03  0.50400001928E-02 0. -1.
       -1    1    3    3    0  502  0.60247225897E+03  0.33568893241E+01  0.51012377950E+03  0.78943673716E+03  0.50400001928E-02 0.  1.
</event>
<event>
 5   0  0.2025294E-03  0.1171725E+04  0.7818609E-02  0.9137972E-01
        1   -1    0    0  501    0  0.00000000000E+00  0.00000000000E+00  0.84769054634E+03  0.84769054636E+03  0.50400001928E-02 0. -1.
       -1   -1    0    0    0  501  0.00000000000E+00  0.00000000000E+00 -0.40490587909E+03  0.40490587912E+03  0.50400001928E-02 0.  1.
    10030    2    1    2    0    0  0.00000000000E+00  0.00000000000E+00  0.44278466725E+03  0.12525964255E+04  0.11717250290E+04 0.  0.
        5    1    3    3  502    0 -0.52123680466E+02  0.10682064684E+03 -0.39186066586E+03  0.40951727693E+03  0.46999998093E+01 0.  1.
       -5    1    3    3    0  502  0.52123680466E+02 -0.10682064684E+03  0.83464533311E+03  0.84307914856E+03  0.46999998093E+01 0. -1.
</event>
<event>
 5   0  0.3751091E-03  0.1205617E+04  0.7818609E-02  0.9107954E-01
        2   -1    0    0  501    0  0.00000000000E+00  0.00000000000E+00  0.56715663294E+03  0.56715663294E+03  0.25500000920E-02 0.  1.
       -2   -1    0    0    0  501  0.00000000000E+00  0.00000000000E+00 -0.64070185668E+03  0.64070185669E+03  0.25500000920E-02 0. -1.
    10030    2    1    2    0    0  0.00000000000E+00  0.00000000000E+00 -0.73545223746E+02  0.12078584896E+04  0.12056173651E+04 0.  0.
        5    1    3    3  502    0  0.40836609654E+03  0.72005140693E+02 -0.47508858212E+03  0.63061783986E+03  0.46999998093E+01 0. -1.
       -5    1    3    3    0  502 -0.40836609654E+03 -0.72005140693E+02  0.40154335837E+03  0.57724064977E+03  0.46999998093E+01 0.  1.
</event>
<event>
 5   0  0.2078258E-03  0.1226825E+04  0.7818609E-02  0.9089696E-01
       -1   -1    0    0    0  501  0.00000000000E+00  0.00000000000E+00  0.13696348144E+04  0.13696348144E+04  0.50400001928E-02 0.  1.
        1   -1    0    0  501    0  0.00000000000E+00  0.00000000000E+00 -0.27472634844E+03  0.27472634849E+03  0.50400001928E-02 0. -1.
    10030    2    1    2    0    0  0.00000000000E+00  0.00000000000E+00  0.10949084659E+04  0.16443611629E+04  0.12268247981E+04 0.  0.
        3    1    3    3  502    0  0.30530361233E+03 -0.52961291489E+03  0.61546406789E+03  0.86746536783E+03  0.10100000352E+00 0.  1.
       -3    1    3    3    0  502 -0.30530361233E+03  0.52961291489E+03  0.47944439803E+03  0.77689579502E+03  0.10100000352E+00 0. -1.
</event>
<event>
 5   0  0.3706035E-03  0.1201716E+04  0.7818609E-02  0.9111355E-01
        2   -1    0    0  501    0  0.00000000000E+00  0.00000000000E+00  0.18472848346E+04  0.18472848346E+04  0.25500000920E-02 0. -1.
       -2   -1    0    0    0  501  0.00000000000E+00  0.00000000000E+00 -0.19543851110E+03  0.19543851112E+03  0.25500000920E-02 0.  1.
    10030    2    1    2    0    0  0.00000000000E+00  0.00000000000E+00  0.16518463235E+04  0.20427233457E+04  0.12017164352E+04 0.  0.
        2    1    3    3  502    0  0.33990016500E+03  0.49541548889E+03  0.83930433853E+03  0.10321823489E+04  0.25500000920E-02 0. -1.
       -2    1    3    3    0  502 -0.33990016500E+03 -0.49541548889E+03  0.81254198494E+03  0.10105409967E+04  0.25500000920E-02 0.  1.
</event>
<event>
 5   0  0.2134992E-03  0.1130036E+04  0.7818609E-02  0.9176402E-01
       -1   -1    0    0    0  501  0.00000000000E+00  0.00000000000E+00  0.85404859498E+03  0.85404859499E+03  0.50400001928E-02 0. -1.
        1   -1    0    0  501    0  0.00000000000E+00  0.00000000000E+00 -0.37380204653E+03  0.37380204657E+03  0.50400001928E-02 0.  1.
    10030    2    1    2    0    0  0.00000000000E+00  0.00000000000E+00  0.48024654845E+03  0.12278506416E+04  0.11300355971E+04 0.  0.
        4    1    3    3  502    0  0.35847489032E+03 -0.29730085942E+03 -0.10749325634E+03  0.47796282393E+03  0.12699999809E+01 0. -1.
       -4    1    3    3    0  502 -0.35847489032E+03  0.29730085942E+03  0.58773980479E+03  0.74988781763E+03  0.12699999809E+01 0.  1.
</event>
<event>
 5   0  0.2025294E-03  0.1211457E+04  0.7818609E-02  0.9102887E-01
        1   -1    0    0  501    0  0.00000000000E+00  0.00000000000E+00  0.74435146010E+03  0.74435146011E+03  0.50400001928E-02 0.  1.
       -1   -1    0    0    0  501  0.00000000000E+00  0.00000000000E+00 -0.49292168011E+03  0.49292168014E+03  0.50400001928E-02 0. -1.
    10030    2    1    2    0    0  0.00000000000E+00  0.00000000000E+00  0.25142977998E+03  0.12372731403E+04  0.12114569284E+04 0.  0.
        5    1    3    3  502    0 -0.52663183222E+03  0.21639339201E+03 -0.85372123242E+02  0.57574098017E+03  0.46999998093E+01 0. -1.
       -5    1    3    3    0  502  0.52663183222E+03 -0.21639339201E+03  0.33680190322E+03  0.66153216009E+03  0.46999998093E+01 0.  1.
</event>
<event>
 5   0  0.2047109E-03  0.1200077E+04  0.7818609E-02  0.9112789E-01
        1   -1    0    0  501    0  0.00000000000E+00  0.00000000000E+00  0.61259520135E+03  0.61259520137E+03  0.50400001928E-02 0. -1.
       -1   -1    0    0    0  501  0.00000000000E+00  0.00000000000E+00 -0.58773909609E+03  0.58773909611E+03  0.50400001928E-02 0.  1.
    10030    2    1    2    0    0  0.00000000000E+00  0.00000000000E+00  0.24856105261E+02  0.12003342975E+04  0.12000769141E+04 0.  0.
        1    1    3    3  502    0 -0.14167800177E+03  0.17486716909E+03 -0.54392407912E+03  0.58864640225E+03  0.50400001928E-02 0.  1.
       -1    1    3    3    0  502  0.14167800177E+03 -0.17486716909E+03  0.56878018438E+03  0.61168789524E+03  0.50400001928E-02 0. -1.
</event>
<event>
 5   0  0.2096270E-03  0.1210538E+04  0.7818609E-02  0.9103683E-01
       -1   -1    0    0    0  501  0.00000000000E+00  0.00000000000E+00  0.27770121489E+03  0.27770121494E+03  0.50400001928E-02 0.  1.
        1   -1    0    0  501    0  0.00000000000E+00  0.00000000000E+00 -0.13192252077E+04  0.13192252077E+04  0.50400001928E-02 0. -1.
    10030    2    1    2    0    0  0.00000000000E+00  0.00000000000E+00 -0.10415239928E+04  0.15969264227E+04  0.12105378027E+04 0.  0.
        2    1    3    3  502    0  0.23285251712E+03 -0.17569598319E+02  0.21588521498E+03  0.31801794221E+03  0.25500000920E-02 0.  1.
       -2    1    3    3    0  502 -0.23285251712E+03  0.17569598319E+02 -0.12574092078E+04  0.12789084805E+04  0.25500000920E-02 0. -1.
</event>
<event>
 5   0  0.3650180E-03  0.1217944E+04  0.7818609E-02  0.9097294E-01
       -2   -1    0    0    0  501  0.00000000000E+00  0.00000000000E+00  0.47060875681E+03  0.47060875682E+03  0.25500000920E-02 0. -1.
        2   -1    0    0  501    0  0.00000000000E+00  0.00000000000E+00 -0.78801515842E+03  0.78801515842E+03  0.25500000920E-02 0.  1.
    10030    2    1    2    0    0  0.00000000000E+00  0.00000000000E+00 -0.31740640161E+03  0.12586239152E+04  0.12179438970E+04 0.  0.
        3    1    3    3  502    0 -0.57636395476E+02 -0.36696817896E+03  0.33996930052E+03  0.50355410230E+03  0.10100000352E+00 0. -1.
       -3    1    3    3    0  502  0.57636395476E+02  0.36696817896E+03 -0.65737570213E+03  0.75506981293E+03  0.10100000352E+00 0.  1.
</event>
<event>
 5   0  0.3626049E-03  0.1182030E+04  0.7818609E-02  0.9128733E-01
       -2   -1    0    0    0  501  0.00000000000E+00  0.00000000000E+00  0.28391363830E+03  0.28391363831E+03  0.25500000920E-02 0. -1.
        2   -1    0    0  501    0  0.00000000000E+00  0.00000000000E+00 -0.12302983345E+04  0.12302983345E+04  0.25500000920E-02 0.  1.
    10030    2    1    2    0    0  0.00000000000E+00  0.00000000000E+00 -0.94638469621E+03  0.15142119728E+04  0.11820295705E+04 0.  0.
        1    1    3    3  502    0 -0.11959102537E+03  0.14768532653E+01 -0.12146340885E+04  0.12205081579E+04  0.50400001928E-02 0.  1.
       -1    1    3    3    0  502  0.11959102537E+03 -0.14768532653E+01  0.26824939228E+03  0.29370381497E+03  0.50400001928E-02 0. -1.
</event>
<event>
 5   0  0.2096270E-03  0.1191447E+04  0.7818609E-02  0.9120376E-01
        1   -1    0    0  501    0  0.00000000000E+00  0.00000000000E+00  0.82299407174E+03  0.82299407175E+03  0.50400001928E-02 0. -1.
       -1   -1    0    0    0  501  0.00000000000E+00  0.00000000000E+00 -0.43121381687E+03  0.43121381690E+03  0.50400001928E-02 0.  1.
    10030    2    1    2    0    0  0.00000000000E+00  0.00000000000E+00  0.39178025487E+03  0.12542078886E+04  0.11914468766E+04 0.  0.
        2    1    3    3  502    0 -0.23598800343E+01 -0.57837112972E+03  0.34612323484E+03  0.67403265977E+03  0.25500000920E-02 0. -1.
       -2    1    3    3    0  502  0.23598800343E+01  0.57837112972E+03  0.45657020029E+02  0.58017522888E+03  0.25500000920E-02 0.  1.
</event>
<event>
 5   0  0.2134992E-03  0.1206735E+04  0.7818609E-02  0.9106981E-01
       -1   -1    0    0    0  501  0.00000000000E+00  0.00000000000E+00  0.45684105707E+03  0.45684105710E+03  0.50400001928E-02 0. -1.
        1   -1    0    0  501    0  0.00000000000E+00  0.00000000000E+00 -0.79689116463E+03  0.79689116464E+03  0.50400001928E-02 0.  1.
    10030    2    1    2    0    0  0.00000000000E+00  0.00000000000E+00 -0.34005010756E+03  0.12537322217E+04  0.12067354342E+04 0.  0.
        4    1    3    3  502    0  0.95251080387E+01 -0.18111516925E+03  0.42784948278E+03  0.46470444912E+03  0.12699999809E+01 0. -1.
       -4    1    3    3    0  502 -0.95251080387E+01  0.18111516925E+03 -0.76789959034E+03  0.78902777262E+03  0.12699999809E+01 0.  1.
</event>
<event>
 5   0  0.2078258E-03  0.1200184E+04  0.7818609E-02  0.9112696E-01
        1   -1    0    0  501    0  0.00000000000E+00  0.00000000000E+00  0.64019564662E+03  0.64019564664E+03  0.50400001928E-02 0.  1.
       -1   -1    0    0    0  501  0.00000000000E+00  0.00000000000E+00 -0.56250052044E+03  0.56250052046E+03  0.50400001928E-02 0. -1.
    10030    2    1    2    0    0  0.00000000000E+00  0.00000000000E+00  0.77695126179E+02  0.12026961671E+04  0.12001839600E+04 0.  0.
        3    1    3    3  502    0 -0.43685502593E+03  0.39787431478E+03 -0.66081164910E+02  0.59456960451E+03  0.10100000352E+00 0. -1.
       -3    1    3    3    0  502  0.43685502593E+03 -0.39787431478E+03  0.14377629109E+03  0.60812656259E+03  0.10100000352E+00 0.  1.
</event>
<event>
 5   0  0.2134992E-03  0.1191879E+04  0.7818609E-02  0.9119995E-01
        1   -1    0    0  501    0  0.00000000000E+00  0.00000000000E+00  0.47084658328E+03  0.47084658331E+03  0.50400001928E-02 0.  1.
       -1   -1    0    0    0  501  0.00000000000E+00  0.00000000000E+00 -0.75426664935E+03  0.75426664937E+03  0.50400001928E-02 0. -1.
    10030    2    1    2    0    0  0.00000000000E+00  0.00000000000E+00 -0.28342006607E+03  0.12251132327E+04  0.11918789783E+04 0.  0.
        4    1    3    3  502    0  0.42422291843E+03 -0.31871627254E+03 -0.42056248384E+03  0.67706688194E+03  0.12699999809E+01 0. -1.
       -4    1    3    3    0  502 -0.42422291843E+03  0.31871627254E+03  0.13714241778E+03  0.54804635074E+03  0.12699999809E+01 0.  1.
</event>
<event>
 5   0  0.3706035E-03  0.1081457E+04  0.7818609E-02  0.9223456E-01
        2   -1    0    0  501    0  0.00000000000E+00  0.00000000000E+00  0.81038638959E+03  0.81038638959E+03  0.25500000920E-02 0. -1.
       -2   -1    0    0    0  501  0.00000000000E+00  0.00000000000E+00 -0.36080006483E+03  0.36080006484E+03  0.25500000920E-02 0.  1.
    10030    2    1    2    0    0  0.00000000000E+00  0.00000000000E+00  0.44958632475E+03  0.11711864544E+04  0.10814572796E+04 0.  0.
        2    1    3    3  502    0 -0.32046421845E+03  0.12514631155E+03 -0.22698675323E+03  0.41216732130E+03  0.25500000920E-02 0.  1.
       -2    1    3    3    0  502  0.32046421845E+03 -0.12514631155E+03  0.67657307798E+03  0.75901913313E+03  0.25500000920E-02 0. -1.
</event>
<event>
 5   0  0.3626049E-03  0.1191632E+04  0.7818609E-02  0.9120213E-01
        2   -1    0    0  501    0  0.00000000000E+00  0.00000000000E+00  0.89367503602E+03  0.89367503602E+03  0.25500000920E-02 0.  1.
       -2   -1    0    0    0  501  0.00000000000E+00  0.00000000000E+00 -0.39723241430E+03  0.39723241431E+03  0.25500000920E-02 0. -1.
    10030    2    1    2    0    0  0.00000000000E+00  0.00000000000E+00  0.49644262171E+03  0.12909074503E+04  0.11916319770E+04 0.  0.
        1    1    3    3  502    0  0.40252848744E+03 -0.42989454538E+03  0.15037378827E+03  0.60782462896E+03  0.50400001928E-02 0. -1.
       -1    1    3    3    0  502 -0.40252848744E+03  0.42989454538E+03  0.34606883344E+03  0.68308282137E+03  0.50400001928E-02 0.  1.
</event>
<event>
 5   0  0.2047109E-03  0.1194507E+04  0.7818609E-02  0.9117678E-01
       -1   -1    0    0    0  501  0.00000000000E+00  0.00000000000E+00  0.57404412188E+03  0.57404412190E+03  0.50400001928E-02 0. -1.
        1   -1    0    0  501    0  0.00000000000E+00  0.00000000000E+00 -0.62140138688E+03  0.62140138690E+03  0.50400001928E-02 0.  1.
    10030    2    1    2    0    0  0.00000000000E+00  0.00000000000E+00 -0.47357265005E+02  0.11954455088E+04  0.11945071176E+04 0.  0.
        1    1    3    3  502    0  0.33305286225E+03 -0.12020055553E+03 -0.50503406136E+03  0.61679152536E+03  0.50400001928E-02 0.  1.
       -1    1    3    3    0  502 -0.33305286225E+03  0.12020055553E+03  0.45767679635E+03  0.57865398344E+03  0.50400001928E-02 0. -1.
</event>
<event>
 5   0  0.3706035E-03  0.1200589E+04  0.7818609E-02  0.9112341E-01
       -2   -1    0    0    0  501  0.00000000000E+00  0.00000000000E+00  0.31306416877E+03  0.31306416878E+03  0.25500000920E-02 0. -1.
        2   -1    0    0  501    0  0.00000000000E+00  0.00000000000E+00 -0.11510539797E+04  0.11510539797E+04  0.25500000920E-02 0.  1.
    10030    2    1    2    0    0  0.00000000000E+00  0.00000000000E+00 -0.83798981092E+03  0.14641181485E+04  0.12005894508E+04 0.  0.
        2    1    3    3  502    0 -0.37064214484E+03 -0.46856869308E+03 -0.34766161371E+03  0.69123137756E+03  0.25500000920E-02 0. -1.
       -2    1    3    3    0  502  0.37064214484E+03  0.46856869308E+03 -0.49032819720E+03  0.77288677091E+03  0.25500000920E-02 0.  1.
</event>
<event>
 5   0  0.2078258E-03  0.1178750E+04  0.7818609E-02  0.9131662E-01
       -1   -1    0    0    0  501  0.00000000000E+00  0.00000000000E+00  0.44916332770E+03  0.44916332773E+03  0.50400001928E-02 0.  1.
        1   -1    0    0  501    0  0.00000000000E+00  0.00000000000E+00 -0.77335593999E+03  0.77335594000E+03  0.50400001928E-02 0. -1.
    10030    2    1    2    0    0  0.00000000000E+00  0.00000000000E+00 -0.32419261229E+03  0.12225192677E+04  0.11787504020E+04 0.  0.
        3    1    3    3  502    0 -0.15757238814E+03 -0.29731354773E+03 -0.66394231348E+03  0.74434119125E+03  0.10100000352E+00 0. -1.
       -3    1    3    3    0  502  0.15757238814E+03  0.29731354773E+03  0.33974970119E+03  0.47817807648E+03  0.10100000352E+00 0.  1.
</event>
<event>
 5   0  0.3626049E-03  0.1046059E+04  0.7818609E-02  0.9259423E-01
       -2   -1    0    0    0  501  0.00000000000E+00  0.00000000000E+00  0.51283035843E+03  0.51283035844E+03  0.25500000920E-02 0.  1.
        2   -1    0    0  501    0  0.00000000000E+00  0.00000000000E+00 -0.53343131713E+03  0.53343131714E+03  0.25500000920E-02 0. -1.
    10030    2    1    2    0    0  0.00000000000E+00  0.00000000000E+00 -0.20600958701E+02  0.10462616756E+04  0.10460588388E+04 0.  0.
        1    1    3    3  502    0 -0.32080384258E+03  0.37922169036E+03  0.15354696752E+03  0.51990467118E+03  0.50400001928E-02 0. -1.
       -1    1    3    3    0  502  0.32080384258E+03 -0.37922169036E+03 -0.17414792622E+03  0.52635700440E+03  0.50400001928E-02 0.  1.
</event>
<event>
 5   0  0.2078258E-03  0.1165998E+04  0.7818609E-02  0.9143150E-01
       -1   -1    0    0    0  501  0.00000000000E+00  0.00000000000E+00  0.48310429546E+03  0.48310429548E+03  0.50400001928E-02 0.  1.
        1   -1    0    0  501    0  0.00000000000E+00  0.00000000000E+00 -0.70354989785E+03  0.70354989786E+03  0.50400001928E-02 0. -1.
    10030    2    1    2    0    0  0.00000000000E+00  0.00000000000E+00 -0.22044560239E+03  0.11866541933E+04  0.11659982466E+04 0.  0.
        3    1    3    3  502    0 -0.26031943588E+03 -0.14985403973E+03 -0.61873991102E+03  0.68779468566E+03  0.10100000352E+00 0. -1.
       -3    1    3    3    0  502  0.26031943588E+03  0.14985403973E+03  0.39829430863E+03  0.49885950769E+03  0.10100000352E+00 0.  1.
</event>
<event>
 5   0  0.3751091E-03  0.9314254E+03  0.7818609E-02  0.9387129E-01
        2   -1    0    0  501    0  0.00000000000E+00  0.00000000000E+00  0.45686510342E+03  0.45686510342E+03  0.25500000920E-02 0. -1.
       -2   -1    0    0    0  501  0.00000000000E+00  0.00000000000E+00 -0.47473163509E+03  0.47473163510E+03  0.25500000920E-02 0.  1.
    10030    2    1    2    0    0  0.00000000000E+00  0.00000000000E+00 -0.17866531676E+02  0.93159673852E+03  0.93142539705E+03 0.  0.
        5    1    3    3  502    0 -0.26141406825E+03  0.35005115263E+03  0.15232015925E+03  0.46270578713E+03  0.46999998093E+01 0. -1.
       -5    1    3    3    0  502  0.26141406825E+03 -0.35005115263E+03 -0.17018669092E+03  0.46889095139E+03  0.46999998093E+01 0.  1.
</event>
<event>
 5   0  0.3626049E-03  0.1079063E+04  0.7818609E-02  0.9225843E-01
       -2   -1    0    0    0  501  0.00000000000E+00  0.00000000000E+00  0.39031608391E+03  0.39031608392E+03  0.25500000920E-02 0. -1.
        2   -1    0    0  501    0  0.00000000000E+00  0.00000000000E+00 -0.74579038912E+03  0.74579038913E+03  0.25500000920E-02 0.  1.
    10030    2    1    2    0    0  0.00000000000E+00  0.00000000000E+00 -0.35547430521E+03  0.11361064730E+04  0.10790625267E+04 0.  0.
        1    1    3    3  502    0  0.27391311530E+03 -0.19855184531E+03 -0.62024434821E+03  0.70650851483E+03  0.50400001928E-02 0.  1.
       -1    1    3    3    0  502 -0.27391311530E+03  0.19855184531E+03  0.26477004300E+03  0.42959795822E+03  0.50400001928E-02 0. -1.
</event>
<event>
 5   0  0.2096270E-03  0.1203857E+04  0.7818609E-02  0.9109488E-01
        1   -1    0    0  501    0  0.00000000000E+00  0.00000000000E+00  0.63860048808E+03  0.63860048810E+03  0.50400001928E-02 0. -1.
       -1   -1    0    0    0  501  0.00000000000E+00  0.00000000000E+00 -0.56736205204E+03  0.56736205206E+03  0.50400001928E-02 0.  1.
    10030    2    1    2    0    0  0.00000000000E+00  0.00000000000E+00  0.71238436050E+02  0.12059625402E+04  0.12038566084E+04 0.  0.
        2    1    3    3  502    0  0.25267772065E+03 -0.41203602758E+03 -0.32375332795E+03  0.58175246962E+03  0.25500000920E-02 0.  1.
       -2    1    3    3    0  502 -0.25267772065E+03  0.41203602758E+03  0.39499176400E+03  0.62421007055E+03  0.25500000920E-02 0. -1.
</event>
<event>
 5   0  0.3706035E-03  0.1193280E+04  0.7818609E-02  0.9118759E-01
        2   -1    0    0  501    0  0.00000000000E+00  0.00000000000E+00  0.18966235195E+04  0.18966235195E+04  0.25500000920E-02 0. -1.
       -2   -1    0    0    0  501  0.00000000000E+00  0.00000000000E+00 -0.18769104673E+03  0.18769104675E+03  0.25500000920E-02 0.  1.
    10030    2    1    2    0    0  0.00000000000E+00  0.00000000000E+00  0.17089324727E+04  0.20843145662E+04  0.11932799397E+04 0.  0.
        2    1    3    3  502    0 -0.50612720967E+03  0.31520466491E+03  0.81698228185E+03  0.10114241356E+04  0.25500000920E-02 0.  1.
       -2    1    3    3    0  502  0.50612720967E+03 -0.31520466491E+03  0.89195019090E+03  0.10728904307E+04  0.25500000920E-02 0. -1.
</event>
<event>
 5   0  0.3626049E-03  0.1199858E+04  0.7818609E-02  0.9112981E-01
       -2   -1    0    0    0  501  0.00000000000E+00  0.00000000000E+00  0.23076583615E+03  0.23076583616E+03  0.25500000920E-02 0.  1.
        2   -1    0    0  501    0  0.00000000000E+00  0.00000000000E+00 -0.15596530037E+04  0.15596530037E+04  0.25500000920E-02 0. -1.
    10030    2    1    2    0    0  0.00000000000E+00  0.00000000000E+00 -0.13288871676E+04  0.17904188399E+04  0.11998577074E+04 0.  0.
        1    1    3    3  502    0 -0.22394315027E+03  0.40371735104E+03 -0.92763579002E+02  0.47089628975E+03  0.50400001928E-02 0.  1.
       -1    1    3    3    0  502  0.22394315027E+03 -0.40371735104E+03 -0.12361235886E+04  0.13195225501E+04  0.50400001928E-02 0. -1.
</event>
<event>
 5   0  0.2096270E-03  0.1137283E+04  0.7818609E-02  0.9169597E-01
        1   -1    0    0  501    0  0.00000000000E+00  0.00000000000E+00  0.11035407803E+04  0.11035407803E+04  0.50400001928E-02 0.  1.
       -1   -1    0    0    0  501  0.00000000000E+00  0.00000000000E+00 -0.29301412094E+03  0.29301412099E+03  0.50400001928E-02 0. -1.
    10030    2    1    2    0    0  0.00000000000E+00  0.00000000000E+00  0.81052665931E+03  0.13965549012E+04  0.11372827822E+04 0.  0.
        2    1    3    3  502    0  0.56812103786E+03 -0.20160469629E+01  0.37550035554E+03  0.68100374090E+03  0.25500000920E-02 0. -1.
       -2    1    3    3    0  502 -0.56812103786E+03  0.20160469629E+01  0.43502630377E+03  0.71555116035E+03  0.25500000920E-02 0.  1.
</event>
<event>
 5   0  0.2134992E-03  0.1179602E+04  0.7818609E-02  0.9130901E-01
       -1   -1    0    0    0  501  0.00000000000E+00  0.00000000000E+00  0.35855083550E+03  0.35855083553E+03  0.50400001928E-02 0.  1.
        1   -1    0    0  501    0  0.00000000000E+00  0.00000000000E+00 -0.97019732945E+03  0.97019732947E+03  0.50400001928E-02 0. -1.
    10030    2    1    2    0    0  0.00000000000E+00  0.00000000000E+00 -0.61164649396E+03  0.13287481650E+04  0.11796017347E+04 0.  0.
        4    1    3    3  502    0 -0.14381371369E+03 -0.55908744901E+03 -0.16970455581E+03  0.60171621970E+03  0.12699999809E+01 0.  1.
       -4    1    3    3    0  502  0.14381371369E+03  0.55908744901E+03 -0.44194193814E+03  0.72703194530E+03  0.12699999809E+01 0. -1.
</event>
<event>
 5   0  0.3751091E-03  0.1237533E+04  0.7818609E-02  0.9080624E-01
       -2   -1    0    0    0  501  0.00000000000E+00  0.00000000000E+00  0.10443335925E+04  0.10443335925E+04  0.25500000920E-02 0. -1.
        2   -1    0    0  501    0  0.00000000000E+00  0.00000000000E+00 -0.36661847598E+03  0.36661847599E+03  0.25500000920E-02 0.  1.
    10030    2    1    2    0    0  0.00000000000E+00  0.00000000000E+00  0.67771511651E+03  0.14109520685E+04  0.12375330139E+04 0.  0.
        5    1    3    3  502    0 -0.15503662380E+03  0.25578840012E+03  0.95641170388E+03  0.10021025385E+04  0.46999998093E+01 0. -1.
       -5    1    3    3    0  502  0.15503662380E+03 -0.25578840012E+03 -0.27869658737E+03  0.40884952998E+03  0.46999998093E+01 0.  1.
</event>
<event>
 5   0  0.2078258E-03  0.1240356E+04  0.7818609E-02  0.9078248E-01
       -1   -1    0    0    0  501  0.00000000000E+00  0.00000000000E+00  0.55287289230E+03  0.55287289232E+03  0.50400001928E-02 0. -1.
        1   -1    0    0  501    0  0.00000000000E+00  0.00000000000E+00 -0.69567645585E+03  0.69567645587E+03  0.50400001928E-02 0.  1.
    10030    2    1    2    0    0  0.00000000000E+00  0.00000000000E+00 -0.14280356356E+03  0.12485493482E+04  0.12403558429E+04 0.  0.
        3    1    3    3  502    0 -0.59905406771E+02  0.59902309760E+03 -0.22139386057E+03  0.64143010603E+03  0.10100000352E+00 0. -1.
       -3    1    3    3    0  502  0.59905406771E+02 -0.59902309760E+03  0.78590297012E+02  0.60711924216E+03  0.10100000352E+00 0.  1.
</event>
<event>
 5   0  0.2078258E-03  0.1211621E+04  0.7818609E-02  0.9102745E-01
       -1   -1    0    0    0  501  0.00000000000E+00  0.00000000000E+00  0.84837933846E+03  0.84837933847E+03  0.50400001928E-02 0.  1.
        1   -1    0    0  501    0  0.00000000000E+00  0.00000000000E+00 -0.43259717892E+03  0.43259717895E+03  0.50400001928E-02 0. -1.
    10030    2    1    2    0    0  0.00000000000E+00  0.00000000000E+00  0.41578215954E+03  0.12809765174E+04  0.12116212420E+04 0.  0.
        3    1    3    3  502    0  0.18463840765E+03 -0.13562336628E+03  0.80081562708E+03  0.83294100501E+03  0.10100000352E+00 0.  1.
       -3    1    3    3    0  502 -0.18463840765E+03  0.13562336628E+03 -0.38503346754E+03  0.44803551242E+03  0.10100000352E+00 0. -1.
</event>
<event>
 5   0  0.3650180E-03  0.1173596E+04  0.7818609E-02  0.9136287E-01
        2   -1    0    0  501    0  0.00000000000E+00  0.00000000000E+00  0.78493249109E+03  0.78493249109E+03  0.25500000920E-02 0.  1.
       -2   -1    0    0    0  501  0.00000000000E+00  0.00000000000E+00 -0.43867728015E+03  0.43867728016E+03  0.25500000920E-02 0. -1.
    10030    2    1    2    0    0  0.00000000000E+00  0.00000000000E+00  0.34625521094E+03  0.12236097713E+04  0.11735962684E+04 0.  0.
        3    1    3    3  502    0  0.30308393911E+03 -0.27605806695E+03  0.61085745436E+03  0.73567300496E+03  0.10100000352E+00 0.  1.
       -3    1    3    3    0  502 -0.30308393911E+03  0.27605806695E+03 -0.26460224342E+03  0.48793676629E+03  0.10100000352E+00 0. -1.
</event>
<event>
 5   0  0.3751091E-03  0.1207930E+04  0.7818609E-02  0.9105944E-01
        2   -1    0    0  501    0  0.00000000000E+00  0.00000000000E+00  0.63895892207E+03  0.63895892208E+03  0.25500000920E-02 0. -1.
       -2   -1    0    0    0  501  0.00000000000E+00  0.00000000000E+00 -0.57088734315E+03  0.57088734316E+03  0.25500000920E-02 0.  1.
    10030    2    1    2    0    0  0.00000000000E+00  0.00000000000E+00  0.68071578917E+02  0.12098462652E+04  0.12079297354E+04 0.  0.
        5    1    3    3  502    0  0.36577395078E+03  0.10287286959E+03  0.50422503848E+03  0.63137816702E+03  0.46999998093E+01 0. -1.
       -5    1    3    3    0  502 -0.36577395078E+03 -0.10287286959E+03 -0.43615345956E+03  0.57846809821E+03  0.46999998093E+01 0.  1.
</event>
<event>
 5   0  0.2025294E-03  0.1187574E+04  0.7818609E-02  0.9123803E-01
        1   -1    0    0  501    0  0.00000000000E+00  0.00000000000E+00  0.39716770849E+03  0.39716770852E+03  0.50400001928E-02 0. -1.
       -1   -1    0    0    0  501  0.00000000000E+00  0.00000000000E+00 -0.88774285748E+03  0.88774285750E+03  0.50400001928E-02 0.  1.
    10030    2    1    2    0    0  0.00000000000E+00  0.00000000000E+00 -0.49057514900E+03  0.12849105660E+04  0.11875736549E+04 0.  0.
        5    1    3    3  502    0  0.15072522252E+03 -0.30266793527E+03 -0.77338601716E+03  0.84408174562E+03  0.46999998093E+01 0.  1.
       -5    1    3    3    0  502 -0.15072522252E+03  0.30266793527E+03  0.28281086817E+03  0.44082882040E+03  0.46999998093E+01 0. -1.
</event>
<event>
 5   0  0.2096270E-03  0.1196285E+04  0.7818609E-02  0.9116114E-01
       -1   -1    0    0    0  501  0.00000000000E+00  0.00000000000E+00  0.81553736112E+03  0.81553736114E+03  0.50400001928E-02 0. -1.
        1   -1    0    0  501    0  0.00000000000E+00  0.00000000000E+00 -0.43869800605E+03  0.43869800608E+03  0.50400001928E-02 0.  1.
    10030    2    1    2    0    0  0.00000000000E+00  0.00000000000E+00  0.37683935507E+03  0.12542353672E+04  0.11962852740E+04 0.  0.
        2    1    3    3  502    0  0.67723162025E+02 -0.37571019154E+03 -0.29435333360E+03  0.48206686228E+03  0.25500000920E-02 0.  1.
       -2    1    3    3    0  502 -0.67723162025E+02  0.37571019154E+03  0.67119268867E+03  0.77216850495E+03  0.25500000920E-02 0. -1.
</event>
<event>
 5   0  0.3725376E-03  0.1195513E+04  0.7818609E-02  0.9116793E-01
       -2   -1    0    0    0  501  0.00000000000E+00  0.00000000000E+00  0.30080105309E+03  0.30080105310E+03  0.25500000920E-02 0. -1.
        2   -1    0    0  501    0  0.00000000000E+00  0.00000000000E+00 -0.11878714890E+04  0.11878714890E+04  0.25500000920E-02 0.  1.
    10030    2    1    2    0    0  0.00000000000E+00  0.00000000000E+00 -0.88707043593E+03  0.14886725421E+04  0.11955132703E+04 0.  0.
        4    1    3    3  502    0  0.22507456408E+03 -0.17214785007E+03  0.21185314349E+03  0.35380334790E+03  0.12699999809E+01 0. -1.
       -4    1    3    3    0  502 -0.22507456408E+03  0.17214785007E+03 -0.10989235794E+04  0.11348691942E+04  0.12699999809E+01 0.  1.
</event>
<event>
 5   0  0.3751091E-03  0.1195717E+04  0.7818609E-02  0.9116613E-01
        2   -1    0    0  501    0  0.00000000000E+00  0.00000000000E+00  0.30041478428E+03  0.30041478429E+03  0.25500000920E-02 0. -1.
       -2   -1    0    0    0  501  0.00000000000E+00  0.00000000000E+00 -0.11898050236E+04  0.11898050237E+04  0.25500000920E-02 0.  1.
    10030    2    1    2    0    0  0.00000000000E+00  0.00000000000E+00 -0.88939023937E+03  0.14902198079E+04  0.11957173906E+04 0.  0.
        5    1    3    3  502    0  0.15423310387E+03  0.93230151078E+02  0.26573087161E+03  0.32111477313E+03  0.46999998093E+01 0. -1.
       -5    1    3    3    0  502 -0.15423310387E+03 -0.93230151078E+02 -0.11551211110E+04  0.11691050348E+04  0.46999998093E+01 0.  1.
</event>
<event>
 5   0  0.2047109E-03  0.1165909E+04  0.7818609E-02  0.9143231E-01
       -1   -1    0    0    0  501  0.00000000000E+00  0.00000000000E+00  0.47125450596E+03  0.47125450599E+03  0.50400001928E-02 0. -1.
        1   -1    0    0  501    0  0.00000000000E+00  0.00000000000E+00 -0.72113091408E+03  0.72113091410E+03  0.50400001928E-02 0.  1.
    10030    2    1    2    0    0  0.00000000000E+00  0.00000000000E+00 -0.24987640812E+03  0.11923854201E+04  0.11659094179E+04 0.  0.
        1    1    3    3  502    0 -0.11459132781E+03 -0.30229941581E+03 -0.62105204502E+03  0.70015837627E+03  0.50400001928E-02 0.  1.
       -1    1    3    3    0  502  0.11459132781E+03  0.30229941581E+03  0.37117563690E+03  0.49222704382E+03  0.50400001928E-02 0. -1.
</event>
<event>
 5   0  0.3706035E-03  0.1182608E+04  0.7818609E-02  0.9128217E-01
        2   -1    0    0  501    0  0.00000000000E+00  0.00000000000E+00  0.58444679099E+03  0.58444679100E+03  0.25500000920E-02 0. -1.
       -2   -1    0    0    0  501  0.00000000000E+00  0.00000000000E+00 -0.59824165054E+03  0.59824165055E+03  0.25500000920E-02 0.  1.
    10030    2    1    2    0    0  0.00000000000E+00  0.00000000000E+00 -0.13794859552E+02  0.11826884415E+04  0.11826079873E+04 0.  0.
        2    1    3    3  502    0  0.57092414892E+03  0.14642870250E+03  0.40483680234E+02  0.59079156824E+03  0.25500000920E-02 0. -1.
       -2    1    3    3    0  502 -0.57092414892E+03 -0.14642870250E+03 -0.54278539786E+02  0.59189687330E+03  0.25500000920E-02 0.  1.
</event>
<event>
 5   0  0.2096270E-03  0.1194252E+04  0.7818609E-02  0.9117903E-01
       -1   -1    0    0    0  501  0.00000000000E+00  0.00000000000E+00  0.52062347575E+03  0.52062347578E+03  0.50400001928E-02 0. -1.
        1   -1    0    0  501    0  0.00000000000E+00  0.00000000000E+00 -0.68486971272E+03  0.68486971273E+03  0.50400001928E-02 0.  1.
    10030    2    1    2    0    0  0.00000000000E+00  0.00000000000E+00 -0.16424623696E+03  0.12054931885E+04  0.11942516490E+04 0.  0.
        2    1    3    3  502    0 -0.53364803800E+03 -0.13407145781E+03 -0.31626313921E+03  0.63464774284E+03  0.25500000920E-02 0.  1.
       -2    1    3    3    0  502  0.53364803800E+03  0.13407145781E+03  0.15201690224E+03  0.57084544567E+03  0.25500000920E-02 0. -1.
</event>
<event>
 5   0  0.3626049E-03  0.1188198E+04  0.7818609E-02  0.9123250E-01
        2   -1    0    0  501    0  0.00000000000E+00  0.00000000000E+00  0.13291355985E+04  0.13291355985E+04  0.25500000920E-02 0.  1.
       -2   -1    0    0    0  501  0.00000000000E+00  0.00000000000E+00 -0.26555124625E+03  0.26555124626E+03  0.25500000920E-02 0. -1.
    10030    2    1    2    0    0  0.00000000000E+00  0.00000000000E+00  0.10635843522E+04  0.15946868448E+04  0.11881979879E+04 0.  0.
        1    1    3    3  502    0  0.25579186877E+03  0.10351317103E+03 -0.17432508177E+03  0.32639499209E+03  0.50400001928E-02 0. -1.
       -1    1    3    3    0  502 -0.25579186877E+03 -0.10351317103E+03  0.12379094340E+04  0.12682918527E+04  0.50400001928E-02 0.  1.
</event>
<event>
 5   0  0.2078258E-03  0.1189431E+04  0.7818609E-02  0.9122158E-01
       -1   -1    0    0    0  501  0.00000000000E+00  0.00000000000E+00  0.29327774153E+03  0.29327774157E+03  0.50400001928E-02 0.  1.
        1   -1    0    0  501    0  0.00000000000E+00  0.00000000000E+00 -0.12059788354E+04  0.12059788355E+04  0.50400001928E-02 0. -1.
    10030    2    1    2    0    0  0.00000000000E+00  0.00000000000E+00 -0.91270109391E+03  0.14992565770E+04  0.11894313755E+04 0.  0.
        3    1    3    3  502    0 -0.19899523466E+03  0.33704689571E+03  0.10803997107E+03  0.40604477447E+03  0.10100000352E+00 0.  1.
       -3    1    3    3    0  502  0.19899523466E+03 -0.33704689571E+03 -0.10207410650E+04  0.10932118026E+04  0.10100000352E+00 0. -1.
</event>
<event>
 5   0  0.2078258E-03  0.1208639E+04  0.7818609E-02  0.9105328E-01
       -1   -1    0    0    0  501  0.00000000000E+00  0.00000000000E+00  0.66146908453E+03  0.66146908455E+03  0.50400001928E-02 0. -1.
        1   -1    0    0  501    0  0.00000000000E+00  0.00000000000E+00 -0.55210753582E+03  0.55210753584E+03  0.50400001928E-02 0.  1.
    10030    2    1    2    0    0  0.00000000000E+00  0.00000000000E+00  0.10936154872E+03  0.12135766204E+04  0.12086390136E+04 0.  0.
        3    1    3    3  502    0  0.55464333245E+03 -0.18691246926E+03 -0.96388378809E+02  0.59317470206E+03  0.10100000352E+00 0.  1.
       -3    1    3    3    0  502 -0.55464333245E+03  0.18691246926E+03  0.20574992753E+03  0.62040191833E+03  0.10100000352E+00 0. -1.
</event>
<event>
 5   0  0.3725376E-03  0.1190168E+04  0.7818609E-02  0.9121507E-01
       -2   -1    0    0    0  501  0.00000000000E+00  0.00000000000E+00  0.84820836214E+03  0.84820836214E+03  0.25500000920E-02 0. -1.
        2   -1    0    0  501    0  0.00000000000E+00  0.00000000000E+00 -0.41749734369E+03  0.41749734370E+03  0.25500000920E-02 0.  1.
    10030    2    1    2    0    0  0.00000000000E+00  0.00000000000E+00  0.43071101845E+03  0.12657057058E+04  0.11901676152E+04 0.  0.
        4    1    3    3  502    0  0.26317614496E+03  0.53179591908E+03  0.16715161108E+03  0.61644939517E+03  0.12699999809E+01 0.  1.
       -4    1    3    3    0  502 -0.26317614496E+03 -0.53179591908E+03  0.26355940736E+03  0.64925631066E+03  0.12699999809E+01 0. -1.
</event>
<event>
 5   0  0.3626049E-03  0.1221685E+04  0.7818609E-02  0.9094085E-01
        2   -1    0    0  501    0  0.00000000000E+00  0.00000000000E+00  0.65482456676E+03  0.65482456676E+03  0.25500000920E-02 0.  1.
       -2   -1    0    0    0  501  0.00000000000E+00  0.00000000000E+00 -0.56981412753E+03  0.56981412754E+03  0.25500000920E-02 0. -1.
    10030    2    1    2    0    0  0.00000000000E+00  0.00000000000E+00  0.85010439228E+02  0.12246386943E+04  0.12216845570E+04 0.  0.
        1    1    3    3  502    0 -0.38514103061E+03  0.20460196828E+03 -0.38623534725E+03  0.58255757000E+03  0.50400001928E-02 0. -1.
       -1    1    3    3    0  502  0.38514103061E+03 -0.20460196828E+03  0.47124578647E+03  0.64208112430E+03  0.50400001928E-02 0.  1.
</event>
<event>
 5   0  0.1397500E-03  0.1177026E+04  0.7818609E-02  0.9133206E-01
       -4   -1    0    0    0  501  0.00000000000E+00  0.00000000000E+00  0.36555246403E+03  0.36555467014E+03  0.12699999809E+01 0. -1.
        4   -1    0    0  501    0  0.00000000000E+00  0.00000000000E+00 -0.94745849251E+03  0.94745934368E+03  0.12699999809E+01 0.  1.
    10030    2    1    2    0    0  0.00000000000E+00  0.00000000000E+00 -0.58190602848E+03  0.13130140138E+04  0.11770264120E+04 0.  0.
        1    1    3    3  502    0  0.14971769316E+03  0.48217368693E+03  0.46375845071E+02  0.50700845263E+03  0.50400001928E-02 0. -1.
       -1    1    3    3    0  502 -0.14971769316E+03 -0.48217368693E+03 -0.62828187355E+03  0.80600556119E+03  0.50400001928E-02 0.  1.
</event>
<event>
 5   0  0.2134992E-03  0.1208997E+04  0.7818609E-02  0.9105018E-01
        1   -1    0    0  501    0  0.00000000000E+00  0.00000000000E+00  0.24625060135E+03  0.24625060140E+03  0.50400001928E-02 0.  1.
       -1   -1    0    0    0  501  0.00000000000E+00  0.00000000000E+00 -0.14839288665E+04  0.14839288665E+04  0.50400001928E-02 0. -1.
    10030    2    1    2    0    0  0.00000000000E+00  0.00000000000E+00 -0.12376782651E+04  0.17301794679E+04  0.12089968996E+04 0.  0.
        4    1    3    3  502    0 -0.33916017793E+03  0.47156662310E+03 -0.37932096294E+03  0.69375118893E+03  0.12699999809E+01 0.  1.
       -4    1    3    3    0  502  0.33916017793E+03 -0.47156662310E+03 -0.85835730221E+03  0.10364282790E+04  0.12699999809E+01 0. -1.
</event>
<event>
 5   0  0.2025294E-03  0.1208087E+04  0.7818609E-02  0.9105808E-01
        1   -1    0    0  501    0  0.00000000000E+00  0.00000000000E+00  0.10109025350E+04  0.10109025350E+04  0.50400001928E-02 0.  1.
       -1   -1    0    0    0  501  0.00000000000E+00  0.00000000000E+00 -0.36093318510E+03  0.36093318514E+03  0.50400001928E-02 0. -1.
    10030    2    1    2    0    0  0.00000000000E+00  0.00000000000E+00  0.64996934990E+03  0.13718357202E+04  0.12080865397E+04 0.  0.
        5    1    3    3  502    0 -0.53774152613E+02  0.51457010766E+02 -0.35568549494E+03  0.36341951620E+03  0.46999998093E+01 0. -1.
       -5    1    3    3    0  502  0.53774152613E+02 -0.51457010766E+02  0.10056548448E+04  0.10084162040E+04  0.46999998093E+01 0.  1.
</event>
<event>
 5   0  0.3706035E-03  0.1146819E+04  0.7818609E-02  0.9160723E-01
        2   -1    0    0  501    0  0.00000000000E+00  0.00000000000E+00  0.38103638531E+03  0.38103638532E+03  0.25500000920E-02 0. -1.
       -2   -1    0    0    0  501  0.00000000000E+00  0.00000000000E+00 -0.86290621713E+03  0.86290621713E+03  0.25500000920E-02 0.  1.
    10030    2    1    2    0    0  0.00000000000E+00  0.00000000000E+00 -0.48186983181E+03  0.12439426025E+04  0.11468193682E+04 0.  0.
        2    1    3    3  502    0  0.14488887459E+03 -0.23123877846E+03  0.30609108144E+03  0.41006817578E+03  0.25500000920E-02 0. -1.
       -2    1    3    3    0  502 -0.14488887459E+03  0.23123877846E+03 -0.78796091326E+03  0.83387442668E+03  0.25500000920E-02 0.  1.
</event>
<event>
 5   0  0.2134992E-03  0.1197220E+04  0.7818609E-02  0.9115294E-01
        1   -1    0    0  501    0  0.00000000000E+00  0.00000000000E+00  0.94078194304E+03  0.94078194305E+03  0.50400001928E-02 0.  1.
       -1   -1    0    0    0  501  0.00000000000E+00  0.00000000000E+00 -0.38088919336E+03  0.38088919339E+03  0.50400001928E-02 0. -1.
    10030    2    1    2    0    0  0.00000000000E+00  0.00000000000E+00  0.55989274968E+03  0.13216711364E+04  0.11972195712E+04 0.  0.
        4    1    3    3  502    0 -0.29826811804E+03 -0.50373527815E+03  0.41791352066E+03  0.71928188100E+03  0.12699999809E+01 0.  1.
       -4    1    3    3    0  502  0.29826811804E+03  0.50373527815E+03  0.14197922902E+03  0.60238925543E+03  0.12699999809E+01 0. -1.
</event>
<event>
 5   0  0.3751091E-03  0.1164364E+04  0.7818609E-02  0.9144634E-01
       -2   -1    0    0    0  501  0.00000000000E+00  0.00000000000E+00  0.55068886661E+03  0.55068886662E+03  0.25500000920E-02 0.  1.
        2   -1    0    0  501    0  0.00000000000E+00  0.00000000000E+00 -0.61547576297E+03  0.61547576298E+03  0.25500000920E-02 0. -1.
    10030    2    1    2    0    0  0.00000000000E+00  0.00000000000E+00 -0.64786896359E+02  0.11661646296E+04  0.11643636036E+04 0.  0.
        5    1    3    3  502    0  0.19330930889E+03 -0.49455334647E+03 -0.27142987201E+03  0.59636211048E+03  0.46999998093E+01 0. -1.
       -5    1    3    3    0  502 -0.19330930889E+03  0.49455334647E+03  0.20664297565E+03  0.56980251911E+03  0.46999998093E+01 0.  1.
</event>
<event>
 5   0  0.2025294E-03  0.1326893E+04  0.7818609E-02  0.9008507E-01
       -1   -1    0    0    0  501  0.00000000000E+00  0.00000000000E+00  0.31314079088E+03  0.31314079092E+03  0.50400001928E-02 0.  1.
        1   -1    0    0  501    0  0.00000000000E+00  0.00000000000E+00 -0.14056336119E+04  0.14056336119E+04  0.50400001928E-02 0. -1.
    10030    2    1    2    0    0  0.00000000000E+00  0.00000000000E+00 -0.10924928210E+04  0.17187744028E+04  0.13268929436E+04 0.  0.
        5    1    3    3  502    0  0.47229038039E+03  0.94696991208E+02 -0.11371723069E+04  0.12349933883E+04  0.46999998093E+01 0. -1.
       -5    1    3    3    0  502 -0.47229038039E+03 -0.94696991208E+02  0.44679485900E+02  0.48378101452E+03  0.46999998093E+01 0.  1.
</event>
<event>
 5   0  0.2047109E-03  0.1190274E+04  0.7818609E-02  0.9121413E-01
       -1   -1    0    0    0  501  0.00000000000E+00  0.00000000000E+00  0.52760507257E+03  0.52760507260E+03  0.50400001928E-02 0.  1.
        1   -1    0    0  501    0  0.00000000000E+00  0.00000000000E+00 -0.67131250598E+03  0.67131250600E+03  0.50400001928E-02 0. -1.
    10030    2    1    2    0    0  0.00000000000E+00  0.00000000000E+00 -0.14370743340E+03  0.11989175786E+04  0.11902737222E+04 0.  0.
        1    1    3    3  502    0  0.25713859750E+03 -0.45033746271E+03 -0.36597388849E+03  0.63471330200E+03  0.50400001928E-02 0. -1.
       -1    1    3    3    0  502 -0.25713859750E+03  0.45033746271E+03  0.22226645509E+03  0.56420427660E+03  0.50400001928E-02 0.  1.
</event>
<event>
 5   0  0.3706035E-03  0.1187451E+04  0.7818609E-02  0.9123912E-01
        2   -1    0    0  501    0  0.00000000000E+00  0.00000000000E+00  0.93593774078E+03  0.93593774079E+03  0.25500000920E-02 0.  1.
       -2   -1    0    0    0  501  0.00000000000E+00  0.00000000000E+00 -0.37663848196E+03  0.37663848196E+03  0.25500000920E-02 0. -1.
    10030    2    1    2    0    0  0.00000000000E+00  0.00000000000E+00  0.55929925883E+03  0.13125762228E+04  0.11874513378E+04 0.  0.
        2    1    3    3  502    0  0.14276811122E+03  0.54607981599E+03  0.48324315961E+03  0.74304094795E+03  0.25500000920E-02 0.  1.
       -2    1    3    3    0  502 -0.14276811122E+03 -0.54607981599E+03  0.76056099215E+02  0.56953527480E+03  0.25500000920E-02 0. -1.
</event>
<event>
 5   0  0.2025294E-03  0.1188638E+04  0.7818609E-02  0.9122861E-01
        1   -1    0    0  501    0  0.00000000000E+00  0.00000000000E+00  0.90127880160E+03  0.90127880161E+03  0.50400001928E-02 0. -1.
       -1   -1    0    0    0  501  0.00000000000E+00  0.00000000000E+00 -0.39190403597E+03  0.39190403600E+03  0.50400001928E-02 0.  1.
    10030    2    1    2    0    0  0.00000000000E+00  0.00000000000E+00  0.50937476563E+03  0.12931828376E+04  0.11886375392E+04 0.  0.
        5    1    3    3  502    0  0.43711512598E+03 -0.14681645136E+03  0.66258740858E+03  0.80726009920E+03  0.46999998093E+01 0. -1.
       -5    1    3    3    0  502 -0.43711512598E+03  0.14681645136E+03 -0.15321264294E+03  0.48592273842E+03  0.46999998093E+01 0.  1.
</event>
<event>
 5   0  0.3626049E-03  0.1196007E+04  0.7818609E-02  0.9116359E-01
        2   -1    0    0  501    0  0.00000000000E+00  0.00000000000E+00  0.10645607687E+04  0.10645607687E+04  0.25500000920E-02 0. -1.
       -2   -1    0    0    0  501  0.00000000000E+00  0.00000000000E+00 -0.33592101572E+03  0.33592101573E+03  0.25500000920E-02 0.  1.
    10030    2    1    2    0    0  0.00000000000E+00  0.00000000000E+00  0.72863975303E+03  0.14004817845E+04  0.11960072487E+04 0.  0.
        1    1    3    3  502    0 -0.15239040172E+03  0.11660022896E+03  0.10275343370E+04  0.10452967337E+04  0.50400001928E-02 0. -1.
       -1    1    3    3    0  502  0.15239040172E+03 -0.11660022896E+03 -0.29889458393E+03  0.35518505073E+03  0.50400001928E-02 0.  1.
</event>
<event>
 5   0  0.2047109E-03  0.1194919E+04  0.7818609E-02  0.9117315E-01
       -1   -1    0    0    0  501  0.00000000000E+00  0.00000000000E+00  0.34765534628E+03  0.34765534631E+03  0.50400001928E-02 0. -1.
        1   -1    0    0  501    0  0.00000000000E+00  0.00000000000E+00 -0.10267585312E+04  0.10267585313E+04  0.50400001928E-02 0.  1.
    10030    2    1    2    0    0  0.00000000000E+00  0.00000000000E+00 -0.67910318497E+03  0.13744138776E+04  0.11949193994E+04 0.  0.
        1    1    3    3  502    0 -0.56437298900E+03 -0.13685606263E+03 -0.17806357584E+03  0.60741508844E+03  0.50400001928E-02 0. -1.
       -1    1    3    3    0  502  0.56437298900E+03  0.13685606263E+03 -0.50103960912E+03  0.76699878913E+03  0.50400001928E-02 0.  1.
</event>
<event>
 5   0  0.2096270E-03  0.1218979E+04  0.7818609E-02  0.9096405E-01
       -1   -1    0    0    0  501  0.00000000000E+00  0.00000000000E+00  0.98003670027E+03  0.98003670028E+03  0.50400001928E-02 0. -1.
        1   -1    0    0  501    0  0.00000000000E+00  0.00000000000E+00 -0.37904437459E+03  0.37904437462E+03  0.50400001928E-02 0.  1.
    10030    2    1    2    0    0  0.00000000000E+00  0.00000000000E+00  0.60099232569E+03  0.13590810749E+04  0.12189789139E+04 0.  0.
        2    1    3    3  502    0  0.58537493724E+03 -0.16255919477E+03  0.24601147794E+03  0.65544714222E+03  0.25500000920E-02 0.  1.
       -2    1    3    3    0  502 -0.58537493724E+03  0.16255919477E+03  0.35498084775E+03  0.70363393269E+03  0.25500000920E-02 0. -1.
</event>
<event>
 5   0  0.3725376E-03  0.1288558E+04  0.7818609E-02  0.9038688E-01
        2   -1    0    0  501    0  0.00000000000E+00  0.00000000000E+00  0.83520864946E+03  0.83520864946E+03  0.25500000920E-02 0.  1.
       -2   -1    0    0    0  501  0.00000000000E+00  0.00000000000E+00 -0.49699599866E+03  0.49699599867E+03  0.25500000920E-02 0. -1.
    10030    2    1    2    0    0  0.00000000000E+00  0.00000000000E+00  0.33821265079E+03  0.13322046481E+04  0.12885578867E+04 0.  0.
        4    1    3    3  502    0 -0.87335757907E+02  0.40103586355E+03  0.68255334534E+03  0.79645337628E+03  0.12699999809E+01 0.  1.
       -4    1    3    3    0  502  0.87335757907E+02 -0.40103586355E+03 -0.34434069455E+03  0.53575127185E+03  0.12699999809E+01 0. -1.
</event>
<event>
 5   0  0.3706035E-03  0.1195536E+04  0.7818609E-02  0.9116772E-01
       -2   -1    0    0    0  501  0.00000000000E+00  0.00000000000E+00  0.48417298089E+03  0.48417298090E+03  0.25500000920E-02 0.  1.
        2   -1    0    0  501    0  0.00000000000E+00  0.00000000000E+00 -0.73801487592E+03  0.73801487593E+03  0.25500000920E-02 0. -1.
    10030    2    1    2    0    0  0.00000000000E+00  0.00000000000E+00 -0.25384189503E+03  0.12221878568E+04  0.11955364694E+04 0.  0.
        2    1    3    3  502    0  0.15633655444E+03 -0.40114934830E+03  0.29700997652E+03  0.52304573802E+03  0.25500000920E-02 0.  1.
       -2    1    3    3    0  502 -0.15633655444E+03  0.40114934830E+03 -0.55085187155E+03  0.69914211881E+03  0.25500000920E-02 0. -1.
</event>
<event>
 5   0  0.3725376E-03  0.1264625E+04  0.7818609E-02  0.9058098E-01
       -2   -1    0    0    0  501  0.00000000000E+00  0.00000000000E+00  0.43289834786E+03  0.43289834787E+03  0.25500000920E-02 0.  1.
        2   -1    0    0  501    0  0.00000000000E+00  0.00000000000E+00 -0.92358693490E+03  0.92358693491E+03  0.25500000920E-02 0. -1.
    10030    2    1    2    0    0  0.00000000000E+00  0.00000000000E+00 -0.49068858704E+03  0.13564852828E+04  0.12646252540E+04 0.  0.
        4    1    3    3  502    0 -0.22682776282E+03  0.46869188663E+03 -0.63014300763E+03  0.81743791296E+03  0.12699999809E+01 0. -1.
       -4    1    3    3    0  502  0.22682776282E+03 -0.46869188663E+03  0.13945442059E+03  0.53904736981E+03  0.12699999809E+01 0.  1.
</event>
<event>
 5   0  0.2096270E-03  0.1208306E+04  0.7818609E-02  0.9105617E-01
       -1   -1    0    0    0  501  0.00000000000E+00  0.00000000000E+00  0.52677799376E+03  0.52677799378E+03  0.50400001928E-02 0. -1.
        1   -1    0    0  501    0  0.00000000000E+00  0.00000000000E+00 -0.69289292070E+03  0.69289292072E+03  0.50400001928E-02 0.  1.
    10030    2    1    2    0    0  0.00000000000E+00  0.00000000000E+00 -0.16611492694E+03  0.12196709145E+04  0.12083058267E+04 0.  0.
        2    1    3    3  502    0  0.96854043533E+02 -0.42168597046E+03 -0.50868809146E+03  0.66780486509E+03  0.25500000920E-02 0.  1.
       -2    1    3    3    0  502 -0.96854043533E+02  0.42168597046E+03  0.34257316453E+03  0.55186604941E+03  0.25500000920E-02 0. -1.
</event>
<event>
 5   0  0.3626049E-03  0.1209827E+04  0.7818609E-02  0.9104298E-01
       -2   -1    0    0    0  501  0.00000000000E+00  0.00000000000E+00  0.25551167226E+03  0.25551167227E+03  0.25500000920E-02 0.  1.
        2   -1    0    0  501    0  0.00000000000E+00  0.00000000000E+00 -0.14321088470E+04  0.14321088470E+04  0.25500000920E-02 0. -1.
    10030    2    1    2    0    0  0.00000000000E+00  0.00000000000E+00 -0.11765971747E+04  0.16876205192E+04  0.12098273040E+04 0.  0.
        1    1    3    3  502    0  0.20482211922E+02 -0.55699005971E+03 -0.91621937878E+03  0.10724343326E+04  0.50400001928E-02 0. -1.
       -1    1    3    3    0  502 -0.20482211922E+02  0.55699005971E+03 -0.26037779593E+03  0.61518618666E+03  0.50400001928E-02 0.  1.
</event>
<event>
 5   0  0.2134992E-03  0.1228491E+04  0.7818609E-02  0.9088277E-01
        1   -1    0    0  501    0  0.00000000000E+00  0.00000000000E+00  0.66735081271E+03  0.66735081273E+03  0.50400001928E-02 0. -1.
       -1   -1    0    0    0  501  0.00000000000E+00  0.00000000000E+00 -0.56536643267E+03  0.56536643269E+03  0.50400001928E-02 0.  1.
    10030    2    1    2    0    0  0.00000000000E+00  0.00000000000E+00  0.10198438004E+03  0.12327172454E+04  0.12284913485E+04 0.  0.
        4    1    3    3  502    0 -0.26417329319E+03 -0.40209263861E+03  0.43418290818E+03  0.64806051377E+03  0.12699999809E+01 0. -1.
       -4    1    3    3    0  502  0.26417329319E+03  0.40209263861E+03 -0.33219852814E+03  0.58465673164E+03  0.12699999809E+01 0.  1.
</event>
<event>
 5   0  0.2096270E-03  0.1188407E+04  0.7818609E-02  0.9123065E-01
       -1   -1    0    0    0  501  0.00000000000E+00  0.00000000000E+00  0.32855892866E+03  0.32855892870E+03  0.50400001928E-02 0. -1.
        1   -1    0    0  501    0  0.00000000000E+00  0.00000000000E+00 -0.10746249891E+04  0.10746249891E+04  0.50400001928E-02 0.  1.
    10030    2    1    2    0    0  0.00000000000E+00  0.00000000000E+00 -0.74606606047E+03  0.14031839178E+04  0.11884067236E+04 0.  0.
        2    1    3    3  502    0 -0.27985457804E+03  0.35418758289E+03  0.83207902315E+02  0.45901087540E+03  0.25500000920E-02 0. -1.
       -2    1    3    3    0  502  0.27985457804E+03 -0.35418758289E+03 -0.82927396278E+03  0.94417304245E+03  0.25500000920E-02 0.  1.
</event>
<event>
 5   0  0.2047109E-03  0.1213946E+04  0.7818609E-02  0.9100736E-01
        1   -1    0    0  501    0  0.00000000000E+00  0.00000000000E+00  0.29620538898E+03  0.29620538902E+03  0.50400001928E-02 0. -1.
       -1   -1    0    0    0  501  0.00000000000E+00  0.00000000000E+00 -0.12437865560E+04  0.12437865560E+04  0.50400001928E-02 0.  1.
    10030    2    1    2    0    0  0.00000000000E+00  0.00000000000E+00 -0.94758116699E+03  0.15399919450E+04  0.12139460954E+04 0.  0.
        1    1    3    3  502    0 -0.22611242645E+03  0.64380512061E+02 -0.11836813228E+04  0.12068028645E+04  0.50400001928E-02 0.  1.
       -1    1    3    3    0  502  0.22611242645E+03 -0.64380512061E+02  0.23610015586E+03  0.33318908048E+03  0.50400001928E-02 0. -1.
</event>
<event>
 5   0  0.3626049E-03  0.1192210E+04  0.7818609E-02  0.9119702E-01
       -2   -1    0    0    0  501  0.00000000000E+00  0.00000000000E+00  0.37270903371E+03  0.37270903372E+03  0.25500000920E-02 0.  1.
        2   -1    0    0  501    0  0.00000000000E+00  0.00000000000E+00 -0.95340140956E+03  0.95340140956E+03  0.25500000920E-02 0. -1.
    10030    2    1    2    0    0  0.00000000000E+00  0.00000000000E+00 -0.58069237584E+03  0.13261104433E+04  0.11922102467E+04 0.  0.
        1    1    3    3  502    0  0.35934787019E+03  0.28911218872E+03 -0.71041846111E+03  0.84700126292E+03  0.50400001928E-02 0. -1.
       -1    1    3    3    0  502 -0.35934787019E+03 -0.28911218872E+03  0.12972608527E+03  0.47910918036E+03  0.50400001928E-02 0.  1.
</event>
<event>
 5   0  0.2078258E-03  0.1223440E+04  0.7818609E-02  0.9092584E-01
       -1   -1    0    0    0  501  0.00000000000E+00  0.00000000000E+00  0.18661022013E+03  0.18661022020E+03  0.50400001928E-02 0.  1.
        1   -1    0    0  501    0  0.00000000000E+00  0.00000000000E+00 -0.20052554147E+04  0.20052554147E+04  0.50400001928E-02 0. -1.
    10030    2    1    2    0    0  0.00000000000E+00  0.00000000000E+00 -0.18186451946E+04  0.21918656349E+04  0.12234396666E+04 0.  0.
        3    1    3    3  502    0 -0.66295706025E+02 -0.52172381939E+03 -0.34959186914E+03  0.63151037166E+03  0.10100000352E+00 0.  1.
       -3    1    3    3    0  502  0.66295706025E+02  0.52172381939E+03 -0.14690533255E+04  0.15603552633E+04  0.10100000352E+00 0. -1.
</event>
<event>
 5   0  0.2025294E-03  0.1204700E+04  0.7818609E-02  0.9108753E-01
        1   -1    0    0  501    0  0.00000000000E+00  0.00000000000E+00  0.65102943946E+03  0.65102943948E+03  0.50400001928E-02 0. -1.
       -1   -1    0    0    0  501  0.00000000000E+00  0.00000000000E+00 -0.55731046030E+03  0.55731046032E+03  0.50400001928E-02 0.  1.
    10030    2    1    2    0    0  0.00000000000E+00  0.00000000000E+00  0.93718979169E+02  0.12083398998E+04  0.12046999902E+04 0.  0.
        5    1    3    3  502    0  0.12642428721E+02  0.52447224246E+03 -0.24996107749E+03  0.58114851318E+03  0.46999998093E+01 0.  1.
       -5    1    3    3    0  502 -0.12642428721E+02 -0.52447224246E+03  0.34368005666E+03  0.62719138662E+03  0.46999998093E+01 0. -1.
</event>
<event>
 5   0  0.2078258E-03  0.1202402E+04  0.7818609E-02  0.9110756E-01
        1   -1    0    0  501    0  0.00000000000E+00  0.00000000000E+00  0.90476901464E+03  0.90476901465E+03  0.50400001928E-02 0.  1.
       -1   -1    0    0    0  501  0.00000000000E+00  0.00000000000E+00 -0.39948632381E+03  0.39948632384E+03  0.50400001928E-02 0. -1.
    10030    2    1    2    0    0  0.00000000000E+00  0.00000000000E+00  0.50528269083E+03  0.13042553385E+04  0.12024023413E+04 0.  0.
        3    1    3    3  502    0 -0.44568988406E+03 -0.17274653119E+03 -0.14288605993E+03  0.49889605442E+03  0.10100000352E+00 0. -1.
       -3    1    3    3    0  502  0.44568988406E+03  0.17274653119E+03  0.64816875075E+03  0.80535928407E+03  0.10100000352E+00 0.  1.
</event>
<event>
 5   0  0.3706035E-03  0.1195284E+04  0.7818609E-02  0.9116995E-01
       -2   -1    0    0    0  501  0.00000000000E+00  0.00000000000E+00  0.59551856780E+03  0.59551856780E+03  0.25500000920E-02 0.  1.
        2   -1    0    0  501    0  0.00000000000E+00  0.00000000000E+00 -0.59977269474E+03  0.59977269475E+03  0.25500000920E-02 0. -1.
    10030    2    1    2    0    0  0.00000000000E+00  0.00000000000E+00 -0.42541269413E+01  0.11952912625E+04  0.11952836922E+04 0.  0.
        2    1    3    3  502    0  0.24178356196E+02  0.53357324739E+03 -0.27025330909E+03  0.59859991173E+03  0.25500000920E-02 0. -1.
       -2    1    3    3    0  502 -0.24178356196E+02 -0.53357324739E+03  0.26599918215E+03  0.59669135082E+03  0.25500000920E-02 0.  1.
</event>
<event>
 5   0  0.3706035E-03  0.1181215E+04  0.7818609E-02  0.9129460E-01
        2   -1    0    0  501    0  0.00000000000E+00  0.00000000000E+00  0.15743415953E+04  0.15743415953E+04  0.25500000920E-02 0. -1.
       -2   -1    0    0    0  501  0.00000000000E+00  0.00000000000E+00 -0.22156376566E+03  0.22156376567E+03  0.25500000920E-02 0.  1.
    10030    2    1    2    0    0  0.00000000000E+00  0.00000000000E+00  0.13527778297E+04  0.17959053610E+04  0.11812147177E+04 0.  0.
        2    1    3    3  502    0  0.25800491438E+03  0.41767862609E+03  0.11755653445E+04  0.12739606940E+04  0.25500000920E-02 0. -1.
       -2    1    3    3    0  502 -0.25800491438E+03 -0.41767862609E+03  0.17721248514E+03  0.52194466702E+03  0.25500000920E-02 0.  1.
</event>
<event>
 5   0  0.3725376E-03  0.1212825E+04  0.7818609E-02  0.9101705E-01
        2   -1    0    0  501    0  0.00000000000E+00  0.00000000000E+00  0.11828055373E+04  0.11828055373E+04  0.25500000920E-02 0.  1.
       -2   -1    0    0    0  501  0.00000000000E+00  0.00000000000E+00 -0.31090147971E+03  0.31090147972E+03  0.25500000920E-02 0. -1.
    10030    2    1    2    0    0  0.00000000000E+00  0.00000000000E+00  0.87190405760E+03  0.14937070170E+04  0.12128247883E+04 0.  0.
        4    1    3    3  502    0  0.36126184054E+03  0.41837017178E+03  0.12881658163E+03  0.56757294040E+03  0.12699999809E+01 0. -1.
       -4    1    3    3    0  502 -0.36126184054E+03 -0.41837017178E+03  0.74308747597E+03  0.92613407664E+03  0.12699999809E+01 0.  1.
</event>
<event>
 5   0  0.1397500E-03  0.1174125E+04  0.7818609E-02  0.9135811E-01
        3   -1    0    0  501    0  0.00000000000E+00  0.00000000000E+00  0.66326020311E+03  0.66326021080E+03  0.10100000352E+00 0.  1.
       -3   -1    0    0    0  501  0.00000000000E+00  0.00000000000E+00 -0.51961846133E+03  0.51961847115E+03  0.10100000352E+00 0. -1.
    10030    2    1    2    0    0  0.00000000000E+00  0.00000000000E+00  0.14364174177E+03  0.11828786819E+04  0.11741247916E+04 0.  0.
        4    1    3    3  502    0  0.20992540703E+03 -0.94403581508E+02  0.61590283670E+03  0.65750941429E+03  0.12699999809E+01 0.  1.
       -4    1    3    3    0  502 -0.20992540703E+03  0.94403581508E+02 -0.47226109493E+03  0.52536926766E+03  0.12699999809E+01 0. -1.
</event>
<event>
 5   0  0.2078258E-03  0.1251509E+04  0.7818609E-02  0.9068928E-01
       -1   -1    0    0    0  501  0.00000000000E+00  0.00000000000E+00  0.37560340536E+03  0.37560340539E+03  0.50400001928E-02 0. -1.
        1   -1    0    0  501    0  0.00000000000E+00  0.00000000000E+00 -0.10425054557E+04  0.10425054557E+04  0.50400001928E-02 0.  1.
    10030    2    1    2    0    0  0.00000000000E+00  0.00000000000E+00 -0.66690205033E+03  0.14181088611E+04  0.12515088482E+04 0.  0.
        3    1    3    3  502    0 -0.36903570684E+02 -0.62466066138E+03 -0.33072830959E+03  0.70777400374E+03  0.10100000352E+00 0.  1.
       -3    1    3    3    0  502  0.36903570684E+02  0.62466066138E+03 -0.33617374074E+03  0.71033485735E+03  0.10100000352E+00 0. -1.
</event>
<event>
 5   0  0.2134992E-03  0.1188241E+04  0.7818609E-02  0.9123212E-01
       -1   -1    0    0    0  501  0.00000000000E+00  0.00000000000E+00  0.52370382263E+03  0.52370382265E+03  0.50400001928E-02 0. -1.
        1   -1    0    0  501    0  0.00000000000E+00  0.00000000000E+00 -0.67400506913E+03  0.67400506915E+03  0.50400001928E-02 0.  1.
    10030    2    1    2    0    0  0.00000000000E+00  0.00000000000E+00 -0.15030124650E+03  0.11977088918E+04  0.11882407689E+04 0.  0.
        4    1    3    3  502    0 -0.11536936112E+03  0.52789036034E+03 -0.32409855649E+03  0.63009507953E+03  0.12699999809E+01 0.  1.
       -4    1    3    3    0  502  0.11536936112E+03 -0.52789036034E+03  0.17379730998E+03  0.56761381227E+03  0.12699999809E+01 0. -1.
</event>
<event>
 5   0  0.3751091E-03  0.8697140E+03  0.7818609E-02  0.9464253E-01
        2   -1    0    0  501    0  0.00000000000E+00  0.00000000000E+00  0.36402749755E+03  0.36402749756E+03  0.25500000920E-02 0.  1.
       -2   -1    0    0    0  501  0.00000000000E+00  0.00000000000E+00 -0.51946790118E+03  0.51946790118E+03  0.25500000920E-02 0. -1.
    10030    2    1    2    0    0  0.00000000000E+00  0.00000000000E+00 -0.15544040362E+03  0.88349539874E+03  0.86971397627E+03 0.  0.
        5    1    3    3  502    0 -0.41362324130E+02  0.37152497824E+03  0.14791849900E+03  0.40204928014E+03  0.46999998093E+01 0.  1.
       -5    1    3    3    0  502  0.41362324130E+02 -0.37152497824E+03 -0.30335890262E+03  0.48144611860E+03  0.46999998093E+01 0. -1.
</event>
<event>
 5   0  0.2025294E-03  0.1211244E+04  0.7818609E-02  0.9103072E-01
       -1   -1    0    0    0  501  0.00000000000E+00  0.00000000000E+00  0.10015634813E+04  0.10015634813E+04  0.50400001928E-02 0.  1.
        1   -1    0    0  501    0  0.00000000000E+00  0.00000000000E+00 -0.36620519242E+03  0.36620519246E+03  0.50400001928E-02 0. -1.
    10030    2    1    2    0    0  0.00000000000E+00  0.00000000000E+00  0.63535828886E+03  0.13677686738E+04  0.12112435716E+04 0.  0.
        5    1    3    3  502    0 -0.53482043080E+03  0.20422492552E+03  0.54072628587E+03  0.78749458388E+03  0.46999998093E+01 0.  1.
       -5    1    3    3    0  502  0.53482043080E+03 -0.20422492552E+03  0.94632002988E+02  0.58027408988E+03  0.46999998093E+01 0. -1.
</event>
<event>
 5   0  0.2096270E-03  0.1203681E+04  0.7818609E-02  0.9109641E-01
       -1   -1    0    0    0  501  0.00000000000E+00  0.00000000000E+00  0.39910018219E+03  0.39910018222E+03  0.50400001928E-02 0. -1.
        1   -1    0    0  501    0  0.00000000000E+00  0.00000000000E+00 -0.90757164789E+03  0.90757164790E+03  0.50400001928E-02 0.  1.
    10030    2    1    2    0    0  0.00000000000E+00  0.00000000000E+00 -0.50847146570E+03  0.13066718301E+04  0.12036810376E+04 0.  0.
        2    1    3    3  502    0 -0.25649853421E+03  0.54390407711E+03 -0.28057863862E+03  0.66358685611E+03  0.25500000920E-02 0. -1.
       -2    1    3    3    0  502  0.25649853421E+03 -0.54390407711E+03 -0.22789282708E+03  0.64308497401E+03  0.25500000920E-02 0.  1.
</event>
<event>
 5   0  0.3650180E-03  0.1211081E+04  0.7818609E-02  0.9103212E-01
        2   -1    0    0  501    0  0.00000000000E+00  0.00000000000E+00  0.22256737970E+04  0.22256737970E+04  0.25500000920E-02 0. -1.
       -2   -1    0    0    0  501  0.00000000000E+00  0.00000000000E+00 -0.16474979599E+03  0.16474979601E+03  0.25500000920E-02 0.  1.
    10030    2    1    2    0    0  0.00000000000E+00  0.00000000000E+00  0.20609240010E+04  0.23904235930E+04  0.12110810114E+04 0.  0.
        3    1    3    3  502    0 -0.26485252164E+03  0.32050618880E+03  0.18993979527E+04  0.19443723070E+04  0.10100000352E+00 0. -1.
       -3    1    3    3    0  502  0.26485252164E+03 -0.32050618880E+03  0.16152604830E+03  0.44605128602E+03  0.10100000352E+00 0.  1.
</event>
<event>
 5   0  0.2078258E-03  0.1202938E+04  0.7818609E-02  0.9110289E-01
       -1   -1    0    0    0  501  0.00000000000E+00  0.00000000000E+00  0.30291716940E+03  0.30291716944E+03  0.50400001928E-02 0.  1.
        1   -1    0    0  501    0  0.00000000000E+00  0.00000000000E+00 -0.11942699379E+04  0.11942699380E+04  0.50400001928E-02 0. -1.
    10030    2    1    2    0    0  0.00000000000E+00  0.00000000000E+00 -0.89135276854E+03  0.14971871074E+04  0.12029378523E+04 0.  0.
        3    1    3    3  502    0  0.22516001688E+03  0.34316774527E+03 -0.99288509060E+03  0.10743751430E+04  0.10100000352E+00 0. -1.
       -3    1    3    3    0  502 -0.22516001688E+03 -0.34316774527E+03  0.10153232206E+03  0.42281196438E+03  0.10100000352E+00 0.  1.
</event>
<event>
 5   0  0.2078258E-03  0.1184478E+04  0.7818609E-02  0.9126552E-01
        1   -1    0    0  501    0  0.00000000000E+00  0.00000000000E+00  0.11441604969E+04  0.11441604969E+04  0.50400001928E-02 0. -1.
       -1   -1    0    0    0  501  0.00000000000E+00  0.00000000000E+00 -0.30655414716E+03  0.30655414720E+03  0.50400001928E-02 0.  1.
    10030    2    1    2    0    0  0.00000000000E+00  0.00000000000E+00  0.83760634969E+03  0.14507146441E+04  0.11844781895E+04 0.  0.
        3    1    3    3  502    0  0.25044645857E+03  0.23158622486E+03 -0.17415748507E+03  0.38299666834E+03  0.10100000352E+00 0.  1.
       -3    1    3    3    0  502 -0.25044645857E+03 -0.23158622486E+03  0.10117638348E+04  0.10677179757E+04  0.10100000352E+00 0. -1.
</event>
<event>
 5   0  0.2078258E-03  0.1218182E+04  0.7818609E-02  0.9097089E-01
        1   -1    0    0  501    0  0.00000000000E+00  0.00000000000E+00  0.78037875439E+03  0.78037875440E+03  0.50400001928E-02 0.  1.
       -1   -1    0    0    0  501  0.00000000000E+00  0.00000000000E+00 -0.47539984034E+03  0.47539984037E+03  0.50400001928E-02 0. -1.
    10030    2    1    2    0    0  0.00000000000E+00  0.00000000000E+00  0.30497891404E+03  0.12557785948E+04  0.12181821461E+04 0.  0.
        3    1    3    3  502    0 -0.31725222435E+03 -0.49293194234E+02  0.68606737350E+03  0.75747425305E+03  0.10100000352E+00 0.  1.
       -3    1    3    3    0  502  0.31725222435E+03  0.49293194234E+02 -0.38108845945E+03  0.49830434172E+03  0.10100000352E+00 0. -1.
</event>
<event>
 5   0  0.1397500E-03  0.1184883E+04  0.7818609E-02  0.9126192E-01
        4   -1    0    0  501    0  0.00000000000E+00  0.00000000000E+00  0.17823387244E+04  0.17823391769E+04  0.12699999809E+01 0.  1.
       -4   -1    0    0    0  501  0.00000000000E+00  0.00000000000E+00 -0.19692233484E+03  0.19692643006E+03  0.12699999809E+01 0. -1.
    10030    2    1    2    0    0  0.00000000000E+00  0.00000000000E+00  0.15854163896E+04  0.19792656069E+04  0.11848827851E+04 0.  0.
        3    1    3    3  502    0 -0.56863802414E+03 -0.13353735817E+03  0.62729864925E+03  0.85713769844E+03  0.10100000352E+00 0. -1.
       -3    1    3    3    0  502  0.56863802414E+03  0.13353735817E+03  0.95811774030E+03  0.11221279085E+04  0.10100000352E+00 0.  1.
</event>
<event>
 5   0  0.2134992E-03  0.1198345E+04  0.7818609E-02  0.9114306E-01
       -1   -1    0    0    0  501  0.00000000000E+00  0.00000000000E+00  0.92563961363E+03  0.92563961364E+03  0.50400001928E-02 0. -1.
        1   -1    0    0  501    0  0.00000000000E+00  0.00000000000E+00 -0.38784844604E+03  0.38784844607E+03  0.50400001928E-02 0.  1.
    10030    2    1    2    0    0  0.00000000000E+00  0.00000000000E+00  0.53779116759E+03  0.13134880597E+04  0.11983453355E+04 0.  0.
        4    1    3    3  502    0  0.19823743198E+03 -0.51205143585E+03  0.53175380474E+03  0.76436802271E+03  0.12699999809E+01 0. -1.
       -4    1    3    3    0  502 -0.19823743198E+03  0.51205143585E+03  0.60373628445E+01  0.54912003700E+03  0.12699999809E+01 0.  1.
</event>
<event>
 5   0  0.2134992E-03  0.1201000E+04  0.7818609E-02  0.9111982E-01
        1   -1    0    0  501    0  0.00000000000E+00  0.00000000000E+00  0.10127005337E+04  0.10127005337E+04  0.50400001928E-02 0. -1.
       -1   -1    0    0    0  501  0.00000000000E+00  0.00000000000E+00 -0.35607789733E+03  0.35607789736E+03  0.50400001928E-02 0.  1.
    10030    2    1    2    0    0  0.00000000000E+00  0.00000000000E+00  0.65662263632E+03  0.13687784310E+04  0.12010000444E+04 0.  0.
        4    1    3    3  502    0 -0.41581953089E+03 -0.34649266016E+03  0.62471108713E+03  0.82657643391E+03  0.12699999809E+01 0. -1.
       -4    1    3    3    0  502  0.41581953089E+03  0.34649266016E+03  0.31911549189E+02  0.54220199712E+03  0.12699999809E+01 0.  1.
</event>
<event>
 5   0  0.3650180E-03  0.1406802E+04  0.7818609E-02  0.8948910E-01
        2   -1    0    0  501    0  0.00000000000E+00  0.00000000000E+00  0.80564015063E+03  0.80564015063E+03  0.25500000920E-02 0. -1.
       -2   -1    0    0    0  501  0.00000000000E+00  0.00000000000E+00 -0.61413613353E+03  0.61413613353E+03  0.25500000920E-02 0.  1.
    10030    2    1    2    0    0  0.00000000000E+00  0.00000000000E+00  0.19150401710E+03  0.14197762842E+04  0.14068016593E+04 0.  0.
        3    1    3    3  502    0 -0.65298101196E+02  0.13306015935E+02 -0.61094310202E+03  0.61456681995E+03  0.10100000352E+00 0.  1.
       -3    1    3    3    0  502  0.65298101196E+02 -0.13306015935E+02  0.80244711912E+03  0.80520946421E+03  0.10100000352E+00 0. -1.
</event>
<event>
 5   0  0.3725376E-03  0.1197640E+04  0.7818609E-02  0.9114925E-01
       -2   -1    0    0    0  501  0.00000000000E+00  0.00000000000E+00  0.83594823807E+03  0.83594823807E+03  0.25500000920E-02 0.  1.
        2   -1    0    0  501    0  0.00000000000E+00  0.00000000000E+00 -0.42895638099E+03  0.42895638100E+03  0.25500000920E-02 0. -1.
    10030    2    1    2    0    0  0.00000000000E+00  0.00000000000E+00  0.40699185707E+03  0.12649046191E+04  0.11976398973E+04 0.  0.
        4    1    3    3  502    0 -0.36801108676E+02 -0.85969364734E+02  0.82818718379E+03  0.83345106489E+03  0.12699999809E+01 0.  1.
       -4    1    3    3    0  502  0.36801108676E+02  0.85969364734E+02 -0.42119532672E+03  0.43145355419E+03  0.12699999809E+01 0. -1.
</event>
<event>
 5   0  0.3725376E-03  0.1204778E+04  0.7818609E-02  0.9108684E-01
        2   -1    0    0  501    0  0.00000000000E+00  0.00000000000E+00  0.12226736678E+04  0.12226736678E+04  0.25500000920E-02 0.  1.
       -2   -1    0    0    0  501  0.00000000000E+00  0.00000000000E+00 -0.29678615453E+03  0.29678615455E+03  0.25500000920E-02 0. -1.
    10030    2    1    2    0    0  0.00000000000E+00  0.00000000000E+00  0.92588751323E+03  0.15194598223E+04  0.12047781806E+04 0.  0.
        4    1    3    3  502    0 -0.19865466791E+03 -0.56560277410E+03  0.38832164774E+03  0.71425869974E+03  0.12699999809E+01 0. -1.
       -4    1    3    3    0  502  0.19865466791E+03  0.56560277410E+03  0.53756586550E+03  0.80520112258E+03  0.12699999809E+01 0.  1.
</event>
<event>
 5   0  0.2025294E-03  0.1175467E+04  0.7818609E-02  0.9134605E-01
       -1   -1    0    0    0  501  0.00000000000E+00  0.00000000000E+00  0.37043280736E+03  0.37043280740E+03  0.50400001928E-02 0.  1.
        1   -1    0    0  501    0  0.00000000000E+00  0.00000000000E+00 -0.93250571062E+03  0.93250571063E+03  0.50400001928E-02 0. -1.
    10030    2    1    2    0    0  0.00000000000E+00  0.00000000000E+00 -0.56207290326E+03  0.13029385180E+04  0.11754670702E+04 0.  0.
        5    1    3    3  502    0  0.42078943244E+03 -0.40558784746E+03 -0.34975429870E+03  0.68111335908E+03  0.46999998093E+01 0.  1.
       -5    1    3    3    0  502 -0.42078943244E+03  0.40558784746E+03 -0.21231860456E+03  0.62182515895E+03  0.46999998093E+01 0. -1.
</event>
<event>
 5   0  0.2078258E-03  0.1204079E+04  0.7818609E-02  0.9109293E-01
        1   -1    0    0  501    0  0.00000000000E+00  0.00000000000E+00  0.52238466977E+03  0.52238466980E+03  0.50400001928E-02 0.  1.
       -1   -1    0    0    0  501  0.00000000000E+00  0.00000000000E+00 -0.69384070958E+03  0.69384070960E+03  0.50400001928E-02 0. -1.
    10030    2    1    2    0    0  0.00000000000E+00  0.00000000000E+00 -0.17145603980E+03  0.12162253794E+04  0.12040793163E+04 0.  0.
        3    1    3    3  502    0  0.11961484470E+03  0.26125445861E+03  0.44865513868E+03  0.53277860963E+03  0.10100000352E+00 0.  1.
       -3    1    3    3    0  502 -0.11961484470E+03 -0.26125445861E+03 -0.62011117848E+03  0.68344676976E+03  0.10100000352E+00 0. -1.
</event>
<event>
 5   0  0.3725376E-03  0.1192661E+04  0.7818609E-02  0.9119305E-01
        2   -1    0    0  501    0  0.00000000000E+00  0.00000000000E+00  0.45874444867E+03  0.45874444867E+03  0.25500000920E-02 0.  1.
       -2   -1    0    0    0  501  0.00000000000E+00  0.00000000000E+00 -0.77518087794E+03  0.77518087795E+03  0.25500000920E-02 0. -1.
    10030    2    1    2    0    0  0.00000000000E+00  0.00000000000E+00 -0.31643642927E+03  0.12339253266E+04  0.11926607640E+04 0.  0.
        4    1    3    3  502    0 -0.32887611880E+02 -0.94527949780E+02 -0.76642781819E+03  0.77293618217E+03  0.12699999809E+01 0. -1.
       -4    1    3    3    0  502  0.32887611880E+02  0.94527949780E+02  0.44999138892E+03  0.46098914445E+03  0.12699999809E+01 0.  1.
</event>
<event>
 5   0  0.3751091E-03  0.1218425E+04  0.7818609E-02  0.9096880E-01
       -2   -1    0    0    0  501  0.00000000000E+00  0.00000000000E+00  0.19731961326E+03  0.19731961327E+03  0.25500000920E-02 0. -1.
        2   -1    0    0  501    0  0.00000000000E+00  0.00000000000E+00 -0.18809079188E+04  0.18809079188E+04  0.25500000920E-02 0.  1.
    10030    2    1    2    0    0  0.00000000000E+00  0.00000000000E+00 -0.16835883055E+04  0.20782275321E+04  0.12184252511E+04 0.  0.
        5    1    3    3  502    0  0.18550484970E+02  0.28563045685E+03 -0.17590386795E+04  0.17821806991E+04  0.46999998093E+01 0.  1.
       -5    1    3    3    0  502 -0.18550484970E+02 -0.28563045685E+03  0.75450373951E+02  0.29604683295E+03  0.46999998093E+01 0. -1.
</event>
<event>
 5   0  0.2025294E-03  0.1208187E+04  0.7818609E-02  0.9105720E-01
       -1   -1    0    0    0  501  0.00000000000E+00  0.00000000000E+00  0.78403216553E+03  0.78403216554E+03  0.50400001928E-02 0.  1.
        1   -1    0    0  501    0  0.00000000000E+00  0.00000000000E+00 -0.46545168743E+03  0.46545168745E+03  0.50400001928E-02 0. -1.
    10030    2    1    2    0    0  0.00000000000E+00  0.00000000000E+00  0.31858047810E+03  0.12494838530E+04  0.12081872280E+04 0.  0.
        5    1    3    3  502    0  0.12825185482E+03  0.55609300405E+03  0.36409727430E+03  0.67696150745E+03  0.46999998093E+01 0. -1.
       -5    1    3    3    0  502 -0.12825185482E+03 -0.55609300405E+03 -0.45516796202E+02  0.57252234555E+03  0.46999998093E+01 0.  1.
</event>
<event>
 5   0  0.2078258E-03  0.1196715E+04  0.7818609E-02  0.9115737E-01
       -1   -1    0    0    0  501  0.00000000000E+00  0.00000000000E+00  0.25834656195E+03  0.25834656200E+03  0.50400001928E-02 0.  1.
        1   -1    0    0  501    0  0.00000000000E+00  0.00000000000E+00 -0.13858578852E+04  0.13858578852E+04  0.50400001928E-02 0. -1.
    10030    2    1    2    0    0  0.00000000000E+00  0.00000000000E+00 -0.11275113232E+04  0.16442044472E+04  0.11967148700E+04 0.  0.
        3    1    3    3  502    0 -0.27577882820E+03  0.31137035760E+03 -0.11547477744E+04  0.12273743905E+04  0.10100000352E+00 0. -1.
       -3    1    3    3    0  502  0.27577882820E+03 -0.31137035760E+03  0.27236451232E+02  0.41683005668E+03  0.10100000352E+00 0.  1.
</event>
<event>
 5   0  0.3706035E-03  0.1186005E+04  0.7818609E-02  0.9125196E-01
        2   -1    0    0  501    0  0.00000000000E+00  0.00000000000E+00  0.22430926574E+03  0.22430926575E+03  0.25500000920E-02 0.  1.
       -2   -1    0    0    0  501  0.00000000000E+00  0.00000000000E+00 -0.15677094463E+04  0.15677094463E+04  0.25500000920E-02 0. -1.
    10030    2    1    2    0    0  0.00000000000E+00  0.00000000000E+00 -0.13434001806E+04  0.17920187121E+04  0.11860046456E+04 0.  0.
        2    1    3    3  502    0 -0.29267460044E+03  0.41806290464E+03 -0.11280452258E+04  0.12381118873E+04  0.25500000920E-02 0. -1.
       -2    1    3    3    0  502  0.29267460044E+03 -0.41806290464E+03 -0.21535495476E+03  0.55390682477E+03  0.25500000920E-02 0.  1.
</event>
<event>
 5   0  0.3751091E-03  0.1198467E+04  0.7818609E-02  0.9114200E-01
       -2   -1    0    0    0  501  0.00000000000E+00  0.00000000000E+00  0.87356603378E+03  0.87356603378E+03  0.25500000920E-02 0. -1.
        2   -1    0    0  501    0  0.00000000000E+00  0.00000000000E+00 -0.41105135162E+03  0.41105135163E+03  0.25500000920E-02 0.  1.
    10030    2    1    2    0    0  0.00000000000E+00  0.00000000000E+00  0.46251468216E+03  0.12846173854E+04  0.11984665184E+04 0.  0.
        5    1    3    3  502    0 -0.17832851813E+03 -0.73560156329E+02  0.83935330035E+03  0.86124805358E+03  0.46999998093E+01 0. -1.
       -5    1    3    3    0  502  0.17832851813E+03  0.73560156329E+02 -0.37683861819E+03  0.42336933183E+03  0.46999998093E+01 0.  1.
</event>
<event>
 5   0  0.3626049E-03  0.1210315E+04  0.7818609E-02  0.9103875E-01
        2   -1    0    0  501    0  0.00000000000E+00  0.00000000000E+00  0.18849841889E+04  0.18849841889E+04  0.25500000920E-02 0.  1.
       -2   -1    0    0    0  501  0.00000000000E+00  0.00000000000E+00 -0.19428050648E+03  0.19428050650E+03  0.25500000920E-02 0. -1.
    10030    2    1    2    0    0  0.00000000000E+00  0.00000000000E+00  0.16907036824E+04  0.20792646954E+04  0.12103151374E+04 0.  0.
        1    1    3    3  502    0 -0.12572855830E+03  0.31019891602E+03  0.17114876030E+04  0.17439096459E+04  0.50400001928E-02 0.  1.
       -1    1    3    3    0  502  0.12572855830E+03 -0.31019891602E+03 -0.20783920520E+02  0.33535504954E+03  0.50400001928E-02 0. -1.
</event>
<event>
 5   0  0.3725376E-03  0.1020624E+04  0.7818609E-02  0.9286210E-01
        2   -1    0    0  501    0  0.00000000000E+00  0.00000000000E+00  0.63755295053E+03  0.63755295053E+03  0.25500000920E-02 0. -1.
       -2   -1    0    0    0  501  0.00000000000E+00  0.00000000000E+00 -0.40846526937E+03  0.40846526938E+03  0.25500000920E-02 0.  1.
    10030    2    1    2    0    0  0.00000000000E+00  0.00000000000E+00  0.22908768116E+03  0.10460182199E+04  0.10206238047E+04 0.  0.
        4    1    3    3  502    0  0.53907755592E+02  0.50000404250E+03  0.25747852110E+02  0.50356196582E+03  0.12699999809E+01 0. -1.
       -4    1    3    3    0  502 -0.53907755592E+02 -0.50000404250E+03  0.20333982905E+03  0.54245625409E+03  0.12699999809E+01 0.  1.
</event>
<event>
 5   0  0.3751091E-03  0.1174664E+04  0.7818609E-02  0.9135327E-01
       -2   -1    0    0    0  501  0.00000000000E+00  0.00000000000E+00  0.29703219278E+03  0.29703219279E+03  0.25500000920E-02 0.  1.
        2   -1    0    0  501    0  0.00000000000E+00  0.00000000000E+00 -0.11613521647E+04  0.11613521647E+04  0.25500000920E-02 0. -1.
    10030    2    1    2    0    0  0.00000000000E+00  0.00000000000E+00 -0.86431997195E+03  0.14583843575E+04  0.11746641734E+04 0.  0.
        5    1    3    3  502    0 -0.41819242991E+03 -0.30499668990E+03 -0.77673628845E+03  0.93340732860E+03  0.46999998093E+01 0. -1.
       -5    1    3    3    0  502  0.41819242991E+03  0.30499668990E+03 -0.87583683497E+02  0.52497702892E+03  0.46999998093E+01 0.  1.
</event>
<event>
 5   0  0.3650180E-03  0.1204824E+04  0.7818609E-02  0.9108645E-01
        2   -1    0    0  501    0  0.00000000000E+00  0.00000000000E+00  0.12067170090E+04  0.12067170090E+04  0.25500000920E-02 0.  1.
       -2   -1    0    0    0  501  0.00000000000E+00  0.00000000000E+00 -0.30073342483E+03  0.30073342484E+03  0.25500000920E-02 0. -1.
    10030    2    1    2    0    0  0.00000000000E+00  0.00000000000E+00  0.90598358413E+03  0.15074504338E+04  0.12048238691E+04 0.  0.
        3    1    3    3  502    0 -0.54853467014E+03 -0.19995990654E+03  0.26730281917E+03  0.64212542069E+03  0.10100000352E+00 0. -1.
       -3    1    3    3    0  502  0.54853467014E+03  0.19995990654E+03  0.63868076496E+03  0.86532501310E+03  0.10100000352E+00 0.  1.
</event>
<event>
 5   0  0.2134992E-03  0.1156791E+04  0.7818609E-02  0.9151541E-01
        1   -1    0    0  501    0  0.00000000000E+00  0.00000000000E+00  0.11475652066E+04  0.11475652066E+04  0.50400001928E-02 0.  1.
       -1   -1    0    0    0  501  0.00000000000E+00  0.00000000000E+00 -0.29152296882E+03  0.29152296887E+03  0.50400001928E-02 0. -1.
    10030    2    1    2    0    0  0.00000000000E+00  0.00000000000E+00  0.85604223774E+03  0.14390881754E+04  0.11567914522E+04 0.  0.
        4    1    3    3  502    0 -0.25358974885E+03  0.24824482958E+03 -0.14017270559E+03  0.38155373990E+03  0.12699999809E+01 0. -1.
       -4    1    3    3    0  502  0.25358974885E+03 -0.24824482958E+03  0.99621494333E+03  0.10575344355E+04  0.12699999809E+01 0.  1.
</event>
<event>
 5   0  0.3751091E-03  0.1193470E+04  0.7818609E-02  0.9118591E-01
       -2   -1    0    0    0  501  0.00000000000E+00  0.00000000000E+00  0.17366673721E+03  0.17366673722E+03  0.25500000920E-02 0.  1.
        2   -1    0    0  501    0  0.00000000000E+00  0.00000000000E+00 -0.20504369250E+04  0.20504369250E+04  0.25500000920E-02 0. -1.
    10030    2    1    2    0    0  0.00000000000E+00  0.00000000000E+00 -0.18767701878E+04  0.22241036623E+04  0.11934700510E+04 0.  0.
        5    1    3    3  502    0 -0.35847419551E+03 -0.47476216767E+03 -0.10251505171E+04  0.11852672852E+04  0.46999998093E+01 0.  1.
       -5    1    3    3    0  502  0.35847419551E+03  0.47476216767E+03 -0.85161967074E+03  0.10388363771E+04  0.46999998093E+01 0. -1.
</event>
<event>
 5   0  0.2025294E-03  0.1204842E+04  0.7818609E-02  0.9108629E-01
       -1   -1    0    0    0  501  0.00000000000E+00  0.00000000000E+00  0.35403863493E+03  0.35403863497E+03  0.50400001928E-02 0.  1.
        1   -1    0    0  501    0  0.00000000000E+00  0.00000000000E+00 -0.10250603851E+04  0.10250603851E+04  0.50400001928E-02 0. -1.
    10030    2    1    2    0    0  0.00000000000E+00  0.00000000000E+00 -0.67102175014E+03  0.13790990200E+04  0.12048418643E+04 0.  0.
        5    1    3    3  502    0  0.19597291057E+03  0.38756192064E+03  0.14233546158E+03  0.45704605635E+03  0.46999998093E+01 0.  1.
       -5    1    3    3    0  502 -0.19597291057E+03 -0.38756192064E+03 -0.81335721172E+03  0.92205296369E+03  0.46999998093E+01 0. -1.
</event>
<event>
 5   0  0.2025294E-03  0.1200233E+04  0.7818609E-02  0.9112652E-01
       -1   -1    0    0    0  501  0.00000000000E+00  0.00000000000E+00  0.37956406442E+03  0.37956406445E+03  0.50400001928E-02 0. -1.
        1   -1    0    0  501    0  0.00000000000E+00  0.00000000000E+00 -0.94882506396E+03  0.94882506397E+03  0.50400001928E-02 0.  1.
    10030    2    1    2    0    0  0.00000000000E+00  0.00000000000E+00 -0.56926099954E+03  0.13283891284E+04  0.12002331402E+04 0.  0.
        5    1    3    3  502    0  0.41644700196E+03  0.30304288812E+03  0.56239789702E+02  0.51811977517E+03  0.46999998093E+01 0.  1.
       -5    1    3    3    0  502 -0.41644700196E+03 -0.30304288812E+03 -0.62550078924E+03  0.81026935325E+03  0.46999998093E+01 0. -1.
</event>
<event>
 5   0  0.2025294E-03  0.1209589E+04  0.7818609E-02  0.9104504E-01
        1   -1    0    0  501    0  0.00000000000E+00  0.00000000000E+00  0.23269751187E+04  0.23269751187E+04  0.50400001928E-02 0. -1.
       -1   -1    0    0    0  501  0.00000000000E+00  0.00000000000E+00 -0.15718972547E+03  0.15718972555E+03  0.50400001928E-02 0.  1.
    10030    2    1    2    0    0  0.00000000000E+00  0.00000000000E+00  0.21697853933E+04  0.24841648443E+04  0.12095893191E+04 0.  0.
        5    1    3    3  502    0  0.59334673596E+03 -0.91859082197E+02  0.12337849894E+04  0.13721318924E+04  0.46999998093E+01 0.  1.
       -5    1    3    3    0  502 -0.59334673596E+03  0.91859082197E+02  0.93600040384E+03  0.11120329519E+04  0.46999998093E+01 0. -1.
</event>
<event>
 5   0  0.2047109E-03  0.1213176E+04  0.7818609E-02  0.9101401E-01
       -1   -1    0    0    0  501  0.00000000000E+00  0.00000000000E+00  0.78325760357E+03  0.78325760359E+03  0.50400001928E-02 0. -1.
        1   -1    0    0  501    0  0.00000000000E+00  0.00000000000E+00 -0.46976750350E+03  0.46976750352E+03  0.50400001928E-02 0.  1.
    10030    2    1    2    0    0  0.00000000000E+00  0.00000000000E+00  0.31349010007E+03  0.12530251071E+04  0.12131759461E+04 0.  0.
        1    1    3    3  502    0  0.23770394190E+03 -0.21175873986E+03  0.69004230258E+03  0.75993638371E+03  0.50400001928E-02 0. -1.
       -1    1    3    3    0  502 -0.23770394190E+03  0.21175873986E+03 -0.37655220251E+03  0.49308872340E+03  0.50400001928E-02 0.  1.
</event>
<event>
 5   0  0.3650180E-03  0.1202745E+04  0.7818609E-02  0.9110457E-01
        2   -1    0    0  501    0  0.00000000000E+00  0.00000000000E+00  0.13324285911E+04  0.13324285911E+04  0.25500000920E-02 0. -1.
       -2   -1    0    0    0  501  0.00000000000E+00  0.00000000000E+00 -0.27142074627E+03  0.27142074628E+03  0.25500000920E-02 0.  1.
    10030    2    1    2    0    0  0.00000000000E+00  0.00000000000E+00  0.10610078449E+04  0.16038493374E+04  0.12027447985E+04 0.  0.
        3    1    3    3  502    0  0.21685869520E+03 -0.52054420562E+03  0.80911990571E+03  0.98623982666E+03  0.10100000352E+00 0.  1.
       -3    1    3    3    0  502 -0.21685869520E+03  0.52054420562E+03  0.25188793917E+03  0.61760951076E+03  0.10100000352E+00 0. -1.
</event>
<event>
 5   0  0.1397500E-03  0.1203820E+04  0.7818609E-02  0.9109519E-01
        4   -1    0    0  501    0  0.00000000000E+00  0.00000000000E+00  0.44901836068E+03  0.44902015670E+03  0.12699999809E+01 0. -1.
       -4   -1    0    0    0  501  0.00000000000E+00  0.00000000000E+00 -0.80685781886E+03  0.80685881836E+03  0.12699999809E+01 0.  1.
    10030    2    1    2    0    0  0.00000000000E+00  0.00000000000E+00 -0.35783945819E+03  0.12558789751E+04  0.12038201370E+04 0.  0.
        4    1    3    3  502    0  0.17286577836E+03  0.15324092837E+03  0.40092986233E+03  0.46272208383E+03  0.12699999809E+01 0. -1.
       -4    1    3    3    0  502 -0.17286577836E+03 -0.15324092837E+03 -0.75876932051E+03  0.79315689123E+03  0.12699999809E+01 0.  1.
</event>
<event>
 5   0  0.2134992E-03  0.1191470E+04  0.7818609E-02  0.9120355E-01
       -1   -1    0    0    0  501  0.00000000000E+00  0.00000000000E+00  0.39596282704E+03  0.39596282707E+03  0.50400001928E-02 0.  1.
        1   -1    0    0  501    0  0.00000000000E+00  0.00000000000E+00 -0.89629720404E+03  0.89629720405E+03  0.50400001928E-02 0. -1.
    10030    2    1    2    0    0  0.00000000000E+00  0.00000000000E+00 -0.50033437700E+03  0.12922600311E+04  0.11914703098E+04 0.  0.
        4    1    3    3  502    0 -0.35247347891E+03 -0.33862961309E+03  0.11921776111E+03  0.50311236882E+03  0.12699999809E+01 0.  1.
       -4    1    3    3    0  502  0.35247347891E+03  0.33862961309E+03 -0.61955213811E+03  0.78914766231E+03  0.12699999809E+01 0. -1.
</event>
<event>
 5   0  0.3725376E-03  0.1193434E+04  0.7818609E-02  0.9118623E-01
        2   -1    0    0  501    0  0.00000000000E+00  0.00000000000E+00  0.63922470460E+03  0.63922470461E+03  0.25500000920E-02 0. -1.
       -2   -1    0    0    0  501  0.00000000000E+00  0.00000000000E+00 -0.55703644067E+03  0.55703644068E+03  0.25500000920E-02 0.  1.
    10030    2    1    2    0    0  0.00000000000E+00  0.00000000000E+00  0.82188263925E+02  0.11962611453E+04  0.11934344628E+04 0.  0.
        4    1    3    3  502    0 -0.21338332187E+03 -0.10734897921E+03 -0.50702238606E+03  0.56047262043E+03  0.12699999809E+01 0.  1.
       -4    1    3    3    0  502  0.21338332187E+03  0.10734897921E+03  0.58921064998E+03  0.63578852486E+03  0.12699999809E+01 0. -1.
</event>
<event>
 5   0  0.3706035E-03  0.1250405E+04  0.7818609E-02  0.9069847E-01
       -2   -1    0    0    0  501  0.00000000000E+00  0.00000000000E+00  0.20277725017E+03  0.20277725019E+03  0.25500000920E-02 0.  1.
        2   -1    0    0  501    0  0.00000000000E+00  0.00000000000E+00 -0.19276218862E+04  0.19276218862E+04  0.25500000920E-02 0. -1.
    10030    2    1    2    0    0  0.00000000000E+00  0.00000000000E+00 -0.17248446361E+04  0.21303991364E+04  0.12504045193E+04 0.  0.
        2    1    3    3  502    0 -0.46569205399E+03  0.15095028123E+03 -0.15249729374E+04  0.16016234066E+04  0.25500000920E-02 0. -1.
       -2    1    3    3    0  502  0.46569205399E+03 -0.15095028123E+03 -0.19987169862E+03  0.52877572985E+03  0.25500000920E-02 0.  1.
</event>
<event>
 5   0  0.2047109E-03  0.1220242E+04  0.7818609E-02  0.9095321E-01
       -1   -1    0    0    0  501  0.00000000000E+00  0.00000000000E+00  0.51361348092E+03  0.51361348094E+03  0.50400001928E-02 0.  1.
        1   -1    0    0  501    0  0.00000000000E+00  0.00000000000E+00 -0.72476173551E+03  0.72476173552E+03  0.50400001928E-02 0. -1.
    10030    2    1    2    0    0  0.00000000000E+00  0.00000000000E+00 -0.21114825459E+03  0.12383752165E+04  0.12202416119E+04 0.  0.
        1    1    3    3  502    0  0.15471777006E+03  0.55758280799E+03 -0.30186828151E+03  0.65265659849E+03  0.50400001928E-02 0. -1.
       -1    1    3    3    0  502 -0.15471777006E+03 -0.55758280799E+03  0.90720026924E+02  0.58571861798E+03  0.50400001928E-02 0.  1.
</event>
<event>
 5   0  0.3751091E-03  0.1221794E+04  0.7818609E-02  0.9093991E-01
       -2   -1    0    0    0  501  0.00000000000E+00  0.00000000000E+00  0.33609591035E+03  0.33609591036E+03  0.25500000920E-02 0. -1.
        2   -1    0    0  501    0  0.00000000000E+00  0.00000000000E+00 -0.11103828495E+04  0.11103828495E+04  0.25500000920E-02 0.  1.
    10030    2    1    2    0    0  0.00000000000E+00  0.00000000000E+00 -0.77428693920E+03  0.14464787599E+04  0.12217939837E+04 0.  0.
        5    1    3    3  502    0  0.16634595921E+03 -0.53679895927E+02 -0.10801235853E+04  0.10941853403E+04  0.46999998093E+01 0.  1.
       -5    1    3    3    0  502 -0.16634595921E+03  0.53679895927E+02  0.30583664613E+03  0.35229341959E+03  0.46999998093E+01 0. -1.
</event>
<event>
 5   0  0.2078258E-03  0.1209854E+04  0.7818609E-02  0.9104275E-01
       -1   -1    0    0    0  501  0.00000000000E+00  0.00000000000E+00  0.12963519574E+04  0.12963519574E+04  0.50400001928E-02 0. -1.
        1   -1    0    0  501    0  0.00000000000E+00  0.00000000000E+00 -0.28228203308E+03  0.28228203313E+03  0.50400001928E-02 0.  1.
    10030    2    1    2    0    0  0.00000000000E+00  0.00000000000E+00  0.10140699243E+04  0.15786339905E+04  0.12098543155E+04 0.  0.
        3    1    3    3  502    0  0.57431829035E+03 -0.17524490417E+03  0.60278177457E+03  0.85082204545E+03  0.10100000352E+00 0. -1.
       -3    1    3    3    0  502 -0.57431829035E+03  0.17524490417E+03  0.41128814972E+03  0.72781194506E+03  0.10100000352E+00 0.  1.
</event>
<event>
 5   0  0.3725376E-03  0.1228993E+04  0.7818609E-02  0.9087851E-01
       -2   -1    0    0    0  501  0.00000000000E+00  0.00000000000E+00  0.34416026964E+03  0.34416026965E+03  0.25500000920E-02 0.  1.
        2   -1    0    0  501    0  0.00000000000E+00  0.00000000000E+00 -0.10971803028E+04  0.10971803028E+04  0.25500000920E-02 0. -1.
    10030    2    1    2    0    0  0.00000000000E+00  0.00000000000E+00 -0.75302003314E+03  0.14413405724E+04  0.12289928704E+04 0.  0.
        4    1    3    3  502    0 -0.11264796485E+03  0.20645824387E+03 -0.10423048975E+04  0.10685109651E+04  0.12699999809E+01 0. -1.
       -4    1    3    3    0  502  0.11264796485E+03 -0.20645824387E+03  0.28928486433E+03  0.37282960729E+03  0.12699999809E+01 0.  1.
</event>
<event>
 5   0  0.1397500E-03  0.1212359E+04  0.7818609E-02  0.9102107E-01
       -3   -1    0    0    0  501  0.00000000000E+00  0.00000000000E+00  0.35948076705E+03  0.35948078124E+03  0.10100000352E+00 0. -1.
        3   -1    0    0  501    0  0.00000000000E+00  0.00000000000E+00 -0.10221787204E+04  0.10221787253E+04  0.10100000352E+00 0.  1.
    10030    2    1    2    0    0  0.00000000000E+00  0.00000000000E+00 -0.66269795330E+03  0.13816595066E+04  0.12123590288E+04 0.  0.
        3    1    3    3  502    0 -0.55709455362E+03 -0.61818238213E+02 -0.59440166575E+03  0.81700011426E+03  0.10100000352E+00 0.  1.
       -3    1    3    3    0  502  0.55709455362E+03  0.61818238213E+02 -0.68296287556E+02  0.56465939233E+03  0.10100000352E+00 0. -1.
</event>
<event>
 5   0  0.1397500E-03  0.1206260E+04  0.7818609E-02  0.9107394E-01
       -4   -1    0    0    0  501  0.00000000000E+00  0.00000000000E+00  0.61792941495E+03  0.61793072003E+03  0.12699999809E+01 0. -1.
        4   -1    0    0  501    0  0.00000000000E+00  0.00000000000E+00 -0.58868286561E+03  0.58868423553E+03  0.12699999809E+01 0.  1.
    10030    2    1    2    0    0  0.00000000000E+00  0.00000000000E+00  0.29246549336E+02  0.12066149556E+04  0.12062604571E+04 0.  0.
        4    1    3    3  502    0 -0.62998164710E+02  0.10613655999E+03 -0.57591512850E+03  0.58899370646E+03  0.12699999809E+01 0.  1.
       -4    1    3    3    0  502  0.62998164710E+02 -0.10613655999E+03  0.60516167783E+03  0.61762124910E+03  0.12699999809E+01 0. -1.
</event>
<event>
 5   0  0.2047109E-03  0.1150213E+04  0.7818609E-02  0.9157587E-01
       -1   -1    0    0    0  501  0.00000000000E+00  0.00000000000E+00  0.40719110724E+03  0.40719110727E+03  0.50400001928E-02 0. -1.
        1   -1    0    0  501    0  0.00000000000E+00  0.00000000000E+00 -0.81226573499E+03  0.81226573500E+03  0.50400001928E-02 0.  1.
    10030    2    1    2    0    0  0.00000000000E+00  0.00000000000E+00 -0.40507462775E+03  0.12194568423E+04  0.11502128221E+04 0.  0.
        1    1    3    3  502    0  0.32368331119E+03 -0.25842261292E+02  0.30070504290E+03  0.44256325115E+03  0.50400001928E-02 0. -1.
       -1    1    3    3    0  502 -0.32368331119E+03  0.25842261292E+02 -0.70577967065E+03  0.77689359113E+03  0.50400001928E-02 0.  1.
</event>
<event>
 5   0  0.2047109E-03  0.1170217E+04  0.7818609E-02  0.9139332E-01
        1   -1    0    0  501    0  0.00000000000E+00  0.00000000000E+00  0.75222691982E+03  0.75222691984E+03  0.50400001928E-02 0. -1.
       -1   -1    0    0    0  501  0.00000000000E+00  0.00000000000E+00 -0.45511799995E+03  0.45511799997E+03  0.50400001928E-02 0.  1.
    10030    2    1    2    0    0  0.00000000000E+00  0.00000000000E+00  0.29710891988E+03  0.12073449198E+04  0.11702170932E+04 0.  0.
        1    1    3    3  502    0 -0.48702001049E+03 -0.66875345229E+02 -0.17883198875E+03  0.52310771610E+03  0.50400001928E-02 0.  1.
       -1    1    3    3    0  502  0.48702001049E+03  0.66875345229E+02  0.47594090863E+03  0.68423720372E+03  0.50400001928E-02 0. -1.
</event>
<event>
 5   0  0.2078258E-03  0.1226315E+04  0.7818609E-02  0.9090130E-01
       -1   -1    0    0    0  501  0.00000000000E+00  0.00000000000E+00  0.44115316606E+03  0.44115316609E+03  0.50400001928E-02 0.  1.
        1   -1    0    0  501    0  0.00000000000E+00  0.00000000000E+00 -0.85222635275E+03  0.85222635277E+03  0.50400001928E-02 0. -1.
    10030    2    1    2    0    0  0.00000000000E+00  0.00000000000E+00 -0.41107318669E+03  0.12933795189E+04  0.12263153815E+04 0.  0.
        3    1    3    3  502    0  0.25269640317E+03 -0.92332028208E+02  0.37557772348E+03  0.46199492657E+03  0.10100000352E+00 0.  1.
       -3    1    3    3    0  502 -0.25269640317E+03  0.92332028208E+02 -0.78665091017E+03  0.83138459228E+03  0.10100000352E+00 0. -1.
</event>
<event>
 5   0  0.3725376E-03  0.1206781E+04  0.7818609E-02  0.9106942E-01
       -2   -1    0    0    0  501  0.00000000000E+00  0.00000000000E+00  0.24785633677E+03  0.24785633678E+03  0.25500000920E-02 0. -1.
        2   -1    0    0  501    0  0.00000000000E+00  0.00000000000E+00 -0.14689164622E+04  0.14689164622E+04  0.25500000920E-02 0.  1.
    10030    2    1    2    0    0  0.00000000000E+00  0.00000000000E+00 -0.12210601255E+04  0.17167727990E+04  0.12067812616E+04 0.  0.
        4    1    3    3  502    0 -0.75963057290E+02  0.13488262288E+03  0.21912413598E+03  0.26829220618E+03  0.12699999809E+01 0. -1.
       -4    1    3    3    0  502  0.75963057290E+02 -0.13488262288E+03 -0.14401842614E+04  0.14484805928E+04  0.12699999809E+01 0.  1.
</event>
<event>
 5   0  0.3626049E-03  0.1207985E+04  0.7818609E-02  0.9105896E-01
       -2   -1    0    0    0  501  0.00000000000E+00  0.00000000000E+00  0.33776318140E+03  0.33776318141E+03  0.25500000920E-02 0.  1.
        2   -1    0    0  501    0  0.00000000000E+00  0.00000000000E+00 -0.10800679180E+04  0.10800679180E+04  0.25500000920E-02 0. -1.
    10030    2    1    2    0    0  0.00000000000E+00  0.00000000000E+00 -0.74230473665E+03  0.14178310995E+04  0.12079853909E+04 0.  0.
        1    1    3    3  502    0  0.54658961341E+02  0.34681297067E+03 -0.94799539970E+03  0.10109214196E+04  0.50400001928E-02 0. -1.
       -1    1    3    3    0  502 -0.54658961341E+02 -0.34681297067E+03  0.20569066306E+03  0.40690967988E+03  0.50400001928E-02 0.  1.
</event>
<event>
 5   0  0.1397500E-03  0.1125860E+04  0.7818609E-02  0.9180348E-01
        4   -1    0    0  501    0  0.00000000000E+00  0.00000000000E+00  0.27160896945E+03  0.27161193859E+03  0.12699999809E+01 0. -1.
       -4   -1    0    0    0  501  0.00000000000E+00  0.00000000000E+00 -0.11667040618E+04  0.11667047530E+04  0.12699999809E+01 0.  1.
    10030    2    1    2    0    0  0.00000000000E+00  0.00000000000E+00 -0.89509509236E+03  0.14383166916E+04  0.11258595299E+04 0.  0.
        1    1    3    3  502    0  0.40699659419E+03 -0.36284028327E+03 -0.62635862268E+03  0.83043628478E+03  0.50400001928E-02 0.  1.
       -1    1    3    3    0  502 -0.40699659419E+03  0.36284028327E+03 -0.26873646968E+03  0.60788040684E+03  0.50400001928E-02 0. -1.
</event>
<event>
 5   0  0.2096270E-03  0.1195796E+04  0.7818609E-02  0.9116544E-01
       -1   -1    0    0    0  501  0.00000000000E+00  0.00000000000E+00  0.13817476818E+03  0.13817476827E+03  0.50400001928E-02 0. -1.
        1   -1    0    0  501    0  0.00000000000E+00  0.00000000000E+00 -0.25871717899E+04  0.25871717900E+04  0.50400001928E-02 0.  1.
    10030    2    1    2    0    0  0.00000000000E+00  0.00000000000E+00 -0.24489970218E+04  0.27253465582E+04  0.11957957392E+04 0.  0.
        2    1    3    3  502    0 -0.48305214466E+03 -0.93638678088E+00 -0.42148394564E+03  0.64108421266E+03  0.25500000920E-02 0. -1.
       -2    1    3    3    0  502  0.48305214466E+03  0.93638678088E+00 -0.20275130761E+04  0.20842623456E+04  0.25500000920E-02 0.  1.
</event>
<event>
 5   0  0.2025294E-03  0.1218740E+04  0.7818609E-02  0.9096610E-01
       -1   -1    0    0    0  501  0.00000000000E+00  0.00000000000E+00  0.77512509563E+03  0.77512509565E+03  0.50400001928E-02 0. -1.
        1   -1    0    0  501    0  0.00000000000E+00  0.00000000000E+00 -0.47906049961E+03  0.47906049963E+03  0.50400001928E-02 0.  1.
    10030    2    1    2    0    0  0.00000000000E+00  0.00000000000E+00  0.29606459602E+03  0.12541855953E+04  0.12187400307E+04 0.  0.
        5    1    3    3  502    0  0.31642368563E+03 -0.27143301373E+03 -0.30931399390E+03  0.51913106880E+03  0.46999998093E+01 0.  1.
       -5    1    3    3    0  502 -0.31642368563E+03  0.27143301373E+03  0.60537858992E+03  0.73505452648E+03  0.46999998093E+01 0. -1.
</event>
<event>
 5   0  0.3725376E-03  0.1186382E+04  0.7818609E-02  0.9124860E-01
        2   -1    0    0  501    0  0.00000000000E+00  0.00000000000E+00  0.12507316824E+04  0.12507316824E+04  0.25500000920E-02 0. -1.
       -2   -1    0    0    0  501  0.00000000000E+00  0.00000000000E+00 -0.28133580074E+03  0.28133580075E+03  0.25500000920E-02 0.  1.
    10030    2    1    2    0    0  0.00000000000E+00  0.00000000000E+00  0.96939588168E+03  0.15320674832E+04  0.11863820622E+04 0.  0.
        4    1    3    3  502    0  0.26636725836E+03 -0.47211997518E+03  0.79577045808E+03  0.96286085294E+03  0.12699999809E+01 0. -1.
       -4    1    3    3    0  502 -0.26636725836E+03  0.47211997518E+03  0.17362542361E+03  0.56920663024E+03  0.12699999809E+01 0.  1.
</event>
<event>
 5   0  0.2078258E-03  0.1200496E+04  0.7818609E-02  0.9112423E-01
        1   -1    0    0  501    0  0.00000000000E+00  0.00000000000E+00  0.12127638148E+04  0.12127638148E+04  0.50400001928E-02 0. -1.
       -1   -1    0    0    0  501  0.00000000000E+00  0.00000000000E+00 -0.29708786722E+03  0.29708786726E+03  0.50400001928E-02 0.  1.
    10030    2    1    2    0    0  0.00000000000E+00  0.00000000000E+00  0.91567594753E+03  0.15098516820E+04  0.12004955897E+04 0.  0.
        3    1    3    3  502    0  0.27265936087E+03  0.34603139859E+02  0.11289744555E+04  0.11619482931E+04  0.10100000352E+00 0. -1.
       -3    1    3    3    0  502 -0.27265936087E+03 -0.34603139859E+02 -0.21329850797E+03  0.34790338897E+03  0.10100000352E+00 0.  1.
</event>
<event>
 5   0  0.3725376E-03  0.1115391E+04  0.7818609E-02  0.9190320E-01
        2   -1    0    0  501    0  0.00000000000E+00  0.00000000000E+00  0.19657372760E+04  0.19657372760E+04  0.25500000920E-02 0. -1.
       -2   -1    0    0    0  501  0.00000000000E+00  0.00000000000E+00 -0.15822260984E+03  0.15822260986E+03  0.25500000920E-02 0.  1.
    10030    2    1    2    0    0  0.00000000000E+00  0.00000000000E+00  0.18075146661E+04  0.21239598858E+04  0.11153906618E+04 0.  0.
        4    1    3    3  502    0 -0.20963664096E+03  0.49700352239E+03  0.11734761547E+04  0.12915138099E+04  0.12699999809E+01 0. -1.
       -4    1    3    3    0  502  0.20963664096E+03 -0.49700352239E+03  0.63403851137E+03  0.83244607592E+03  0.12699999809E+01 0.  1.
</event>
<event>
 5   0  0.2078258E-03  0.1204959E+04  0.7818609E-02  0.9108527E-01
        1   -1    0    0  501    0  0.00000000000E+00  0.00000000000E+00  0.68187658385E+03  0.68187658387E+03  0.50400001928E-02 0.  1.
       -1   -1    0    0    0  501  0.00000000000E+00  0.00000000000E+00 -0.53232765321E+03  0.53232765323E+03  0.50400001928E-02 0. -1.
    10030    2    1    2    0    0  0.00000000000E+00  0.00000000000E+00  0.14954893064E+03  0.12142042371E+04  0.12049593548E+04 0.  0.
        3    1    3    3  502    0  0.77464002941E+02  0.30420125113E+03  0.59295980282E+03  0.67092504119E+03  0.10100000352E+00 0.  1.
       -3    1    3    3    0  502 -0.77464002941E+02 -0.30420125113E+03 -0.44341087218E+03  0.54327919591E+03  0.10100000352E+00 0. -1.
</event>
<event>
 5   0  0.2078258E-03  0.1493292E+04  0.7818609E-02  0.8888926E-01
       -1   -1    0    0    0  501  0.00000000000E+00  0.00000000000E+00  0.44607806419E+03  0.44607806422E+03  0.50400001928E-02 0.  1.
        1   -1    0    0  501    0  0.00000000000E+00  0.00000000000E+00 -0.12497364557E+04  0.12497364557E+04  0.50400001928E-02 0. -1.
    10030    2    1    2    0    0  0.00000000000E+00  0.00000000000E+00 -0.80365839153E+03  0.16958145199E+04  0.14932916915E+04 0.  0.
        3    1    3    3  502    0 -0.16938559324E+03  0.26009347489E+03  0.36934068255E+03  0.48244444744E+03  0.10100000352E+00 0.  1.
       -3    1    3    3    0  502  0.16938559324E+03 -0.26009347489E+03 -0.11729990741E+04  0.12133700725E+04  0.10100000352E+00 0. -1.
</event>
<event>
 5   0  0.3626049E-03  0.1209686E+04  0.7818609E-02  0.9104421E-01
        2   -1    0    0  501    0  0.00000000000E+00  0.00000000000E+00  0.93761185413E+03  0.93761185413E+03  0.25500000920E-02 0.  1.
       -2   -1    0    0    0  501  0.00000000000E+00  0.00000000000E+00 -0.39017719276E+03  0.39017719277E+03  0.25500000920E-02 0. -1.
    10030    2    1    2    0    0  0.00000000000E+00  0.00000000000E+00  0.54743466137E+03  0.13277890469E+04  0.12096855147E+04 0.  0.
        1    1    3    3  502    0 -0.16919143516E+03  0.58067380096E+03  0.27941617170E+03  0.66624410082E+03  0.50400001928E-02 0. -1.
       -1    1    3    3    0  502  0.16919143516E+03 -0.58067380096E+03  0.26801848967E+03  0.66154494607E+03  0.50400001928E-02 0.  1.
</event>
<event>
 5   0  0.3626049E-03  0.9837259E+03  0.7818609E-02  0.9326576E-01
       -2   -1    0    0    0  501  0.00000000000E+00  0.00000000000E+00  0.29806953542E+03  0.29806953543E+03  0.25500000920E-02 0.  1.
        2   -1    0    0  501    0  0.00000000000E+00  0.00000000000E+00 -0.81165340788E+03  0.81165340789E+03  0.25500000920E-02 0. -1.
    10030    2    1    2    0    0  0.00000000000E+00  0.00000000000E+00 -0.51358387247E+03  0.11097229433E+04  0.98372588503E+03 0.  0.
        1    1    3    3  502    0 -0.22071174011E+03 -0.10367918056E+03 -0.73866380346E+03  0.77787354967E+03  0.50400001928E-02 0. -1.
       -1    1    3    3    0  502  0.22071174011E+03  0.10367918056E+03  0.22507993100E+03  0.33184939365E+03  0.50400001928E-02 0.  1.
</event>
<event>
 5   0  0.3725376E-03  0.1217774E+04  0.7818609E-02  0.9097440E-01
       -2   -1    0    0    0  501  0.00000000000E+00  0.00000000000E+00  0.18988067662E+03  0.18988067664E+03  0.25500000920E-02 0. -1.
        2   -1    0    0  501    0  0.00000000000E+00  0.00000000000E+00 -0.19525073389E+04  0.19525073389E+04  0.25500000920E-02 0.  1.
    10030    2    1    2    0    0  0.00000000000E+00  0.00000000000E+00 -0.17626266623E+04  0.21423880156E+04  0.12177740589E+04 0.  0.
        4    1    3    3  502    0 -0.21630830100E+03 -0.14612580990E+03 -0.18490689631E+04  0.18674045294E+04  0.12699999809E+01 0.  1.
       -4    1    3    3    0  502  0.21630830100E+03  0.14612580990E+03  0.86442300751E+02  0.27498348616E+03  0.12699999809E+01 0. -1.
</event>
<event>
 5   0  0.3725376E-03  0.1196352E+04  0.7818609E-02  0.9116056E-01
       -2   -1    0    0    0  501  0.00000000000E+00  0.00000000000E+00  0.25061242281E+03  0.25061242283E+03  0.25500000920E-02 0.  1.
        2   -1    0    0  501    0  0.00000000000E+00  0.00000000000E+00 -0.14277603689E+04  0.14277603689E+04  0.25500000920E-02 0. -1.
    10030    2    1    2    0    0  0.00000000000E+00  0.00000000000E+00 -0.11771479460E+04  0.16783727917E+04  0.11963519302E+04 0.  0.
        4    1    3    3  502    0  0.47736455721E+03  0.34593093505E+03 -0.73073053391E+03  0.93888969448E+03  0.12699999809E+01 0.  1.
       -4    1    3    3    0  502 -0.47736455721E+03 -0.34593093505E+03 -0.44641741213E+03  0.73948309721E+03  0.12699999809E+01 0. -1.
</event>
<event>
 5   0  0.2047109E-03  0.1192754E+04  0.7818609E-02  0.9119222E-01
        1   -1    0    0  501    0  0.00000000000E+00  0.00000000000E+00  0.58041503682E+03  0.58041503684E+03  0.50400001928E-02 0.  1.
       -1   -1    0    0    0  501  0.00000000000E+00  0.00000000000E+00 -0.61277831739E+03  0.61277831741E+03  0.50400001928E-02 0. -1.
    10030    2    1    2    0    0  0.00000000000E+00  0.00000000000E+00 -0.32363280570E+02  0.11931933542E+04  0.11927543748E+04 0.  0.
        1    1    3    3  502    0 -0.33214577433E+03 -0.65734688075E+02  0.47494087983E+03  0.58327583867E+03  0.50400001928E-02 0.  1.
       -1    1    3    3    0  502  0.33214577433E+03  0.65734688075E+02 -0.50730416040E+03  0.60991751557E+03  0.50400001928E-02 0. -1.
</event>
<event>
 5   0  0.2078258E-03  0.1482342E+04  0.7818609E-02  0.8896281E-01
       -1   -1    0    0    0  501  0.00000000000E+00  0.00000000000E+00  0.10136644320E+04  0.10136644320E+04  0.50400001928E-02 0. -1.
        1   -1    0    0  501    0  0.00000000000E+00  0.00000000000E+00 -0.54192924962E+03  0.54192924965E+03  0.50400001928E-02 0.  1.
    10030    2    1    2    0    0  0.00000000000E+00  0.00000000000E+00  0.47173518241E+03  0.15555936817E+04  0.14823419377E+04 0.  0.
        3    1    3    3  502    0  0.41343962121E+03  0.38653070125E+03  0.73805036338E+03  0.93008421796E+03  0.10100000352E+00 0. -1.
       -3    1    3    3    0  502 -0.41343962121E+03 -0.38653070125E+03 -0.26631518097E+03  0.62550946373E+03  0.10100000352E+00 0.  1.
</event>
<event>
 5   0  0.3706035E-03  0.1214069E+04  0.7818609E-02  0.9100630E-01
       -2   -1    0    0    0  501  0.00000000000E+00  0.00000000000E+00  0.92755993042E+03  0.92755993042E+03  0.25500000920E-02 0.  1.
        2   -1    0    0  501    0  0.00000000000E+00  0.00000000000E+00 -0.39726907663E+03  0.39726907664E+03  0.25500000920E-02 0. -1.
    10030    2    1    2    0    0  0.00000000000E+00  0.00000000000E+00  0.53029085379E+03  0.13248290071E+04  0.12140689883E+04 0.  0.
        2    1    3    3  502    0  0.26239953066E+03  0.25045286721E+03  0.79628519936E+03  0.87501444052E+03  0.25500000920E-02 0.  1.
       -2    1    3    3    0  502 -0.26239953066E+03 -0.25045286721E+03 -0.26599434558E+03  0.44981456654E+03  0.25500000920E-02 0. -1.
</event>
<event>
 5   0  0.2096270E-03  0.1226298E+04  0.7818609E-02  0.9090145E-01
        1   -1    0    0  501    0  0.00000000000E+00  0.00000000000E+00  0.26019946065E+03  0.26019946070E+03  0.50400001928E-02 0.  1.
       -1   -1    0    0    0  501  0.00000000000E+00  0.00000000000E+00 -0.14448589482E+04  0.14448589482E+04  0.50400001928E-02 0. -1.
    10030    2    1    2    0    0  0.00000000000E+00  0.00000000000E+00 -0.11846594875E+04  0.17050584089E+04  0.12262977111E+04 0.  0.
        2    1    3    3  502    0  0.12702836785E+03 -0.26083076961E+03 -0.13433870147E+04  0.13743571471E+04  0.25500000920E-02 0. -1.
       -2    1    3    3    0  502 -0.12702836785E+03  0.26083076961E+03  0.15872752719E+03  0.33070126173E+03  0.25500000920E-02 0.  1.
</event>
<event>
 5   0  0.2134992E-03  0.1203611E+04  0.7818609E-02  0.9109702E-01
        1   -1    0    0  501    0  0.00000000000E+00  0.00000000000E+00  0.11065633044E+04  0.11065633044E+04  0.50400001928E-02 0. -1.
       -1   -1    0    0    0  501  0.00000000000E+00  0.00000000000E+00 -0.32729254415E+03  0.32729254419E+03  0.50400001928E-02 0.  1.
    10030    2    1    2    0    0  0.00000000000E+00  0.00000000000E+00  0.77927076023E+03  0.14338558486E+04  0.12036110986E+04 0.  0.
        4    1    3    3  502    0 -0.78252717257E+02  0.10109260079E+03  0.10901989776E+04  0.10976696339E+04  0.12699999809E+01 0. -1.
       -4    1    3    3    0  502  0.78252717257E+02 -0.10109260079E+03 -0.31092821733E+03  0.33618621465E+03  0.12699999809E+01 0.  1.
</event>
<event>
 5   0  0.2134992E-03  0.1204170E+04  0.7818609E-02  0.9109215E-01
        1   -1    0    0  501    0  0.00000000000E+00  0.00000000000E+00  0.91700203754E+03  0.91700203756E+03  0.50400001928E-02 0. -1.
       -1   -1    0    0    0  501  0.00000000000E+00  0.00000000000E+00 -0.39531665136E+03  0.39531665139E+03  0.50400001928E-02 0.  1.
    10030    2    1    2    0    0  0.00000000000E+00  0.00000000000E+00  0.52168538618E+03  0.13123186889E+04  0.12041697136E+04 0.  0.
        4    1    3    3  502    0 -0.78150682830E+02 -0.34189852069E+03 -0.27250028262E+03  0.44413978048E+03  0.12699999809E+01 0.  1.
       -4    1    3    3    0  502  0.78150682830E+02  0.34189852069E+03  0.79418566880E+03  0.86817890847E+03  0.12699999809E+01 0. -1.
</event>
<event>
 5   0  0.3706035E-03  0.1184029E+04  0.7818609E-02  0.9126952E-01
        2   -1    0    0  501    0  0.00000000000E+00  0.00000000000E+00  0.11887798811E+04  0.11887798811E+04  0.25500000920E-02 0.  1.
       -2   -1    0    0    0  501  0.00000000000E+00  0.00000000000E+00 -0.29482442713E+03  0.29482442714E+03  0.25500000920E-02 0. -1.
    10030    2    1    2    0    0  0.00000000000E+00  0.00000000000E+00  0.89395545401E+03  0.14836043083E+04  0.11840293028E+04 0.  0.
        2    1    3    3  502    0 -0.30640583480E+03 -0.46689090996E+02 -0.18503911013E+03  0.36097628607E+03  0.25500000920E-02 0. -1.
       -2    1    3    3    0  502  0.30640583480E+03  0.46689090996E+02  0.10789945641E+04  0.11226280222E+04  0.25500000920E-02 0.  1.
</event>
<event>
 5   0  0.2047109E-03  0.1220064E+04  0.7818609E-02  0.9095473E-01
       -1   -1    0    0    0  501  0.00000000000E+00  0.00000000000E+00  0.96145599285E+03  0.96145599286E+03  0.50400001928E-02 0.  1.
        1   -1    0    0  501    0  0.00000000000E+00  0.00000000000E+00 -0.38705802515E+03  0.38705802518E+03  0.50400001928E-02 0. -1.
    10030    2    1    2    0    0  0.00000000000E+00  0.00000000000E+00  0.57439796770E+03  0.13485140180E+04  0.12200643555E+04 0.  0.
        1    1    3    3  502    0 -0.50825626508E+03  0.24006076155E+03  0.54918943356E+03  0.78585153445E+03  0.50400001928E-02 0. -1.
       -1    1    3    3    0  502  0.50825626508E+03 -0.24006076155E+03  0.25208534141E+02  0.56266248360E+03  0.50400001928E-02 0.  1.
</event>
<event>
 5   0  0.3706035E-03  0.1179147E+04  0.7818609E-02  0.9131307E-01
       -2   -1    0    0    0  501  0.00000000000E+00  0.00000000000E+00  0.50204721880E+03  0.50204721880E+03  0.25500000920E-02 0.  1.
        2   -1    0    0  501    0  0.00000000000E+00  0.00000000000E+00 -0.69235934105E+03  0.69235934106E+03  0.25500000920E-02 0. -1.
    10030    2    1    2    0    0  0.00000000000E+00  0.00000000000E+00 -0.19031212226E+03  0.11944065599E+04  0.11791472878E+04 0.  0.
        2    1    3    3  502    0 -0.56222281359E+01 -0.56281151975E+03  0.82639357523E+02  0.56887404549E+03  0.25500000920E-02 0.  1.
       -2    1    3    3    0  502  0.56222281359E+01  0.56281151975E+03 -0.27295147978E+03  0.62553251437E+03  0.25500000920E-02 0. -1.
</event>
<event>
 5   0  0.3706035E-03  0.1202875E+04  0.7818609E-02  0.9110344E-01
        2   -1    0    0  501    0  0.00000000000E+00  0.00000000000E+00  0.53662601897E+03  0.53662601898E+03  0.25500000920E-02 0.  1.
       -2   -1    0    0    0  501  0.00000000000E+00  0.00000000000E+00 -0.67407649631E+03  0.67407649632E+03  0.25500000920E-02 0. -1.
    10030    2    1    2    0    0  0.00000000000E+00  0.00000000000E+00 -0.13745047734E+03  0.12107025153E+04  0.12028748675E+04 0.  0.
        2    1    3    3  502    0  0.59553369252E+03 -0.66604022431E+02 -0.17102964244E+02  0.59949060553E+03  0.25500000920E-02 0.  1.
       -2    1    3    3    0  502 -0.59553369252E+03  0.66604022431E+02 -0.12034751309E+03  0.61121190977E+03  0.25500000920E-02 0. -1.
</event>
<event>
 5   0  0.3706035E-03  0.1196354E+04  0.7818609E-02  0.9116054E-01
       -2   -1    0    0    0  501  0.00000000000E+00  0.00000000000E+00  0.55502988647E+03  0.55502988647E+03  0.25500000920E-02 0.  1.
        2   -1    0    0  501    0  0.00000000000E+00  0.00000000000E+00 -0.64467815647E+03  0.64467815648E+03  0.25500000920E-02 0. -1.
    10030    2    1    2    0    0  0.00000000000E+00  0.00000000000E+00 -0.89648270004E+02  0.11997080429E+04  0.11963538674E+04 0.  0.
        2    1    3    3  502    0  0.65009258272E+02  0.10769325627E+03 -0.63126420096E+03  0.64367579768E+03  0.25500000920E-02 0. -1.
       -2    1    3    3    0  502 -0.65009258272E+02 -0.10769325627E+03  0.54161593095E+03  0.55603224527E+03  0.25500000920E-02 0.  1.
</event>
<event>
 5   0  0.3626049E-03  0.1156265E+04  0.7818609E-02  0.9152024E-01
       -2   -1    0    0    0  501  0.00000000000E+00  0.00000000000E+00  0.19568183998E+03  0.19568184000E+03  0.25500000920E-02 0.  1.
        2   -1    0    0  501    0  0.00000000000E+00  0.00000000000E+00 -0.17080631119E+04  0.17080631119E+04  0.25500000920E-02 0. -1.
    10030    2    1    2    0    0  0.00000000000E+00  0.00000000000E+00 -0.15123812719E+04  0.19037449519E+04  0.11562645589E+04 0.  0.
        1    1    3    3  502    0 -0.31165500998E+03  0.47060279063E+03 -0.96210431925E+03  0.11154553119E+04  0.50400001928E-02 0. -1.
       -1    1    3    3    0  502  0.31165500998E+03 -0.47060279063E+03 -0.55027695264E+03  0.78828963993E+03  0.50400001928E-02 0.  1.
</event>
<event>
 5   0  0.2096270E-03  0.1170685E+04  0.7818609E-02  0.9138910E-01
       -1   -1    0    0    0  501  0.00000000000E+00  0.00000000000E+00  0.10028440385E+04  0.10028440386E+04  0.50400001928E-02 0. -1.
        1   -1    0    0  501    0  0.00000000000E+00  0.00000000000E+00 -0.34165423573E+03  0.34165423577E+03  0.50400001928E-02 0.  1.
    10030    2    1    2    0    0  0.00000000000E+00  0.00000000000E+00  0.66118980281E+03  0.13444982743E+04  0.11706851218E+04 0.  0.
        2    1    3    3  502    0 -0.39940494859E+03 -0.59647527117E+02 -0.15604232034E+03  0.43293342005E+03  0.25500000920E-02 0.  1.
       -2    1    3    3    0  502  0.39940494859E+03  0.59647527117E+02  0.81723212314E+03  0.91156485428E+03  0.25500000920E-02 0. -1.
</event>
<event>
 5   0  0.3725376E-03  0.1194047E+04  0.7818609E-02  0.9118084E-01
        2   -1    0    0  501    0  0.00000000000E+00  0.00000000000E+00  0.18995874234E+04  0.18995874234E+04  0.25500000920E-02 0. -1.
       -2   -1    0    0    0  501  0.00000000000E+00  0.00000000000E+00 -0.18763907034E+03  0.18763907035E+03  0.25500000920E-02 0.  1.
    10030    2    1    2    0    0  0.00000000000E+00  0.00000000000E+00  0.17119483531E+04  0.20872264938E+04  0.11940465957E+04 0.  0.
        4    1    3    3  502    0 -0.14097875386E+03  0.46881966249E+03  0.14532993535E+04  0.15335408403E+04  0.12699999809E+01 0. -1.
       -4    1    3    3    0  502  0.14097875386E+03 -0.46881966249E+03  0.25864899951E+03  0.55368565344E+03  0.12699999809E+01 0.  1.
</event>
<event>
 5   0  0.3751091E-03  0.1065800E+04  0.7818609E-02  0.9239182E-01
        2   -1    0    0  501    0  0.00000000000E+00  0.00000000000E+00  0.20310028630E+04  0.20310028630E+04  0.25500000920E-02 0.  1.
       -2   -1    0    0    0  501  0.00000000000E+00  0.00000000000E+00 -0.13982377696E+03  0.13982377698E+03  0.25500000920E-02 0. -1.
    10030    2    1    2    0    0  0.00000000000E+00  0.00000000000E+00  0.18911790861E+04  0.21708266400E+04  0.10658001527E+04 0.  0.
        5    1    3    3  502    0 -0.36647482532E+03  0.16268771724E+03  0.23070505023E+03  0.46262079626E+03  0.46999998093E+01 0. -1.
       -5    1    3    3    0  502  0.36647482532E+03 -0.16268771724E+03  0.16604740358E+04  0.17082058438E+04  0.46999998093E+01 0.  1.
</event>
<event>
 5   0  0.2078258E-03  0.1126424E+04  0.7818609E-02  0.9179814E-01
       -1   -1    0    0    0  501  0.00000000000E+00  0.00000000000E+00  0.34000580811E+03  0.34000580815E+03  0.50400001928E-02 0. -1.
        1   -1    0    0  501    0  0.00000000000E+00  0.00000000000E+00 -0.93294729188E+03  0.93294729189E+03  0.50400001928E-02 0.  1.
    10030    2    1    2    0    0  0.00000000000E+00  0.00000000000E+00 -0.59294148377E+03  0.12729531000E+04  0.11264235401E+04 0.  0.
        3    1    3    3  502    0  0.16928699825E+03  0.53580294474E+03 -0.33971922175E+03  0.65662168955E+03  0.10100000352E+00 0. -1.
       -3    1    3    3    0  502 -0.16928699825E+03 -0.53580294474E+03 -0.25322226202E+03  0.61633141048E+03  0.10100000352E+00 0.  1.
</event>
<event>
 5   0  0.3751091E-03  0.9145139E+03  0.7818609E-02  0.9407618E-01
       -2   -1    0    0    0  501  0.00000000000E+00  0.00000000000E+00  0.15291669113E+03  0.15291669115E+03  0.25500000920E-02 0.  1.
        2   -1    0    0  501    0  0.00000000000E+00  0.00000000000E+00 -0.13673061551E+04  0.13673061551E+04  0.25500000920E-02 0. -1.
    10030    2    1    2    0    0  0.00000000000E+00  0.00000000000E+00 -0.12143894640E+04  0.15202228462E+04  0.91451393214E+03 0.  0.
        5    1    3    3  502    0 -0.97495702971E+02 -0.38090108469E+03 -0.21922416084E+03  0.45019148272E+03  0.46999998093E+01 0.  1.
       -5    1    3    3    0  502  0.97495702971E+02  0.38090108469E+03 -0.99516530312E+03  0.10700313635E+04  0.46999998093E+01 0. -1.
</event>
<event>
 5   0  0.2025294E-03  0.1191965E+04  0.7818609E-02  0.9119919E-01
       -1   -1    0    0    0  501  0.00000000000E+00  0.00000000000E+00  0.66441302147E+03  0.66441302149E+03  0.50400001928E-02 0. -1.
        1   -1    0    0  501    0  0.00000000000E+00  0.00000000000E+00 -0.53459993748E+03  0.53459993751E+03  0.50400001928E-02 0.  1.
    10030    2    1    2    0    0  0.00000000000E+00  0.00000000000E+00  0.12981308399E+03  0.11990129590E+04  0.11919650327E+04 0.  0.
        5    1    3    3  502    0 -0.27147988077E+03 -0.27127288324E+03 -0.39373100520E+03  0.54985134109E+03  0.46999998093E+01 0.  1.
       -5    1    3    3    0  502  0.27147988077E+03  0.27127288324E+03  0.52354408919E+03  0.64916161791E+03  0.46999998093E+01 0. -1.
</event>
<event>
 5   0  0.3751091E-03  0.1196755E+04  0.7818609E-02  0.9115702E-01
       -2   -1    0    0    0  501  0.00000000000E+00  0.00000000000E+00  0.25966022142E+03  0.25966022143E+03  0.25500000920E-02 0.  1.
        2   -1    0    0  501    0  0.00000000000E+00  0.00000000000E+00 -0.13789383768E+04  0.13789383768E+04  0.25500000920E-02 0. -1.
    10030    2    1    2    0    0  0.00000000000E+00  0.00000000000E+00 -0.11192781554E+04  0.16385985982E+04  0.11967546854E+04 0.  0.
        5    1    3    3  502    0 -0.11909960939E+02  0.46627046799E+02  0.25698092366E+03  0.26149037035E+03  0.46999998093E+01 0.  1.
       -5    1    3    3    0  502  0.11909960939E+02 -0.46627046799E+02 -0.13762590790E+04  0.13771082279E+04  0.46999998093E+01 0. -1.
</event>
<event>
 5   0  0.3706035E-03  0.1203940E+04  0.7818609E-02  0.9109415E-01
        2   -1    0    0  501    0  0.00000000000E+00  0.00000000000E+00  0.17476437587E+04  0.17476437587E+04  0.25500000920E-02 0. -1.
       -2   -1    0    0    0  501  0.00000000000E+00  0.00000000000E+00 -0.20734637519E+03  0.20734637520E+03  0.25500000920E-02 0.  1.
    10030    2    1    2    0    0  0.00000000000E+00  0.00000000000E+00  0.15402973835E+04  0.19549901339E+04  0.12039395309E+04 0.  0.
        2    1    3    3  502    0  0.44776871057E+03 -0.35919249971E+03  0.47583010744E+03  0.74560737735E+03  0.25500000920E-02 0.  1.
       -2    1    3    3    0  502 -0.44776871057E+03  0.35919249971E+03  0.10644672761E+04  0.12093827566E+04  0.25500000920E-02 0. -1.
</event>
<event>
 5   0  0.2047109E-03  0.1209896E+04  0.7818609E-02  0.9104238E-01
        1   -1    0    0  501    0  0.00000000000E+00  0.00000000000E+00  0.74317831254E+03  0.74317831256E+03  0.50400001928E-02 0.  1.
       -1   -1    0    0    0  501  0.00000000000E+00  0.00000000000E+00 -0.49242855157E+03  0.49242855160E+03  0.50400001928E-02 0. -1.
    10030    2    1    2    0    0  0.00000000000E+00  0.00000000000E+00  0.25074976097E+03  0.12356068642E+04  0.12098962270E+04 0.  0.
        1    1    3    3  502    0  0.43954057137E+03  0.14425824865E+03 -0.27272396832E+03  0.53701463584E+03  0.50400001928E-02 0. -1.
       -1    1    3    3    0  502 -0.43954057137E+03 -0.14425824865E+03  0.52347372929E+03  0.69859222832E+03  0.50400001928E-02 0.  1.
</event>
<event>
 5   0  0.2078258E-03  0.1224455E+04  0.7818609E-02  0.9091716E-01
        1   -1    0    0  501    0  0.00000000000E+00  0.00000000000E+00  0.12496982372E+04  0.12496982372E+04  0.50400001928E-02 0.  1.
       -1   -1    0    0    0  501  0.00000000000E+00  0.00000000000E+00 -0.29993051719E+03  0.29993051723E+03  0.50400001928E-02 0. -1.
    10030    2    1    2    0    0  0.00000000000E+00  0.00000000000E+00  0.94976772003E+03  0.15496287545E+04  0.12244552073E+04 0.  0.
        3    1    3    3  502    0 -0.28113384150E+03  0.48923941490E+03  0.77552219318E+03  0.95907566137E+03  0.10100000352E+00 0.  1.
       -3    1    3    3    0  502  0.28113384150E+03 -0.48923941490E+03  0.17424552686E+03  0.59055309309E+03  0.10100000352E+00 0. -1.
</event>
<event>
 5   0  0.3725376E-03  0.1202404E+04  0.7818609E-02  0.9110755E-01
       -2   -1    0    0    0  501  0.00000000000E+00  0.00000000000E+00  0.22677642901E+03  0.22677642903E+03  0.25500000920E-02 0. -1.
        2   -1    0    0  501    0  0.00000000000E+00  0.00000000000E+00 -0.15938334062E+04  0.15938334062E+04  0.25500000920E-02 0.  1.
    10030    2    1    2    0    0  0.00000000000E+00  0.00000000000E+00 -0.13670569772E+04  0.18206098352E+04  0.12024040058E+04 0.  0.
        4    1    3    3  502    0  0.54974205062E+02  0.38414598954E+03  0.11744346307E+02  0.38823941978E+03  0.12699999809E+01 0. -1.
       -4    1    3    3    0  502 -0.54974205062E+02 -0.38414598954E+03 -0.13788013235E+04  0.14323704154E+04  0.12699999809E+01 0.  1.
</event>
<event>
 5   0  0.3725376E-03  0.1130930E+04  0.7818609E-02  0.9175559E-01
       -2   -1    0    0    0  501  0.00000000000E+00  0.00000000000E+00  0.50585617758E+03  0.50585617759E+03  0.25500000920E-02 0.  1.
        2   -1    0    0  501    0  0.00000000000E+00  0.00000000000E+00 -0.63209786306E+03  0.63209786307E+03  0.25500000920E-02 0. -1.
    10030    2    1    2    0    0  0.00000000000E+00  0.00000000000E+00 -0.12624168548E+03  0.11379540407E+04  0.11309298986E+04 0.  0.
        4    1    3    3  502    0 -0.30451826004E+03 -0.79465479581E+02 -0.53582891629E+03  0.62141803448E+03  0.12699999809E+01 0. -1.
       -4    1    3    3    0  502  0.30451826004E+03  0.79465479581E+02  0.40958723081E+03  0.51653600618E+03  0.12699999809E+01 0.  1.
</event>
<event>
 5   0  0.3626049E-03  0.1145877E+04  0.7818609E-02  0.9161595E-01
       -2   -1    0    0    0  501  0.00000000000E+00  0.00000000000E+00  0.27021734683E+03  0.27021734684E+03  0.25500000920E-02 0.  1.
        2   -1    0    0  501    0  0.00000000000E+00  0.00000000000E+00 -0.12147949915E+04  0.12147949915E+04  0.25500000920E-02 0. -1.
    10030    2    1    2    0    0  0.00000000000E+00  0.00000000000E+00 -0.94457764462E+03  0.14850123383E+04  0.11458772701E+04 0.  0.
        1    1    3    3  502    0 -0.48738891040E+03  0.14536431030E+03 -0.81413757811E+03  0.95994725313E+03  0.50400001928E-02 0. -1.
       -1    1    3    3    0  502  0.48738891040E+03 -0.14536431030E+03 -0.13044006652E+03  0.52506508517E+03  0.50400001928E-02 0.  1.
</event>
<event>
 5   0  0.1397500E-03  0.1219195E+04  0.7818609E-02  0.9096219E-01
        4   -1    0    0  501    0  0.00000000000E+00  0.00000000000E+00  0.78812409338E+03  0.78812511663E+03  0.12699999809E+01 0. -1.
       -4   -1    0    0    0  501  0.00000000000E+00  0.00000000000E+00 -0.47150866317E+03  0.47151037353E+03  0.12699999809E+01 0.  1.
    10030    2    1    2    0    0  0.00000000000E+00  0.00000000000E+00  0.31661543021E+03  0.12596354902E+04  0.12191949136E+04 0.  0.
        2    1    3    3  502    0  0.10851533987E+03  0.10674629585E+03 -0.45155901771E+03  0.47652481273E+03  0.25500000920E-02 0.  1.
       -2    1    3    3    0  502 -0.10851533987E+03 -0.10674629585E+03  0.76817444792E+03  0.78311067743E+03  0.25500000920E-02 0. -1.
</event>
<event>
 5   0  0.2078258E-03  0.1208579E+04  0.7818609E-02  0.9105380E-01
        1   -1    0    0  501    0  0.00000000000E+00  0.00000000000E+00  0.16888019373E+04  0.16888019373E+04  0.50400001928E-02 0. -1.
       -1   -1    0    0    0  501  0.00000000000E+00  0.00000000000E+00 -0.21622769750E+03  0.21622769756E+03  0.50400001928E-02 0.  1.
    10030    2    1    2    0    0  0.00000000000E+00  0.00000000000E+00  0.14725742398E+04  0.19050296349E+04  0.12085789250E+04 0.  0.
        3    1    3    3  502    0  0.18993055654E+03 -0.51602441363E+03  0.11313300918E+04  0.12578802004E+04  0.10100000352E+00 0. -1.
       -3    1    3    3    0  502 -0.18993055654E+03  0.51602441363E+03  0.34124414799E+03  0.64714943445E+03  0.10100000352E+00 0.  1.
</event>
<event>
 5   0  0.2047109E-03  0.1218173E+04  0.7818609E-02  0.9097097E-01
        1   -1    0    0  501    0  0.00000000000E+00  0.00000000000E+00  0.15897632759E+04  0.15897632759E+04  0.50400001928E-02 0.  1.
       -1   -1    0    0    0  501  0.00000000000E+00  0.00000000000E+00 -0.23335936044E+03  0.23335936050E+03  0.50400001928E-02 0. -1.
    10030    2    1    2    0    0  0.00000000000E+00  0.00000000000E+00  0.13564039155E+04  0.18231226364E+04  0.12181726337E+04 0.  0.
        1    1    3    3  502    0  0.22684153581E+03 -0.63716815565E+02 -0.16239060846E+03  0.28616013821E+03  0.50400001928E-02 0. -1.
       -1    1    3    3    0  502 -0.22684153581E+03  0.63716815565E+02  0.15187945240E+04  0.15369624982E+04  0.50400001928E-02 0.  1.
</event>
<event>
 5   0  0.3706035E-03  0.1200709E+04  0.7818609E-02  0.9112236E-01
       -2   -1    0    0    0  501  0.00000000000E+00  0.00000000000E+00  0.42505771735E+03  0.42505771736E+03  0.25500000920E-02 0.  1.
        2   -1    0    0  501    0  0.00000000000E+00  0.00000000000E+00 -0.84794456664E+03  0.84794456664E+03  0.25500000920E-02 0. -1.
    10030    2    1    2    0    0  0.00000000000E+00  0.00000000000E+00 -0.42288684929E+03  0.12730022840E+04  0.12007087606E+04 0.  0.
        2    1    3    3  502    0  0.44412265958E+03 -0.48376384150E+02 -0.63663902895E+03  0.77774961555E+03  0.25500000920E-02 0. -1.
       -2    1    3    3    0  502 -0.44412265958E+03  0.48376384150E+02  0.21375217967E+03  0.49525266846E+03  0.25500000920E-02 0.  1.
</event>
<event>
 5   0  0.2025294E-03  0.1218163E+04  0.7818609E-02  0.9097105E-01
       -1   -1    0    0    0  501  0.00000000000E+00  0.00000000000E+00  0.39784181745E+03  0.39784181749E+03  0.50400001928E-02 0.  1.
        1   -1    0    0  501    0  0.00000000000E+00  0.00000000000E+00 -0.93248171895E+03  0.93248171896E+03  0.50400001928E-02 0. -1.
    10030    2    1    2    0    0  0.00000000000E+00  0.00000000000E+00 -0.53463990150E+03  0.13303235364E+04  0.12181629149E+04 0.  0.
        5    1    3    3  502    0  0.22637084732E+03 -0.77512423446E+02  0.34434479333E+03  0.41934158271E+03  0.46999998093E+01 0.  1.
       -5    1    3    3    0  502 -0.22637084732E+03  0.77512423446E+02 -0.87898469482E+03  0.91098195374E+03  0.46999998093E+01 0. -1.
</event>
<event>
 5   0  0.2078258E-03  0.1190250E+04  0.7818609E-02  0.9121434E-01
       -1   -1    0    0    0  501  0.00000000000E+00  0.00000000000E+00  0.15325387062E+04  0.15325387062E+04  0.50400001928E-02 0.  1.
        1   -1    0    0  501    0  0.00000000000E+00  0.00000000000E+00 -0.23110258700E+03  0.23110258705E+03  0.50400001928E-02 0. -1.
    10030    2    1    2    0    0  0.00000000000E+00  0.00000000000E+00  0.13014361192E+04  0.17636412932E+04  0.11902498221E+04 0.  0.
        3    1    3    3  502    0  0.36594338733E+03 -0.34365435224E+03  0.11243208130E+04  0.12313042586E+04  0.10100000352E+00 0.  1.
       -3    1    3    3    0  502 -0.36594338733E+03  0.34365435224E+03  0.17711530618E+03  0.53233703462E+03  0.10100000352E+00 0. -1.
</event>
<event>
 5   0  0.2096270E-03  0.1210061E+04  0.7818609E-02  0.9104095E-01
        1   -1    0    0  501    0  0.00000000000E+00  0.00000000000E+00  0.35107681775E+03  0.35107681779E+03  0.50400001928E-02 0. -1.
       -1   -1    0    0    0  501  0.00000000000E+00  0.00000000000E+00 -0.10426838796E+04  0.10426838796E+04  0.50400001928E-02 0.  1.
    10030    2    1    2    0    0  0.00000000000E+00  0.00000000000E+00 -0.69160706180E+03  0.13937606974E+04  0.12100613842E+04 0.  0.
        2    1    3    3  502    0 -0.25799468205E+03  0.16340330478E+03 -0.94739710373E+03  0.99540100871E+03  0.25500000920E-02 0.  1.
       -2    1    3    3    0  502  0.25799468205E+03 -0.16340330478E+03  0.25579004193E+03  0.39835968864E+03  0.25500000920E-02 0. -1.
</event>
<event>
 5   0  0.3706035E-03  0.1199469E+04  0.7818609E-02  0.9113322E-01
        2   -1    0    0  501    0  0.00000000000E+00  0.00000000000E+00  0.13794387613E+04  0.13794387613E+04  0.25500000920E-02 0.  1.
       -2   -1    0    0    0  501  0.00000000000E+00  0.00000000000E+00 -0.26074469355E+03  0.26074469356E+03  0.25500000920E-02 0. -1.
    10030    2    1    2    0    0  0.00000000000E+00  0.00000000000E+00  0.11186940678E+04  0.16401834549E+04  0.11994687776E+04 0.  0.
        2    1    3    3  502    0  0.38544936233E+03 -0.21339310891E+03  0.29319392764E+01  0.44058645704E+03  0.25500000920E-02 0. -1.
       -2    1    3    3    0  502 -0.38544936233E+03  0.21339310891E+03  0.11157621285E+04  0.11995969978E+04  0.25500000920E-02 0.  1.
</event>
<event>
 5   0  0.3650180E-03  0.1192802E+04  0.7818609E-02  0.9119181E-01
        2   -1    0    0  501    0  0.00000000000E+00  0.00000000000E+00  0.75637303733E+03  0.75637303733E+03  0.25500000920E-02 0. -1.
       -2   -1    0    0    0  501  0.00000000000E+00  0.00000000000E+00 -0.47026252200E+03  0.47026252201E+03  0.25500000920E-02 0.  1.
    10030    2    1    2    0    0  0.00000000000E+00  0.00000000000E+00  0.28611051533E+03  0.12266355593E+04  0.11928015629E+04 0.  0.
        3    1    3    3  502    0 -0.58062717230E+02  0.30858893951E+03 -0.37837299927E+03  0.49169558621E+03  0.10100000352E+00 0.  1.
       -3    1    3    3    0  502  0.58062717230E+02 -0.30858893951E+03  0.66448351460E+03  0.73493997313E+03  0.10100000352E+00 0. -1.
</event>
<event>
 5   0  0.2025294E-03  0.1186493E+04  0.7818609E-02  0.9124762E-01
       -1   -1    0    0    0  501  0.00000000000E+00  0.00000000000E+00  0.56395269324E+03  0.56395269326E+03  0.50400001928E-02 0.  1.
        1   -1    0    0  501    0  0.00000000000E+00  0.00000000000E+00 -0.62406198567E+03  0.62406198569E+03  0.50400001928E-02 0. -1.
    10030    2    1    2    0    0  0.00000000000E+00  0.00000000000E+00 -0.60109292428E+02  0.11880146790E+04  0.11864930469E+04 0.  0.
        5    1    3    3  502    0  0.14516314524E+03  0.27808004528E+03  0.47409728509E+03  0.56849905544E+03  0.46999998093E+01 0.  1.
       -5    1    3    3    0  502 -0.14516314524E+03 -0.27808004528E+03 -0.53420657752E+03  0.61951562351E+03  0.46999998093E+01 0. -1.
</event>
<event>
 5   0  0.2047109E-03  0.1219218E+04  0.7818609E-02  0.9096199E-01
       -1   -1    0    0    0  501  0.00000000000E+00  0.00000000000E+00  0.41648153093E+03  0.41648153097E+03  0.50400001928E-02 0.  1.
        1   -1    0    0  501    0  0.00000000000E+00  0.00000000000E+00 -0.89229265881E+03  0.89229265882E+03  0.50400001928E-02 0. -1.
    10030    2    1    2    0    0  0.00000000000E+00  0.00000000000E+00 -0.47581112788E+03  0.13087741898E+04  0.12192184589E+04 0.  0.
        1    1    3    3  502    0  0.18082267099E+03  0.85192572858E+02 -0.85611481842E+03  0.87914003160E+03  0.50400001928E-02 0. -1.
       -1    1    3    3    0  502 -0.18082267099E+03 -0.85192572858E+02  0.38030369055E+03  0.42963415819E+03  0.50400001928E-02 0.  1.
</event>
<event>
 5   0  0.2078258E-03  0.1187230E+04  0.7818609E-02  0.9124108E-01
        1   -1    0    0  501    0  0.00000000000E+00  0.00000000000E+00  0.47100199840E+03  0.47100199842E+03  0.50400001928E-02 0. -1.
       -1   -1    0    0    0  501  0.00000000000E+00  0.00000000000E+00 -0.74814653399E+03  0.74814653400E+03  0.50400001928E-02 0.  1.
    10030    2    1    2    0    0  0.00000000000E+00  0.00000000000E+00 -0.27714453559E+03  0.12191485324E+04  0.11872295694E+04 0.  0.
        3    1    3    3  502    0  0.10108238047E+03 -0.54142956508E+03  0.88772985505E+02  0.55789270899E+03  0.10100000352E+00 0. -1.
       -3    1    3    3    0  502 -0.10108238047E+03  0.54142956508E+03 -0.36591752109E+03  0.66125582344E+03  0.10100000352E+00 0.  1.
</event>
<event>
 5   0  0.3751091E-03  0.1190608E+04  0.7818609E-02  0.9121117E-01
        2   -1    0    0  501    0  0.00000000000E+00  0.00000000000E+00  0.11502557464E+04  0.11502557464E+04  0.25500000920E-02 0. -1.
       -2   -1    0    0    0  501  0.00000000000E+00  0.00000000000E+00 -0.30809398872E+03  0.30809398873E+03  0.25500000920E-02 0.  1.
    10030    2    1    2    0    0  0.00000000000E+00  0.00000000000E+00  0.84216175771E+03  0.14583497352E+04  0.11906080480E+04 0.  0.
        5    1    3    3  502    0 -0.24332744474E+03 -0.51018730057E+03  0.64979374563E+03  0.86125102548E+03  0.46999998093E+01 0. -1.
       -5    1    3    3    0  502  0.24332744474E+03  0.51018730057E+03  0.19236801208E+03  0.59709870967E+03  0.46999998093E+01 0.  1.
</event>
<event>
 5   0  0.1397500E-03  0.1200452E+04  0.7818609E-02  0.9112461E-01
       -3   -1    0    0    0  501  0.00000000000E+00  0.00000000000E+00  0.68365086121E+03  0.68365086867E+03  0.10100000352E+00 0. -1.
        3   -1    0    0  501    0  0.00000000000E+00  0.00000000000E+00 -0.52698150727E+03  0.52698151695E+03  0.10100000352E+00 0.  1.
    10030    2    1    2    0    0  0.00000000000E+00  0.00000000000E+00  0.15666935394E+03  0.12106323856E+04  0.12004522009E+04 0.  0.
        4    1    3    3  502    0 -0.15546161076E+03 -0.57972013272E+03  0.73191026388E+02  0.60465054697E+03  0.12699999809E+01 0. -1.
       -4    1    3    3    0  502  0.15546161076E+03  0.57972013272E+03  0.83478327552E+02  0.60598183865E+03  0.12699999809E+01 0.  1.
</event>
<event>
 5   0  0.3706035E-03  0.9502766E+03  0.7818609E-02  0.9364827E-01
        2   -1    0    0  501    0  0.00000000000E+00  0.00000000000E+00  0.10211939713E+04  0.10211939713E+04  0.25500000920E-02 0. -1.
       -2   -1    0    0    0  501  0.00000000000E+00  0.00000000000E+00 -0.22107100986E+03  0.22107100987E+03  0.25500000920E-02 0.  1.
    10030    2    1    2    0    0  0.00000000000E+00  0.00000000000E+00  0.80012296145E+03  0.12422649812E+04  0.95027655450E+03 0.  0.
        2    1    3    3  502    0  0.18727556880E+01  0.24530397402E+03  0.93200636988E+03  0.96374966686E+03  0.25500000920E-02 0. -1.
       -2    1    3    3    0  502 -0.18727556880E+01 -0.24530397402E+03 -0.13188340843E+03  0.27851531431E+03  0.25500000920E-02 0.  1.
</event>
<event>
 5   0  0.3706035E-03  0.1204499E+04  0.7818609E-02  0.9108928E-01
        2   -1    0    0  501    0  0.00000000000E+00  0.00000000000E+00  0.76426511379E+03  0.76426511380E+03  0.25500000920E-02 0. -1.
       -2   -1    0    0    0  501  0.00000000000E+00  0.00000000000E+00 -0.47457900678E+03  0.47457900678E+03  0.25500000920E-02 0.  1.
    10030    2    1    2    0    0  0.00000000000E+00  0.00000000000E+00  0.28968610702E+03  0.12388441206E+04  0.12044985324E+04 0.  0.
        2    1    3    3  502    0  0.40392575770E+03 -0.17522760934E+03 -0.27777932733E+03  0.52059781743E+03  0.25500000920E-02 0.  1.
       -2    1    3    3    0  502 -0.40392575770E+03  0.17522760934E+03  0.56746543435E+03  0.71824630315E+03  0.25500000920E-02 0. -1.
</event>
<event>
 5   0  0.3751091E-03  0.1188330E+04  0.7818609E-02  0.9123133E-01
        2   -1    0    0  501    0  0.00000000000E+00  0.00000000000E+00  0.13315293477E+04  0.13315293477E+04  0.25500000920E-02 0. -1.
       -2   -1    0    0    0  501  0.00000000000E+00  0.00000000000E+00 -0.26513287088E+03  0.26513287089E+03  0.25500000920E-02 0.  1.
    10030    2    1    2    0    0  0.00000000000E+00  0.00000000000E+00  0.10663964768E+04  0.15966622185E+04  0.11883302548E+04 0.  0.
        5    1    3    3  502    0  0.46158632024E+03  0.27900466227E+03  0.19835795946E+03  0.57469426888E+03  0.46999998093E+01 0.  1.
       -5    1    3    3    0  502 -0.46158632024E+03 -0.27900466227E+03  0.86803851732E+03  0.10219679497E+04  0.46999998093E+01 0. -1.
</event>
<event>
 5   0  0.3626049E-03  0.1189761E+04  0.7818609E-02  0.9121866E-01
       -2   -1    0    0    0  501  0.00000000000E+00  0.00000000000E+00  0.34096917459E+03  0.34096917460E+03  0.25500000920E-02 0. -1.
        2   -1    0    0  501    0  0.00000000000E+00  0.00000000000E+00 -0.10378730657E+04  0.10378730657E+04  0.25500000920E-02 0.  1.
    10030    2    1    2    0    0  0.00000000000E+00  0.00000000000E+00 -0.69690389107E+03  0.13788422403E+04  0.11897608542E+04 0.  0.
        1    1    3    3  502    0 -0.17138818879E+03  0.27602646257E+03 -0.92596151153E+03  0.98130996131E+03  0.50400001928E-02 0.  1.
       -1    1    3    3    0  502  0.17138818879E+03 -0.27602646257E+03  0.22905762046E+03  0.39753227896E+03  0.50400001928E-02 0. -1.
</event>
<event>
 5   0  0.3706035E-03  0.1252778E+04  0.7818609E-02  0.9067874E-01
        2   -1    0    0  501    0  0.00000000000E+00  0.00000000000E+00  0.15427475669E+04  0.15427475669E+04  0.25500000920E-02 0.  1.
       -2   -1    0    0    0  501  0.00000000000E+00  0.00000000000E+00 -0.25432755398E+03  0.25432755400E+03  0.25500000920E-02 0. -1.
    10030    2    1    2    0    0  0.00000000000E+00  0.00000000000E+00  0.12884200130E+04  0.17970751209E+04  0.12527780572E+04 0.  0.
        2    1    3    3  502    0  0.99949831575E+02 -0.34143434964E+03 -0.95337668983E+02  0.36831597179E+03  0.25500000920E-02 0. -1.
       -2    1    3    3    0  502 -0.99949831575E+02  0.34143434964E+03  0.13837576819E+04  0.14287591492E+04  0.25500000920E-02 0.  1.
</event>
<event>
 5   0  0.3626049E-03  0.1245544E+04  0.7818609E-02  0.9073900E-01
       -2   -1    0    0    0  501  0.00000000000E+00  0.00000000000E+00  0.32905801918E+03  0.32905801919E+03  0.25500000920E-02 0. -1.
        2   -1    0    0  501    0  0.00000000000E+00  0.00000000000E+00 -0.11786531588E+04  0.11786531588E+04  0.25500000920E-02 0.  1.
    10030    2    1    2    0    0  0.00000000000E+00  0.00000000000E+00 -0.84959513959E+03  0.15077111780E+04  0.12455444974E+04 0.  0.
        1    1    3    3  502    0  0.23164906923E+03  0.52773537371E+03 -0.71042901409E+03  0.91480888716E+03  0.50400001928E-02 0.  1.
       -1    1    3    3    0  502 -0.23164906923E+03 -0.52773537371E+03 -0.13916612551E+03  0.59290229082E+03  0.50400001928E-02 0. -1.
</event>
<event>
 5   0  0.2134992E-03  0.1154008E+04  0.7818609E-02  0.9154094E-01
       -1   -1    0    0    0  501  0.00000000000E+00  0.00000000000E+00  0.34586581910E+03  0.34586581913E+03  0.50400001928E-02 0.  1.
        1   -1    0    0  501    0  0.00000000000E+00  0.00000000000E+00 -0.96260927763E+03  0.96260927764E+03  0.50400001928E-02 0. -1.
    10030    2    1    2    0    0  0.00000000000E+00  0.00000000000E+00 -0.61674345853E+03  0.13084750968E+04  0.11540080525E+04 0.  0.
        4    1    3    3  502    0 -0.47300835298E+03  0.30452502112E+03 -0.45383951457E+03  0.72280309101E+03  0.12699999809E+01 0. -1.
       -4    1    3    3    0  502  0.47300835298E+03 -0.30452502112E+03 -0.16290394396E+03  0.58567200577E+03  0.12699999809E+01 0.  1.
</event>
<event>
 5   0  0.2134992E-03  0.1217179E+04  0.7818609E-02  0.9097951E-01
       -1   -1    0    0    0  501  0.00000000000E+00  0.00000000000E+00  0.25470562018E+03  0.25470562023E+03  0.50400001928E-02 0. -1.
        1   -1    0    0  501    0  0.00000000000E+00  0.00000000000E+00 -0.14541550239E+04  0.14541550239E+04  0.50400001928E-02 0.  1.
    10030    2    1    2    0    0  0.00000000000E+00  0.00000000000E+00 -0.11994494037E+04  0.17088606441E+04  0.12171794564E+04 0.  0.
        4    1    3    3  502    0  0.15870799865E+03  0.10049601020E+03 -0.14124320239E+04  0.14248696473E+04  0.12699999809E+01 0.  1.
       -4    1    3    3    0  502 -0.15870799865E+03 -0.10049601020E+03  0.21298262014E+03  0.28399099683E+03  0.12699999809E+01 0. -1.
</event>
<event>
 5   0  0.2134992E-03  0.1195177E+04  0.7818609E-02  0.9117089E-01
        1   -1    0    0  501    0  0.00000000000E+00  0.00000000000E+00  0.16389641151E+04  0.16389641151E+04  0.50400001928E-02 0.  1.
       -1   -1    0    0    0  501  0.00000000000E+00  0.00000000000E+00 -0.21788875310E+03  0.21788875316E+03  0.50400001928E-02 0. -1.
    10030    2    1    2    0    0  0.00000000000E+00  0.00000000000E+00  0.14210753620E+04  0.18568528683E+04  0.11951767191E+04 0.  0.
        4    1    3    3  502    0  0.53380030985E+03  0.10641022966E+03  0.32731128660E+03  0.63513793700E+03  0.12699999809E+01 0. -1.
       -4    1    3    3    0  502 -0.53380030985E+03 -0.10641022966E+03  0.10937640754E+04  0.12217149313E+04  0.12699999809E+01 0.  1.
</event>
<event>
 5   0  0.3725376E-03  0.1208420E+04  0.7818609E-02  0.9105518E-01
       -2   -1    0    0    0  501  0.00000000000E+00  0.00000000000E+00  0.59576654300E+03  0.59576654300E+03  0.25500000920E-02 0.  1.
        2   -1    0    0  501    0  0.00000000000E+00  0.00000000000E+00 -0.61277329586E+03  0.61277329587E+03  0.25500000920E-02 0. -1.
    10030    2    1    2    0    0  0.00000000000E+00  0.00000000000E+00 -0.17006752864E+02  0.12085398389E+04  0.12084201722E+04 0.  0.
        4    1    3    3  502    0  0.16484901099E+03 -0.35546585016E+03  0.45147373840E+03  0.59779705287E+03  0.12699999809E+01 0.  1.
       -4    1    3    3    0  502 -0.16484901099E+03  0.35546585016E+03 -0.46848049127E+03  0.61074278600E+03  0.12699999809E+01 0. -1.
</event>
<event>
 5   0  0.2025294E-03  0.1209462E+04  0.7818609E-02  0.9104614E-01
       -1   -1    0    0    0  501  0.00000000000E+00  0.00000000000E+00  0.26555002792E+03  0.26555002797E+03  0.50400001928E-02 0.  1.
        1   -1    0    0  501    0  0.00000000000E+00  0.00000000000E+00 -0.13771411386E+04  0.13771411386E+04  0.50400001928E-02 0. -1.
    10030    2    1    2    0    0  0.00000000000E+00  0.00000000000E+00 -0.11115911107E+04  0.16426911666E+04  0.12094624721E+04 0.  0.
        5    1    3    3  502    0 -0.17491739127E+03 -0.35658916851E+03  0.63528239366E+02  0.40225595840E+03  0.46999998093E+01 0.  1.
       -5    1    3    3    0  502  0.17491739127E+03  0.35658916851E+03 -0.11751193500E+04  0.12404352082E+04  0.46999998093E+01 0. -1.
</event>
<event>
 5   0  0.2096270E-03  0.1195780E+04  0.7818609E-02  0.9116558E-01
        1   -1    0    0  501    0  0.00000000000E+00  0.00000000000E+00  0.64100995595E+03  0.64100995597E+03  0.50400001928E-02 0.  1.
       -1   -1    0    0    0  501  0.00000000000E+00  0.00000000000E+00 -0.55767087689E+03  0.55767087691E+03  0.50400001928E-02 0. -1.
    10030    2    1    2    0    0  0.00000000000E+00  0.00000000000E+00  0.83339079063E+02  0.11986808329E+04  0.11957802210E+04 0.  0.
        2    1    3    3  502    0 -0.48831780247E+03 -0.21043604681E+03  0.31570966109E+03  0.61839323745E+03  0.25500000920E-02 0.  1.
       -2    1    3    3    0  502  0.48831780247E+03  0.21043604681E+03 -0.23237058202E+03  0.58028759543E+03  0.25500000920E-02 0. -1.
</event>
<event>
 5   0  0.2134992E-03  0.1244142E+04  0.7818609E-02  0.9075073E-01
        1   -1    0    0  501    0  0.00000000000E+00  0.00000000000E+00  0.14745643722E+04  0.14745643722E+04  0.50400001928E-02 0.  1.
       -1   -1    0    0    0  501  0.00000000000E+00  0.00000000000E+00 -0.26243160393E+03  0.26243160398E+03  0.50400001928E-02 0. -1.
    10030    2    1    2    0    0  0.00000000000E+00  0.00000000000E+00  0.12121327683E+04  0.17369959762E+04  0.12441419426E+04 0.  0.
        4    1    3    3  502    0  0.33568242350E+03  0.32551163478E+02 -0.12371336981E+03  0.35923373792E+03  0.12699999809E+01 0. -1.
       -4    1    3    3    0  502 -0.33568242350E+03 -0.32551163478E+02  0.13358461381E+04  0.13777622383E+04  0.12699999809E+01 0.  1.
</event>
<event>
 5   0  0.2134992E-03  0.1193911E+04  0.7818609E-02  0.9118203E-01
        1   -1    0    0  501    0  0.00000000000E+00  0.00000000000E+00  0.80750897194E+03  0.80750897196E+03  0.50400001928E-02 0.  1.
       -1   -1    0    0    0  501  0.00000000000E+00  0.00000000000E+00 -0.44130265789E+03  0.44130265792E+03  0.50400001928E-02 0. -1.
    10030    2    1    2    0    0  0.00000000000E+00  0.00000000000E+00  0.36620631405E+03  0.12488116299E+04  0.11939109776E+04 0.  0.
        4    1    3    3  502    0  0.14451590617E+03  0.56421276559E+03  0.32001661571E+03  0.66455484290E+03  0.12699999809E+01 0. -1.
       -4    1    3    3    0  502 -0.14451590617E+03 -0.56421276559E+03  0.46189698342E+02  0.58425678697E+03  0.12699999809E+01 0.  1.
</event>
<event>
 5   0  0.3650180E-03  0.1194267E+04  0.7818609E-02  0.9117889E-01
        2   -1    0    0  501    0  0.00000000000E+00  0.00000000000E+00  0.22594665495E+04  0.22594665495E+04  0.25500000920E-02 0.  1.
       -2   -1    0    0    0  501  0.00000000000E+00  0.00000000000E+00 -0.15781094979E+03  0.15781094981E+03  0.25500000920E-02 0. -1.
    10030    2    1    2    0    0  0.00000000000E+00  0.00000000000E+00  0.21016555997E+04  0.24172774993E+04  0.11942672435E+04 0.  0.
        3    1    3    3  502    0 -0.48713745416E+03  0.77015657319E+02  0.36942241736E+03  0.61620389756E+03  0.10100000352E+00 0. -1.
       -3    1    3    3    0  502  0.48713745416E+03 -0.77015657319E+02  0.17322331824E+04  0.18010736018E+04  0.10100000352E+00 0.  1.
</event>
<event>
 5   0  0.2096270E-03  0.1195241E+04  0.7818609E-02  0.9117033E-01
       -1   -1    0    0    0  501  0.00000000000E+00  0.00000000000E+00  0.69208342167E+03  0.69208342169E+03  0.50400001928E-02 0. -1.
        1   -1    0    0  501    0  0.00000000000E+00  0.00000000000E+00 -0.51605048334E+03  0.51605048337E+03  0.50400001928E-02 0.  1.
    10030    2    1    2    0    0  0.00000000000E+00  0.00000000000E+00  0.17603293833E+03  0.12081339051E+04  0.11952405353E+04 0.  0.
        2    1    3    3  502    0  0.35828410751E+03  0.43941240637E+03 -0.10296407265E+03  0.57623985009E+03  0.25500000920E-02 0.  1.
       -2    1    3    3    0  502 -0.35828410751E+03 -0.43941240637E+03  0.27899701097E+03  0.63189405497E+03  0.25500000920E-02 0. -1.
</event>
<event>
 5   0  0.3650180E-03  0.1181609E+04  0.7818609E-02  0.9129108E-01
        2   -1    0    0  501    0  0.00000000000E+00  0.00000000000E+00  0.10124280544E+04  0.10124280544E+04  0.25500000920E-02 0.  1.
       -2   -1    0    0    0  501  0.00000000000E+00  0.00000000000E+00 -0.34476504573E+03  0.34476504574E+03  0.25500000920E-02 0. -1.
    10030    2    1    2    0    0  0.00000000000E+00  0.00000000000E+00  0.66766300867E+03  0.13571931001E+04  0.11816087415E+04 0.  0.
        3    1    3    3  502    0  0.92359002085E+01 -0.54452711743E+03  0.59689476350E+03  0.80800894324E+03  0.10100000352E+00 0.  1.
       -3    1    3    3    0  502 -0.92359002085E+01  0.54452711743E+03  0.70768245177E+02  0.54918415690E+03  0.10100000352E+00 0. -1.
</event>
<event>
 5   0  0.2025294E-03  0.1202132E+04  0.7818609E-02  0.9110992E-01
       -1   -1    0    0    0  501  0.00000000000E+00  0.00000000000E+00  0.57787956084E+03  0.57787956086E+03  0.50400001928E-02 0.  1.
        1   -1    0    0  501    0  0.00000000000E+00  0.00000000000E+00 -0.62518303646E+03  0.62518303648E+03  0.50400001928E-02 0. -1.
    10030    2    1    2    0    0  0.00000000000E+00  0.00000000000E+00 -0.47303475621E+02  0.12030625973E+04  0.12021322699E+04 0.  0.
        5    1    3    3  502    0 -0.88120943099E+02 -0.52035698855E+03 -0.31148814669E+03  0.61284880001E+03  0.46999998093E+01 0. -1.
       -5    1    3    3    0  502  0.88120943099E+02  0.52035698855E+03  0.26418467107E+03  0.59021379734E+03  0.46999998093E+01 0.  1.
</event>
<event>
 5   0  0.3650180E-03  0.1198154E+04  0.7818609E-02  0.9114474E-01
        2   -1    0    0  501    0  0.00000000000E+00  0.00000000000E+00  0.11410192619E+04  0.11410192619E+04  0.25500000920E-02 0.  1.
       -2   -1    0    0    0  501  0.00000000000E+00  0.00000000000E+00 -0.31453750834E+03  0.31453750835E+03  0.25500000920E-02 0. -1.
    10030    2    1    2    0    0  0.00000000000E+00  0.00000000000E+00  0.82648175357E+03  0.14555567703E+04  0.11981541731E+04 0.  0.
        3    1    3    3  502    0  0.25696433510E+03  0.46099692495E+03  0.75758648638E+03  0.92330175397E+03  0.10100000352E+00 0.  1.
       -3    1    3    3    0  502 -0.25696433510E+03 -0.46099692495E+03  0.68895267190E+02  0.53225501629E+03  0.10100000352E+00 0. -1.
</event>
<event>
 5   0  0.2078258E-03  0.1196831E+04  0.7818609E-02  0.9115635E-01
        1   -1    0    0  501    0  0.00000000000E+00  0.00000000000E+00  0.10788736700E+04  0.10788736700E+04  0.50400001928E-02 0.  1.
       -1   -1    0    0    0  501  0.00000000000E+00  0.00000000000E+00 -0.33192130581E+03  0.33192130585E+03  0.50400001928E-02 0. -1.
    10030    2    1    2    0    0  0.00000000000E+00  0.00000000000E+00  0.74695236421E+03  0.14107949759E+04  0.11968310781E+04 0.  0.
        3    1    3    3  502    0 -0.39828822339E+03 -0.19405259326E+03 -0.10069523915E+03  0.45434508827E+03  0.10100000352E+00 0. -1.
       -3    1    3    3    0  502  0.39828822339E+03  0.19405259326E+03  0.84764760335E+03  0.95644988761E+03  0.10100000352E+00 0.  1.
</event>
<event>
 5   0  0.2025294E-03  0.1126549E+04  0.7818609E-02  0.9179695E-01
       -1   -1    0    0    0  501  0.00000000000E+00  0.00000000000E+00  0.49839387214E+03  0.49839387217E+03  0.50400001928E-02 0.  1.
        1   -1    0    0  501    0  0.00000000000E+00  0.00000000000E+00 -0.63660116310E+03  0.63660116312E+03  0.50400001928E-02 0. -1.
    10030    2    1    2    0    0  0.00000000000E+00  0.00000000000E+00 -0.13820729096E+03  0.11349950353E+04  0.11265489225E+04 0.  0.
        5    1    3    3  502    0  0.18436627219E+03 -0.15254869168E+03  0.44461528616E+03  0.50494244062E+03  0.46999998093E+01 0.  1.
       -5    1    3    3    0  502 -0.18436627219E+03  0.15254869168E+03 -0.58282257712E+03  0.63005259467E+03  0.46999998093E+01 0. -1.
</event>
<event>
 5   0  0.3751091E-03  0.1205674E+04  0.7818609E-02  0.9107904E-01
       -2   -1    0    0    0  501  0.00000000000E+00  0.00000000000E+00  0.23399220298E+03  0.23399220300E+03  0.25500000920E-02 0.  1.
        2   -1    0    0  501    0  0.00000000000E+00  0.00000000000E+00 -0.15530966940E+04  0.15530966940E+04  0.25500000920E-02 0. -1.
    10030    2    1    2    0    0  0.00000000000E+00  0.00000000000E+00 -0.13191044910E+04  0.17870888970E+04  0.12056741133E+04 0.  0.
        5    1    3    3  502    0  0.56734275578E+03 -0.20282444091E+03 -0.68825059174E+03  0.91472756785E+03  0.46999998093E+01 0. -1.
       -5    1    3    3    0  502 -0.56734275578E+03  0.20282444091E+03 -0.63085389930E+03  0.87236132917E+03  0.46999998093E+01 0.  1.
</event>
<event>
 5   0  0.2078258E-03  0.1140355E+04  0.7818609E-02  0.9166728E-01
       -1   -1    0    0    0  501  0.00000000000E+00  0.00000000000E+00  0.59495157176E+03  0.59495157178E+03  0.50400001928E-02 0. -1.
        1   -1    0    0  501    0  0.00000000000E+00  0.00000000000E+00 -0.54643496342E+03  0.54643496344E+03  0.50400001928E-02 0.  1.
    10030    2    1    2    0    0  0.00000000000E+00  0.00000000000E+00  0.48516608334E+02  0.11413865352E+04  0.11403549279E+04 0.  0.
        3    1    3    3  502    0 -0.18764860134E+03  0.25777840197E+02 -0.51402541384E+03  0.54781258739E+03  0.10100000352E+00 0.  1.
       -3    1    3    3    0  502  0.18764860134E+03 -0.25777840197E+02  0.56254202217E+03  0.59357394783E+03  0.10100000352E+00 0. -1.
</event>
<event>
 5   0  0.2096270E-03  0.1181842E+04  0.7818609E-02  0.9128901E-01
        1   -1    0    0  501    0  0.00000000000E+00  0.00000000000E+00  0.11502889480E+04  0.11502889480E+04  0.50400001928E-02 0.  1.
       -1   -1    0    0    0  501  0.00000000000E+00  0.00000000000E+00 -0.30356493594E+03  0.30356493599E+03  0.50400001928E-02 0. -1.
    10030    2    1    2    0    0  0.00000000000E+00  0.00000000000E+00  0.84672401203E+03  0.14538538840E+04  0.11818415983E+04 0.  0.
        2    1    3    3  502    0 -0.10010327974E+03  0.57728352637E+03  0.32878796972E+03  0.67184705512E+03  0.25500000920E-02 0. -1.
       -2    1    3    3    0  502  0.10010327974E+03 -0.57728352637E+03  0.51793604231E+03  0.78200682885E+03  0.25500000920E-02 0.  1.
</event>
<event>
 5   0  0.3706035E-03  0.1201793E+04  0.7818609E-02  0.9111289E-01
        2   -1    0    0  501    0  0.00000000000E+00  0.00000000000E+00  0.40491940482E+03  0.40491940483E+03  0.25500000920E-02 0.  1.
       -2   -1    0    0    0  501  0.00000000000E+00  0.00000000000E+00 -0.89172461793E+03  0.89172461794E+03  0.25500000920E-02 0. -1.
    10030    2    1    2    0    0  0.00000000000E+00  0.00000000000E+00 -0.48680521311E+03  0.12966440228E+04  0.12017929964E+04 0.  0.
        2    1    3    3  502    0 -0.28964105061E+03 -0.41658231886E+03  0.10394381630E+03  0.51791609701E+03  0.25500000920E-02 0.  1.
       -2    1    3    3    0  502  0.28964105061E+03  0.41658231886E+03 -0.59074902942E+03  0.77872792576E+03  0.25500000920E-02 0. -1.
</event>
<event>
 5   0  0.3706035E-03  0.1186953E+04  0.7818609E-02  0.9124354E-01
        2   -1    0    0  501    0  0.00000000000E+00  0.00000000000E+00  0.76317650184E+03  0.76317650185E+03  0.25500000920E-02 0.  1.
       -2   -1    0    0    0  501  0.00000000000E+00  0.00000000000E+00 -0.46151116001E+03  0.46151116001E+03  0.25500000920E-02 0. -1.
    10030    2    1    2    0    0  0.00000000000E+00  0.00000000000E+00  0.30166534183E+03  0.12246876619E+04  0.11869531965E+04 0.  0.
        2    1    3    3  502    0  0.34104801842E+03 -0.25853202998E+03  0.57507562228E+03  0.71684345065E+03  0.25500000920E-02 0.  1.
       -2    1    3    3    0  502 -0.34104801842E+03  0.25853202998E+03 -0.27341028045E+03  0.50784421121E+03  0.25500000920E-02 0. -1.
</event>
<event>
 5   0  0.3725376E-03  0.1199348E+04  0.7818609E-02  0.9113427E-01
       -2   -1    0    0    0  501  0.00000000000E+00  0.00000000000E+00  0.32289089040E+03  0.32289089041E+03  0.25500000920E-02 0. -1.
        2   -1    0    0  501    0  0.00000000000E+00  0.00000000000E+00 -0.11137166707E+04  0.11137166707E+04  0.25500000920E-02 0.  1.
    10030    2    1    2    0    0  0.00000000000E+00  0.00000000000E+00 -0.79082578026E+03  0.14366075611E+04  0.11993481020E+04 0.  0.
        4    1    3    3  502    0  0.24519829290E+03  0.28764681269E+03 -0.95306956055E+03  0.10252834202E+04  0.12699999809E+01 0.  1.
       -4    1    3    3    0  502 -0.24519829290E+03 -0.28764681269E+03  0.16224378029E+03  0.41132414083E+03  0.12699999809E+01 0. -1.
</event>
<event>
 5   0  0.3626049E-03  0.1195640E+04  0.7818609E-02  0.9116681E-01
       -2   -1    0    0    0  501  0.00000000000E+00  0.00000000000E+00  0.56960082491E+03  0.56960082491E+03  0.25500000920E-02 0.  1.
        2   -1    0    0  501    0  0.00000000000E+00  0.00000000000E+00 -0.62743766964E+03  0.62743766964E+03  0.25500000920E-02 0. -1.
    10030    2    1    2    0    0  0.00000000000E+00  0.00000000000E+00 -0.57836844732E+02  0.11970384946E+04  0.11956404379E+04 0.  0.
        1    1    3    3  502    0  0.25963168742E+03 -0.35640483045E+03 -0.43306852819E+03  0.61804641121E+03  0.50400001928E-02 0. -1.
       -1    1    3    3    0  502 -0.25963168742E+03  0.35640483045E+03  0.37523168346E+03  0.57899208334E+03  0.50400001928E-02 0.  1.
</event>
<event>
 5   0  0.1397500E-03  0.1206468E+04  0.7818609E-02  0.9107214E-01
        4   -1    0    0  501    0  0.00000000000E+00  0.00000000000E+00  0.51143393112E+03  0.51143550796E+03  0.12699999809E+01 0. -1.
       -4   -1    0    0    0  501  0.00000000000E+00  0.00000000000E+00 -0.71150847353E+03  0.71150960696E+03  0.12699999809E+01 0.  1.
    10030    2    1    2    0    0  0.00000000000E+00  0.00000000000E+00 -0.20007454240E+03  0.12229451149E+04  0.12064679571E+04 0.  0.
        1    1    3    3  502    0  0.52896986514E+03  0.28996672037E+03 -0.98831179110E+02  0.61127524008E+03  0.50400001928E-02 0. -1.
       -1    1    3    3    0  502 -0.52896986514E+03 -0.28996672037E+03 -0.10124336329E+03  0.61166987484E+03  0.50400001928E-02 0.  1.
</event>
<event>
 5   0  0.3725376E-03  0.1207369E+04  0.7818609E-02  0.9106430E-01
        2   -1    0    0  501    0  0.00000000000E+00  0.00000000000E+00  0.10491567085E+04  0.10491567085E+04  0.25500000920E-02 0. -1.
       -2   -1    0    0    0  501  0.00000000000E+00  0.00000000000E+00 -0.34736015877E+03  0.34736015878E+03  0.25500000920E-02 0.  1.
    10030    2    1    2    0    0  0.00000000000E+00  0.00000000000E+00  0.70179654969E+03  0.13965168673E+04  0.12073694395E+04 0.  0.
        4    1    3    3  502    0  0.29771854118E+03 -0.52392109340E+03  0.30913039007E+03  0.67726867109E+03  0.12699999809E+01 0. -1.
       -4    1    3    3    0  502 -0.29771854118E+03  0.52392109340E+03  0.39266615962E+03  0.71924819616E+03  0.12699999809E+01 0.  1.
</event>
<event>
 5   0  0.3650180E-03  0.1252248E+04  0.7818609E-02  0.9068315E-01
        2   -1    0    0  501    0  0.00000000000E+00  0.00000000000E+00  0.33034052753E+03  0.33034052754E+03  0.25500000920E-02 0.  1.
       -2   -1    0    0    0  501  0.00000000000E+00  0.00000000000E+00 -0.11867481564E+04  0.11867481564E+04  0.25500000920E-02 0. -1.
    10030    2    1    2    0    0  0.00000000000E+00  0.00000000000E+00 -0.85640762883E+03  0.15170886839E+04  0.12522475986E+04 0.  0.
        3    1    3    3  502    0  0.33951574153E+03  0.26637002514E+03  0.12140148199E+03  0.44828814290E+03  0.10100000352E+00 0.  1.
       -3    1    3    3    0  502 -0.33951574153E+03 -0.26637002514E+03 -0.97780911083E+03  0.10688005410E+04  0.10100000352E+00 0. -1.
</event>
<event>
 5   0  0.1397500E-03  0.1121244E+04  0.7818609E-02  0.9184730E-01
        3   -1    0    0  501    0  0.00000000000E+00  0.00000000000E+00  0.26637191180E+03  0.26637193094E+03  0.10100000352E+00 0.  1.
       -3   -1    0    0    0  501  0.00000000000E+00  0.00000000000E+00 -0.11799175309E+04  0.11799175353E+04  0.10100000352E+00 0. -1.
    10030    2    1    2    0    0  0.00000000000E+00  0.00000000000E+00 -0.91354561915E+03  0.14462894662E+04  0.11212437834E+04 0.  0.
        1    1    3    3  502    0  0.21752700311E+03 -0.51669916784E+03 -0.45556394545E+03  0.72238115669E+03  0.50400001928E-02 0. -1.
       -1    1    3    3    0  502 -0.21752700311E+03  0.51669916784E+03 -0.45798167370E+03  0.72390830952E+03  0.50400001928E-02 0.  1.
</event>
<event>
 5   0  0.1397500E-03  0.1231683E+04  0.7818609E-02  0.9085568E-01
       -3   -1    0    0    0  501  0.00000000000E+00  0.00000000000E+00  0.61830045695E+03  0.61830046520E+03  0.10100000352E+00 0.  1.
        3   -1    0    0  501    0  0.00000000000E+00  0.00000000000E+00 -0.61339232617E+03  0.61339233448E+03  0.10100000352E+00 0. -1.
    10030    2    1    2    0    0  0.00000000000E+00  0.00000000000E+00  0.49081307843E+01  0.12316927997E+04  0.12316830205E+04 0.  0.
        4    1    3    3  502    0  0.26572566772E+01 -0.60284175287E+03 -0.12337981032E+03  0.61534496870E+03  0.12699999809E+01 0. -1.
       -4    1    3    3    0  502 -0.26572566772E+01  0.60284175287E+03  0.12828794110E+03  0.61634783098E+03  0.12699999809E+01 0.  1.
</event>
<event>
 5   0  0.2078258E-03  0.1224450E+04  0.7818609E-02  0.9091721E-01
        1   -1    0    0  501    0  0.00000000000E+00  0.00000000000E+00  0.16859608516E+04  0.16859608516E+04  0.50400001928E-02 0.  1.
       -1   -1    0    0    0  501  0.00000000000E+00  0.00000000000E+00 -0.22231788681E+03  0.22231788687E+03  0.50400001928E-02 0. -1.
    10030    2    1    2    0    0  0.00000000000E+00  0.00000000000E+00  0.14636429648E+04  0.19082787385E+04  0.12244496786E+04 0.  0.
        3    1    3    3  502    0  0.51866265252E+01 -0.60619986964E+03  0.59853682911E+03  0.85191051704E+03  0.10100000352E+00 0. -1.
       -3    1    3    3    0  502 -0.51866265252E+01  0.60619986964E+03  0.86510613566E+03  0.10563682214E+04  0.10100000352E+00 0.  1.
</event>
<event>
 5   0  0.3751091E-03  0.1038687E+04  0.7818609E-02  0.9267102E-01
       -2   -1    0    0    0  501  0.00000000000E+00  0.00000000000E+00  0.29476033400E+03  0.29476033401E+03  0.25500000920E-02 0. -1.
        2   -1    0    0  501    0  0.00000000000E+00  0.00000000000E+00 -0.91504124861E+03  0.91504124862E+03  0.25500000920E-02 0.  1.
    10030    2    1    2    0    0  0.00000000000E+00  0.00000000000E+00 -0.62028091461E+03  0.12098015826E+04  0.10386873718E+04 0.  0.
        5    1    3    3  502    0 -0.27288164509E+03 -0.33260827050E+03  0.28643227238E+02  0.43120201565E+03  0.46999998093E+01 0. -1.
       -5    1    3    3    0  502  0.27288164509E+03  0.33260827050E+03 -0.64892414185E+03  0.77859956698E+03  0.46999998093E+01 0.  1.
</event>
<event>
 5   0  0.2134992E-03  0.1199898E+04  0.7818609E-02  0.9112946E-01
       -1   -1    0    0    0  501  0.00000000000E+00  0.00000000000E+00  0.66713988082E+03  0.66713988084E+03  0.50400001928E-02 0. -1.
        1   -1    0    0  501    0  0.00000000000E+00  0.00000000000E+00 -0.53952542147E+03  0.53952542150E+03  0.50400001928E-02 0.  1.
    10030    2    1    2    0    0  0.00000000000E+00  0.00000000000E+00  0.12761445934E+03  0.12066653023E+04  0.11998982047E+04 0.  0.
        4    1    3    3  502    0  0.10086799580E+03  0.15757911396E+03  0.63704990992E+03  0.66395762693E+03  0.12699999809E+01 0. -1.
       -4    1    3    3    0  502 -0.10086799580E+03 -0.15757911396E+03 -0.50943545058E+03  0.54270767540E+03  0.12699999809E+01 0.  1.
</event>
<event>
 5   0  0.3626049E-03  0.1202427E+04  0.7818609E-02  0.9110734E-01
       -2   -1    0    0    0  501  0.00000000000E+00  0.00000000000E+00  0.15762507335E+03  0.15762507337E+03  0.25500000920E-02 0.  1.
        2   -1    0    0  501    0  0.00000000000E+00  0.00000000000E+00 -0.22931499056E+04  0.22931499056E+04  0.25500000920E-02 0. -1.
    10030    2    1    2    0    0  0.00000000000E+00  0.00000000000E+00 -0.21355248323E+04  0.24507749790E+04  0.12024274150E+04 0.  0.
        1    1    3    3  502    0  0.21103889192E+03  0.67370708870E+02  0.71404483565E+02  0.23275486379E+03  0.50400001928E-02 0.  1.
       -1    1    3    3    0  502 -0.21103889192E+03 -0.67370708870E+02 -0.22069293158E+04  0.22180201152E+04  0.50400001928E-02 0. -1.
</event>
<event>
 5   0  0.1397500E-03  0.1164810E+04  0.7818609E-02  0.9144229E-01
       -3   -1    0    0    0  501  0.00000000000E+00  0.00000000000E+00  0.38833092083E+03  0.38833093396E+03  0.10100000352E+00 0. -1.
        3   -1    0    0  501    0  0.00000000000E+00  0.00000000000E+00 -0.87346998351E+03  0.87346998935E+03  0.10100000352E+00 0.  1.
    10030    2    1    2    0    0  0.00000000000E+00  0.00000000000E+00 -0.48513906269E+03  0.12618009233E+04  0.11648097097E+04 0.  0.
        5    1    3    3  502    0 -0.94073786931E+02 -0.57235104613E+03 -0.18588938346E+03  0.60910799558E+03  0.46999998093E+01 0. -1.
       -5    1    3    3    0  502  0.94073786931E+02  0.57235104613E+03 -0.29924967923E+03  0.65269292773E+03  0.46999998093E+01 0.  1.
</event>
<event>
 5   0  0.3706035E-03  0.1204341E+04  0.7818609E-02  0.9109065E-01
       -2   -1    0    0    0  501  0.00000000000E+00  0.00000000000E+00  0.11943754063E+03  0.11943754066E+03  0.25500000920E-02 0.  1.
        2   -1    0    0  501    0  0.00000000000E+00  0.00000000000E+00 -0.30359745888E+04  0.30359745888E+04  0.25500000920E-02 0. -1.
    10030    2    1    2    0    0  0.00000000000E+00  0.00000000000E+00 -0.29165370481E+04  0.31554121294E+04  0.12043410453E+04 0.  0.
        2    1    3    3  502    0  0.44214273744E+03  0.18351933628E+03 -0.24153508135E+04  0.24623340754E+04  0.25500000920E-02 0. -1.
       -2    1    3    3    0  502 -0.44214273744E+03 -0.18351933628E+03 -0.50118623470E+03  0.69307805398E+03  0.25500000920E-02 0.  1.
</event>
<event>
 5   0  0.2025294E-03  0.1210048E+04  0.7818609E-02  0.9104107E-01
       -1   -1    0    0    0  501  0.00000000000E+00  0.00000000000E+00  0.54788398630E+03  0.54788398632E+03  0.50400001928E-02 0. -1.
        1   -1    0    0  501    0  0.00000000000E+00  0.00000000000E+00 -0.66812352275E+03  0.66812352277E+03  0.50400001928E-02 0.  1.
    10030    2    1    2    0    0  0.00000000000E+00  0.00000000000E+00 -0.12023953645E+03  0.12160075091E+04  0.12100482288E+04 0.  0.
        5    1    3    3  502    0  0.24996373898E+03  0.36213089324E+03  0.35714970057E+03  0.56674390448E+03  0.46999998093E+01 0.  1.
       -5    1    3    3    0  502 -0.24996373898E+03 -0.36213089324E+03 -0.47738923702E+03  0.64926360461E+03  0.46999998093E+01 0. -1.
</event>
<event>
 5   0  0.3725376E-03  0.1196203E+04  0.7818609E-02  0.9116187E-01
        2   -1    0    0  501    0  0.00000000000E+00  0.00000000000E+00  0.40551546235E+03  0.40551546236E+03  0.25500000920E-02 0.  1.
       -2   -1    0    0    0  501  0.00000000000E+00  0.00000000000E+00 -0.88214947011E+03  0.88214947011E+03  0.25500000920E-02 0. -1.
    10030    2    1    2    0    0  0.00000000000E+00  0.00000000000E+00 -0.47663400776E+03  0.12876649325E+04  0.11962027424E+04 0.  0.
        4    1    3    3  502    0 -0.59958752338E+02 -0.60470470962E+02  0.39895476685E+03  0.40794392842E+03  0.12699999809E+01 0.  1.
       -4    1    3    3    0  502  0.59958752338E+02  0.60470470962E+02 -0.87558877461E+03  0.87972100405E+03  0.12699999809E+01 0. -1.
</event>
<event>
 5   0  0.3751091E-03  0.1202883E+04  0.7818609E-02  0.9110337E-01
        2   -1    0    0  501    0  0.00000000000E+00  0.00000000000E+00  0.24992605303E+04  0.24992605303E+04  0.25500000920E-02 0. -1.
       -2   -1    0    0    0  501  0.00000000000E+00  0.00000000000E+00 -0.14473549275E+03  0.14473549277E+03  0.25500000920E-02 0.  1.
    10030    2    1    2    0    0  0.00000000000E+00  0.00000000000E+00  0.23545250376E+04  0.26439960231E+04  0.12028827115E+04 0.  0.
        5    1    3    3  502    0  0.44815699801E+03  0.35157587191E+03  0.16015449130E+04  0.16998289581E+04  0.46999998093E+01 0.  1.
       -5    1    3    3    0  502 -0.44815699801E+03 -0.35157587191E+03  0.75298012462E+03  0.94416706501E+03  0.46999998093E+01 0. -1.
</event>
<event>
 5   0  0.2134992E-03  0.1200150E+04  0.7818609E-02  0.9112726E-01
       -1   -1    0    0    0  501  0.00000000000E+00  0.00000000000E+00  0.56245524822E+03  0.56245524824E+03  0.50400001928E-02 0.  1.
        1   -1    0    0  501    0  0.00000000000E+00  0.00000000000E+00 -0.64021050484E+03  0.64021050486E+03  0.50400001928E-02 0. -1.
    10030    2    1    2    0    0  0.00000000000E+00  0.00000000000E+00 -0.77755256622E+02  0.12026657531E+04  0.12001495881E+04 0.  0.
        4    1    3    3  502    0  0.30325517218E+03  0.50743801163E+03  0.64445816844E+02  0.59465276533E+03  0.12699999809E+01 0.  1.
       -4    1    3    3    0  502 -0.30325517218E+03 -0.50743801163E+03 -0.14220107347E+03  0.60801298777E+03  0.12699999809E+01 0. -1.
</event>
<event>
 5   0  0.3650180E-03  0.1022601E+04  0.7818609E-02  0.9284098E-01
        2   -1    0    0  501    0  0.00000000000E+00  0.00000000000E+00  0.15710586192E+04  0.15710586192E+04  0.25500000920E-02 0.  1.
       -2   -1    0    0    0  501  0.00000000000E+00  0.00000000000E+00 -0.16640265535E+03  0.16640265537E+03  0.25500000920E-02 0. -1.
    10030    2    1    2    0    0  0.00000000000E+00  0.00000000000E+00  0.14046559639E+04  0.17374612746E+04  0.10226012438E+04 0.  0.
        3    1    3    3  502    0 -0.50892631905E+03  0.37016087470E+02  0.75743956195E+03  0.91328576533E+03  0.10100000352E+00 0. -1.
       -3    1    3    3    0  502  0.50892631905E+03 -0.37016087470E+02  0.64721640192E+03  0.82417550927E+03  0.10100000352E+00 0.  1.
</event>
<event>
 5   0  0.2025294E-03  0.1188705E+04  0.7818609E-02  0.9122801E-01
        1   -1    0    0  501    0  0.00000000000E+00  0.00000000000E+00  0.25580206970E+03  0.25580206975E+03  0.50400001928E-02 0.  1.
       -1   -1    0    0    0  501  0.00000000000E+00  0.00000000000E+00 -0.13809705531E+04  0.13809705531E+04  0.50400001928E-02 0. -1.
    10030    2    1    2    0    0  0.00000000000E+00  0.00000000000E+00 -0.11251684834E+04  0.16367726228E+04  0.11887053894E+04 0.  0.
        5    1    3    3  502    0  0.24447397400E+03 -0.51540414963E+03 -0.79226493092E+03  0.97627597133E+03  0.46999998093E+01 0. -1.
       -5    1    3    3    0  502 -0.24447397400E+03  0.51540414963E+03 -0.33290355244E+03  0.66049665151E+03  0.46999998093E+01 0.  1.
</event>
<event>
 5   0  0.2078258E-03  0.9479967E+03  0.7818609E-02  0.9367495E-01
        1   -1    0    0  501    0  0.00000000000E+00  0.00000000000E+00  0.33423390000E+03  0.33423390004E+03  0.50400001928E-02 0. -1.
       -1   -1    0    0    0  501  0.00000000000E+00  0.00000000000E+00 -0.67220716683E+03  0.67220716685E+03  0.50400001928E-02 0.  1.
    10030    2    1    2    0    0  0.00000000000E+00  0.00000000000E+00 -0.33797326682E+03  0.10064410669E+04  0.94799667301E+03 0.  0.
        3    1    3    3  502    0  0.69889833770E+02  0.12269665645E+03 -0.64935893577E+03  0.66453449574E+03  0.10100000352E+00 0.  1.
       -3    1    3    3    0  502 -0.69889833770E+02 -0.12269665645E+03  0.31138566894E+03  0.34190657115E+03  0.10100000352E+00 0. -1.
</event>
<event>
 5   0  0.2078258E-03  0.1186701E+04  0.7818609E-02  0.9124577E-01
       -1   -1    0    0    0  501  0.00000000000E+00  0.00000000000E+00  0.32947990489E+03  0.32947990493E+03  0.50400001928E-02 0.  1.
        1   -1    0    0  501    0  0.00000000000E+00  0.00000000000E+00 -0.10685477904E+04  0.10685477904E+04  0.50400001928E-02 0. -1.
    10030    2    1    2    0    0  0.00000000000E+00  0.00000000000E+00 -0.73906788548E+03  0.13980276953E+04  0.11867013514E+04 0.  0.
        3    1    3    3  502    0 -0.56705855460E+03  0.18336627815E+02 -0.57417195283E+03  0.80719581137E+03  0.10100000352E+00 0.  1.
       -3    1    3    3    0  502  0.56705855460E+03 -0.18336627815E+02 -0.16489593264E+03  0.59083188393E+03  0.10100000352E+00 0. -1.
</event>
<event>
 5   0  0.2047109E-03  0.1258094E+04  0.7818609E-02  0.9063473E-01
        1   -1    0    0  501    0  0.00000000000E+00  0.00000000000E+00  0.13311484829E+04  0.13311484829E+04  0.50400001928E-02 0. -1.
       -1   -1    0    0    0  501  0.00000000000E+00  0.00000000000E+00 -0.29726229577E+03  0.29726229581E+03  0.50400001928E-02 0.  1.
    10030    2    1    2    0    0  0.00000000000E+00  0.00000000000E+00  0.10338861871E+04  0.16284107787E+04  0.12580942001E+04 0.  0.
        1    1    3    3  502    0  0.58466193369E+02 -0.13499195664E+03  0.13085707125E+04  0.13168137430E+04  0.50400001928E-02 0. -1.
       -1    1    3    3    0  502 -0.58466193369E+02  0.13499195664E+03 -0.27468452540E+03  0.31159703568E+03  0.50400001928E-02 0.  1.
</event>
<event>
 5   0  0.3650180E-03  0.1196842E+04  0.7818609E-02  0.9115626E-01
        2   -1    0    0  501    0  0.00000000000E+00  0.00000000000E+00  0.17513953048E+04  0.17513953048E+04  0.25500000920E-02 0.  1.
       -2   -1    0    0    0  501  0.00000000000E+00  0.00000000000E+00 -0.20446979011E+03  0.20446979013E+03  0.25500000920E-02 0. -1.
    10030    2    1    2    0    0  0.00000000000E+00  0.00000000000E+00  0.15469255147E+04  0.19558650950E+04  0.11968415608E+04 0.  0.
        3    1    3    3  502    0  0.71929074967E+02 -0.15743630175E+03  0.17095940095E+04  0.17183339805E+04  0.10100000352E+00 0.  1.
       -3    1    3    3    0  502 -0.71929074967E+02  0.15743630175E+03 -0.16266849480E+03  0.23753111446E+03  0.10100000352E+00 0. -1.
</event>
<event>
 5   0  0.1397500E-03  0.1169916E+04  0.7818609E-02  0.9139604E-01
        3   -1    0    0  501    0  0.00000000000E+00  0.00000000000E+00  0.85016844690E+03  0.85016845290E+03  0.10100000352E+00 0.  1.
       -3   -1    0    0    0  501  0.00000000000E+00  0.00000000000E+00 -0.40248026099E+03  0.40248027366E+03  0.10100000352E+00 0. -1.
    10030    2    1    2    0    0  0.00000000000E+00  0.00000000000E+00  0.44768818591E+03  0.12526487266E+04  0.11699162878E+04 0.  0.
        2    1    3    3  502    0  0.37415439408E+03  0.44937083920E+03  0.20690211068E+03  0.62026941335E+03  0.25500000920E-02 0.  1.
       -2    1    3    3    0  502 -0.37415439408E+03 -0.44937083920E+03  0.24078607523E+03  0.63237931320E+03  0.25500000920E-02 0. -1.
</event>
<event>
 5   0  0.3650180E-03  0.1190172E+04  0.7818609E-02  0.9121502E-01
       -2   -1    0    0    0  501  0.00000000000E+00  0.00000000000E+00  0.32036535762E+03  0.32036535763E+03  0.25500000920E-02 0.  1.
        2   -1    0    0  501    0  0.00000000000E+00  0.00000000000E+00 -0.11053863370E+04  0.11053863370E+04  0.25500000920E-02 0. -1.
    10030    2    1    2    0    0  0.00000000000E+00  0.00000000000E+00 -0.78502097934E+03  0.14257516946E+04  0.11901722382E+04 0.  0.
        3    1    3    3  502    0 -0.51720834403E+03 -0.16445549092E+02 -0.74453399929E+03  0.90670050927E+03  0.10100000352E+00 0. -1.
       -3    1    3    3    0  502  0.51720834403E+03  0.16445549092E+02 -0.40486980046E+02  0.51905118531E+03  0.10100000352E+00 0.  1.
</event>
<event>
 5   0  0.3751091E-03  0.1095088E+04  0.7818609E-02  0.9209992E-01
        2   -1    0    0  501    0  0.00000000000E+00  0.00000000000E+00  0.11494967387E+04  0.11494967387E+04  0.25500000920E-02 0.  1.
       -2   -1    0    0    0  501  0.00000000000E+00  0.00000000000E+00 -0.26081375989E+03  0.26081375990E+03  0.25500000920E-02 0. -1.
    10030    2    1    2    0    0  0.00000000000E+00  0.00000000000E+00  0.88868297882E+03  0.14103104986E+04  0.10950882456E+04 0.  0.
        5    1    3    3  502    0 -0.36462962496E+03  0.11402776013E+03  0.94944411259E+03  0.10234370066E+04  0.46999998093E+01 0.  1.
       -5    1    3    3    0  502  0.36462962496E+03 -0.11402776013E+03 -0.60761133769E+02  0.38687349205E+03  0.46999998093E+01 0. -1.
</event>
<event>
 5   0  0.2096270E-03  0.9798603E+03  0.7818609E-02  0.9330914E-01
       -1   -1    0    0    0  501  0.00000000000E+00  0.00000000000E+00  0.94155693286E+03  0.94155693287E+03  0.50400001928E-02 0.  1.
        1   -1    0    0  501    0  0.00000000000E+00  0.00000000000E+00 -0.25493047980E+03  0.25493047985E+03  0.50400001928E-02 0. -1.
    10030    2    1    2    0    0  0.00000000000E+00  0.00000000000E+00  0.68662645306E+03  0.11964874127E+04  0.97986031798E+03 0.  0.
        2    1    3    3  502    0  0.33371687550E+03 -0.34757402161E+03  0.45154873847E+03  0.66035665871E+03  0.25500000920E-02 0.  1.
       -2    1    3    3    0  502 -0.33371687550E+03  0.34757402161E+03  0.23507771459E+03  0.53613075401E+03  0.25500000920E-02 0. -1.
</event>
<event>
 5   0  0.2134992E-03  0.1208966E+04  0.7818609E-02  0.9105045E-01
        1   -1    0    0  501    0  0.00000000000E+00  0.00000000000E+00  0.10965800631E+04  0.10965800631E+04  0.50400001928E-02 0.  1.
       -1   -1    0    0    0  501  0.00000000000E+00  0.00000000000E+00 -0.33321738984E+03  0.33321738988E+03  0.50400001928E-02 0. -1.
    10030    2    1    2    0    0  0.00000000000E+00  0.00000000000E+00  0.76336267323E+03  0.14297974530E+04  0.12089657504E+04 0.  0.
        4    1    3    3  502    0  0.19511365673E+02 -0.39556438000E+03  0.92176559287E+03  0.10032473739E+04  0.12699999809E+01 0.  1.
       -4    1    3    3    0  502 -0.19511365673E+02  0.39556438000E+03 -0.15840291964E+03  0.42655007908E+03  0.12699999809E+01 0. -1.
</event>
<event>
 5   0  0.3706035E-03  0.1246526E+04  0.7818609E-02  0.9073080E-01
        2   -1    0    0  501    0  0.00000000000E+00  0.00000000000E+00  0.85154786662E+03  0.85154786662E+03  0.25500000920E-02 0.  1.
       -2   -1    0    0    0  501  0.00000000000E+00  0.00000000000E+00 -0.45617727700E+03  0.45617727701E+03  0.25500000920E-02 0. -1.
    10030    2    1    2    0    0  0.00000000000E+00  0.00000000000E+00  0.39537058962E+03  0.13077251436E+04  0.12465260319E+04 0.  0.
        2    1    3    3  502    0  0.92849674619E+01  0.47552123460E+03  0.62026404145E+03  0.78162275830E+03  0.25500000920E-02 0.  1.
       -2    1    3    3    0  502 -0.92849674619E+01 -0.47552123460E+03 -0.22489345183E+03  0.52610238533E+03  0.25500000920E-02 0. -1.
</event>
<event>
 5   0  0.3650180E-03  0.1222068E+04  0.7818609E-02  0.9093757E-01
        2   -1    0    0  501    0  0.00000000000E+00  0.00000000000E+00  0.56014138840E+03  0.56014138840E+03  0.25500000920E-02 0.  1.
       -2   -1    0    0    0  501  0.00000000000E+00  0.00000000000E+00 -0.66655055566E+03  0.66655055567E+03  0.25500000920E-02 0. -1.
    10030    2    1    2    0    0  0.00000000000E+00  0.00000000000E+00 -0.10640916727E+03  0.12266919441E+04  0.12220680074E+04 0.  0.
        3    1    3    3  502    0 -0.23701775181E+03 -0.18029517836E+03  0.48236719518E+03  0.56688789650E+03  0.10100000352E+00 0.  1.
       -3    1    3    3    0  502  0.23701775181E+03  0.18029517836E+03 -0.58877636244E+03  0.65980404757E+03  0.10100000352E+00 0. -1.
</event>
<event>
 5   0  0.2047109E-03  0.1206820E+04  0.7818609E-02  0.9106908E-01
        1   -1    0    0  501    0  0.00000000000E+00  0.00000000000E+00  0.62133036221E+03  0.62133036223E+03  0.50400001928E-02 0. -1.
       -1   -1    0    0    0  501  0.00000000000E+00  0.00000000000E+00 -0.58600618344E+03  0.58600618346E+03  0.50400001928E-02 0.  1.
    10030    2    1    2    0    0  0.00000000000E+00  0.00000000000E+00  0.35324178770E+02  0.12073365457E+04  0.12068196787E+04 0.  0.
        1    1    3    3  502    0 -0.22942874038E+03  0.44961036360E+03  0.34843401416E+03  0.61334597758E+03  0.50400001928E-02 0. -1.
       -1    1    3    3    0  502  0.22942874038E+03 -0.44961036360E+03 -0.31310983539E+03  0.59399056812E+03  0.50400001928E-02 0.  1.
</event>
<event>
 5   0  0.3751091E-03  0.1196777E+04  0.7818609E-02  0.9115683E-01
       -2   -1    0    0    0  501  0.00000000000E+00  0.00000000000E+00  0.44935570563E+03  0.44935570564E+03  0.25500000920E-02 0. -1.
        2   -1    0    0  501    0  0.00000000000E+00  0.00000000000E+00 -0.79684896286E+03  0.79684896286E+03  0.25500000920E-02 0.  1.
    10030    2    1    2    0    0  0.00000000000E+00  0.00000000000E+00 -0.34749325723E+03  0.12462046685E+04  0.11967767177E+04 0.  0.
        5    1    3    3  502    0  0.27934756138E+03  0.34240742798E+03  0.24636199629E+03  0.50595872362E+03  0.46999998093E+01 0. -1.
       -5    1    3    3    0  502 -0.27934756138E+03 -0.34240742798E+03 -0.59385525352E+03  0.74024594489E+03  0.46999998093E+01 0.  1.
</event>
<event>
 5   0  0.2134992E-03  0.1201647E+04  0.7818609E-02  0.9111416E-01
       -1   -1    0    0    0  501  0.00000000000E+00  0.00000000000E+00  0.10349792236E+04  0.10349792236E+04  0.50400001928E-02 0.  1.
        1   -1    0    0  501    0  0.00000000000E+00  0.00000000000E+00 -0.34878869666E+03  0.34878869669E+03  0.50400001928E-02 0. -1.
    10030    2    1    2    0    0  0.00000000000E+00  0.00000000000E+00  0.68619052695E+03  0.13837679203E+04  0.12016472935E+04 0.  0.
        4    1    3    3  502    0 -0.53235500791E+02  0.25104738111E+03  0.96868832100E+03  0.10021065224E+04  0.12699999809E+01 0.  1.
       -4    1    3    3    0  502  0.53235500791E+02 -0.25104738111E+03 -0.28249779405E+03  0.38166139791E+03  0.12699999809E+01 0. -1.
</event>
<event>
 5   0  0.2025294E-03  0.1200427E+04  0.7818609E-02  0.9112483E-01
        1   -1    0    0  501    0  0.00000000000E+00  0.00000000000E+00  0.59356648884E+03  0.59356648886E+03  0.50400001928E-02 0.  1.
       -1   -1    0    0    0  501  0.00000000000E+00  0.00000000000E+00 -0.60693495572E+03  0.60693495575E+03  0.50400001928E-02 0. -1.
    10030    2    1    2    0    0  0.00000000000E+00  0.00000000000E+00 -0.13368466881E+02  0.12005014446E+04  0.12004270084E+04 0.  0.
        5    1    3    3  502    0 -0.17049548428E+03 -0.51389796984E+03  0.25231894346E+03  0.59736653136E+03  0.46999998093E+01 0.  1.
       -5    1    3    3    0  502  0.17049548428E+03  0.51389796984E+03 -0.26568741034E+03  0.60313491325E+03  0.46999998093E+01 0. -1.
</event>
<event>
 5   0  0.3706035E-03  0.1216600E+04  0.7818609E-02  0.9098450E-01
        2   -1    0    0  501    0  0.00000000000E+00  0.00000000000E+00  0.15940844669E+04  0.15940844669E+04  0.25500000920E-02 0. -1.
       -2   -1    0    0    0  501  0.00000000000E+00  0.00000000000E+00 -0.23212609148E+03  0.23212609149E+03  0.25500000920E-02 0.  1.
    10030    2    1    2    0    0  0.00000000000E+00  0.00000000000E+00  0.13619583754E+04  0.18262105584E+04  0.12165995180E+04 0.  0.
        2    1    3    3  502    0 -0.38476635094E+03 -0.36808160651E+03  0.11224578460E+04  0.12423529409E+04  0.25500000920E-02 0. -1.
       -2    1    3    3    0  502  0.38476635094E+03  0.36808160651E+03  0.23950052947E+03  0.58385761748E+03  0.25500000920E-02 0.  1.
</event>
<event>
 5   0  0.2047109E-03  0.1185938E+04  0.7818609E-02  0.9125255E-01
       -1   -1    0    0    0  501  0.00000000000E+00  0.00000000000E+00  0.23039545839E+03  0.23039545845E+03  0.50400001928E-02 0.  1.
        1   -1    0    0  501    0  0.00000000000E+00  0.00000000000E+00 -0.15261253765E+04  0.15261253765E+04  0.50400001928E-02 0. -1.
    10030    2    1    2    0    0  0.00000000000E+00  0.00000000000E+00 -0.12957299181E+04  0.17565208350E+04  0.11859382037E+04 0.  0.
        1    1    3    3  502    0  0.23272074316E+03 -0.48790742015E+03 -0.28688458226E+03  0.61197659963E+03  0.50400001928E-02 0.  1.
       -1    1    3    3    0  502 -0.23272074316E+03  0.48790742015E+03 -0.10088453359E+04  0.11445442353E+04  0.50400001928E-02 0. -1.
</event>
<event>
 5   0  0.2096270E-03  0.1233831E+04  0.7818609E-02  0.9083749E-01
       -1   -1    0    0    0  501  0.00000000000E+00  0.00000000000E+00  0.31531617308E+03  0.31531617312E+03  0.50400001928E-02 0. -1.
        1   -1    0    0  501    0  0.00000000000E+00  0.00000000000E+00 -0.12069936719E+04  0.12069936719E+04  0.50400001928E-02 0.  1.
    10030    2    1    2    0    0  0.00000000000E+00  0.00000000000E+00 -0.89167749884E+03  0.15223098451E+04  0.12338308241E+04 0.  0.
        2    1    3    3  502    0 -0.53734033392E+03  0.29921893543E+03 -0.38643607296E+03  0.72636040935E+03  0.25500000920E-02 0.  1.
       -2    1    3    3    0  502  0.53734033392E+03 -0.29921893543E+03 -0.50524142588E+03  0.79594943571E+03  0.25500000920E-02 0. -1.
</event>
<event>
 5   0  0.3751091E-03  0.9767024E+03  0.7818609E-02  0.9334473E-01
        2   -1    0    0  501    0  0.00000000000E+00  0.00000000000E+00  0.48777612810E+03  0.48777612811E+03  0.25500000920E-02 0. -1.
       -2   -1    0    0    0  501  0.00000000000E+00  0.00000000000E+00 -0.48892695628E+03  0.48892695629E+03  0.25500000920E-02 0.  1.
    10030    2    1    2    0    0  0.00000000000E+00  0.00000000000E+00 -0.11508281798E+01  0.97670308439E+03  0.97670240639E+03 0.  0.
        5    1    3    3  502    0 -0.14350794928E+03 -0.14455094318E+03 -0.44439471792E+03  0.48887448491E+03  0.46999998093E+01 0.  1.
       -5    1    3    3    0  502  0.14350794928E+03  0.14455094318E+03  0.44324388975E+03  0.48782859948E+03  0.46999998093E+01 0. -1.
</event>
<event>
 5   0  0.3725376E-03  0.1194808E+04  0.7818609E-02  0.9117413E-01
        2   -1    0    0  501    0  0.00000000000E+00  0.00000000000E+00  0.59499161605E+03  0.59499161605E+03  0.25500000920E-02 0.  1.
       -2   -1    0    0    0  501  0.00000000000E+00  0.00000000000E+00 -0.59982655239E+03  0.59982655240E+03  0.25500000920E-02 0. -1.
    10030    2    1    2    0    0  0.00000000000E+00  0.00000000000E+00 -0.48349363455E+01  0.11948181685E+04  0.11948083859E+04 0.  0.
        4    1    3    3  502    0  0.45506642238E+03  0.32579268992E+03  0.20654316516E+03  0.59656350673E+03  0.12699999809E+01 0. -1.
       -4    1    3    3    0  502 -0.45506642238E+03 -0.32579268992E+03 -0.21137810150E+03  0.59825466173E+03  0.12699999809E+01 0.  1.
</event>
<event>
 5   0  0.2096270E-03  0.1202224E+04  0.7818609E-02  0.9110912E-01
        1   -1    0    0  501    0  0.00000000000E+00  0.00000000000E+00  0.15768687969E+04  0.15768687969E+04  0.50400001928E-02 0.  1.
       -1   -1    0    0    0  501  0.00000000000E+00  0.00000000000E+00 -0.22914757636E+03  0.22914757642E+03  0.50400001928E-02 0. -1.
    10030    2    1    2    0    0  0.00000000000E+00  0.00000000000E+00  0.13477212205E+04  0.18060163733E+04  0.12022240442E+04 0.  0.
        2    1    3    3  502    0  0.53664867772E+01 -0.18666498633E+03  0.15321886269E+04  0.15435266776E+04  0.25500000920E-02 0.  1.
       -2    1    3    3    0  502 -0.53664867772E+01  0.18666498633E+03 -0.18446740637E+03  0.26248969564E+03  0.25500000920E-02 0. -1.
</event>
<event>
 5   0  0.2078258E-03  0.1187884E+04  0.7818609E-02  0.9123528E-01
        1   -1    0    0  501    0  0.00000000000E+00  0.00000000000E+00  0.10510252226E+04  0.10510252226E+04  0.50400001928E-02 0.  1.
       -1   -1    0    0    0  501  0.00000000000E+00  0.00000000000E+00 -0.33564113924E+03  0.33564113927E+03  0.50400001928E-02 0. -1.
    10030    2    1    2    0    0  0.00000000000E+00  0.00000000000E+00  0.71538408334E+03  0.13866663619E+04  0.11878843430E+04 0.  0.
        3    1    3    3  502    0  0.89057175289E+02 -0.14684916400E+03  0.10214068206E+04  0.10357450269E+04  0.10100000352E+00 0.  1.
       -3    1    3    3    0  502 -0.89057175289E+02  0.14684916400E+03 -0.30602273722E+03  0.35092133497E+03  0.10100000352E+00 0. -1.
</event>
<event>
 5   0  0.2096270E-03  0.1191447E+04  0.7818609E-02  0.9120376E-01
        1   -1    0    0  501    0  0.00000000000E+00  0.00000000000E+00  0.11718139677E+04  0.11718139677E+04  0.50400001928E-02 0.  1.
       -1   -1    0    0    0  501  0.00000000000E+00  0.00000000000E+00 -0.30285240416E+03  0.30285240420E+03  0.50400001928E-02 0. -1.
    10030    2    1    2    0    0  0.00000000000E+00  0.00000000000E+00  0.86896156352E+03  0.14746663719E+04  0.11914473171E+04 0.  0.
        2    1    3    3  502    0 -0.11468216560E+03  0.58294344736E+03  0.38036559037E+03  0.70544528085E+03  0.25500000920E-02 0.  1.
       -2    1    3    3    0  502  0.11468216560E+03 -0.58294344736E+03  0.48859597315E+03  0.76922109105E+03  0.25500000920E-02 0. -1.
</event>
<event>
 5   0  0.3650180E-03  0.1222980E+04  0.7818609E-02  0.9092977E-01
       -2   -1    0    0    0  501  0.00000000000E+00  0.00000000000E+00  0.19699623417E+03  0.19699623418E+03  0.25500000920E-02 0. -1.
        2   -1    0    0  501    0  0.00000000000E+00  0.00000000000E+00 -0.18981062853E+04  0.18981062853E+04  0.25500000920E-02 0.  1.
    10030    2    1    2    0    0  0.00000000000E+00  0.00000000000E+00 -0.17011100511E+04  0.20951025195E+04  0.12229796242E+04 0.  0.
        3    1    3    3  502    0 -0.59281646783E+02  0.43989494011E+02 -0.18904449139E+04  0.18918856656E+04  0.10100000352E+00 0.  1.
       -3    1    3    3    0  502  0.59281646783E+02 -0.43989494011E+02  0.18933486276E+03  0.20321685384E+03  0.10100000352E+00 0. -1.
</event>
<event>
 5   0  0.2025294E-03  0.1200345E+04  0.7818609E-02  0.9112555E-01
        1   -1    0    0  501    0  0.00000000000E+00  0.00000000000E+00  0.18963675542E+04  0.18963675542E+04  0.50400001928E-02 0.  1.
       -1   -1    0    0    0  501  0.00000000000E+00  0.00000000000E+00 -0.18994563724E+03  0.18994563731E+03  0.50400001928E-02 0. -1.
    10030    2    1    2    0    0  0.00000000000E+00  0.00000000000E+00  0.17064219170E+04  0.20863131915E+04  0.12003445232E+04 0.  0.
        5    1    3    3  502    0 -0.12755473137E+03  0.37814014094E+03  0.74116683448E+02  0.40592554545E+03  0.46999998093E+01 0. -1.
       -5    1    3    3    0  502  0.12755473137E+03 -0.37814014094E+03  0.16323052335E+04  0.16803876461E+04  0.46999998093E+01 0.  1.
</event>
<event>
 5   0  0.2134992E-03  0.1197910E+04  0.7818609E-02  0.9114688E-01
       -1   -1    0    0    0  501  0.00000000000E+00  0.00000000000E+00  0.22434817191E+03  0.22434817196E+03  0.50400001928E-02 0. -1.
        1   -1    0    0  501    0  0.00000000000E+00  0.00000000000E+00 -0.15990645820E+04  0.15990645820E+04  0.50400001928E-02 0.  1.
    10030    2    1    2    0    0  0.00000000000E+00  0.00000000000E+00 -0.13747164101E+04  0.18234127540E+04  0.11979102067E+04 0.  0.
        4    1    3    3  502    0  0.45441974121E+03  0.35022777906E+03 -0.94919123525E+03  0.11091088370E+04  0.12699999809E+01 0.  1.
       -4    1    3    3    0  502 -0.45441974121E+03 -0.35022777906E+03 -0.42552517487E+03  0.71430391696E+03  0.12699999809E+01 0. -1.
</event>
<event>
 5   0  0.2078258E-03  0.1211723E+04  0.7818609E-02  0.9102657E-01
       -1   -1    0    0    0  501  0.00000000000E+00  0.00000000000E+00  0.37150206101E+03  0.37150206105E+03  0.50400001928E-02 0.  1.
        1   -1    0    0  501    0  0.00000000000E+00  0.00000000000E+00 -0.98806481973E+03  0.98806481974E+03  0.50400001928E-02 0. -1.
    10030    2    1    2    0    0  0.00000000000E+00  0.00000000000E+00 -0.61656275871E+03  0.13595668808E+04  0.12117229336E+04 0.  0.
        3    1    3    3  502    0  0.40138975063E+03  0.12129081849E+03 -0.79895185107E+03  0.90230220275E+03  0.10100000352E+00 0. -1.
       -3    1    3    3    0  502 -0.40138975063E+03 -0.12129081849E+03  0.18238909236E+03  0.45726467803E+03  0.10100000352E+00 0.  1.
</event>
<event>
 5   0  0.3626049E-03  0.1253807E+04  0.7818609E-02  0.9067021E-01
        2   -1    0    0  501    0  0.00000000000E+00  0.00000000000E+00  0.93911691907E+03  0.93911691907E+03  0.25500000920E-02 0.  1.
       -2   -1    0    0    0  501  0.00000000000E+00  0.00000000000E+00 -0.41848658477E+03  0.41848658477E+03  0.25500000920E-02 0. -1.
    10030    2    1    2    0    0  0.00000000000E+00  0.00000000000E+00  0.52063033430E+03  0.13576035038E+04  0.12538067350E+04 0.  0.
        1    1    3    3  502    0 -0.28291698628E+03 -0.89368321681E+02  0.85828242027E+03  0.90811752049E+03  0.50400001928E-02 0.  1.
       -1    1    3    3    0  502  0.28291698628E+03  0.89368321681E+02 -0.33765208597E+03  0.44948598336E+03  0.50400001928E-02 0. -1.
</event>
<event>
 5   0  0.2047109E-03  0.1196453E+04  0.7818609E-02  0.9115967E-01
       -1   -1    0    0    0  501  0.00000000000E+00  0.00000000000E+00  0.45513072482E+03  0.45513072485E+03  0.50400001928E-02 0.  1.
        1   -1    0    0  501    0  0.00000000000E+00  0.00000000000E+00 -0.78631240164E+03  0.78631240166E+03  0.50400001928E-02 0. -1.
    10030    2    1    2    0    0  0.00000000000E+00  0.00000000000E+00 -0.33118167682E+03  0.12414431265E+04  0.11964529800E+04 0.  0.
        1    1    3    3  502    0 -0.11707424483E+03 -0.24236933472E+03 -0.71993273019E+03  0.76860419543E+03  0.50400001928E-02 0. -1.
       -1    1    3    3    0  502  0.11707424483E+03  0.24236933472E+03  0.38875105337E+03  0.47283893107E+03  0.50400001928E-02 0.  1.
</event>
<event>
 5   0  0.3650180E-03  0.1210018E+04  0.7818609E-02  0.9104132E-01
        2   -1    0    0  501    0  0.00000000000E+00  0.00000000000E+00  0.78254504448E+03  0.78254504448E+03  0.25500000920E-02 0.  1.
       -2   -1    0    0    0  501  0.00000000000E+00  0.00000000000E+00 -0.46775095009E+03  0.46775095009E+03  0.25500000920E-02 0. -1.
    10030    2    1    2    0    0  0.00000000000E+00  0.00000000000E+00  0.31479409439E+03  0.12502959946E+04  0.12100184925E+04 0.  0.
        3    1    3    3  502    0 -0.46157464854E+03 -0.38442574052E+03  0.82872276136E+02  0.60638447416E+03  0.10100000352E+00 0. -1.
       -3    1    3    3    0  502  0.46157464854E+03  0.38442574052E+03  0.23192181825E+03  0.64391152042E+03  0.10100000352E+00 0.  1.
</event>
<event>
 5   0  0.3650180E-03  0.1203668E+04  0.7818609E-02  0.9109652E-01
       -2   -1    0    0    0  501  0.00000000000E+00  0.00000000000E+00  0.18928476041E+03  0.18928476043E+03  0.25500000920E-02 0. -1.
        2   -1    0    0  501    0  0.00000000000E+00  0.00000000000E+00 -0.19135417019E+04  0.19135417019E+04  0.25500000920E-02 0.  1.
    10030    2    1    2    0    0  0.00000000000E+00  0.00000000000E+00 -0.17242569415E+04  0.21028264623E+04  0.12036681978E+04 0.  0.
        3    1    3    3  502    0 -0.30002796101E+03  0.77459108445E+02 -0.17634724097E+04  0.17904892183E+04  0.10100000352E+00 0.  1.
       -3    1    3    3    0  502  0.30002796101E+03 -0.77459108445E+02  0.39215468201E+02  0.31233724404E+03  0.10100000352E+00 0. -1.
</event>
<event>
 5   0  0.3725376E-03  0.1159247E+04  0.7818609E-02  0.9149295E-01
        2   -1    0    0  501    0  0.00000000000E+00  0.00000000000E+00  0.11803455378E+04  0.11803455378E+04  0.25500000920E-02 0. -1.
       -2   -1    0    0    0  501  0.00000000000E+00  0.00000000000E+00 -0.28463140727E+03  0.28463140729E+03  0.25500000920E-02 0.  1.
    10030    2    1    2    0    0  0.00000000000E+00  0.00000000000E+00  0.89571413057E+03  0.14649769451E+04  0.11592470168E+04 0.  0.
        4    1    3    3  502    0  0.17711421278E+03 -0.54410931370E+03  0.56462345342E+03  0.80388161236E+03  0.12699999809E+01 0. -1.
       -4    1    3    3    0  502 -0.17711421278E+03  0.54410931370E+03  0.33109067715E+03  0.66109533278E+03  0.12699999809E+01 0.  1.
</event>
<event>
 5   0  0.2078258E-03  0.1421911E+04  0.7818609E-02  0.8938109E-01
        1   -1    0    0  501    0  0.00000000000E+00  0.00000000000E+00  0.71472944369E+03  0.71472944370E+03  0.50400001928E-02 0.  1.
       -1   -1    0    0    0  501  0.00000000000E+00  0.00000000000E+00 -0.70720167383E+03  0.70720167385E+03  0.50400001928E-02 0. -1.
    10030    2    1    2    0    0  0.00000000000E+00  0.00000000000E+00  0.75277698572E+01  0.14219311176E+04  0.14219111912E+04 0.  0.
        3    1    3    3  502    0 -0.60800317732E+03 -0.34999487514E+03 -0.11153548659E+03  0.71035515851E+03  0.10100000352E+00 0.  1.
       -3    1    3    3    0  502  0.60800317732E+03  0.34999487514E+03  0.11906325645E+03  0.71157595904E+03  0.10100000352E+00 0. -1.
</event>
<event>
 5   0  0.3725376E-03  0.1206833E+04  0.7818609E-02  0.9106897E-01
        2   -1    0    0  501    0  0.00000000000E+00  0.00000000000E+00  0.59203976626E+03  0.59203976627E+03  0.25500000920E-02 0. -1.
       -2   -1    0    0    0  501  0.00000000000E+00  0.00000000000E+00 -0.61501191434E+03  0.61501191434E+03  0.25500000920E-02 0.  1.
    10030    2    1    2    0    0  0.00000000000E+00  0.00000000000E+00 -0.22972148075E+02  0.12070516806E+04  0.12068330622E+04 0.  0.
        4    1    3    3  502    0  0.26600230238E+03 -0.13458807284E+03 -0.53621309943E+03  0.61351224529E+03  0.12699999809E+01 0.  1.
       -4    1    3    3    0  502 -0.26600230238E+03  0.13458807284E+03  0.51324095136E+03  0.59353943531E+03  0.12699999809E+01 0. -1.
</event>
<event>
 5   0  0.2025294E-03  0.1204500E+04  0.7818609E-02  0.9108927E-01
       -1   -1    0    0    0  501  0.00000000000E+00  0.00000000000E+00  0.53375776493E+03  0.53375776495E+03  0.50400001928E-02 0.  1.
        1   -1    0    0  501    0  0.00000000000E+00  0.00000000000E+00 -0.67953093358E+03  0.67953093360E+03  0.50400001928E-02 0. -1.
    10030    2    1    2    0    0  0.00000000000E+00  0.00000000000E+00 -0.14577316865E+03  0.12132886985E+04  0.12044997507E+04 0.  0.
        5    1    3    3  502    0 -0.19598032726E+03  0.17701082766E+03 -0.61807677980E+03  0.67214739270E+03  0.46999998093E+01 0. -1.
       -5    1    3    3    0  502  0.19598032726E+03 -0.17701082766E+03  0.47230361115E+03  0.54114130585E+03  0.46999998093E+01 0.  1.
</event>
<event>
 5   0  0.3626049E-03  0.1123206E+04  0.7818609E-02  0.9182864E-01
        2   -1    0    0  501    0  0.00000000000E+00  0.00000000000E+00  0.11109196392E+04  0.11109196392E+04  0.25500000920E-02 0.  1.
       -2   -1    0    0    0  501  0.00000000000E+00  0.00000000000E+00 -0.28390716223E+03  0.28390716224E+03  0.25500000920E-02 0. -1.
    10030    2    1    2    0    0  0.00000000000E+00  0.00000000000E+00  0.82701247698E+03  0.13948268014E+04  0.11232062006E+04 0.  0.
        1    1    3    3  502    0 -0.23128910632E+03  0.55805370165E+02  0.10452396189E+04  0.10719770291E+04  0.50400001928E-02 0.  1.
       -1    1    3    3    0  502  0.23128910632E+03 -0.55805370165E+02 -0.21822714187E+03  0.32284977237E+03  0.50400001928E-02 0. -1.
</event>
<event>
 5   0  0.2096270E-03  0.1203879E+04  0.7818609E-02  0.9109468E-01
       -1   -1    0    0    0  501  0.00000000000E+00  0.00000000000E+00  0.25228491035E+03  0.25228491040E+03  0.50400001928E-02 0. -1.
        1   -1    0    0  501    0  0.00000000000E+00  0.00000000000E+00 -0.14361987611E+04  0.14361987611E+04  0.50400001928E-02 0.  1.
    10030    2    1    2    0    0  0.00000000000E+00  0.00000000000E+00 -0.11839138507E+04  0.16884836715E+04  0.12038791895E+04 0.  0.
        2    1    3    3  502    0  0.31005452243E+03  0.38207022380E+03 -0.10565948703E+03  0.50326473153E+03  0.25500000920E-02 0. -1.
       -2    1    3    3    0  502 -0.31005452243E+03 -0.38207022380E+03 -0.10782543637E+04  0.11852189400E+04  0.25500000920E-02 0.  1.
</event>
<event>
 5   0  0.3751091E-03  0.1201983E+04  0.7818609E-02  0.9111122E-01
       -2   -1    0    0    0  501  0.00000000000E+00  0.00000000000E+00  0.38935322905E+03  0.38935322905E+03  0.25500000920E-02 0. -1.
        2   -1    0    0  501    0  0.00000000000E+00  0.00000000000E+00 -0.92766883718E+03  0.92766883718E+03  0.25500000920E-02 0.  1.
    10030    2    1    2    0    0  0.00000000000E+00  0.00000000000E+00 -0.53831560813E+03  0.13170220662E+04  0.12019831234E+04 0.  0.
        5    1    3    3  502    0 -0.36075375168E+03  0.10910597264E+03 -0.78206295824E+03  0.86815433148E+03  0.46999998093E+01 0.  1.
       -5    1    3    3    0  502  0.36075375168E+03 -0.10910597264E+03  0.24374735011E+03  0.44886773475E+03  0.46999998093E+01 0. -1.
</event>
<event>
 5   0  0.2078258E-03  0.1210037E+04  0.7818609E-02  0.9104116E-01
        1   -1    0    0  501    0  0.00000000000E+00  0.00000000000E+00  0.36704990145E+03  0.36704990149E+03  0.50400001928E-02 0. -1.
       -1   -1    0    0    0  501  0.00000000000E+00  0.00000000000E+00 -0.99726924882E+03  0.99726924883E+03  0.50400001928E-02 0.  1.
    10030    2    1    2    0    0  0.00000000000E+00  0.00000000000E+00 -0.63021934736E+03  0.13643191503E+04  0.12100373210E+04 0.  0.
        3    1    3    3  502    0  0.12899580478E+03  0.31808895848E+03  0.24663863944E+03  0.42267142300E+03  0.10100000352E+00 0. -1.
       -3    1    3    3    0  502 -0.12899580478E+03 -0.31808895848E+03 -0.87685798680E+03  0.94164772732E+03  0.10100000352E+00 0.  1.
</event>
<event>
 5   0  0.2078258E-03  0.1198782E+04  0.7818609E-02  0.9113924E-01
       -1   -1    0    0    0  501  0.00000000000E+00  0.00000000000E+00  0.78318811691E+03  0.78318811693E+03  0.50400001928E-02 0. -1.
        1   -1    0    0  501    0  0.00000000000E+00  0.00000000000E+00 -0.45872682699E+03  0.45872682702E+03  0.50400001928E-02 0.  1.
    10030    2    1    2    0    0  0.00000000000E+00  0.00000000000E+00  0.32446128992E+03  0.12419149439E+04  0.11987817146E+04 0.  0.
        3    1    3    3  502    0 -0.11642921463E+03 -0.41833262167E+03  0.59026937084E+03  0.73278638410E+03  0.10100000352E+00 0. -1.
       -3    1    3    3    0  502  0.11642921463E+03  0.41833262167E+03 -0.26580808092E+03  0.50912855985E+03  0.10100000352E+00 0.  1.
</event>
<event>
 5   0  0.1397500E-03  0.1196963E+04  0.7818609E-02  0.9115519E-01
        3   -1    0    0  501    0  0.00000000000E+00  0.00000000000E+00  0.91158270313E+03  0.91158270872E+03  0.10100000352E+00 0.  1.
       -3   -1    0    0    0  501  0.00000000000E+00  0.00000000000E+00 -0.39292139311E+03  0.39292140609E+03  0.10100000352E+00 0. -1.
    10030    2    1    2    0    0  0.00000000000E+00  0.00000000000E+00  0.51866131002E+03  0.13045041148E+04  0.11969634209E+04 0.  0.
        4    1    3    3  502    0  0.24761401389E+03  0.52411958002E+03  0.97076581247E+02  0.58774102253E+03  0.12699999809E+01 0.  1.
       -4    1    3    3    0  502 -0.24761401389E+03 -0.52411958002E+03  0.42158472877E+03  0.71676309229E+03  0.12699999809E+01 0. -1.
</event>
<event>
 5   0  0.2078258E-03  0.1173660E+04  0.7818609E-02  0.9136230E-01
        1   -1    0    0  501    0  0.00000000000E+00  0.00000000000E+00  0.63433264963E+03  0.63433264965E+03  0.50400001928E-02 0.  1.
       -1   -1    0    0    0  501  0.00000000000E+00  0.00000000000E+00 -0.54288460089E+03  0.54288460092E+03  0.50400001928E-02 0. -1.
    10030    2    1    2    0    0  0.00000000000E+00  0.00000000000E+00  0.91448048735E+02  0.11772172506E+04  0.11736599633E+04 0.  0.
        3    1    3    3  502    0 -0.18690957471E+03 -0.48239117763E+03  0.32357079881E+03  0.61019219056E+03  0.10100000352E+00 0.  1.
       -3    1    3    3    0  502  0.18690957471E+03  0.48239117763E+03 -0.23212275007E+03  0.56702506001E+03  0.10100000352E+00 0. -1.
</event>
<event>
 5   0  0.2096270E-03  0.1220921E+04  0.7818609E-02  0.9094739E-01
        1   -1    0    0  501    0  0.00000000000E+00  0.00000000000E+00  0.12323030124E+04  0.12323030124E+04  0.50400001928E-02 0. -1.
       -1   -1    0    0    0  501  0.00000000000E+00  0.00000000000E+00 -0.30241081080E+03  0.30241081085E+03  0.50400001928E-02 0.  1.
    10030    2    1    2    0    0  0.00000000000E+00  0.00000000000E+00  0.92989220158E+03  0.15347138232E+04  0.12209205595E+04 0.  0.
        2    1    3    3  502    0  0.26428858466E+03  0.15270660930E+03  0.11294939145E+04  0.11700103707E+04  0.25500000920E-02 0. -1.
       -2    1    3    3    0  502 -0.26428858466E+03 -0.15270660930E+03 -0.19960171295E+03  0.36470345258E+03  0.25500000920E-02 0.  1.
</event>
<event>
 5   0  0.2025294E-03  0.1193746E+04  0.7818609E-02  0.9118349E-01
        1   -1    0    0  501    0  0.00000000000E+00  0.00000000000E+00  0.32631976459E+03  0.32631976463E+03  0.50400001928E-02 0.  1.
       -1   -1    0    0    0  501  0.00000000000E+00  0.00000000000E+00 -0.10917424375E+04  0.10917424375E+04  0.50400001928E-02 0. -1.
    10030    2    1    2    0    0  0.00000000000E+00  0.00000000000E+00 -0.76542267286E+03  0.14180622021E+04  0.11937455930E+04 0.  0.
        5    1    3    3  502    0  0.21241131795E+03  0.48960401021E+03 -0.70013986641E+03  0.88036843273E+03  0.46999998093E+01 0. -1.
       -5    1    3    3    0  502 -0.21241131795E+03 -0.48960401021E+03 -0.65282806451E+02  0.53769376937E+03  0.46999998093E+01 0.  1.
</event>
<event>
 5   0  0.3751091E-03  0.1207207E+04  0.7818609E-02  0.9106572E-01
       -2   -1    0    0    0  501  0.00000000000E+00  0.00000000000E+00  0.30434567539E+03  0.30434567540E+03  0.25500000920E-02 0.  1.
        2   -1    0    0  501    0  0.00000000000E+00  0.00000000000E+00 -0.11971160598E+04  0.11971160598E+04  0.25500000920E-02 0. -1.
    10030    2    1    2    0    0  0.00000000000E+00  0.00000000000E+00 -0.89277038438E+03  0.15014617352E+04  0.12072068518E+04 0.  0.
        5    1    3    3  502    0 -0.15193597644E+03  0.18330368666E+03  0.24345274953E+03  0.34055265927E+03  0.46999998093E+01 0.  1.
       -5    1    3    3    0  502  0.15193597644E+03 -0.18330368666E+03 -0.11362231339E+04  0.11609090759E+04  0.46999998093E+01 0. -1.
</event>
<event>
 5   0  0.2025294E-03  0.1208092E+04  0.7818609E-02  0.9105803E-01
       -1   -1    0    0    0  501  0.00000000000E+00  0.00000000000E+00  0.53095038135E+03  0.53095038137E+03  0.50400001928E-02 0. -1.
        1   -1    0    0  501    0  0.00000000000E+00  0.00000000000E+00 -0.68720469277E+03  0.68720469279E+03  0.50400001928E-02 0.  1.
    10030    2    1    2    0    0  0.00000000000E+00  0.00000000000E+00 -0.15625431143E+03  0.12181550742E+04  0.12080920391E+04 0.  0.
        5    1    3    3  502    0 -0.51389926156E+03  0.19765052031E+03  0.17231913473E+03  0.57695247067E+03  0.46999998093E+01 0. -1.
       -5    1    3    3    0  502  0.51389926156E+03 -0.19765052031E+03 -0.32857344616E+03  0.64120260350E+03  0.46999998093E+01 0.  1.
</event>
<event>
 5   0  0.3626049E-03  0.1267554E+04  0.7818609E-02  0.9055698E-01
        2   -1    0    0  501    0  0.00000000000E+00  0.00000000000E+00  0.96981707500E+03  0.96981707501E+03  0.25500000920E-02 0.  1.
       -2   -1    0    0    0  501  0.00000000000E+00  0.00000000000E+00 -0.41417441745E+03  0.41417441746E+03  0.25500000920E-02 0. -1.
    10030    2    1    2    0    0  0.00000000000E+00  0.00000000000E+00  0.55564265755E+03  0.13839914925E+04  0.12675542151E+04 0.  0.
        1    1    3    3  502    0 -0.18583216120E+03 -0.58911737545E+03  0.43254424964E+03  0.75411365332E+03  0.50400001928E-02 0.  1.
       -1    1    3    3    0  502  0.18583216120E+03  0.58911737545E+03  0.12309840791E+03  0.62987783915E+03  0.50400001928E-02 0. -1.
</event>
<event>
 5   0  0.2047109E-03  0.1190404E+04  0.7818609E-02  0.9121297E-01
       -1   -1    0    0    0  501  0.00000000000E+00  0.00000000000E+00  0.16093627088E+03  0.16093627096E+03  0.50400001928E-02 0.  1.
        1   -1    0    0  501    0  0.00000000000E+00  0.00000000000E+00 -0.22012789522E+04  0.22012789522E+04  0.50400001928E-02 0. -1.
    10030    2    1    2    0    0  0.00000000000E+00  0.00000000000E+00 -0.20403426813E+04  0.23622152231E+04  0.11904043445E+04 0.  0.
        1    1    3    3  502    0  0.25400029798E+03 -0.53752729145E+02 -0.20829921464E+04  0.20991097611E+04  0.50400001928E-02 0. -1.
       -1    1    3    3    0  502 -0.25400029798E+03  0.53752729145E+02  0.42649465076E+02  0.26310546205E+03  0.50400001928E-02 0.  1.
</event>
<event>
 5   0  0.3725376E-03  0.1185388E+04  0.7818609E-02  0.9125743E-01
       -2   -1    0    0    0  501  0.00000000000E+00  0.00000000000E+00  0.25034032751E+03  0.25034032752E+03  0.25500000920E-02 0.  1.
        2   -1    0    0  501    0  0.00000000000E+00  0.00000000000E+00 -0.14032348358E+04  0.14032348358E+04  0.25500000920E-02 0. -1.
    10030    2    1    2    0    0  0.00000000000E+00  0.00000000000E+00 -0.11528945083E+04  0.16535751633E+04  0.11853881531E+04 0.  0.
        4    1    3    3  502    0  0.19105372656E+03 -0.55940069107E+03 -0.63651173682E+03  0.86866533464E+03  0.12699999809E+01 0.  1.
       -4    1    3    3    0  502 -0.19105372656E+03  0.55940069107E+03 -0.51638277150E+03  0.78490982871E+03  0.12699999809E+01 0. -1.
</event>
<event>
 5   0  0.3650180E-03  0.1193088E+04  0.7818609E-02  0.9118928E-01
        2   -1    0    0  501    0  0.00000000000E+00  0.00000000000E+00  0.85578328268E+03  0.85578328268E+03  0.25500000920E-02 0. -1.
       -2   -1    0    0    0  501  0.00000000000E+00  0.00000000000E+00 -0.41583501706E+03  0.41583501706E+03  0.25500000920E-02 0.  1.
    10030    2    1    2    0    0  0.00000000000E+00  0.00000000000E+00  0.43994826562E+03  0.12716182997E+04  0.11930878525E+04 0.  0.
        3    1    3    3  502    0 -0.34870160776E+02 -0.53346957511E+03  0.50208258330E+03  0.73341164862E+03  0.10100000352E+00 0. -1.
       -3    1    3    3    0  502  0.34870160776E+02  0.53346957511E+03 -0.62134317678E+02  0.53820665112E+03  0.10100000352E+00 0.  1.
</event>
<event>
 5   0  0.2078258E-03  0.1217529E+04  0.7818609E-02  0.9097650E-01
        1   -1    0    0  501    0  0.00000000000E+00  0.00000000000E+00  0.90656532678E+03  0.90656532679E+03  0.50400001928E-02 0.  1.
       -1   -1    0    0    0  501  0.00000000000E+00  0.00000000000E+00 -0.40878964491E+03  0.40878964494E+03  0.50400001928E-02 0. -1.
    10030    2    1    2    0    0  0.00000000000E+00  0.00000000000E+00  0.49777568186E+03  0.13153549717E+04  0.12175294954E+04 0.  0.
        3    1    3    3  502    0 -0.18428249991E+03 -0.47844282046E+03 -0.10570146430E+03  0.52348866461E+03  0.10100000352E+00 0. -1.
       -3    1    3    3    0  502  0.18428249991E+03  0.47844282046E+03  0.60347714616E+03  0.79186630712E+03  0.10100000352E+00 0.  1.
</event>
<event>
 5   0  0.2025294E-03  0.1232405E+04  0.7818609E-02  0.9084956E-01
       -1   -1    0    0    0  501  0.00000000000E+00  0.00000000000E+00  0.10812099891E+04  0.10812099891E+04  0.50400001928E-02 0.  1.
        1   -1    0    0  501    0  0.00000000000E+00  0.00000000000E+00 -0.35118589449E+03  0.35118589452E+03  0.50400001928E-02 0. -1.
    10030    2    1    2    0    0  0.00000000000E+00  0.00000000000E+00  0.73002409465E+03  0.14323958837E+04  0.12324052859E+04 0.  0.
        5    1    3    3  502    0 -0.23079755934E+03 -0.45428709704E+03 -0.37678363834E+02  0.51096578068E+03  0.46999998093E+01 0. -1.
       -5    1    3    3    0  502  0.23079755934E+03  0.45428709704E+03  0.76770245848E+03  0.92143010299E+03  0.46999998093E+01 0.  1.
</event>
<event>
 5   0  0.1397500E-03  0.1200268E+04  0.7818609E-02  0.9112622E-01
        3   -1    0    0  501    0  0.00000000000E+00  0.00000000000E+00  0.58877209300E+03  0.58877210166E+03  0.10100000352E+00 0.  1.
       -3   -1    0    0    0  501  0.00000000000E+00  0.00000000000E+00 -0.61171485249E+03  0.61171486082E+03  0.10100000352E+00 0. -1.
    10030    2    1    2    0    0  0.00000000000E+00  0.00000000000E+00 -0.22942759484E+02  0.12004869625E+04  0.12002677105E+04 0.  0.
        1    1    3    3  502    0 -0.51852108882E+03  0.26845107081E+03 -0.15017095986E+03  0.60289419817E+03  0.50400001928E-02 0. -1.
       -1    1    3    3    0  502  0.51852108882E+03 -0.26845107081E+03  0.12722820037E+03  0.59759276432E+03  0.50400001928E-02 0.  1.
</event>
<event>
 5   0  0.2134992E-03  0.1211825E+04  0.7818609E-02  0.9102568E-01
        1   -1    0    0  501    0  0.00000000000E+00  0.00000000000E+00  0.57347619556E+03  0.57347619558E+03  0.50400001928E-02 0. -1.
       -1   -1    0    0    0  501  0.00000000000E+00  0.00000000000E+00 -0.64018390044E+03  0.64018390046E+03  0.50400001928E-02 0.  1.
    10030    2    1    2    0    0  0.00000000000E+00  0.00000000000E+00 -0.66707704885E+02  0.12136600960E+04  0.12118254457E+04 0.  0.
        4    1    3    3  502    0  0.19138214163E+03  0.13824148886E+03 -0.59222267338E+03  0.63754775597E+03  0.12699999809E+01 0.  1.
       -4    1    3    3    0  502 -0.19138214163E+03 -0.13824148886E+03  0.52551496849E+03  0.57611234008E+03  0.12699999809E+01 0. -1.
</event>
<event>
 5   0  0.3751091E-03  0.1197231E+04  0.7818609E-02  0.9115284E-01
        2   -1    0    0  501    0  0.00000000000E+00  0.00000000000E+00  0.73465529896E+03  0.73465529896E+03  0.25500000920E-02 0. -1.
       -2   -1    0    0    0  501  0.00000000000E+00  0.00000000000E+00 -0.48776698551E+03  0.48776698552E+03  0.25500000920E-02 0.  1.
    10030    2    1    2    0    0  0.00000000000E+00  0.00000000000E+00  0.24688831345E+03  0.12224222845E+04  0.11972311399E+04 0.  0.
        5    1    3    3  502    0  0.34976851352E+03 -0.15350602591E+03  0.59402828324E+03  0.70625335704E+03  0.46999998093E+01 0. -1.
       -5    1    3    3    0  502 -0.34976851352E+03  0.15350602591E+03 -0.34713996979E+03  0.51616892745E+03  0.46999998093E+01 0.  1.
</event>
<event>
 5   0  0.3706035E-03  0.1181577E+04  0.7818609E-02  0.9129137E-01
        2   -1    0    0  501    0  0.00000000000E+00  0.00000000000E+00  0.72000407367E+03  0.72000407368E+03  0.25500000920E-02 0. -1.
       -2   -1    0    0    0  501  0.00000000000E+00  0.00000000000E+00 -0.48476251125E+03  0.48476251126E+03  0.25500000920E-02 0.  1.
    10030    2    1    2    0    0  0.00000000000E+00  0.00000000000E+00  0.23524156242E+03  0.12047665849E+04  0.11815768834E+04 0.  0.
        2    1    3    3  502    0 -0.39258355313E+03  0.35353904348E+03  0.38723289783E+03  0.65502749455E+03  0.25500000920E-02 0. -1.
       -2    1    3    3    0  502  0.39258355313E+03 -0.35353904348E+03 -0.15199133541E+03  0.54973909038E+03  0.25500000920E-02 0.  1.
</event>
<event>
 5   0  0.3650180E-03  0.1217065E+04  0.7818609E-02  0.9098050E-01
       -2   -1    0    0    0  501  0.00000000000E+00  0.00000000000E+00  0.47015261598E+03  0.47015261599E+03  0.25500000920E-02 0.  1.
        2   -1    0    0  501    0  0.00000000000E+00  0.00000000000E+00 -0.78764131483E+03  0.78764131483E+03  0.25500000920E-02 0. -1.
    10030    2    1    2    0    0  0.00000000000E+00  0.00000000000E+00 -0.31748869885E+03  0.12577939308E+04  0.12170647060E+04 0.  0.
        3    1    3    3  502    0  0.52548584983E+03  0.47525644317E+02 -0.47206934667E+03  0.70798555318E+03  0.10100000352E+00 0. -1.
       -3    1    3    3    0  502 -0.52548584983E+03 -0.47525644317E+02  0.15458064782E+03  0.54980837764E+03  0.10100000352E+00 0.  1.
</event>
<event>
 5   0  0.3706035E-03  0.1195219E+04  0.7818609E-02  0.9117052E-01
        2   -1    0    0  501    0  0.00000000000E+00  0.00000000000E+00  0.47469720340E+03  0.47469720341E+03  0.25500000920E-02 0.  1.
       -2   -1    0    0    0  501  0.00000000000E+00  0.00000000000E+00 -0.75234667447E+03  0.75234667447E+03  0.25500000920E-02 0. -1.
    10030    2    1    2    0    0  0.00000000000E+00  0.00000000000E+00 -0.27764947107E+03  0.12270438779E+04  0.11952185781E+04 0.  0.
        2    1    3    3  502    0  0.47190110092E+03 -0.25996783057E+03  0.12663917858E+03  0.55345406633E+03  0.25500000920E-02 0. -1.
       -2    1    3    3    0  502 -0.47190110092E+03  0.25996783057E+03 -0.40428864965E+03  0.67358981155E+03  0.25500000920E-02 0.  1.
</event>
<event>
 5   0  0.3650180E-03  0.1227967E+04  0.7818609E-02  0.9088723E-01
       -2   -1    0    0    0  501  0.00000000000E+00  0.00000000000E+00  0.29082024048E+03  0.29082024050E+03  0.25500000920E-02 0. -1.
        2   -1    0    0  501    0  0.00000000000E+00  0.00000000000E+00 -0.12962498494E+04  0.12962498494E+04  0.25500000920E-02 0.  1.
    10030    2    1    2    0    0  0.00000000000E+00  0.00000000000E+00 -0.10054296089E+04  0.15870700899E+04  0.12279669262E+04 0.  0.
        3    1    3    3  502    0  0.96093997192E+02  0.58498665107E+03 -0.29619869505E+03  0.66270439517E+03  0.10100000352E+00 0.  1.
       -3    1    3    3    0  502 -0.96093997192E+02 -0.58498665107E+03 -0.70923091389E+03  0.92436569476E+03  0.10100000352E+00 0. -1.
</event>
<event>
 5   0  0.3751091E-03  0.1213296E+04  0.7818609E-02  0.9101298E-01
       -2   -1    0    0    0  501  0.00000000000E+00  0.00000000000E+00  0.27139907219E+03  0.27139907220E+03  0.25500000920E-02 0.  1.
        2   -1    0    0  501    0  0.00000000000E+00  0.00000000000E+00 -0.13560169851E+04  0.13560169851E+04  0.25500000920E-02 0. -1.
    10030    2    1    2    0    0  0.00000000000E+00  0.00000000000E+00 -0.10846179129E+04  0.16274160573E+04  0.12132959270E+04 0.  0.
        5    1    3    3  502    0  0.43342847723E+02 -0.55766103393E+03 -0.22735544550E+03  0.60380213631E+03  0.46999998093E+01 0.  1.
       -5    1    3    3    0  502 -0.43342847723E+02  0.55766103393E+03 -0.85726246744E+03  0.10236139210E+04  0.46999998093E+01 0. -1.
</event>
<event>
 5   0  0.3725376E-03  0.1204821E+04  0.7818609E-02  0.9108647E-01
        2   -1    0    0  501    0  0.00000000000E+00  0.00000000000E+00  0.74514093080E+03  0.74514093080E+03  0.25500000920E-02 0. -1.
       -2   -1    0    0    0  501  0.00000000000E+00  0.00000000000E+00 -0.48702002380E+03  0.48702002381E+03  0.25500000920E-02 0.  1.
    10030    2    1    2    0    0  0.00000000000E+00  0.00000000000E+00  0.25812090700E+03  0.12321609546E+04  0.12048212380E+04 0.  0.
        4    1    3    3  502    0  0.49212399163E+02 -0.59291225051E+03  0.22570426672E+03  0.63632603746E+03  0.12699999809E+01 0. -1.
       -4    1    3    3    0  502 -0.49212399163E+02  0.59291225051E+03  0.32416640277E+02  0.59583491716E+03  0.12699999809E+01 0.  1.
</event>
<event>
 5   0  0.3725376E-03  0.1193546E+04  0.7818609E-02  0.9118525E-01
        2   -1    0    0  501    0  0.00000000000E+00  0.00000000000E+00  0.45067505010E+03  0.45067505010E+03  0.25500000920E-02 0. -1.
       -2   -1    0    0    0  501  0.00000000000E+00  0.00000000000E+00 -0.79023226462E+03  0.79023226463E+03  0.25500000920E-02 0.  1.
    10030    2    1    2    0    0  0.00000000000E+00  0.00000000000E+00 -0.33955721452E+03  0.12409073147E+04  0.11935459194E+04 0.  0.
        4    1    3    3  502    0 -0.13304041227E+03  0.20739137954E+02 -0.77423187737E+03  0.78585397878E+03  0.12699999809E+01 0.  1.
       -4    1    3    3    0  502  0.13304041227E+03 -0.20739137954E+02  0.43467466284E+03  0.45505333595E+03  0.12699999809E+01 0. -1.
</event>
<event>
 5   0  0.2047109E-03  0.1197835E+04  0.7818609E-02  0.9114753E-01
        1   -1    0    0  501    0  0.00000000000E+00  0.00000000000E+00  0.89807376256E+03  0.89807376257E+03  0.50400001928E-02 0.  1.
       -1   -1    0    0    0  501  0.00000000000E+00  0.00000000000E+00 -0.39941303517E+03  0.39941303521E+03  0.50400001928E-02 0. -1.
    10030    2    1    2    0    0  0.00000000000E+00  0.00000000000E+00  0.49866072739E+03  0.12974867978E+04  0.11978353265E+04 0.  0.
        1    1    3    3  502    0  0.26716764409E+03 -0.36895352100E+03  0.67051991118E+03  0.81061840716E+03  0.50400001928E-02 0.  1.
       -1    1    3    3    0  502 -0.26716764409E+03  0.36895352100E+03 -0.17185918380E+03  0.48686839062E+03  0.50400001928E-02 0. -1.
</event>
<event>
 5   0  0.3706035E-03  0.1195950E+04  0.7818609E-02  0.9116409E-01
       -2   -1    0    0    0  501  0.00000000000E+00  0.00000000000E+00  0.28432581710E+03  0.28432581712E+03  0.25500000920E-02 0. -1.
        2   -1    0    0  501    0  0.00000000000E+00  0.00000000000E+00 -0.12576217977E+04  0.12576217977E+04  0.25500000920E-02 0.  1.
    10030    2    1    2    0    0  0.00000000000E+00  0.00000000000E+00 -0.97329598062E+03  0.15419476148E+04  0.11959504091E+04 0.  0.
        2    1    3    3  502    0  0.29165238181E+03 -0.51457786458E+03 -0.37334395430E+03  0.69945492975E+03  0.25500000920E-02 0. -1.
       -2    1    3    3    0  502 -0.29165238181E+03  0.51457786458E+03 -0.59995202632E+03  0.84249268509E+03  0.25500000920E-02 0.  1.
</event>
<event>
 5   0  0.2025294E-03  0.1215785E+04  0.7818609E-02  0.9099151E-01
        1   -1    0    0  501    0  0.00000000000E+00  0.00000000000E+00  0.17808159144E+04  0.17808159144E+04  0.50400001928E-02 0.  1.
       -1   -1    0    0    0  501  0.00000000000E+00  0.00000000000E+00 -0.20750780414E+03  0.20750780420E+03  0.50400001928E-02 0. -1.
    10030    2    1    2    0    0  0.00000000000E+00  0.00000000000E+00  0.15733081103E+04  0.19883237186E+04  0.12157848495E+04 0.  0.
        5    1    3    3  502    0  0.82039961908E+02  0.83302527781E+01  0.17715964387E+04  0.17735207865E+04  0.46999998093E+01 0.  1.
       -5    1    3    3    0  502 -0.82039961908E+02 -0.83302527781E+01 -0.19828832843E+03  0.21480293213E+03  0.46999998093E+01 0. -1.
</event>
<event>
 5   0  0.2134992E-03  0.8963646E+03  0.7818609E-02  0.9430137E-01
       -1   -1    0    0    0  501  0.00000000000E+00  0.00000000000E+00  0.28556128697E+03  0.28556128702E+03  0.50400001928E-02 0. -1.
        1   -1    0    0  501    0  0.00000000000E+00  0.00000000000E+00 -0.70341244282E+03  0.70341244284E+03  0.50400001928E-02 0.  1.
    10030    2    1    2    0    0  0.00000000000E+00  0.00000000000E+00 -0.41785115584E+03  0.98897372985E+03  0.89636457421E+03 0.  0.
        4    1    3    3  502    0  0.16670536200E+03  0.28359469909E+03 -0.54475652732E+03  0.63637875360E+03  0.12699999809E+01 0.  1.
       -4    1    3    3    0  502 -0.16670536200E+03 -0.28359469909E+03  0.12690537148E+03  0.35259497626E+03  0.12699999809E+01 0. -1.
</event>
<event>
 5   0  0.2025294E-03  0.1209657E+04  0.7818609E-02  0.9104446E-01
       -1   -1    0    0    0  501  0.00000000000E+00  0.00000000000E+00  0.22019772712E+03  0.22019772718E+03  0.50400001928E-02 0.  1.
        1   -1    0    0  501    0  0.00000000000E+00  0.00000000000E+00 -0.16613136700E+04  0.16613136700E+04  0.50400001928E-02 0. -1.
    10030    2    1    2    0    0  0.00000000000E+00  0.00000000000E+00 -0.14411159429E+04  0.18815113972E+04  0.12096569666E+04 0.  0.
        5    1    3    3  502    0  0.72318627741E+02  0.59995277981E+03 -0.68176361489E+03  0.91104173258E+03  0.46999998093E+01 0.  1.
       -5    1    3    3    0  502 -0.72318627741E+02 -0.59995277981E+03 -0.75935232800E+03  0.97046966462E+03  0.46999998093E+01 0. -1.
</event>
<event>
 5   0  0.3626049E-03  0.1156478E+04  0.7818609E-02  0.9151828E-01
       -2   -1    0    0    0  501  0.00000000000E+00  0.00000000000E+00  0.10089784711E+04  0.10089784711E+04  0.25500000920E-02 0.  1.
        2   -1    0    0  501    0  0.00000000000E+00  0.00000000000E+00 -0.33138474433E+03  0.33138474434E+03  0.25500000920E-02 0. -1.
    10030    2    1    2    0    0  0.00000000000E+00  0.00000000000E+00  0.67759372673E+03  0.13403632154E+04  0.11564775358E+04 0.  0.
        1    1    3    3  502    0 -0.15884782458E+01  0.19408195876E+03 -0.29250426484E+03  0.35103999054E+03  0.50400001928E-02 0. -1.
       -1    1    3    3    0  502  0.15884782458E+01 -0.19408195876E+03  0.97009799157E+03  0.98932322486E+03  0.50400001928E-02 0.  1.
</event>
<event>
 5   0  0.3650180E-03  0.1345351E+04  0.7818609E-02  0.8994355E-01
       -2   -1    0    0    0  501  0.00000000000E+00  0.00000000000E+00  0.62453595013E+03  0.62453595014E+03  0.25500000920E-02 0.  1.
        2   -1    0    0  501    0  0.00000000000E+00  0.00000000000E+00 -0.72452526843E+03  0.72452526843E+03  0.25500000920E-02 0. -1.
    10030    2    1    2    0    0  0.00000000000E+00  0.00000000000E+00 -0.99989318298E+02  0.13490612186E+04  0.13453506263E+04 0.  0.
        3    1    3    3  502    0 -0.16876794267E+03 -0.53515279657E+03 -0.42199078830E+03  0.70210210778E+03  0.10100000352E+00 0. -1.
       -3    1    3    3    0  502  0.16876794267E+03  0.53515279657E+03  0.32200147000E+03  0.64695911079E+03  0.10100000352E+00 0.  1.
</event>
<event>
 5   0  0.3751091E-03  0.1250395E+04  0.7818609E-02  0.9069855E-01
        2   -1    0    0  501    0  0.00000000000E+00  0.00000000000E+00  0.14354270242E+04  0.14354270242E+04  0.25500000920E-02 0. -1.
       -2   -1    0    0    0  501  0.00000000000E+00  0.00000000000E+00 -0.27230345130E+03  0.27230345131E+03  0.25500000920E-02 0.  1.
    10030    2    1    2    0    0  0.00000000000E+00  0.00000000000E+00  0.11631235729E+04  0.17077304755E+04  0.12503947101E+04 0.  0.
        5    1    3    3  502    0 -0.32147675369E+03  0.77378852986E+02 -0.14307913841E+03  0.36031724896E+03  0.46999998093E+01 0.  1.
       -5    1    3    3    0  502  0.32147675369E+03 -0.77378852986E+02  0.13062027113E+04  0.13474132266E+04  0.46999998093E+01 0. -1.
</event>
<event>
 5   0  0.2025294E-03  0.1190997E+04  0.7818609E-02  0.9120774E-01
        1   -1    0    0  501    0  0.00000000000E+00  0.00000000000E+00  0.10043434639E+04  0.10043434640E+04  0.50400001928E-02 0.  1.
       -1   -1    0    0    0  501  0.00000000000E+00  0.00000000000E+00 -0.35308483843E+03  0.35308483847E+03  0.50400001928E-02 0. -1.
    10030    2    1    2    0    0  0.00000000000E+00  0.00000000000E+00  0.65125862551E+03  0.13574283024E+04  0.11909969769E+04 0.  0.
        5    1    3    3  502    0 -0.42141312768E+03  0.31163317945E+02 -0.15256808967E+03  0.44928753438E+03  0.46999998093E+01 0. -1.
       -5    1    3    3    0  502  0.42141312768E+03 -0.31163317945E+02  0.80382671518E+03  0.90814076806E+03  0.46999998093E+01 0.  1.
</event>
<event>
 5   0  0.3650180E-03  0.1207679E+04  0.7818609E-02  0.9106161E-01
       -2   -1    0    0    0  501  0.00000000000E+00  0.00000000000E+00  0.97094462701E+03  0.97094462702E+03  0.25500000920E-02 0.  1.
        2   -1    0    0  501    0  0.00000000000E+00  0.00000000000E+00 -0.37553351737E+03  0.37553351738E+03  0.25500000920E-02 0. -1.
    10030    2    1    2    0    0  0.00000000000E+00  0.00000000000E+00  0.59541110964E+03  0.13464781444E+04  0.12076791808E+04 0.  0.
        3    1    3    3  502    0  0.99140765667E+02  0.58479688440E+03  0.42387485276E+03  0.72903099277E+03  0.10100000352E+00 0.  1.
       -3    1    3    3    0  502 -0.99140765667E+02 -0.58479688440E+03  0.17153625688E+03  0.61744715162E+03  0.10100000352E+00 0. -1.
</event>
<event>
 5   0  0.3725376E-03  0.1213026E+04  0.7818609E-02  0.9101531E-01
       -2   -1    0    0    0  501  0.00000000000E+00  0.00000000000E+00  0.36113294806E+03  0.36113294807E+03  0.25500000920E-02 0.  1.
        2   -1    0    0  501    0  0.00000000000E+00  0.00000000000E+00 -0.10186221681E+04  0.10186221681E+04  0.25500000920E-02 0. -1.
    10030    2    1    2    0    0  0.00000000000E+00  0.00000000000E+00 -0.65748922002E+03  0.13797551161E+04  0.12130260121E+04 0.  0.
        4    1    3    3  502    0 -0.31970257757E+03 -0.50404728587E+03 -0.20632736591E+03  0.63154255544E+03  0.12699999809E+01 0. -1.
       -4    1    3    3    0  502  0.31970257757E+03  0.50404728587E+03 -0.45116185411E+03  0.74821256071E+03  0.12699999809E+01 0.  1.
</event>
<event>
 5   0  0.3751091E-03  0.1178055E+04  0.7818609E-02  0.9132285E-01
       -2   -1    0    0    0  501  0.00000000000E+00  0.00000000000E+00  0.74627385124E+03  0.74627385124E+03  0.25500000920E-02 0. -1.
        2   -1    0    0  501    0  0.00000000000E+00  0.00000000000E+00 -0.46491424335E+03  0.46491424336E+03  0.25500000920E-02 0.  1.
    10030    2    1    2    0    0  0.00000000000E+00  0.00000000000E+00  0.28135960788E+03  0.12111880946E+04  0.11780549102E+04 0.  0.
        5    1    3    3  502    0 -0.27937908943E+03  0.49142142058E+03  0.31081377954E+03  0.64511625601E+03  0.46999998093E+01 0. -1.
       -5    1    3    3    0  502  0.27937908943E+03 -0.49142142058E+03 -0.29454171659E+02  0.56607183859E+03  0.46999998093E+01 0.  1.
</event>
<event>
 5   0  0.2025294E-03  0.1206026E+04  0.7818609E-02  0.9107599E-01
       -1   -1    0    0    0  501  0.00000000000E+00  0.00000000000E+00  0.27998627770E+03  0.27998627774E+03  0.50400001928E-02 0.  1.
        1   -1    0    0  501    0  0.00000000000E+00  0.00000000000E+00 -0.12987222530E+04  0.12987222530E+04  0.50400001928E-02 0. -1.
    10030    2    1    2    0    0  0.00000000000E+00  0.00000000000E+00 -0.10187359753E+04  0.15787085308E+04  0.12060255543E+04 0.  0.
        5    1    3    3  502    0 -0.57648200038E+03  0.80655986822E+02 -0.30336741805E+03  0.65642270322E+03  0.46999998093E+01 0.  1.
       -5    1    3    3    0  502  0.57648200038E+03 -0.80655986822E+02 -0.71536855729E+03  0.92228582756E+03  0.46999998093E+01 0. -1.
</event>
<event>
 5   0  0.3650180E-03  0.1211807E+04  0.7818609E-02  0.9102584E-01
       -2   -1    0    0    0  501  0.00000000000E+00  0.00000000000E+00  0.28698206251E+03  0.28698206252E+03  0.25500000920E-02 0. -1.
        2   -1    0    0  501    0  0.00000000000E+00  0.00000000000E+00 -0.12792407550E+04  0.12792407550E+04  0.25500000920E-02 0.  1.
    10030    2    1    2    0    0  0.00000000000E+00  0.00000000000E+00 -0.99225869253E+03  0.15662228176E+04  0.12118071634E+04 0.  0.
        3    1    3    3  502    0  0.28251312940E+03  0.32866687441E+03  0.51126313694E+02  0.43640519333E+03  0.10100000352E+00 0. -1.
       -3    1    3    3    0  502 -0.28251312940E+03 -0.32866687441E+03 -0.10433850062E+04  0.11298176242E+04  0.10100000352E+00 0.  1.
</event>
<event>
 5   0  0.3626049E-03  0.1206717E+04  0.7818609E-02  0.9106998E-01
        2   -1    0    0  501    0  0.00000000000E+00  0.00000000000E+00  0.57119770351E+03  0.57119770352E+03  0.25500000920E-02 0.  1.
       -2   -1    0    0    0  501  0.00000000000E+00  0.00000000000E+00 -0.63732958714E+03  0.63732958714E+03  0.25500000920E-02 0. -1.
    10030    2    1    2    0    0  0.00000000000E+00  0.00000000000E+00 -0.66131883621E+02  0.12085272907E+04  0.12067165310E+04 0.  0.
        1    1    3    3  502    0  0.12225380532E+03  0.26688489909E+03  0.49485658877E+03  0.57537516956E+03  0.50400001928E-02 0.  1.
       -1    1    3    3    0  502 -0.12225380532E+03 -0.26688489909E+03 -0.56098847239E+03  0.63315212110E+03  0.50400001928E-02 0. -1.
</event>
<event>
 5   0  0.3725376E-03  0.1174364E+04  0.7818609E-02  0.9135596E-01
       -2   -1    0    0    0  501  0.00000000000E+00  0.00000000000E+00  0.28569987169E+03  0.28569987170E+03  0.25500000920E-02 0.  1.
        2   -1    0    0  501    0  0.00000000000E+00  0.00000000000E+00 -0.12068013227E+04  0.12068013227E+04  0.25500000920E-02 0. -1.
    10030    2    1    2    0    0  0.00000000000E+00  0.00000000000E+00 -0.92110145100E+03  0.14925011944E+04  0.11743644801E+04 0.  0.
        4    1    3    3  502    0  0.51570394033E+03 -0.96055147953E+02 -0.12525379302E+03  0.53932112056E+03  0.12699999809E+01 0.  1.
       -4    1    3    3    0  502 -0.51570394033E+03  0.96055147953E+02 -0.79584765798E+03  0.95318007382E+03  0.12699999809E+01 0. -1.
</event>
<event>
 5   0  0.3626049E-03  0.9351117E+03  0.7818609E-02  0.9382724E-01
        2   -1    0    0  501    0  0.00000000000E+00  0.00000000000E+00  0.10307952953E+04  0.10307952953E+04  0.25500000920E-02 0.  1.
       -2   -1    0    0    0  501  0.00000000000E+00  0.00000000000E+00 -0.21207747636E+03  0.21207747637E+03  0.25500000920E-02 0. -1.
    10030    2    1    2    0    0  0.00000000000E+00  0.00000000000E+00  0.81871781894E+03  0.12428727717E+04  0.93511168291E+03 0.  0.
        1    1    3    3  502    0  0.32107779872E+03 -0.16221298057E+03  0.80632780362E+03  0.88293178151E+03  0.50400001928E-02 0.  1.
       -1    1    3    3    0  502 -0.32107779872E+03  0.16221298057E+03  0.12390015324E+02  0.35994099016E+03  0.50400001928E-02 0. -1.
</event>
<event>
 5   0  0.3650180E-03  0.1209692E+04  0.7818609E-02  0.9104415E-01
        2   -1    0    0  501    0  0.00000000000E+00  0.00000000000E+00  0.12042292536E+04  0.12042292536E+04  0.25500000920E-02 0.  1.
       -2   -1    0    0    0  501  0.00000000000E+00  0.00000000000E+00 -0.30379491583E+03  0.30379491584E+03  0.25500000920E-02 0. -1.
    10030    2    1    2    0    0  0.00000000000E+00  0.00000000000E+00  0.90043433773E+03  0.15080241694E+04  0.12096920678E+04 0.  0.
        3    1    3    3  502    0  0.27194627932E+02 -0.58871337651E+03  0.61984763457E+03  0.85529766032E+03  0.10100000352E+00 0.  1.
       -3    1    3    3    0  502 -0.27194627932E+02  0.58871337651E+03  0.28058670316E+03  0.65272650909E+03  0.10100000352E+00 0. -1.
</event>
<event>
 5   0  0.3706035E-03  0.1180481E+04  0.7818609E-02  0.9130115E-01
       -2   -1    0    0    0  501  0.00000000000E+00  0.00000000000E+00  0.29195295843E+03  0.29195295844E+03  0.25500000920E-02 0. -1.
        2   -1    0    0  501    0  0.00000000000E+00  0.00000000000E+00 -0.11932875741E+04  0.11932875741E+04  0.25500000920E-02 0.  1.
    10030    2    1    2    0    0  0.00000000000E+00  0.00000000000E+00 -0.90133461565E+03  0.14852405325E+04  0.11804809825E+04 0.  0.
        2    1    3    3  502    0  0.46430965173E+03 -0.30211398321E+03 -0.70706010886E+03  0.89821506840E+03  0.25500000920E-02 0.  1.
       -2    1    3    3    0  502 -0.46430965173E+03  0.30211398321E+03 -0.19427450679E+03  0.58702546413E+03  0.25500000920E-02 0. -1.
</event>
<event>
 5   0  0.3626049E-03  0.1124748E+04  0.7818609E-02  0.9181401E-01
       -2   -1    0    0    0  501  0.00000000000E+00  0.00000000000E+00  0.16438900532E+03  0.16438900534E+03  0.25500000920E-02 0.  1.
        2   -1    0    0  501    0  0.00000000000E+00  0.00000000000E+00 -0.19238797455E+04  0.19238797455E+04  0.25500000920E-02 0. -1.
    10030    2    1    2    0    0  0.00000000000E+00  0.00000000000E+00 -0.17594907402E+04  0.20882687508E+04  0.11247482878E+04 0.  0.
        1    1    3    3  502    0 -0.20421952703E+02 -0.24097542822E+03  0.62913080590E+02  0.24988851292E+03  0.50400001928E-02 0.  1.
       -1    1    3    3    0  502  0.20421952703E+02  0.24097542822E+03 -0.18224038207E+04  0.18383802379E+04  0.50400001928E-02 0. -1.
</event>
<event>
 5   0  0.3706035E-03  0.1194911E+04  0.7818609E-02  0.9117322E-01
        2   -1    0    0  501    0  0.00000000000E+00  0.00000000000E+00  0.20225913359E+04  0.20225913359E+04  0.25500000920E-02 0.  1.
       -2   -1    0    0    0  501  0.00000000000E+00  0.00000000000E+00 -0.17648317236E+03  0.17648317238E+03  0.25500000920E-02 0. -1.
    10030    2    1    2    0    0  0.00000000000E+00  0.00000000000E+00  0.18461081635E+04  0.21990745082E+04  0.11949114366E+04 0.  0.
        2    1    3    3  502    0  0.51863573062E+03  0.62686611666E+01  0.14687808759E+04  0.15576712036E+04  0.25500000920E-02 0.  1.
       -2    1    3    3    0  502 -0.51863573062E+03 -0.62686611666E+01  0.37732728760E+03  0.64140330461E+03  0.25500000920E-02 0. -1.
</event>
<event>
 5   0  0.2047109E-03  0.1200584E+04  0.7818609E-02  0.9112345E-01
       -1   -1    0    0    0  501  0.00000000000E+00  0.00000000000E+00  0.45434319776E+03  0.45434319779E+03  0.50400001928E-02 0.  1.
        1   -1    0    0  501    0  0.00000000000E+00  0.00000000000E+00 -0.79312411337E+03  0.79312411338E+03  0.50400001928E-02 0. -1.
    10030    2    1    2    0    0  0.00000000000E+00  0.00000000000E+00 -0.33878091561E+03  0.12474673112E+04  0.12005841010E+04 0.  0.
        1    1    3    3  502    0 -0.29442985742E+02 -0.45086421035E+02 -0.79060950933E+03  0.79244120983E+03  0.50400001928E-02 0. -1.
       -1    1    3    3    0  502  0.29442985742E+02  0.45086421035E+02  0.45182859372E+03  0.45502610134E+03  0.50400001928E-02 0.  1.
</event>
<event>
 5   0  0.2096270E-03  0.1203204E+04  0.7818609E-02  0.9110057E-01
       -1   -1    0    0    0  501  0.00000000000E+00  0.00000000000E+00  0.56900784822E+03  0.56900784825E+03  0.50400001928E-02 0. -1.
        1   -1    0    0  501    0  0.00000000000E+00  0.00000000000E+00 -0.63606280482E+03  0.63606280484E+03  0.50400001928E-02 0.  1.
    10030    2    1    2    0    0  0.00000000000E+00  0.00000000000E+00 -0.67054956592E+02  0.12050706531E+04  0.12032036036E+04 0.  0.
        2    1    3    3  502    0 -0.28345647265E+03  0.52696640627E+03  0.28887460195E+02  0.59906230944E+03  0.25500000920E-02 0. -1.
       -2    1    3    3    0  502  0.28345647265E+03 -0.52696640627E+03 -0.95942416788E+02  0.60600834365E+03  0.25500000920E-02 0.  1.
</event>
<event>
 5   0  0.2134992E-03  0.1226191E+04  0.7818609E-02  0.9090236E-01
        1   -1    0    0  501    0  0.00000000000E+00  0.00000000000E+00  0.89206862795E+03  0.89206862797E+03  0.50400001928E-02 0. -1.
       -1   -1    0    0    0  501  0.00000000000E+00  0.00000000000E+00 -0.42136444603E+03  0.42136444606E+03  0.50400001928E-02 0.  1.
    10030    2    1    2    0    0  0.00000000000E+00  0.00000000000E+00  0.47070418192E+03  0.13134330740E+04  0.12261908551E+04 0.  0.
        4    1    3    3  502    0  0.23757415026E+03  0.16878405699E+03 -0.34242814249E+03  0.44965340034E+03  0.12699999809E+01 0.  1.
       -4    1    3    3    0  502 -0.23757415026E+03 -0.16878405699E+03  0.81313232442E+03  0.86377967369E+03  0.12699999809E+01 0. -1.
</event>
<event>
 5   0  0.2025294E-03  0.1168409E+04  0.7818609E-02  0.9140967E-01
       -1   -1    0    0    0  501  0.00000000000E+00  0.00000000000E+00  0.27483968236E+03  0.27483968241E+03  0.50400001928E-02 0.  1.
        1   -1    0    0  501    0  0.00000000000E+00  0.00000000000E+00 -0.12417960542E+04  0.12417960542E+04  0.50400001928E-02 0. -1.
    10030    2    1    2    0    0  0.00000000000E+00  0.00000000000E+00 -0.96695637186E+03  0.15166357366E+04  0.11684088893E+04 0.  0.
        5    1    3    3  502    0  0.20284196245E+03  0.28321312589E+03 -0.10921974211E+04  0.11464169543E+04  0.46999998093E+01 0. -1.
       -5    1    3    3    0  502 -0.20284196245E+03 -0.28321312589E+03  0.12524104923E+03  0.37021878237E+03  0.46999998093E+01 0.  1.
</event>
<event>
 5   0  0.3650180E-03  0.1152655E+04  0.7818609E-02  0.9155338E-01
        2   -1    0    0  501    0  0.00000000000E+00  0.00000000000E+00  0.60596917678E+03  0.60596917678E+03  0.25500000920E-02 0. -1.
       -2   -1    0    0    0  501  0.00000000000E+00  0.00000000000E+00 -0.54813553402E+03  0.54813553403E+03  0.25500000920E-02 0.  1.
    10030    2    1    2    0    0  0.00000000000E+00  0.00000000000E+00  0.57833642755E+02  0.11541047108E+04  0.11526547416E+04 0.  0.
        3    1    3    3  502    0 -0.37035110751E+03  0.31515343037E+03 -0.28078053099E+03  0.56153303045E+03  0.10100000352E+00 0.  1.
       -3    1    3    3    0  502  0.37035110751E+03 -0.31515343037E+03  0.33861417374E+03  0.59257168036E+03  0.10100000352E+00 0. -1.
</event>
<event>
 5   0  0.1397500E-03  0.1200332E+04  0.7818609E-02  0.9112566E-01
        3   -1    0    0  501    0  0.00000000000E+00  0.00000000000E+00  0.17897868701E+04  0.17897868730E+04  0.10100000352E+00 0.  1.
       -3   -1    0    0    0  501  0.00000000000E+00  0.00000000000E+00 -0.20125244971E+03  0.20125247506E+03  0.10100000352E+00 0. -1.
    10030    2    1    2    0    0  0.00000000000E+00  0.00000000000E+00  0.15885344204E+04  0.19910393480E+04  0.12003316544E+04 0.  0.
        3    1    3    3  502    0 -0.48662065987E+03  0.75762313393E+02  0.22529385840E+03  0.54156894997E+03  0.10100000352E+00 0. -1.
       -3    1    3    3    0  502  0.48662065987E+03 -0.75762313393E+02  0.13632405620E+04  0.14494703981E+04  0.10100000352E+00 0.  1.
</event>
<event>
 5   0  0.3650180E-03  0.1125428E+04  0.7818609E-02  0.9180756E-01
        2   -1    0    0  501    0  0.00000000000E+00  0.00000000000E+00  0.11708081517E+04  0.11708081517E+04  0.25500000920E-02 0. -1.
       -2   -1    0    0    0  501  0.00000000000E+00  0.00000000000E+00 -0.27045186682E+03  0.27045186683E+03  0.25500000920E-02 0.  1.
    10030    2    1    2    0    0  0.00000000000E+00  0.00000000000E+00  0.90035628491E+03  0.14412600186E+04  0.11254283635E+04 0.  0.
        3    1    3    3  502    0  0.47120325057E+03 -0.22143564359E+03  0.72358938708E+03  0.89143023221E+03  0.10100000352E+00 0. -1.
       -3    1    3    3    0  502 -0.47120325057E+03  0.22143564359E+03  0.17676689783E+03  0.54982978636E+03  0.10100000352E+00 0.  1.
</event>
<event>
 5   0  0.2078258E-03  0.1243098E+04  0.7818609E-02  0.9075948E-01
       -1   -1    0    0    0  501  0.00000000000E+00  0.00000000000E+00  0.60204475394E+03  0.60204475396E+03  0.50400001928E-02 0. -1.
        1   -1    0    0  501    0  0.00000000000E+00  0.00000000000E+00 -0.64168482132E+03  0.64168482134E+03  0.50400001928E-02 0.  1.
    10030    2    1    2    0    0  0.00000000000E+00  0.00000000000E+00 -0.39640067377E+02  0.12437295753E+04  0.12430977120E+04 0.  0.
        3    1    3    3  502    0  0.23835950121E+03 -0.42625527732E+03 -0.40448152411E+03  0.63412469342E+03  0.10100000352E+00 0.  1.
       -3    1    3    3    0  502 -0.23835950121E+03  0.42625527732E+03  0.36484145674E+03  0.60960488188E+03  0.10100000352E+00 0. -1.
</event>
<event>
 5   0  0.2134992E-03  0.1253753E+04  0.7818609E-02  0.9067066E-01
        1   -1    0    0  501    0  0.00000000000E+00  0.00000000000E+00  0.76423756607E+03  0.76423756608E+03  0.50400001928E-02 0.  1.
       -1   -1    0    0    0  501  0.00000000000E+00  0.00000000000E+00 -0.51420406645E+03  0.51420406647E+03  0.50400001928E-02 0. -1.
    10030    2    1    2    0    0  0.00000000000E+00  0.00000000000E+00  0.25003349962E+03  0.12784416326E+04  0.12537528692E+04 0.  0.
        4    1    3    3  502    0 -0.30631853514E+03  0.50171740333E+03  0.34706868600E+03  0.68264901925E+03  0.12699999809E+01 0.  1.
       -4    1    3    3    0  502  0.30631853514E+03 -0.50171740333E+03 -0.97035186380E+02  0.59579261331E+03  0.12699999809E+01 0. -1.
</event>
<event>
 5   0  0.2025294E-03  0.1204625E+04  0.7818609E-02  0.9108818E-01
        1   -1    0    0  501    0  0.00000000000E+00  0.00000000000E+00  0.12820376456E+04  0.12820376456E+04  0.50400001928E-02 0.  1.
       -1   -1    0    0    0  501  0.00000000000E+00  0.00000000000E+00 -0.28297169758E+03  0.28297169763E+03  0.50400001928E-02 0. -1.
    10030    2    1    2    0    0  0.00000000000E+00  0.00000000000E+00  0.99906594797E+03  0.15650093432E+04  0.12046250354E+04 0.  0.
        5    1    3    3  502    0  0.24741843522E+03 -0.51774006091E+03  0.73727569645E+03  0.93427415427E+03  0.46999998093E+01 0.  1.
       -5    1    3    3    0  502 -0.24741843522E+03  0.51774006091E+03  0.26179025152E+03  0.63073518893E+03  0.46999998093E+01 0. -1.
</event>
<event>
 5   0  0.3725376E-03  0.1201924E+04  0.7818609E-02  0.9111174E-01
        2   -1    0    0  501    0  0.00000000000E+00  0.00000000000E+00  0.72576374094E+03  0.72576374094E+03  0.25500000920E-02 0. -1.
       -2   -1    0    0    0  501  0.00000000000E+00  0.00000000000E+00 -0.49762106448E+03  0.49762106448E+03  0.25500000920E-02 0.  1.
    10030    2    1    2    0    0  0.00000000000E+00  0.00000000000E+00  0.22814267646E+03  0.12233848054E+04  0.12019239998E+04 0.  0.
        4    1    3    3  502    0  0.26880737081E+03  0.28442836393E+03  0.57828125944E+03  0.69826049919E+03  0.12699999809E+01 0. -1.
       -4    1    3    3    0  502 -0.26880737081E+03 -0.28442836393E+03 -0.35013858298E+03  0.52512430624E+03  0.12699999809E+01 0.  1.
</event>
<event>
 5   0  0.3725376E-03  0.1206499E+04  0.7818609E-02  0.9107187E-01
       -2   -1    0    0    0  501  0.00000000000E+00  0.00000000000E+00  0.80800969657E+03  0.80800969658E+03  0.25500000920E-02 0. -1.
        2   -1    0    0  501    0  0.00000000000E+00  0.00000000000E+00 -0.45037854473E+03  0.45037854473E+03  0.25500000920E-02 0.  1.
    10030    2    1    2    0    0  0.00000000000E+00  0.00000000000E+00  0.35763115185E+03  0.12583882413E+04  0.12064994509E+04 0.  0.
        4    1    3    3  502    0 -0.29896736786E+03 -0.18960838340E+03 -0.33063341955E+03  0.48440984417E+03  0.12699999809E+01 0.  1.
       -4    1    3    3    0  502  0.29896736786E+03  0.18960838340E+03  0.68826457140E+03  0.77397839714E+03  0.12699999809E+01 0. -1.
</event>
<event>
 5   0  0.3650180E-03  0.1199195E+04  0.7818609E-02  0.9113561E-01
        2   -1    0    0  501    0  0.00000000000E+00  0.00000000000E+00  0.22380593830E+04  0.22380593830E+04  0.25500000920E-02 0.  1.
       -2   -1    0    0    0  501  0.00000000000E+00  0.00000000000E+00 -0.16063797215E+03  0.16063797217E+03  0.25500000920E-02 0. -1.
    10030    2    1    2    0    0  0.00000000000E+00  0.00000000000E+00  0.20774214108E+04  0.23986973551E+04  0.11991952649E+04 0.  0.
        3    1    3    3  502    0  0.21198596934E+03  0.55976361746E+03  0.96816227345E+03  0.11382493385E+04  0.10100000352E+00 0.  1.
       -3    1    3    3    0  502 -0.21198596934E+03 -0.55976361746E+03  0.11092591374E+04  0.12604480167E+04  0.10100000352E+00 0. -1.
</event>
<event>
 5   0  0.2047109E-03  0.1197468E+04  0.7818609E-02  0.9115076E-01
       -1   -1    0    0    0  501  0.00000000000E+00  0.00000000000E+00  0.50162194404E+03  0.50162194406E+03  0.50400001928E-02 0. -1.
        1   -1    0    0  501    0  0.00000000000E+00  0.00000000000E+00 -0.71464634428E+03  0.71464634429E+03  0.50400001928E-02 0.  1.
    10030    2    1    2    0    0  0.00000000000E+00  0.00000000000E+00 -0.21302440024E+03  0.12162682884E+04  0.11974678092E+04 0.  0.
        1    1    3    3  502    0  0.44567928324E+02  0.43549633521E+03  0.30835990452E+03  0.53547099731E+03  0.50400001928E-02 0.  1.
       -1    1    3    3    0  502 -0.44567928324E+02 -0.43549633521E+03 -0.52138430476E+03  0.68079729104E+03  0.50400001928E-02 0. -1.
</event>
<event>
 5   0  0.3725376E-03  0.1221980E+04  0.7818609E-02  0.9093832E-01
        2   -1    0    0  501    0  0.00000000000E+00  0.00000000000E+00  0.10594802087E+04  0.10594802087E+04  0.25500000920E-02 0. -1.
       -2   -1    0    0    0  501  0.00000000000E+00  0.00000000000E+00 -0.35235083423E+03  0.35235083424E+03  0.25500000920E-02 0.  1.
    10030    2    1    2    0    0  0.00000000000E+00  0.00000000000E+00  0.70712937449E+03  0.14118310430E+04  0.12219799268E+04 0.  0.
        4    1    3    3  502    0  0.21090381572E+03  0.55217303972E+03  0.53229773468E+03  0.79543571489E+03  0.12699999809E+01 0. -1.
       -4    1    3    3    0  502 -0.21090381572E+03 -0.55217303972E+03  0.17483163981E+03  0.61639532806E+03  0.12699999809E+01 0.  1.
</event>
<event>
 5   0  0.2134992E-03  0.1203402E+04  0.7818609E-02  0.9109884E-01
        1   -1    0    0  501    0  0.00000000000E+00  0.00000000000E+00  0.59432594593E+03  0.59432594595E+03  0.50400001928E-02 0. -1.
       -1   -1    0    0    0  501  0.00000000000E+00  0.00000000000E+00 -0.60916729249E+03  0.60916729251E+03  0.50400001928E-02 0.  1.
    10030    2    1    2    0    0  0.00000000000E+00  0.00000000000E+00 -0.14841346558E+02  0.12034932385E+04  0.12034017241E+04 0.  0.
        4    1    3    3  502    0 -0.26800387634E+03 -0.22048880408E+03  0.48414587479E+03  0.59568467450E+03  0.12699999809E+01 0. -1.
       -4    1    3    3    0  502  0.26800387634E+03  0.22048880408E+03 -0.49898722135E+03  0.60780856396E+03  0.12699999809E+01 0.  1.
</event>
<event>
 5   0  0.3626049E-03  0.1189183E+04  0.7818609E-02  0.9122377E-01
        2   -1    0    0  501    0  0.00000000000E+00  0.00000000000E+00  0.20142926347E+04  0.20142926347E+04  0.25500000920E-02 0. -1.
       -2   -1    0    0    0  501  0.00000000000E+00  0.00000000000E+00 -0.17551537406E+03  0.17551537408E+03  0.25500000920E-02 0.  1.
    10030    2    1    2    0    0  0.00000000000E+00  0.00000000000E+00  0.18387772606E+04  0.21898080088E+04  0.11891834598E+04 0.  0.
        1    1    3    3  502    0  0.23574336057E+03 -0.49779024164E+03  0.13318431474E+04  0.14412412102E+04  0.50400001928E-02 0. -1.
       -1    1    3    3    0  502 -0.23574336057E+03  0.49779024164E+03  0.50693411324E+03  0.74856679857E+03  0.50400001928E-02 0.  1.
</event>
<event>
 5   0  0.3751091E-03  0.1197902E+04  0.7818609E-02  0.9114695E-01
        2   -1    0    0  501    0  0.00000000000E+00  0.00000000000E+00  0.95347588046E+03  0.95347588046E+03  0.25500000920E-02 0.  1.
       -2   -1    0    0    0  501  0.00000000000E+00  0.00000000000E+00 -0.37624671498E+03  0.37624671499E+03  0.25500000920E-02 0. -1.
    10030    2    1    2    0    0  0.00000000000E+00  0.00000000000E+00  0.57722916548E+03  0.13297225955E+04  0.11979017787E+04 0.  0.
        5    1    3    3  502    0  0.53882865074E+03 -0.21823671801E+03  0.44853977403E+03  0.73428441276E+03  0.46999998093E+01 0.  1.
       -5    1    3    3    0  502 -0.53882865074E+03  0.21823671801E+03  0.12868939145E+03  0.59543818270E+03  0.46999998093E+01 0. -1.
</event>
<event>
 5   0  0.2047109E-03  0.1167156E+04  0.7818609E-02  0.9142101E-01
        1   -1    0    0  501    0  0.00000000000E+00  0.00000000000E+00  0.10713006991E+04  0.10713006991E+04  0.50400001928E-02 0.  1.
       -1   -1    0    0    0  501  0.00000000000E+00  0.00000000000E+00 -0.31789707879E+03  0.31789707883E+03  0.50400001928E-02 0. -1.
    10030    2    1    2    0    0  0.00000000000E+00  0.00000000000E+00  0.75340362034E+03  0.13891977780E+04  0.11671561383E+04 0.  0.
        1    1    3    3  502    0  0.25102285299E+03  0.25240479706E+03 -0.17370315726E+03  0.39609776719E+03  0.50400001928E-02 0. -1.
       -1    1    3    3    0  502 -0.25102285299E+03 -0.25240479706E+03  0.92710677761E+03  0.99310001078E+03  0.50400001928E-02 0.  1.
</event>
<event>
 5   0  0.2047109E-03  0.1216968E+04  0.7818609E-02  0.9098133E-01
       -1   -1    0    0    0  501  0.00000000000E+00  0.00000000000E+00  0.39466646787E+03  0.39466646790E+03  0.50400001928E-02 0.  1.
        1   -1    0    0  501    0  0.00000000000E+00  0.00000000000E+00 -0.93814094100E+03  0.93814094101E+03  0.50400001928E-02 0. -1.
    10030    2    1    2    0    0  0.00000000000E+00  0.00000000000E+00 -0.54347447313E+03  0.13328074089E+04  0.12169679890E+04 0.  0.
        1    1    3    3  502    0 -0.27481931274E+03  0.51066849524E+03 -0.69958730732E+02  0.58412514987E+03  0.50400001928E-02 0.  1.
       -1    1    3    3    0  502  0.27481931274E+03 -0.51066849524E+03 -0.47351574239E+03  0.74868225904E+03  0.50400001928E-02 0. -1.
</event>
<event>
 5   0  0.2134992E-03  0.1188613E+04  0.7818609E-02  0.9122883E-01
        1   -1    0    0  501    0  0.00000000000E+00  0.00000000000E+00  0.82926332076E+03  0.82926332077E+03  0.50400001928E-02 0.  1.
       -1   -1    0    0    0  501  0.00000000000E+00  0.00000000000E+00 -0.42592013150E+03  0.42592013153E+03  0.50400001928E-02 0. -1.
    10030    2    1    2    0    0  0.00000000000E+00  0.00000000000E+00  0.40334318926E+03  0.12551834523E+04  0.11886125401E+04 0.  0.
        4    1    3    3  502    0 -0.65605902381E+02 -0.14767098397E+03 -0.40227544231E+03  0.43351816377E+03  0.12699999809E+01 0. -1.
       -4    1    3    3    0  502  0.65605902381E+02  0.14767098397E+03  0.80561863157E+03  0.82166528852E+03  0.12699999809E+01 0.  1.
</event>
<event>
 5   0  0.3725376E-03  0.1226413E+04  0.7818609E-02  0.9090046E-01
       -2   -1    0    0    0  501  0.00000000000E+00  0.00000000000E+00  0.16628527137E+03  0.16628527139E+03  0.25500000920E-02 0. -1.
        2   -1    0    0  501    0  0.00000000000E+00  0.00000000000E+00 -0.22613074895E+04  0.22613074896E+04  0.25500000920E-02 0.  1.
    10030    2    1    2    0    0  0.00000000000E+00  0.00000000000E+00 -0.20950222182E+04  0.24275927609E+04  0.12264128662E+04 0.  0.
        4    1    3    3  502    0 -0.36109090559E+03  0.34834087154E+03 -0.17453603623E+04  0.18160430645E+04  0.12699999809E+01 0. -1.
       -4    1    3    3    0  502  0.36109090559E+03 -0.34834087154E+03 -0.34966185591E+03  0.61154969648E+03  0.12699999809E+01 0.  1.
</event>
<event>
 5   0  0.2047109E-03  0.1219849E+04  0.7818609E-02  0.9095658E-01
        1   -1    0    0  501    0  0.00000000000E+00  0.00000000000E+00  0.16006559742E+03  0.16006559750E+03  0.50400001928E-02 0. -1.
       -1   -1    0    0    0  501  0.00000000000E+00  0.00000000000E+00 -0.23240969856E+04  0.23240969856E+04  0.50400001928E-02 0.  1.
    10030    2    1    2    0    0  0.00000000000E+00  0.00000000000E+00 -0.21640313881E+04  0.24841625831E+04  0.12198491260E+04 0.  0.
        1    1    3    3  502    0 -0.14450664796E+03  0.14404373670E+03 -0.22525359480E+04  0.22617579371E+04  0.50400001928E-02 0.  1.
       -1    1    3    3    0  502  0.14450664796E+03 -0.14404373670E+03  0.88504559823E+02  0.22240464591E+03  0.50400001928E-02 0. -1.
</event>
<event>
 5   0  0.3626049E-03  0.1198763E+04  0.7818609E-02  0.9113940E-01
        2   -1    0    0  501    0  0.00000000000E+00  0.00000000000E+00  0.53142630848E+03  0.53142630849E+03  0.25500000920E-02 0.  1.
       -2   -1    0    0    0  501  0.00000000000E+00  0.00000000000E+00 -0.67602637571E+03  0.67602637572E+03  0.25500000920E-02 0. -1.
    10030    2    1    2    0    0  0.00000000000E+00  0.00000000000E+00 -0.14460006723E+03  0.12074526842E+04  0.11987630313E+04 0.  0.
        1    1    3    3  502    0  0.43315174055E+03 -0.81085074619E+02 -0.48152452997E+03  0.65273355411E+03  0.50400001928E-02 0. -1.
       -1    1    3    3    0  502 -0.43315174055E+03  0.81085074619E+02  0.33692446274E+03  0.55471913009E+03  0.50400001928E-02 0.  1.
</event>
<event>
 5   0  0.1397500E-03  0.1194344E+04  0.7818609E-02  0.9117821E-01
       -3   -1    0    0    0  501  0.00000000000E+00  0.00000000000E+00  0.14272526081E+04  0.14272526117E+04  0.10100000352E+00 0. -1.
        3   -1    0    0  501    0  0.00000000000E+00  0.00000000000E+00 -0.24986092551E+03  0.24986094592E+03  0.10100000352E+00 0.  1.
    10030    2    1    2    0    0  0.00000000000E+00  0.00000000000E+00  0.11773916826E+04  0.16771135576E+04  0.11943444691E+04 0.  0.
        1    1    3    3  502    0 -0.27503575415E+03  0.12678465995E+03  0.13114162018E+04  0.13459314508E+04  0.50400001928E-02 0. -1.
       -1    1    3    3    0  502  0.27503575415E+03 -0.12678465995E+03 -0.13402451920E+03  0.33118210674E+03  0.50400001928E-02 0.  1.
</event>
<event>
 5   0  0.2025294E-03  0.1189684E+04  0.7818609E-02  0.9121934E-01
       -1   -1    0    0    0  501  0.00000000000E+00  0.00000000000E+00  0.10785804083E+04  0.10785804084E+04  0.50400001928E-02 0.  1.
        1   -1    0    0  501    0  0.00000000000E+00  0.00000000000E+00 -0.32805806183E+03  0.32805806187E+03  0.50400001928E-02 0. -1.
    10030    2    1    2    0    0  0.00000000000E+00  0.00000000000E+00  0.75052234651E+03  0.14066384702E+04  0.11896839888E+04 0.  0.
        5    1    3    3  502    0  0.46430599716E+03 -0.16445535858E+03 -0.18998485396E+02  0.49295908188E+03  0.46999998093E+01 0. -1.
       -5    1    3    3    0  502 -0.46430599716E+03  0.16445535858E+03  0.76952083191E+03  0.91367938835E+03  0.46999998093E+01 0.  1.
</event>
<event>
 5   0  0.3650180E-03  0.1203989E+04  0.7818609E-02  0.9109372E-01
       -2   -1    0    0    0  501  0.00000000000E+00  0.00000000000E+00  0.32915038386E+03  0.32915038387E+03  0.25500000920E-02 0.  1.
        2   -1    0    0  501    0  0.00000000000E+00  0.00000000000E+00 -0.11010080754E+04  0.11010080754E+04  0.25500000920E-02 0. -1.
    10030    2    1    2    0    0  0.00000000000E+00  0.00000000000E+00 -0.77185769153E+03  0.14301584593E+04  0.12039887552E+04 0.  0.
        3    1    3    3  502    0 -0.28220306378E+03 -0.51538773492E+03 -0.23044230299E+03  0.63116301518E+03  0.10100000352E+00 0.  1.
       -3    1    3    3    0  502  0.28220306378E+03  0.51538773492E+03 -0.54141538854E+03  0.79899544409E+03  0.10100000352E+00 0. -1.
</event>
<event>
 5   0  0.2047109E-03  0.1195985E+04  0.7818609E-02  0.9116378E-01
       -1   -1    0    0    0  501  0.00000000000E+00  0.00000000000E+00  0.71090932072E+03  0.71090932074E+03  0.50400001928E-02 0. -1.
        1   -1    0    0  501    0  0.00000000000E+00  0.00000000000E+00 -0.50301044737E+03  0.50301044740E+03  0.50400001928E-02 0.  1.
    10030    2    1    2    0    0  0.00000000000E+00  0.00000000000E+00  0.20789887335E+03  0.12139197681E+04  0.11959846412E+04 0.  0.
        1    1    3    3  502    0 -0.45831100159E+03 -0.36681518920E+03 -0.11744352784E+02  0.58714588226E+03  0.50400001928E-02 0.  1.
       -1    1    3    3    0  502  0.45831100159E+03  0.36681518920E+03  0.21964322613E+03  0.62677388588E+03  0.50400001928E-02 0. -1.
</event>
<event>
 5   0  0.2025294E-03  0.1200475E+04  0.7818609E-02  0.9112441E-01
        1   -1    0    0  501    0  0.00000000000E+00  0.00000000000E+00  0.67616371449E+03  0.67616371451E+03  0.50400001928E-02 0.  1.
       -1   -1    0    0    0  501  0.00000000000E+00  0.00000000000E+00 -0.53283679934E+03  0.53283679936E+03  0.50400001928E-02 0. -1.
    10030    2    1    2    0    0  0.00000000000E+00  0.00000000000E+00  0.14332691515E+03  0.12090005139E+04  0.12004747552E+04 0.  0.
        5    1    3    3  502    0 -0.25906734384E+03  0.54120873650E+03  0.87266531774E+02  0.60635000015E+03  0.46999998093E+01 0. -1.
       -5    1    3    3    0  502  0.25906734384E+03 -0.54120873650E+03  0.56060383379E+02  0.60265051373E+03  0.46999998093E+01 0.  1.
</event>
<event>
 5   0  0.1397500E-03  0.1194835E+04  0.7818609E-02  0.9117390E-01
       -3   -1    0    0    0  501  0.00000000000E+00  0.00000000000E+00  0.89425454718E+03  0.89425455289E+03  0.10100000352E+00 0. -1.
        3   -1    0    0  501    0  0.00000000000E+00  0.00000000000E+00 -0.39911185991E+03  0.39911187269E+03  0.10100000352E+00 0.  1.
    10030    2    1    2    0    0  0.00000000000E+00  0.00000000000E+00  0.49514268727E+03  0.12933664256E+04  0.11948348966E+04 0.  0.
        5    1    3    3  502    0  0.22053231790E+03 -0.51801700222E+02 -0.35079524420E+03  0.41760904292E+03  0.46999998093E+01 0.  1.
       -5    1    3    3    0  502 -0.22053231790E+03  0.51801700222E+02  0.84593793147E+03  0.87575738266E+03  0.46999998093E+01 0. -1.
</event>
<event>
 5   0  0.3751091E-03  0.1223971E+04  0.7818609E-02  0.9092130E-01
       -2   -1    0    0    0  501  0.00000000000E+00  0.00000000000E+00  0.28120801319E+03  0.28120801320E+03  0.25500000920E-02 0. -1.
        2   -1    0    0  501    0  0.00000000000E+00  0.00000000000E+00 -0.13318476363E+04  0.13318476363E+04  0.25500000920E-02 0.  1.
    10030    2    1    2    0    0  0.00000000000E+00  0.00000000000E+00 -0.10506396231E+04  0.16130556495E+04  0.12239709599E+04 0.  0.
        5    1    3    3  502    0 -0.46404939072E+03 -0.31852807833E+03 -0.20874650887E+03  0.60033254840E+03  0.46999998093E+01 0. -1.
       -5    1    3    3    0  502  0.46404939072E+03  0.31852807833E+03 -0.84189311427E+03  0.10127231011E+04  0.46999998093E+01 0.  1.
</event>
<event>
 5   0  0.2047109E-03  0.1209252E+04  0.7818609E-02  0.9104797E-01
       -1   -1    0    0    0  501  0.00000000000E+00  0.00000000000E+00  0.61992655227E+03  0.61992655229E+03  0.50400001928E-02 0.  1.
        1   -1    0    0  501    0  0.00000000000E+00  0.00000000000E+00 -0.58970293926E+03  0.58970293928E+03  0.50400001928E-02 0. -1.
    10030    2    1    2    0    0  0.00000000000E+00  0.00000000000E+00  0.30223613013E+02  0.12096294916E+04  0.12092518514E+04 0.  0.
        1    1    3    3  502    0  0.11188239138E+03 -0.54332738437E+03 -0.22548397877E+03  0.59880325718E+03  0.50400001928E-02 0. -1.
       -1    1    3    3    0  502 -0.11188239138E+03  0.54332738437E+03  0.25570759178E+03  0.61082623439E+03  0.50400001928E-02 0.  1.
</event>
<event>
 5   0  0.2025294E-03  0.1180800E+04  0.7818609E-02  0.9129830E-01
       -1   -1    0    0    0  501  0.00000000000E+00  0.00000000000E+00  0.69640160287E+03  0.69640160289E+03  0.50400001928E-02 0. -1.
        1   -1    0    0  501    0  0.00000000000E+00  0.00000000000E+00 -0.50053350202E+03  0.50053350204E+03  0.50400001928E-02 0.  1.
    10030    2    1    2    0    0  0.00000000000E+00  0.00000000000E+00  0.19586810085E+03  0.11969351049E+04  0.11808002932E+04 0.  0.
        5    1    3    3  502    0 -0.54809212123E+03 -0.45553380468E+02 -0.11963845320E+03  0.56286368981E+03  0.46999998093E+01 0.  1.
       -5    1    3    3    0  502  0.54809212123E+03  0.45553380468E+02  0.31550655405E+03  0.63407141512E+03  0.46999998093E+01 0. -1.
</event>
<event>
 5   0  0.2078258E-03  0.1191488E+04  0.7818609E-02  0.9120340E-01
        1   -1    0    0  501    0  0.00000000000E+00  0.00000000000E+00  0.12460616323E+04  0.12460616323E+04  0.50400001928E-02 0. -1.
       -1   -1    0    0    0  501  0.00000000000E+00  0.00000000000E+00 -0.28482605971E+03  0.28482605975E+03  0.50400001928E-02 0.  1.
    10030    2    1    2    0    0  0.00000000000E+00  0.00000000000E+00  0.96123557261E+03  0.15308876921E+04  0.11914878513E+04 0.  0.
        3    1    3    3  502    0  0.51731064384E+01  0.59563246238E+03  0.49384762949E+03  0.77375078845E+03  0.10100000352E+00 0.  1.
       -3    1    3    3    0  502 -0.51731064384E+01 -0.59563246238E+03  0.46738794312E+03  0.75713690363E+03  0.10100000352E+00 0. -1.
</event>
<event>
 5   0  0.3725376E-03  0.1198843E+04  0.7818609E-02  0.9113870E-01
        2   -1    0    0  501    0  0.00000000000E+00  0.00000000000E+00  0.17065966334E+04  0.17065966334E+04  0.25500000920E-02 0.  1.
       -2   -1    0    0    0  501  0.00000000000E+00  0.00000000000E+00 -0.21053951158E+03  0.21053951159E+03  0.25500000920E-02 0. -1.
    10030    2    1    2    0    0  0.00000000000E+00  0.00000000000E+00  0.14960571218E+04  0.19171361450E+04  0.11988428115E+04 0.  0.
        4    1    3    3  502    0 -0.39911310911E+03  0.38468183747E+03  0.38324922911E+03  0.67390872858E+03  0.12699999809E+01 0. -1.
       -4    1    3    3    0  502  0.39911310911E+03 -0.38468183747E+03  0.11128078927E+04  0.12432274164E+04  0.12699999809E+01 0.  1.
</event>
<event>
 5   0  0.2096270E-03  0.1197092E+04  0.7818609E-02  0.9115406E-01
       -1   -1    0    0    0  501  0.00000000000E+00  0.00000000000E+00  0.32014338353E+03  0.32014338357E+03  0.50400001928E-02 0.  1.
        1   -1    0    0  501    0  0.00000000000E+00  0.00000000000E+00 -0.11190519306E+04  0.11190519307E+04  0.50400001928E-02 0. -1.
    10030    2    1    2    0    0  0.00000000000E+00  0.00000000000E+00 -0.79890854711E+03  0.14391953142E+04  0.11970915946E+04 0.  0.
        2    1    3    3  502    0 -0.57323647087E+03 -0.16007038765E+03 -0.32309061515E+03  0.67720759457E+03  0.25500000920E-02 0.  1.
       -2    1    3    3    0  502  0.57323647087E+03  0.16007038765E+03 -0.47581793196E+03  0.76198771967E+03  0.25500000920E-02 0. -1.
</event>
<event>
 5   0  0.1397500E-03  0.1195291E+04  0.7818609E-02  0.9116989E-01
       -3   -1    0    0    0  501  0.00000000000E+00  0.00000000000E+00  0.12865402810E+04  0.12865402850E+04  0.10100000352E+00 0.  1.
        3   -1    0    0  501    0  0.00000000000E+00  0.00000000000E+00 -0.27762820193E+03  0.27762822030E+03  0.10100000352E+00 0. -1.
    10030    2    1    2    0    0  0.00000000000E+00  0.00000000000E+00  0.10089120791E+04  0.15641685053E+04  0.11952905628E+04 0.  0.
        4    1    3    3  502    0 -0.56944607153E+03 -0.94291595391E+02  0.70726321384E+03  0.91289791318E+03  0.12699999809E+01 0.  1.
       -4    1    3    3    0  502  0.56944607153E+03  0.94291595391E+02  0.30164886524E+03  0.65127059210E+03  0.12699999809E+01 0. -1.
</event>
<event>
 5   0  0.3626049E-03  0.1218238E+04  0.7818609E-02  0.9097041E-01
       -2   -1    0    0    0  501  0.00000000000E+00  0.00000000000E+00  0.33159919337E+03  0.33159919338E+03  0.25500000920E-02 0.  1.
        2   -1    0    0  501    0  0.00000000000E+00  0.00000000000E+00 -0.11188992443E+04  0.11188992443E+04  0.25500000920E-02 0. -1.
    10030    2    1    2    0    0  0.00000000000E+00  0.00000000000E+00 -0.78730005090E+03  0.14504984376E+04  0.12182382146E+04 0.  0.
        1    1    3    3  502    0 -0.67514504627E+02 -0.51233399714E+03 -0.77759025125E+03  0.93364389990E+03  0.50400001928E-02 0. -1.
       -1    1    3    3    0  502  0.67514504627E+02  0.51233399714E+03 -0.97097996558E+01  0.51685453775E+03  0.50400001928E-02 0.  1.
</event>
<event>
 5   0  0.3725376E-03  0.1217122E+04  0.7818609E-02  0.9098001E-01
        2   -1    0    0  501    0  0.00000000000E+00  0.00000000000E+00  0.15986197735E+04  0.15986197735E+04  0.25500000920E-02 0. -1.
       -2   -1    0    0    0  501  0.00000000000E+00  0.00000000000E+00 -0.23166630362E+03  0.23166630363E+03  0.25500000920E-02 0.  1.
    10030    2    1    2    0    0  0.00000000000E+00  0.00000000000E+00  0.13669534699E+04  0.18302860772E+04  0.12171217422E+04 0.  0.
        4    1    3    3  502    0 -0.59015280777E+03  0.13464301082E+02  0.46102318103E+03  0.74900307761E+03  0.12699999809E+01 0. -1.
       -4    1    3    3    0  502  0.59015280777E+03 -0.13464301082E+02  0.90593028888E+03  0.10812829996E+04  0.12699999809E+01 0.  1.
</event>
<event>
 5   0  0.3725376E-03  0.1195621E+04  0.7818609E-02  0.9116698E-01
       -2   -1    0    0    0  501  0.00000000000E+00  0.00000000000E+00  0.60427720829E+03  0.60427720829E+03  0.25500000920E-02 0. -1.
        2   -1    0    0  501    0  0.00000000000E+00  0.00000000000E+00 -0.59141323487E+03  0.59141323488E+03  0.25500000920E-02 0.  1.
    10030    2    1    2    0    0  0.00000000000E+00  0.00000000000E+00  0.12863973417E+02  0.11956904432E+04  0.11956212419E+04 0.  0.
        4    1    3    3  502    0  0.19642631182E+03  0.56451119079E+03 -0.45114577848E+01  0.59772748528E+03  0.12699999809E+01 0.  1.
       -4    1    3    3    0  502 -0.19642631182E+03 -0.56451119079E+03  0.17375431202E+02  0.59796295789E+03  0.12699999809E+01 0. -1.
</event>
<event>
 5   0  0.3706035E-03  0.1182904E+04  0.7818609E-02  0.9127954E-01
       -2   -1    0    0    0  501  0.00000000000E+00  0.00000000000E+00  0.57199894042E+03  0.57199894042E+03  0.25500000920E-02 0.  1.
        2   -1    0    0  501    0  0.00000000000E+00  0.00000000000E+00 -0.61156624155E+03  0.61156624155E+03  0.25500000920E-02 0. -1.
    10030    2    1    2    0    0  0.00000000000E+00  0.00000000000E+00 -0.39567301130E+02  0.11835651820E+04  0.11829036177E+04 0.  0.
        2    1    3    3  502    0  0.52471898433E+03 -0.39454992461E+02 -0.28998751754E+03  0.60081566997E+03  0.25500000920E-02 0.  1.
       -2    1    3    3    0  502 -0.52471898433E+03  0.39454992461E+02  0.25042021641E+03  0.58274951201E+03  0.25500000920E-02 0. -1.
</event>
<event>
 5   0  0.3650180E-03  0.1200596E+04  0.7818609E-02  0.9112335E-01
       -2   -1    0    0    0  501  0.00000000000E+00  0.00000000000E+00  0.32877764332E+03  0.32877764333E+03  0.25500000920E-02 0.  1.
        2   -1    0    0  501    0  0.00000000000E+00  0.00000000000E+00 -0.10960524609E+04  0.10960524609E+04  0.25500000920E-02 0. -1.
    10030    2    1    2    0    0  0.00000000000E+00  0.00000000000E+00 -0.76727481758E+03  0.14248301042E+04  0.12005957605E+04 0.  0.
        3    1    3    3  502    0 -0.30471102382E+03 -0.12787243021E+03  0.21111914856E+03  0.39213705708E+03  0.10100000352E+00 0.  1.
       -3    1    3    3    0  502  0.30471102382E+03  0.12787243021E+03 -0.97839396613E+03  0.10326930471E+04  0.10100000352E+00 0. -1.
</event>
<event>
 5   0  0.2078258E-03  0.1209780E+04  0.7818609E-02  0.9104339E-01
       -1   -1    0    0    0  501  0.00000000000E+00  0.00000000000E+00  0.12909158314E+04  0.12909158314E+04  0.50400001928E-02 0.  1.
        1   -1    0    0  501    0  0.00000000000E+00  0.00000000000E+00 -0.28343614671E+03  0.28343614675E+03  0.50400001928E-02 0. -1.
    10030    2    1    2    0    0  0.00000000000E+00  0.00000000000E+00  0.10074796847E+04  0.15743519782E+04  0.12097804909E+04 0.  0.
        3    1    3    3  502    0 -0.19113428910E+02  0.51112459414E+03  0.83504381273E+02  0.51825347639E+03  0.10100000352E+00 0.  1.
       -3    1    3    3    0  502  0.19113428910E+02 -0.51112459414E+03  0.92397530342E+03  0.10560985018E+04  0.10100000352E+00 0. -1.
</event>
<event>
 5   0  0.2134992E-03  0.1188472E+04  0.7818609E-02  0.9123007E-01
        1   -1    0    0  501    0  0.00000000000E+00  0.00000000000E+00  0.26822691466E+04  0.26822691467E+04  0.50400001928E-02 0.  1.
       -1   -1    0    0    0  501  0.00000000000E+00  0.00000000000E+00 -0.13164845924E+03  0.13164845934E+03  0.50400001928E-02 0. -1.
    10030    2    1    2    0    0  0.00000000000E+00  0.00000000000E+00  0.25506206874E+04  0.28139176060E+04  0.11884722976E+04 0.  0.
        4    1    3    3  502    0  0.34963965876E+03  0.30859597457E+03  0.40332498279E+03  0.61656469339E+03  0.12699999809E+01 0. -1.
       -4    1    3    3    0  502 -0.34963965876E+03 -0.30859597457E+03  0.21472957046E+04  0.21973529126E+04  0.12699999809E+01 0.  1.
</event>
<event>
 5   0  0.3650180E-03  0.1193518E+04  0.7818609E-02  0.9118550E-01
       -2   -1    0    0    0  501  0.00000000000E+00  0.00000000000E+00  0.13853112384E+04  0.13853112384E+04  0.25500000920E-02 0. -1.
        2   -1    0    0  501    0  0.00000000000E+00  0.00000000000E+00 -0.25706933465E+03  0.25706933466E+03  0.25500000920E-02 0.  1.
    10030    2    1    2    0    0  0.00000000000E+00  0.00000000000E+00  0.11282419037E+04  0.16423805730E+04  0.11935175547E+04 0.  0.
        3    1    3    3  502    0  0.34280026545E+03 -0.21077297733E+03  0.11705101259E+04  0.12377524935E+04  0.10100000352E+00 0. -1.
       -3    1    3    3    0  502 -0.34280026545E+03  0.21077297733E+03 -0.42268222221E+02  0.40462807957E+03  0.10100000352E+00 0.  1.
</event>
<event>
 5   0  0.3706035E-03  0.1200634E+04  0.7818609E-02  0.9112302E-01
        2   -1    0    0  501    0  0.00000000000E+00  0.00000000000E+00  0.64342534379E+03  0.64342534380E+03  0.25500000920E-02 0. -1.
       -2   -1    0    0    0  501  0.00000000000E+00  0.00000000000E+00 -0.56009643941E+03  0.56009643941E+03  0.25500000920E-02 0.  1.
    10030    2    1    2    0    0  0.00000000000E+00  0.00000000000E+00  0.83328904384E+02  0.12035217832E+04  0.12006335729E+04 0.  0.
        2    1    3    3  502    0  0.18212501105E+02  0.27833145697E+03  0.57452589560E+03  0.63865491454E+03  0.25500000920E-02 0. -1.
       -2    1    3    3    0  502 -0.18212501105E+02 -0.27833145697E+03 -0.49119699122E+03  0.56486686867E+03  0.25500000920E-02 0.  1.
</event>
<event>
 5   0  0.2047109E-03  0.1238582E+04  0.7818609E-02  0.9079740E-01
       -1   -1    0    0    0  501  0.00000000000E+00  0.00000000000E+00  0.66788803666E+03  0.66788803668E+03  0.50400001928E-02 0.  1.
        1   -1    0    0  501    0  0.00000000000E+00  0.00000000000E+00 -0.57423042710E+03  0.57423042712E+03  0.50400001928E-02 0. -1.
    10030    2    1    2    0    0  0.00000000000E+00  0.00000000000E+00  0.93657609556E+02  0.12421184638E+04  0.12385824681E+04 0.  0.
        1    1    3    3  502    0  0.40011806181E+03  0.42579600230E+03 -0.15900073536E+03  0.60553937347E+03  0.50400001928E-02 0. -1.
       -1    1    3    3    0  502 -0.40011806181E+03 -0.42579600230E+03  0.25265834491E+03  0.63657909032E+03  0.50400001928E-02 0.  1.
</event>
<event>
 5   0  0.3626049E-03  0.1524828E+04  0.7818609E-02  0.8868108E-01
        2   -1    0    0  501    0  0.00000000000E+00  0.00000000000E+00  0.16840255340E+04  0.16840255340E+04  0.25500000920E-02 0.  1.
       -2   -1    0    0    0  501  0.00000000000E+00  0.00000000000E+00 -0.34517003181E+03  0.34517003182E+03  0.25500000920E-02 0. -1.
    10030    2    1    2    0    0  0.00000000000E+00  0.00000000000E+00  0.13388555022E+04  0.20291955659E+04  0.15248280522E+04 0.  0.
        1    1    3    3  502    0  0.93153847106E+02 -0.59349609410E+03  0.12941245912E+04  0.14267703777E+04  0.50400001928E-02 0.  1.
       -1    1    3    3    0  502 -0.93153847106E+02  0.59349609410E+03  0.44730910999E+02  0.60242518819E+03  0.50400001928E-02 0. -1.
</event>
<event>
 5   0  0.2096270E-03  0.1172105E+04  0.7818609E-02  0.9137629E-01
        1   -1    0    0  501    0  0.00000000000E+00  0.00000000000E+00  0.21096490949E+03  0.21096490955E+03  0.50400001928E-02 0.  1.
       -1   -1    0    0    0  501  0.00000000000E+00  0.00000000000E+00 -0.16280321687E+04  0.16280321687E+04  0.50400001928E-02 0. -1.
    10030    2    1    2    0    0  0.00000000000E+00  0.00000000000E+00 -0.14170672592E+04  0.18389970783E+04  0.11721052157E+04 0.  0.
        2    1    3    3  502    0  0.66027053326E+01  0.49577433015E+03 -0.11987502343E+04  0.12972424239E+04  0.25500000920E-02 0. -1.
       -2    1    3    3    0  502 -0.66027053326E+01 -0.49577433015E+03 -0.21831702495E+03  0.54175465438E+03  0.25500000920E-02 0.  1.
</event>
<event>
 5   0  0.3751091E-03  0.1139531E+04  0.7818609E-02  0.9167497E-01
       -2   -1    0    0    0  501  0.00000000000E+00  0.00000000000E+00  0.19659735226E+03  0.19659735227E+03  0.25500000920E-02 0.  1.
        2   -1    0    0  501    0  0.00000000000E+00  0.00000000000E+00 -0.16512562025E+04  0.16512562025E+04  0.25500000920E-02 0. -1.
    10030    2    1    2    0    0  0.00000000000E+00  0.00000000000E+00 -0.14546588503E+04  0.18478535548E+04  0.11395307759E+04 0.  0.
        5    1    3    3  502    0  0.94730753015E+02  0.50080345073E+01 -0.16383284420E+04  0.16410792698E+04  0.46999998093E+01 0. -1.
       -5    1    3    3    0  502 -0.94730753015E+02 -0.50080345073E+01  0.18366959177E+03  0.20677428494E+03  0.46999998093E+01 0.  1.
</event>
<event>
 5   0  0.2096270E-03  0.1180893E+04  0.7818609E-02  0.9129747E-01
       -1   -1    0    0    0  501  0.00000000000E+00  0.00000000000E+00  0.25618225983E+03  0.25618225988E+03  0.50400001928E-02 0.  1.
        1   -1    0    0  501    0  0.00000000000E+00  0.00000000000E+00 -0.13608553098E+04  0.13608553098E+04  0.50400001928E-02 0. -1.
    10030    2    1    2    0    0  0.00000000000E+00  0.00000000000E+00 -0.11046730500E+04  0.16170375697E+04  0.11808928633E+04 0.  0.
        2    1    3    3  502    0 -0.27660179680E+03 -0.69127905917E+02  0.15567674104E+03  0.32484222182E+03  0.25500000920E-02 0.  1.
       -2    1    3    3    0  502  0.27660179680E+03  0.69127905917E+02 -0.12603497910E+04  0.12921953479E+04  0.25500000920E-02 0. -1.
</event>
<event>
 5   0  0.2078258E-03  0.1221313E+04  0.7818609E-02  0.9094403E-01
       -1   -1    0    0    0  501  0.00000000000E+00  0.00000000000E+00  0.36045514154E+03  0.36045514158E+03  0.50400001928E-02 0. -1.
        1   -1    0    0  501    0  0.00000000000E+00  0.00000000000E+00 -0.10345294988E+04  0.10345294988E+04  0.50400001928E-02 0.  1.
    10030    2    1    2    0    0  0.00000000000E+00  0.00000000000E+00 -0.67407435725E+03  0.13949846404E+04  0.12213131899E+04 0.  0.
        3    1    3    3  502    0  0.46781464590E+03 -0.23578952248E+02  0.11045910603E+03  0.48125641213E+03  0.10100000352E+00 0. -1.
       -3    1    3    3    0  502 -0.46781464590E+03  0.23578952248E+02 -0.78453346328E+03  0.91372822826E+03  0.10100000352E+00 0.  1.
</event>
<event>
 5   0  0.2025294E-03  0.1181112E+04  0.7818609E-02  0.9129552E-01
        1   -1    0    0  501    0  0.00000000000E+00  0.00000000000E+00  0.10627224013E+04  0.10627224013E+04  0.50400001928E-02 0.  1.
       -1   -1    0    0    0  501  0.00000000000E+00  0.00000000000E+00 -0.32817249078E+03  0.32817249082E+03  0.50400001928E-02 0. -1.
    10030    2    1    2    0    0  0.00000000000E+00  0.00000000000E+00  0.73454991053E+03  0.13908948921E+04  0.11811117771E+04 0.  0.
        5    1    3    3  502    0  0.40946498742E+03  0.12206150231E+03 -0.11277264390E+03  0.44192798676E+03  0.46999998093E+01 0. -1.
       -5    1    3    3    0  502 -0.40946498742E+03 -0.12206150231E+03  0.84732255444E+03  0.94896690539E+03  0.46999998093E+01 0.  1.
</event>
<event>
 5   0  0.3626049E-03  0.1204873E+04  0.7818609E-02  0.9108602E-01
        2   -1    0    0  501    0  0.00000000000E+00  0.00000000000E+00  0.10799467822E+04  0.10799467822E+04  0.25500000920E-02 0. -1.
       -2   -1    0    0    0  501  0.00000000000E+00  0.00000000000E+00 -0.33606257158E+03  0.33606257159E+03  0.25500000920E-02 0.  1.
    10030    2    1    2    0    0  0.00000000000E+00  0.00000000000E+00  0.74388421058E+03  0.14160093537E+04  0.12048729274E+04 0.  0.
        1    1    3    3  502    0 -0.87392544342E+02  0.31127143534E+03 -0.22546872045E+03  0.39416177794E+03  0.50400001928E-02 0.  1.
       -1    1    3    3    0  502  0.87392544342E+02 -0.31127143534E+03  0.96935293102E+03  0.10218475758E+04  0.50400001928E-02 0. -1.
</event>
<event>
 5   0  0.2078258E-03  0.1182617E+04  0.7818609E-02  0.9128210E-01
       -1   -1    0    0    0  501  0.00000000000E+00  0.00000000000E+00  0.48110930622E+03  0.48110930625E+03  0.50400001928E-02 0.  1.
        1   -1    0    0  501    0  0.00000000000E+00  0.00000000000E+00 -0.72674883407E+03  0.72674883409E+03  0.50400001928E-02 0. -1.
    10030    2    1    2    0    0  0.00000000000E+00  0.00000000000E+00 -0.24563952785E+03  0.12078581403E+04  0.11826168059E+04 0.  0.
        3    1    3    3  502    0  0.20484590281E+03 -0.61290617166E+02 -0.68588237858E+03  0.71843791040E+03  0.10100000352E+00 0. -1.
       -3    1    3    3    0  502 -0.20484590281E+03  0.61290617166E+02  0.44024285073E+03  0.48942022994E+03  0.10100000352E+00 0.  1.
</event>
<event>
 5   0  0.3706035E-03  0.1193706E+04  0.7818609E-02  0.9118383E-01
       -2   -1    0    0    0  501  0.00000000000E+00  0.00000000000E+00  0.15139094161E+03  0.15139094163E+03  0.25500000920E-02 0.  1.
        2   -1    0    0  501    0  0.00000000000E+00  0.00000000000E+00 -0.23530704654E+04  0.23530704654E+04  0.25500000920E-02 0. -1.
    10030    2    1    2    0    0  0.00000000000E+00  0.00000000000E+00 -0.22016795238E+04  0.25044614070E+04  0.11937060835E+04 0.  0.
        2    1    3    3  502    0 -0.24629541349E+03  0.14896843943E+03 -0.21978248514E+04  0.22165935811E+04  0.25500000920E-02 0. -1.
       -2    1    3    3    0  502  0.24629541349E+03 -0.14896843943E+03 -0.38546723841E+01  0.28786782585E+03  0.25500000920E-02 0.  1.
</event>
<event>
 5   0  0.2134992E-03  0.1184252E+04  0.7818609E-02  0.9126753E-01
       -1   -1    0    0    0  501  0.00000000000E+00  0.00000000000E+00  0.55011397676E+03  0.55011397678E+03  0.50400001928E-02 0. -1.
        1   -1    0    0  501    0  0.00000000000E+00  0.00000000000E+00 -0.63734647546E+03  0.63734647548E+03  0.50400001928E-02 0.  1.
    10030    2    1    2    0    0  0.00000000000E+00  0.00000000000E+00 -0.87232498702E+02  0.11874604523E+04  0.11842520073E+04 0.  0.
        4    1    3    3  502    0 -0.11242974104E+03  0.33054065993E+03  0.43591997075E+03  0.55850282751E+03  0.12699999809E+01 0. -1.
       -4    1    3    3    0  502  0.11242974104E+03 -0.33054065993E+03 -0.52315246946E+03  0.62895762475E+03  0.12699999809E+01 0.  1.
</event>
<event>
 5   0  0.2025294E-03  0.1257900E+04  0.7818609E-02  0.9063633E-01
        1   -1    0    0  501    0  0.00000000000E+00  0.00000000000E+00  0.42240667232E+03  0.42240667235E+03  0.50400001928E-02 0.  1.
       -1   -1    0    0    0  501  0.00000000000E+00  0.00000000000E+00 -0.93648680393E+03  0.93648680395E+03  0.50400001928E-02 0. -1.
    10030    2    1    2    0    0  0.00000000000E+00  0.00000000000E+00 -0.51408013161E+03  0.13588934763E+04  0.12579002735E+04 0.  0.
        5    1    3    3  502    0 -0.66666980991E+02  0.14366816808E+03  0.40049119049E+03  0.43069747217E+03  0.46999998093E+01 0.  1.
       -5    1    3    3    0  502  0.66666980991E+02 -0.14366816808E+03 -0.91457132210E+03  0.92819600413E+03  0.46999998093E+01 0. -1.
</event>
<event>
 5   0  0.3751091E-03  0.1181846E+04  0.7818609E-02  0.9128897E-01
        2   -1    0    0  501    0  0.00000000000E+00  0.00000000000E+00  0.82842665483E+03  0.82842665483E+03  0.25500000920E-02 0.  1.
       -2   -1    0    0    0  501  0.00000000000E+00  0.00000000000E+00 -0.42150954603E+03  0.42150954604E+03  0.25500000920E-02 0. -1.
    10030    2    1    2    0    0  0.00000000000E+00  0.00000000000E+00  0.40691710879E+03  0.12499362009E+04  0.11818455791E+04 0.  0.
        5    1    3    3  502    0 -0.14500099006E+03 -0.42138935312E+03 -0.20693564133E+03  0.49136414571E+03  0.46999998093E+01 0. -1.
       -5    1    3    3    0  502  0.14500099006E+03  0.42138935312E+03  0.61385275012E+03  0.75857205516E+03  0.46999998093E+01 0.  1.
</event>
<event>
 5   0  0.2025294E-03  0.1136694E+04  0.7818609E-02  0.9170147E-01
        1   -1    0    0  501    0  0.00000000000E+00  0.00000000000E+00  0.78526368354E+03  0.78526368356E+03  0.50400001928E-02 0.  1.
       -1   -1    0    0    0  501  0.00000000000E+00  0.00000000000E+00 -0.41135029936E+03  0.41135029939E+03  0.50400001928E-02 0. -1.
    10030    2    1    2    0    0  0.00000000000E+00  0.00000000000E+00  0.37391338418E+03  0.11966139830E+04  0.11366942444E+04 0.  0.
        5    1    3    3  502    0  0.27734207501E+03 -0.40096683774E+03  0.49442007730E+03  0.69438198016E+03  0.46999998093E+01 0.  1.
       -5    1    3    3    0  502 -0.27734207501E+03  0.40096683774E+03 -0.12050669312E+03  0.50223200279E+03  0.46999998093E+01 0. -1.
</event>
<event>
 5   0  0.2096270E-03  0.1194951E+04  0.7818609E-02  0.9117287E-01
       -1   -1    0    0    0  501  0.00000000000E+00  0.00000000000E+00  0.18480269783E+03  0.18480269789E+03  0.50400001928E-02 0. -1.
        1   -1    0    0  501    0  0.00000000000E+00  0.00000000000E+00 -0.19316666357E+04  0.19316666357E+04  0.50400001928E-02 0.  1.
    10030    2    1    2    0    0  0.00000000000E+00  0.00000000000E+00 -0.17468639379E+04  0.21164693336E+04  0.11949513892E+04 0.  0.
        2    1    3    3  502    0  0.27217093201E+03  0.16199287942E+03  0.23871950095E+02  0.31762962586E+03  0.25500000920E-02 0. -1.
       -2    1    3    3    0  502 -0.27217093201E+03 -0.16199287942E+03 -0.17707358880E+04  0.17988397077E+04  0.25500000920E-02 0.  1.
</event>
<event>
 5   0  0.3626049E-03  0.1188070E+04  0.7818609E-02  0.9123364E-01
       -2   -1    0    0    0  501  0.00000000000E+00  0.00000000000E+00  0.91751270257E+03  0.91751270257E+03  0.25500000920E-02 0. -1.
        2   -1    0    0  501    0  0.00000000000E+00  0.00000000000E+00 -0.38460206968E+03  0.38460206969E+03  0.25500000920E-02 0.  1.
    10030    2    1    2    0    0  0.00000000000E+00  0.00000000000E+00  0.53291063289E+03  0.13021147723E+04  0.11880695003E+04 0.  0.
        1    1    3    3  502    0  0.52005784728E+03 -0.17041150989E+03  0.13243102474E+02  0.54742636675E+03  0.50400001928E-02 0.  1.
       -1    1    3    3    0  502 -0.52005784728E+03  0.17041150989E+03  0.51966753042E+03  0.75468840551E+03  0.50400001928E-02 0. -1.
</event>
<event>
 5   0  0.2134992E-03  0.1108110E+04  0.7818609E-02  0.9197323E-01
        1   -1    0    0  501    0  0.00000000000E+00  0.00000000000E+00  0.36966785127E+03  0.36966785131E+03  0.50400001928E-02 0.  1.
       -1   -1    0    0    0  501  0.00000000000E+00  0.00000000000E+00 -0.83041306667E+03  0.83041306669E+03  0.50400001928E-02 0. -1.
    10030    2    1    2    0    0  0.00000000000E+00  0.00000000000E+00 -0.46074521540E+03  0.12000809180E+04  0.11081101282E+04 0.  0.
        4    1    3    3  502    0 -0.41323442458E+03 -0.24096027861E+01  0.16932096878E+03  0.44658672082E+03  0.12699999809E+01 0.  1.
       -4    1    3    3    0  502  0.41323442458E+03  0.24096027861E+01 -0.63006618418E+03  0.75349419718E+03  0.12699999809E+01 0. -1.
</event>
<event>
 5   0  0.3626049E-03  0.1055758E+04  0.7818609E-02  0.9249420E-01
        2   -1    0    0  501    0  0.00000000000E+00  0.00000000000E+00  0.10435485647E+04  0.10435485647E+04  0.25500000920E-02 0.  1.
       -2   -1    0    0    0  501  0.00000000000E+00  0.00000000000E+00 -0.26702735495E+03  0.26702735496E+03  0.25500000920E-02 0. -1.
    10030    2    1    2    0    0  0.00000000000E+00  0.00000000000E+00  0.77652120975E+03  0.13105759197E+04  0.10557575726E+04 0.  0.
        1    1    3    3  502    0  0.43994412587E+03  0.20295070988E+03  0.64840249950E+03  0.80942302038E+03  0.50400001928E-02 0.  1.
       -1    1    3    3    0  502 -0.43994412587E+03 -0.20295070988E+03  0.12811871025E+03  0.50115289929E+03  0.50400001928E-02 0. -1.
</event>
<event>
 5   0  0.3626049E-03  0.1193932E+04  0.7818609E-02  0.9118185E-01
       -2   -1    0    0    0  501  0.00000000000E+00  0.00000000000E+00  0.19288862925E+03  0.19288862927E+03  0.25500000920E-02 0.  1.
        2   -1    0    0  501    0  0.00000000000E+00  0.00000000000E+00 -0.18475343527E+04  0.18475343527E+04  0.25500000920E-02 0. -1.
    10030    2    1    2    0    0  0.00000000000E+00  0.00000000000E+00 -0.16546457235E+04  0.20404229820E+04  0.11939319391E+04 0.  0.
        1    1    3    3  502    0  0.29479256337E+03  0.51802343304E+03 -0.77019446956E+03  0.97388420953E+03  0.50400001928E-02 0. -1.
       -1    1    3    3    0  502 -0.29479256337E+03 -0.51802343304E+03 -0.88445125391E+03  0.10665387725E+04  0.50400001928E-02 0.  1.
</event>
<event>
 5   0  0.2134992E-03  0.1167578E+04  0.7818609E-02  0.9141719E-01
        1   -1    0    0  501    0  0.00000000000E+00  0.00000000000E+00  0.38858581287E+03  0.38858581290E+03  0.50400001928E-02 0.  1.
       -1   -1    0    0    0  501  0.00000000000E+00  0.00000000000E+00 -0.87705030862E+03  0.87705030863E+03  0.50400001928E-02 0. -1.
    10030    2    1    2    0    0  0.00000000000E+00  0.00000000000E+00 -0.48846449575E+03  0.12656361215E+04  0.11675775043E+04 0.  0.
        4    1    3    3  502    0 -0.65011649175E+02  0.38244775876E+03 -0.71712159231E+03  0.81532680182E+03  0.12699999809E+01 0. -1.
       -4    1    3    3    0  502  0.65011649175E+02 -0.38244775876E+03  0.22865709656E+03  0.45030931971E+03  0.12699999809E+01 0.  1.
</event>
<event>
 5   0  0.2078258E-03  0.1159330E+04  0.7818609E-02  0.9149219E-01
        1   -1    0    0  501    0  0.00000000000E+00  0.00000000000E+00  0.33653473138E+03  0.33653473142E+03  0.50400001928E-02 0. -1.
       -1   -1    0    0    0  501  0.00000000000E+00  0.00000000000E+00 -0.99844553209E+03  0.99844553210E+03  0.50400001928E-02 0.  1.
    10030    2    1    2    0    0  0.00000000000E+00  0.00000000000E+00 -0.66191080071E+03  0.13349802635E+04  0.11593301497E+04 0.  0.
        3    1    3    3  502    0 -0.53333631754E+03 -0.18103263858E+03 -0.48880530936E+03  0.74575537846E+03  0.10100000352E+00 0. -1.
       -3    1    3    3    0  502  0.53333631754E+03  0.18103263858E+03 -0.17310549135E+03  0.58922488506E+03  0.10100000352E+00 0.  1.
</event>
<event>
 5   0  0.3725376E-03  0.1217750E+04  0.7818609E-02  0.9097460E-01
        2   -1    0    0  501    0  0.00000000000E+00  0.00000000000E+00  0.93446487377E+03  0.93446487377E+03  0.25500000920E-02 0.  1.
       -2   -1    0    0    0  501  0.00000000000E+00  0.00000000000E+00 -0.39672838768E+03  0.39672838769E+03  0.25500000920E-02 0. -1.
    10030    2    1    2    0    0  0.00000000000E+00  0.00000000000E+00  0.53773648609E+03  0.13311932615E+04  0.12177499624E+04 0.  0.
        4    1    3    3  502    0  0.39006764639E+03  0.10304781814E+03 -0.22963524318E+03  0.46422578493E+03  0.12699999809E+01 0. -1.
       -4    1    3    3    0  502 -0.39006764639E+03 -0.10304781814E+03  0.76737172926E+03  0.86696747653E+03  0.12699999809E+01 0.  1.
</event>
<event>
 5   0  0.2134992E-03  0.1203182E+04  0.7818609E-02  0.9110076E-01
       -1   -1    0    0    0  501  0.00000000000E+00  0.00000000000E+00  0.34273823764E+03  0.34273823768E+03  0.50400001928E-02 0.  1.
        1   -1    0    0  501    0  0.00000000000E+00  0.00000000000E+00 -0.10559412787E+04  0.10559412787E+04  0.50400001928E-02 0. -1.
    10030    2    1    2    0    0  0.00000000000E+00  0.00000000000E+00 -0.71320304101E+03  0.13986795163E+04  0.12031815373E+04 0.  0.
        4    1    3    3  502    0 -0.23383436443E+03  0.50699029742E+03 -0.96163110853E+02  0.56653916762E+03  0.12699999809E+01 0.  1.
       -4    1    3    3    0  502  0.23383436443E+03 -0.50699029742E+03 -0.61703993016E+03  0.83214034872E+03  0.12699999809E+01 0. -1.
</event>
<event>
 5   0  0.2047109E-03  0.1202847E+04  0.7818609E-02  0.9110368E-01
       -1   -1    0    0    0  501  0.00000000000E+00  0.00000000000E+00  0.45282381518E+03  0.45282381521E+03  0.50400001928E-02 0.  1.
        1   -1    0    0  501    0  0.00000000000E+00  0.00000000000E+00 -0.79878852564E+03  0.79878852566E+03  0.50400001928E-02 0. -1.
    10030    2    1    2    0    0  0.00000000000E+00  0.00000000000E+00 -0.34596471046E+03  0.12516123409E+04  0.12028474013E+04 0.  0.
        1    1    3    3  502    0 -0.17391077330E+03 -0.12077497909E+03  0.41275911583E+03  0.46389830822E+03  0.50400001928E-02 0.  1.
       -1    1    3    3    0  502  0.17391077330E+03  0.12077497909E+03 -0.75872382628E+03  0.78771403265E+03  0.50400001928E-02 0. -1.
</event>
<event>
 5   0  0.2025294E-03  0.1200712E+04  0.7818609E-02  0.9112233E-01
        1   -1    0    0  501    0  0.00000000000E+00  0.00000000000E+00  0.25501601873E+04  0.25501601873E+04  0.50400001928E-02 0. -1.
       -1   -1    0    0    0  501  0.00000000000E+00  0.00000000000E+00 -0.14133524200E+03  0.14133524209E+03  0.50400001928E-02 0.  1.
    10030    2    1    2    0    0  0.00000000000E+00  0.00000000000E+00  0.24088249453E+04  0.26914954294E+04  0.12007123008E+04 0.  0.
        5    1    3    3  502    0  0.28479171405E+03  0.52816432704E+03  0.11629862004E+04  0.13086721779E+04  0.46999998093E+01 0. -1.
       -5    1    3    3    0  502 -0.28479171405E+03 -0.52816432704E+03  0.12458387449E+04  0.13828232515E+04  0.46999998093E+01 0.  1.
</event>
<event>
 5   0  0.3725376E-03  0.1174222E+04  0.7818609E-02  0.9135724E-01
       -2   -1    0    0    0  501  0.00000000000E+00  0.00000000000E+00  0.21976550052E+03  0.21976550053E+03  0.25500000920E-02 0. -1.
        2   -1    0    0  501    0  0.00000000000E+00  0.00000000000E+00 -0.15684880221E+04  0.15684880221E+04  0.25500000920E-02 0.  1.
    10030    2    1    2    0    0  0.00000000000E+00  0.00000000000E+00 -0.13487225216E+04  0.17882535226E+04  0.11742223899E+04 0.  0.
        4    1    3    3  502    0 -0.38347675020E+03 -0.29131633421E+02  0.12324860790E+01  0.38458575368E+03  0.12699999809E+01 0. -1.
       -4    1    3    3    0  502  0.38347675020E+03  0.29131633421E+02 -0.13499550077E+04  0.14036677690E+04  0.12699999809E+01 0.  1.
</event>
<event>
 5   0  0.3706035E-03  0.1196008E+04  0.7818609E-02  0.9116358E-01
       -2   -1    0    0    0  501  0.00000000000E+00  0.00000000000E+00  0.47002143748E+03  0.47002143748E+03  0.25500000920E-02 0. -1.
        2   -1    0    0  501    0  0.00000000000E+00  0.00000000000E+00 -0.76083462850E+03  0.76083462850E+03  0.25500000920E-02 0.  1.
    10030    2    1    2    0    0  0.00000000000E+00  0.00000000000E+00 -0.29081319102E+03  0.12308560660E+04  0.11960076685E+04 0.  0.
        2    1    3    3  502    0 -0.55371766905E+03 -0.20291952465E+03 -0.43376599663E+02  0.59132150300E+03  0.25500000920E-02 0. -1.
       -2    1    3    3    0  502  0.55371766905E+03  0.20291952465E+03 -0.24743659136E+03  0.63953456298E+03  0.25500000920E-02 0.  1.
</event>
<event>
 5   0  0.2025294E-03  0.1208173E+04  0.7818609E-02  0.9105733E-01
        1   -1    0    0  501    0  0.00000000000E+00  0.00000000000E+00  0.32781336109E+03  0.32781336113E+03  0.50400001928E-02 0. -1.
       -1   -1    0    0    0  501  0.00000000000E+00  0.00000000000E+00 -0.11131961158E+04  0.11131961158E+04  0.50400001928E-02 0.  1.
    10030    2    1    2    0    0  0.00000000000E+00  0.00000000000E+00 -0.78538275468E+03  0.14410094769E+04  0.12081731007E+04 0.  0.
        5    1    3    3  502    0  0.12372485889E+03  0.92426333263E+01 -0.10978137552E+04  0.11048123814E+04  0.46999998093E+01 0.  1.
       -5    1    3    3    0  502 -0.12372485889E+03 -0.92426333263E+01  0.31243100050E+03  0.33619709554E+03  0.46999998093E+01 0. -1.
</event>
<event>
 5   0  0.2047109E-03  0.1226630E+04  0.7818609E-02  0.9089861E-01
        1   -1    0    0  501    0  0.00000000000E+00  0.00000000000E+00  0.15092610103E+04  0.15092610103E+04  0.50400001928E-02 0. -1.
       -1   -1    0    0    0  501  0.00000000000E+00  0.00000000000E+00 -0.24923143891E+03  0.24923143896E+03  0.50400001928E-02 0.  1.
    10030    2    1    2    0    0  0.00000000000E+00  0.00000000000E+00  0.12600295714E+04  0.17584924493E+04  0.12266300067E+04 0.  0.
        1    1    3    3  502    0 -0.28757757218E+03  0.32600260888E+03  0.12502449072E+04  0.13236657014E+04  0.50400001928E-02 0. -1.
       -1    1    3    3    0  502  0.28757757218E+03 -0.32600260888E+03  0.97846642181E+01  0.43482674791E+03  0.50400001928E-02 0.  1.
</event>
<event>
 5   0  0.3650180E-03  0.1207448E+04  0.7818609E-02  0.9106362E-01
       -2   -1    0    0    0  501  0.00000000000E+00  0.00000000000E+00  0.46454482896E+03  0.46454482897E+03  0.25500000920E-02 0. -1.
        2   -1    0    0  501    0  0.00000000000E+00  0.00000000000E+00 -0.78460129984E+03  0.78460129984E+03  0.25500000920E-02 0.  1.
    10030    2    1    2    0    0  0.00000000000E+00  0.00000000000E+00 -0.32005647088E+03  0.12491461288E+04  0.12074476827E+04 0.  0.
        3    1    3    3  502    0  0.59858250695E+03  0.56228825299E+02 -0.10317807240E+03  0.61000690427E+03  0.10100000352E+00 0. -1.
       -3    1    3    3    0  502 -0.59858250695E+03 -0.56228825299E+02 -0.21687839848E+03  0.63913922455E+03  0.10100000352E+00 0.  1.
</event>
<event>
 5   0  0.3725376E-03  0.1165665E+04  0.7818609E-02  0.9143452E-01
       -2   -1    0    0    0  501  0.00000000000E+00  0.00000000000E+00  0.69627209541E+03  0.69627209542E+03  0.25500000920E-02 0.  1.
        2   -1    0    0  501    0  0.00000000000E+00  0.00000000000E+00 -0.48787495901E+03  0.48787495902E+03  0.25500000920E-02 0. -1.
    10030    2    1    2    0    0  0.00000000000E+00  0.00000000000E+00  0.20839713640E+03  0.11841470544E+04  0.11656649948E+04 0.  0.
        4    1    3    3  502    0  0.23369645457E+03 -0.17027376149E+03 -0.40987335771E+03  0.50160240130E+03  0.12699999809E+01 0. -1.
       -4    1    3    3    0  502 -0.23369645457E+03  0.17027376149E+03  0.61827049411E+03  0.68254465313E+03  0.12699999809E+01 0.  1.
</event>
<event>
 5   0  0.3725376E-03  0.1169759E+04  0.7818609E-02  0.9139746E-01
       -2   -1    0    0    0  501  0.00000000000E+00  0.00000000000E+00  0.37516374231E+03  0.37516374232E+03  0.25500000920E-02 0. -1.
        2   -1    0    0  501    0  0.00000000000E+00  0.00000000000E+00 -0.91182532231E+03  0.91182532231E+03  0.25500000920E-02 0.  1.
    10030    2    1    2    0    0  0.00000000000E+00  0.00000000000E+00 -0.53666158000E+03  0.12869890646E+04  0.11697586080E+04 0.  0.
        4    1    3    3  502    0  0.20961952794E+03 -0.29378017220E+03 -0.77471192533E+03  0.85465040585E+03  0.12699999809E+01 0.  1.
       -4    1    3    3    0  502 -0.20961952794E+03  0.29378017220E+03  0.23805034533E+03  0.43233865879E+03  0.12699999809E+01 0. -1.
</event>
<event>
 5   0  0.2078258E-03  0.1200291E+04  0.7818609E-02  0.9112602E-01
       -1   -1    0    0    0  501  0.00000000000E+00  0.00000000000E+00  0.17738047689E+03  0.17738047696E+03  0.50400001928E-02 0. -1.
        1   -1    0    0  501    0  0.00000000000E+00  0.00000000000E+00 -0.20305214337E+04  0.20305214337E+04  0.50400001928E-02 0.  1.
    10030    2    1    2    0    0  0.00000000000E+00  0.00000000000E+00 -0.18531409568E+04  0.22079019107E+04  0.12002913985E+04 0.  0.
        3    1    3    3  502    0 -0.12425596699E+03  0.56152744559E+03 -0.12420933850E+04  0.13687763165E+04  0.10100000352E+00 0. -1.
       -3    1    3    3    0  502  0.12425596699E+03 -0.56152744559E+03 -0.61104757183E+03  0.83912559413E+03  0.10100000352E+00 0.  1.
</event>
<event>
 5   0  0.2078258E-03  0.1219794E+04  0.7818609E-02  0.9095705E-01
       -1   -1    0    0    0  501  0.00000000000E+00  0.00000000000E+00  0.79862767901E+03  0.79862767902E+03  0.50400001928E-02 0.  1.
        1   -1    0    0  501    0  0.00000000000E+00  0.00000000000E+00 -0.46576728257E+03  0.46576728260E+03  0.50400001928E-02 0. -1.
    10030    2    1    2    0    0  0.00000000000E+00  0.00000000000E+00  0.33286039643E+03  0.12643949616E+04  0.12197944808E+04 0.  0.
        3    1    3    3  502    0  0.56027689556E+03 -0.13277431266E+03 -0.42007874848E+02  0.57732476957E+03  0.10100000352E+00 0. -1.
       -3    1    3    3    0  502 -0.56027689556E+03  0.13277431266E+03  0.37486827128E+03  0.68707019206E+03  0.10100000352E+00 0.  1.
</event>
<event>
 5   0  0.2047109E-03  0.1202459E+04  0.7818609E-02  0.9110707E-01
        1   -1    0    0  501    0  0.00000000000E+00  0.00000000000E+00  0.15537797175E+04  0.15537797175E+04  0.50400001928E-02 0.  1.
       -1   -1    0    0    0  501  0.00000000000E+00  0.00000000000E+00 -0.23264343808E+03  0.23264343813E+03  0.50400001928E-02 0. -1.
    10030    2    1    2    0    0  0.00000000000E+00  0.00000000000E+00  0.13211362794E+04  0.17864231556E+04  0.12024585740E+04 0.  0.
        1    1    3    3  502    0 -0.20349003820E+03 -0.45970442502E+03  0.11504704443E+04  0.12555152716E+04  0.50400001928E-02 0.  1.
       -1    1    3    3    0  502  0.20349003820E+03  0.45970442502E+03  0.17066583514E+03  0.53090788404E+03  0.50400001928E-02 0. -1.
</event>
<event>
 5   0  0.2096270E-03  0.1208745E+04  0.7818609E-02  0.9105237E-01
        1   -1    0    0  501    0  0.00000000000E+00  0.00000000000E+00  0.14198100880E+04  0.14198100880E+04  0.50400001928E-02 0. -1.
       -1   -1    0    0    0  501  0.00000000000E+00  0.00000000000E+00 -0.25726389917E+03  0.25726389922E+03  0.50400001928E-02 0.  1.
    10030    2    1    2    0    0  0.00000000000E+00  0.00000000000E+00  0.11625461888E+04  0.16770739872E+04  0.12087446039E+04 0.  0.
        2    1    3    3  502    0 -0.14856447540E+03  0.45081801854E+03  0.62215078338E+02  0.47872644085E+03  0.25500000920E-02 0.  1.
       -2    1    3    3    0  502  0.14856447540E+03 -0.45081801854E+03  0.11003311105E+04  0.11983475464E+04  0.25500000920E-02 0. -1.
</event>
<event>
 5   0  0.3650180E-03  0.1200101E+04  0.7818609E-02  0.9112768E-01
       -2   -1    0    0    0  501  0.00000000000E+00  0.00000000000E+00  0.18035977418E+03  0.18035977420E+03  0.25500000920E-02 0. -1.
        2   -1    0    0  501    0  0.00000000000E+00  0.00000000000E+00 -0.19963477569E+04  0.19963477569E+04  0.25500000920E-02 0.  1.
    10030    2    1    2    0    0  0.00000000000E+00  0.00000000000E+00 -0.18159879827E+04  0.21767075311E+04  0.12001013801E+04 0.  0.
        3    1    3    3  502    0 -0.25347564794E+03  0.54365950452E+03 -0.93639900806E+03  0.11120515606E+04  0.10100000352E+00 0.  1.
       -3    1    3    3    0  502  0.25347564794E+03 -0.54365950452E+03 -0.87958897467E+03  0.10646559705E+04  0.10100000352E+00 0. -1.
</event>
<event>
 5   0  0.3650180E-03  0.1188752E+04  0.7818609E-02  0.9122759E-01
        2   -1    0    0  501    0  0.00000000000E+00  0.00000000000E+00  0.98127345405E+03  0.98127345405E+03  0.25500000920E-02 0. -1.
       -2   -1    0    0    0  501  0.00000000000E+00  0.00000000000E+00 -0.36002493375E+03  0.36002493376E+03  0.25500000920E-02 0.  1.
    10030    2    1    2    0    0  0.00000000000E+00  0.00000000000E+00  0.62124852030E+03  0.13412983878E+04  0.11887521361E+04 0.  0.
        3    1    3    3  502    0 -0.30736941586E+03 -0.47398432208E+03  0.10212584013E+03  0.57407908236E+03  0.10100000352E+00 0. -1.
       -3    1    3    3    0  502  0.30736941586E+03  0.47398432208E+03  0.51912268017E+03  0.76721930545E+03  0.10100000352E+00 0.  1.
</event>
<event>
 5   0  0.2078258E-03  0.1122630E+04  0.7818609E-02  0.9183411E-01
        1   -1    0    0  501    0  0.00000000000E+00  0.00000000000E+00  0.33866388481E+03  0.33866388484E+03  0.50400001928E-02 0. -1.
       -1   -1    0    0    0  501  0.00000000000E+00  0.00000000000E+00 -0.93034639576E+03  0.93034639578E+03  0.50400001928E-02 0.  1.
    10030    2    1    2    0    0  0.00000000000E+00  0.00000000000E+00 -0.59168251095E+03  0.12690102806E+04  0.11226303481E+04 0.  0.
        3    1    3    3  502    0  0.10246435066E+02 -0.37576519778E+03  0.17537044314E+03  0.41480028426E+03  0.10100000352E+00 0. -1.
       -3    1    3    3    0  502 -0.10246435066E+02  0.37576519778E+03 -0.76705295410E+03  0.85420999636E+03  0.10100000352E+00 0.  1.
</event>
<event>
 5   0  0.3706035E-03  0.1202939E+04  0.7818609E-02  0.9110288E-01
        2   -1    0    0  501    0  0.00000000000E+00  0.00000000000E+00  0.22820994644E+04  0.22820994644E+04  0.25500000920E-02 0. -1.
       -2   -1    0    0    0  501  0.00000000000E+00  0.00000000000E+00 -0.15852324602E+03  0.15852324604E+03  0.25500000920E-02 0.  1.
    10030    2    1    2    0    0  0.00000000000E+00  0.00000000000E+00  0.21235762184E+04  0.24406227105E+04  0.12029394247E+04 0.  0.
        2    1    3    3  502    0 -0.22532110727E+03  0.32259913664E+03  0.13886731317E+03  0.41728160158E+03  0.25500000920E-02 0.  1.
       -2    1    3    3    0  502  0.22532110727E+03 -0.32259913664E+03  0.19847089052E+04  0.20233411089E+04  0.25500000920E-02 0. -1.
</event>
<event>
 5   0  0.3626049E-03  0.1196604E+04  0.7818609E-02  0.9115834E-01
        2   -1    0    0  501    0  0.00000000000E+00  0.00000000000E+00  0.47917564085E+03  0.47917564086E+03  0.25500000920E-02 0.  1.
       -2   -1    0    0    0  501  0.00000000000E+00  0.00000000000E+00 -0.74704388174E+03  0.74704388175E+03  0.25500000920E-02 0. -1.
    10030    2    1    2    0    0  0.00000000000E+00  0.00000000000E+00 -0.26786824089E+03  0.12262195226E+04  0.11966039124E+04 0.  0.
        1    1    3    3  502    0 -0.46183980230E+03 -0.26624424360E+03  0.14441935040E+03  0.55230331253E+03  0.50400001928E-02 0.  1.
       -1    1    3    3    0  502  0.46183980230E+03  0.26624424360E+03 -0.41228759130E+03  0.67391621007E+03  0.50400001928E-02 0. -1.
</event>
<event>
 5   0  0.3725376E-03  0.1199057E+04  0.7818609E-02  0.9113683E-01
        2   -1    0    0  501    0  0.00000000000E+00  0.00000000000E+00  0.10003291805E+04  0.10003291805E+04  0.25500000920E-02 0.  1.
       -2   -1    0    0    0  501  0.00000000000E+00  0.00000000000E+00 -0.35931585214E+03  0.35931585215E+03  0.25500000920E-02 0. -1.
    10030    2    1    2    0    0  0.00000000000E+00  0.00000000000E+00  0.64101332833E+03  0.13596450326E+04  0.11990565156E+04 0.  0.
        4    1    3    3  502    0 -0.48545079237E+03  0.10713252348E+02 -0.78235542586E+02  0.49183295803E+03  0.12699999809E+01 0. -1.
       -4    1    3    3    0  502  0.48545079237E+03 -0.10713252348E+02  0.71924887091E+03  0.86781207458E+03  0.12699999809E+01 0.  1.
</event>
<event>
 5   0  0.2025294E-03  0.1218772E+04  0.7818609E-02  0.9096583E-01
        1   -1    0    0  501    0  0.00000000000E+00  0.00000000000E+00  0.52605720089E+03  0.52605720091E+03  0.50400001928E-02 0. -1.
       -1   -1    0    0    0  501  0.00000000000E+00  0.00000000000E+00 -0.70591380099E+03  0.70591380101E+03  0.50400001928E-02 0.  1.
    10030    2    1    2    0    0  0.00000000000E+00  0.00000000000E+00 -0.17985660010E+03  0.12319710019E+04  0.12187715754E+04 0.  0.
        5    1    3    3  502    0  0.43578460366E+03  0.38372648669E+03 -0.27679443078E+03  0.64326626235E+03  0.46999998093E+01 0.  1.
       -5    1    3    3    0  502 -0.43578460366E+03 -0.38372648669E+03  0.96937830677E+02  0.58870473957E+03  0.46999998093E+01 0. -1.
</event>
<event>
 5   0  0.3626049E-03  0.1264872E+04  0.7818609E-02  0.9057895E-01
        2   -1    0    0  501    0  0.00000000000E+00  0.00000000000E+00  0.12431704527E+04  0.12431704527E+04  0.25500000920E-02 0. -1.
       -2   -1    0    0    0  501  0.00000000000E+00  0.00000000000E+00 -0.32173829387E+03  0.32173829388E+03  0.25500000920E-02 0.  1.
    10030    2    1    2    0    0  0.00000000000E+00  0.00000000000E+00  0.92143215883E+03  0.15649087466E+04  0.12648723895E+04 0.  0.
        1    1    3    3  502    0 -0.52909913106E+03  0.34635701018E+03  0.45062913044E+03  0.77651508820E+03  0.50400001928E-02 0.  1.
       -1    1    3    3    0  502  0.52909913106E+03 -0.34635701018E+03  0.47080302840E+03  0.78839365837E+03  0.50400001928E-02 0. -1.
</event>
<event>
 5   0  0.3650180E-03  0.1141669E+04  0.7818609E-02  0.9165504E-01
        2   -1    0    0  501    0  0.00000000000E+00  0.00000000000E+00  0.45309413733E+03  0.45309413734E+03  0.25500000920E-02 0. -1.
       -2   -1    0    0    0  501  0.00000000000E+00  0.00000000000E+00 -0.71917112110E+03  0.71917112110E+03  0.25500000920E-02 0.  1.
    10030    2    1    2    0    0  0.00000000000E+00  0.00000000000E+00 -0.26607698377E+03  0.11722652584E+04  0.11416693369E+04 0.  0.
        3    1    3    3  502    0 -0.98517108313E+02 -0.42405184345E+03  0.24608080839E+03  0.50008135441E+03  0.10100000352E+00 0. -1.
       -3    1    3    3    0  502  0.98517108313E+02  0.42405184345E+03 -0.51215779216E+03  0.67218390403E+03  0.10100000352E+00 0.  1.
</event>
<event>
 5   0  0.2134992E-03  0.1201340E+04  0.7818609E-02  0.9111684E-01
       -1   -1    0    0    0  501  0.00000000000E+00  0.00000000000E+00  0.43830042542E+03  0.43830042545E+03  0.50400001928E-02 0.  1.
        1   -1    0    0  501    0  0.00000000000E+00  0.00000000000E+00 -0.82319015100E+03  0.82319015102E+03  0.50400001928E-02 0. -1.
    10030    2    1    2    0    0  0.00000000000E+00  0.00000000000E+00 -0.38488972559E+03  0.12614905765E+04  0.12013402406E+04 0.  0.
        4    1    3    3  502    0  0.59471586431E+03  0.77584831042E+02 -0.15767162545E+03  0.62013572679E+03  0.12699999809E+01 0.  1.
       -4    1    3    3    0  502 -0.59471586431E+03 -0.77584831042E+02 -0.22721810013E+03  0.64135484967E+03  0.12699999809E+01 0. -1.
</event>
<event>
 5   0  0.3751091E-03  0.1173996E+04  0.7818609E-02  0.9135927E-01
        2   -1    0    0  501    0  0.00000000000E+00  0.00000000000E+00  0.11919075978E+04  0.11919075978E+04  0.25500000920E-02 0.  1.
       -2   -1    0    0    0  501  0.00000000000E+00  0.00000000000E+00 -0.28908855049E+03  0.28908855050E+03  0.25500000920E-02 0. -1.
    10030    2    1    2    0    0  0.00000000000E+00  0.00000000000E+00  0.90281904727E+03  0.14809961483E+04  0.11739963199E+04 0.  0.
        5    1    3    3  502    0 -0.18252949712E+03 -0.42304053319E+03  0.91019402884E+03  0.10201742842E+04  0.46999998093E+01 0.  1.
       -5    1    3    3    0  502  0.18252949712E+03  0.42304053319E+03 -0.73749815686E+01  0.46082186405E+03  0.46999998093E+01 0. -1.
</event>
<event>
 5   0  0.3706035E-03  0.1209630E+04  0.7818609E-02  0.9104469E-01
        2   -1    0    0  501    0  0.00000000000E+00  0.00000000000E+00  0.11939577366E+04  0.11939577366E+04  0.25500000920E-02 0. -1.
       -2   -1    0    0    0  501  0.00000000000E+00  0.00000000000E+00 -0.30637693734E+03  0.30637693735E+03  0.25500000920E-02 0.  1.
    10030    2    1    2    0    0  0.00000000000E+00  0.00000000000E+00  0.88758079928E+03  0.15003346740E+04  0.12096298850E+04 0.  0.
        2    1    3    3  502    0  0.28680851274E+03  0.11341334415E+03  0.10890927471E+04  0.11319208106E+04  0.25500000920E-02 0. -1.
       -2    1    3    3    0  502 -0.28680851274E+03 -0.11341334415E+03 -0.20151194783E+03  0.36841386339E+03  0.25500000920E-02 0.  1.
</event>
<event>
 5   0  0.3706035E-03  0.1176102E+04  0.7818609E-02  0.9134036E-01
        2   -1    0    0  501    0  0.00000000000E+00  0.00000000000E+00  0.50065683356E+03  0.50065683357E+03  0.25500000920E-02 0.  1.
       -2   -1    0    0    0  501  0.00000000000E+00  0.00000000000E+00 -0.69070049718E+03  0.69070049719E+03  0.25500000920E-02 0. -1.
    10030    2    1    2    0    0  0.00000000000E+00  0.00000000000E+00 -0.19004366362E+03  0.11913573308E+04  0.11761019069E+04 0.  0.
        2    1    3    3  502    0 -0.24074174711E+03  0.14580636549E+03  0.42799691328E+03  0.51224744294E+03  0.25500000920E-02 0.  1.
       -2    1    3    3    0  502  0.24074174711E+03 -0.14580636549E+03 -0.61804057690E+03  0.67910988781E+03  0.25500000920E-02 0. -1.
</event>
<event>
 5   0  0.2078258E-03  0.1194555E+04  0.7818609E-02  0.9117636E-01
        1   -1    0    0  501    0  0.00000000000E+00  0.00000000000E+00  0.48836865076E+03  0.48836865079E+03  0.50400001928E-02 0.  1.
       -1   -1    0    0    0  501  0.00000000000E+00  0.00000000000E+00 -0.73047417680E+03  0.73047417681E+03  0.50400001928E-02 0. -1.
    10030    2    1    2    0    0  0.00000000000E+00  0.00000000000E+00 -0.24210552603E+03  0.12188428276E+04  0.11945554624E+04 0.  0.
        3    1    3    3  502    0  0.33340351804E+03  0.32075596691E+02  0.38352569947E+03  0.50919418899E+03  0.10100000352E+00 0.  1.
       -3    1    3    3    0  502 -0.33340351804E+03 -0.32075596691E+02 -0.62563122551E+03  0.70964863861E+03  0.10100000352E+00 0. -1.
</event>
<event>
 5   0  0.2096270E-03  0.1184743E+04  0.7818609E-02  0.9126316E-01
        1   -1    0    0  501    0  0.00000000000E+00  0.00000000000E+00  0.11301817823E+04  0.11301817823E+04  0.50400001928E-02 0.  1.
       -1   -1    0    0    0  501  0.00000000000E+00  0.00000000000E+00 -0.31048481010E+03  0.31048481014E+03  0.50400001928E-02 0. -1.
    10030    2    1    2    0    0  0.00000000000E+00  0.00000000000E+00  0.81969697222E+03  0.14406665925E+04  0.11847434762E+04 0.  0.
        2    1    3    3  502    0 -0.34002929560E+03  0.13189841697E+03  0.97746494560E+03  0.10432903882E+04  0.25500000920E-02 0.  1.
       -2    1    3    3    0  502  0.34002929560E+03 -0.13189841697E+03 -0.15776797338E+03  0.39737620424E+03  0.25500000920E-02 0. -1.
</event>
<event>
 5   0  0.3626049E-03  0.1210452E+04  0.7818609E-02  0.9103757E-01
       -2   -1    0    0    0  501  0.00000000000E+00  0.00000000000E+00  0.26923652625E+03  0.26923652626E+03  0.25500000920E-02 0. -1.
        2   -1    0    0  501    0  0.00000000000E+00  0.00000000000E+00 -0.13605076214E+04  0.13605076214E+04  0.25500000920E-02 0.  1.
    10030    2    1    2    0    0  0.00000000000E+00  0.00000000000E+00 -0.10912710952E+04  0.16297441477E+04  0.12104517271E+04 0.  0.
        1    1    3    3  502    0 -0.20331771496E+03  0.48710752719E+03 -0.94432830594E+03  0.10818353783E+04  0.50400001928E-02 0. -1.
       -1    1    3    3    0  502  0.20331771496E+03 -0.48710752719E+03 -0.14694278922E+03  0.54790876940E+03  0.50400001928E-02 0.  1.
</event>
<event>
 5   0  0.1397500E-03  0.1204704E+04  0.7818609E-02  0.9108749E-01
       -4   -1    0    0    0  501  0.00000000000E+00  0.00000000000E+00  0.31650310583E+03  0.31650565382E+03  0.12699999809E+01 0.  1.
        4   -1    0    0  501    0  0.00000000000E+00  0.00000000000E+00 -0.11463572755E+04  0.11463579789E+04  0.12699999809E+01 0. -1.
    10030    2    1    2    0    0  0.00000000000E+00  0.00000000000E+00 -0.82985416963E+03  0.14628636328E+04  0.12047041401E+04 0.  0.
        5    1    3    3  502    0  0.43538813875E+03 -0.28824475007E+03 -0.77953468494E+03  0.93826663712E+03  0.46999998093E+01 0. -1.
       -5    1    3    3    0  502 -0.43538813875E+03  0.28824475007E+03 -0.50319484682E+02  0.52459699565E+03  0.46999998093E+01 0.  1.
</event>
<event>
 5   0  0.2025294E-03  0.1125893E+04  0.7818609E-02  0.9180316E-01
        1   -1    0    0  501    0  0.00000000000E+00  0.00000000000E+00  0.12523833132E+04  0.12523833132E+04  0.50400001928E-02 0.  1.
       -1   -1    0    0    0  501  0.00000000000E+00  0.00000000000E+00 -0.25304434009E+03  0.25304434014E+03  0.50400001928E-02 0. -1.
    10030    2    1    2    0    0  0.00000000000E+00  0.00000000000E+00  0.99933897310E+03  0.15054276533E+04  0.11258925510E+04 0.  0.
        5    1    3    3  502    0 -0.36969733408E+03  0.30151373565E+03  0.10010387152E+03  0.48747259072E+03  0.46999998093E+01 0. -1.
       -5    1    3    3    0  502  0.36969733408E+03 -0.30151373565E+03  0.89923510158E+03  0.10179550626E+04  0.46999998093E+01 0.  1.
</event>
<event>
 5   0  0.3751091E-03  0.1190886E+04  0.7818609E-02  0.9120872E-01
       -2   -1    0    0    0  501  0.00000000000E+00  0.00000000000E+00  0.21409498016E+03  0.21409498018E+03  0.25500000920E-02 0.  1.
        2   -1    0    0  501    0  0.00000000000E+00  0.00000000000E+00 -0.16560503874E+04  0.16560503874E+04  0.25500000920E-02 0. -1.
    10030    2    1    2    0    0  0.00000000000E+00  0.00000000000E+00 -0.14419554072E+04  0.18701453675E+04  0.11908855106E+04 0.  0.
        5    1    3    3  502    0  0.23271485806E+03 -0.52087532516E+03 -0.45326242970E+03  0.72865371042E+03  0.46999998093E+01 0.  1.
       -5    1    3    3    0  502 -0.23271485806E+03  0.52087532516E+03 -0.98869297750E+03  0.11414916571E+04  0.46999998093E+01 0. -1.
</event>
<event>
 5   0  0.2096270E-03  0.1205082E+04  0.7818609E-02  0.9108420E-01
       -1   -1    0    0    0  501  0.00000000000E+00  0.00000000000E+00  0.25590167079E+03  0.25590167084E+03  0.50400001928E-02 0. -1.
        1   -1    0    0  501    0  0.00000000000E+00  0.00000000000E+00 -0.14187299305E+04  0.14187299305E+04  0.50400001928E-02 0.  1.
    10030    2    1    2    0    0  0.00000000000E+00  0.00000000000E+00 -0.11628282597E+04  0.16746316014E+04  0.12050815071E+04 0.  0.
        2    1    3    3  502    0 -0.40473421971E+03  0.94097339174E+02 -0.11877682969E+04  0.12583551268E+04  0.25500000920E-02 0.  1.
       -2    1    3    3    0  502  0.40473421971E+03 -0.94097339174E+02  0.24940037215E+02  0.41627647460E+03  0.25500000920E-02 0. -1.
</event>
<event>
 5   0  0.2078258E-03  0.1186528E+04  0.7818609E-02  0.9124731E-01
       -1   -1    0    0    0  501  0.00000000000E+00  0.00000000000E+00  0.45875175686E+03  0.45875175689E+03  0.50400001928E-02 0.  1.
        1   -1    0    0  501    0  0.00000000000E+00  0.00000000000E+00 -0.76721731189E+03  0.76721731190E+03  0.50400001928E-02 0. -1.
    10030    2    1    2    0    0  0.00000000000E+00  0.00000000000E+00 -0.30846555503E+03  0.12259690688E+04  0.11865281956E+04 0.  0.
        3    1    3    3  502    0  0.10256791331E+03 -0.51621698382E+03  0.12866035485E+03  0.54180591390E+03  0.10100000352E+00 0.  1.
       -3    1    3    3    0  502 -0.10256791331E+03  0.51621698382E+03 -0.43712590988E+03  0.68416315489E+03  0.10100000352E+00 0. -1.
</event>
<event>
 5   0  0.2025294E-03  0.1218990E+04  0.7818609E-02  0.9096395E-01
        1   -1    0    0  501    0  0.00000000000E+00  0.00000000000E+00  0.41523976309E+03  0.41523976312E+03  0.50400001928E-02 0. -1.
       -1   -1    0    0    0  501  0.00000000000E+00  0.00000000000E+00 -0.89462614603E+03  0.89462614604E+03  0.50400001928E-02 0.  1.
    10030    2    1    2    0    0  0.00000000000E+00  0.00000000000E+00 -0.47938638294E+03  0.13098659092E+04  0.12189903182E+04 0.  0.
        5    1    3    3  502    0 -0.35887647481E+03  0.49248133715E+03 -0.22734440400E+03  0.65041352971E+03  0.46999998093E+01 0.  1.
       -5    1    3    3    0  502  0.35887647481E+03 -0.49248133715E+03 -0.25204197894E+03  0.65945237944E+03  0.46999998093E+01 0. -1.
</event>
<event>
 5   0  0.3706035E-03  0.1091800E+04  0.7818609E-02  0.9213221E-01
       -2   -1    0    0    0  501  0.00000000000E+00  0.00000000000E+00  0.84672007818E+03  0.84672007818E+03  0.25500000920E-02 0.  1.
        2   -1    0    0  501    0  0.00000000000E+00  0.00000000000E+00 -0.35195445910E+03  0.35195445911E+03  0.25500000920E-02 0. -1.
    10030    2    1    2    0    0  0.00000000000E+00  0.00000000000E+00  0.49476561908E+03  0.11986745373E+04  0.10918001779E+04 0.  0.
        2    1    3    3  502    0  0.82544370155E+02  0.20883183122E+03 -0.29890081120E+03  0.37385291455E+03  0.25500000920E-02 0. -1.
       -2    1    3    3    0  502 -0.82544370155E+02 -0.20883183122E+03  0.79366643028E+03  0.82482162274E+03  0.25500000920E-02 0.  1.
</event>
<event>
 5   0  0.3650180E-03  0.1197453E+04  0.7818609E-02  0.9115089E-01
       -2   -1    0    0    0  501  0.00000000000E+00  0.00000000000E+00  0.64178662601E+03  0.64178662601E+03  0.25500000920E-02 0. -1.
        2   -1    0    0  501    0  0.00000000000E+00  0.00000000000E+00 -0.55855541488E+03  0.55855541489E+03  0.25500000920E-02 0.  1.
    10030    2    1    2    0    0  0.00000000000E+00  0.00000000000E+00  0.83231211126E+02  0.12003420409E+04  0.11974529555E+04 0.  0.
        3    1    3    3  502    0 -0.34219750457E+02 -0.59537056730E+03  0.95000845996E+02  0.60387273052E+03  0.10100000352E+00 0. -1.
       -3    1    3    3    0  502  0.34219750457E+02  0.59537056730E+03 -0.11769634869E+02  0.59646931038E+03  0.10100000352E+00 0.  1.
</event>
<event>
 5   0  0.2078258E-03  0.1227799E+04  0.7818609E-02  0.9088866E-01
        1   -1    0    0  501    0  0.00000000000E+00  0.00000000000E+00  0.10699374441E+04  0.10699374441E+04  0.50400001928E-02 0. -1.
       -1   -1    0    0    0  501  0.00000000000E+00  0.00000000000E+00 -0.35223798753E+03  0.35223798757E+03  0.50400001928E-02 0.  1.
    10030    2    1    2    0    0  0.00000000000E+00  0.00000000000E+00  0.71769945655E+03  0.14221754317E+04  0.12277990261E+04 0.  0.
        3    1    3    3  502    0 -0.44289159075E+03 -0.26451197720E+03  0.74433140910E+03  0.90562067336E+03  0.10100000352E+00 0. -1.
       -3    1    3    3    0  502  0.44289159075E+03  0.26451197720E+03 -0.26631952544E+02  0.51655475831E+03  0.10100000352E+00 0.  1.
</event>
<event>
 5   0  0.3626049E-03  0.1197883E+04  0.7818609E-02  0.9114711E-01
       -2   -1    0    0    0  501  0.00000000000E+00  0.00000000000E+00  0.51739604331E+03  0.51739604331E+03  0.25500000920E-02 0.  1.
        2   -1    0    0  501    0  0.00000000000E+00  0.00000000000E+00 -0.69333941030E+03  0.69333941031E+03  0.25500000920E-02 0. -1.
    10030    2    1    2    0    0  0.00000000000E+00  0.00000000000E+00 -0.17594336700E+03  0.12107354536E+04  0.11978832457E+04 0.  0.
        1    1    3    3  502    0 -0.26828578267E+03 -0.52141266633E+03 -0.21127499055E+03  0.62328609117E+03  0.50400001928E-02 0. -1.
       -1    1    3    3    0  502  0.26828578267E+03  0.52141266633E+03  0.35331623553E+02  0.58744936245E+03  0.50400001928E-02 0.  1.
</event>
<event>
 5   0  0.3626049E-03  0.1198285E+04  0.7818609E-02  0.9114359E-01
       -2   -1    0    0    0  501  0.00000000000E+00  0.00000000000E+00  0.61512664190E+03  0.61512664190E+03  0.25500000920E-02 0. -1.
        2   -1    0    0  501    0  0.00000000000E+00  0.00000000000E+00 -0.58357399516E+03  0.58357399516E+03  0.25500000920E-02 0.  1.
    10030    2    1    2    0    0  0.00000000000E+00  0.00000000000E+00  0.31552646739E+02  0.11987006371E+04  0.11982852948E+04 0.  0.
        1    1    3    3  502    0 -0.24786709073E+03 -0.96516101443E-01  0.56143198617E+03  0.61371327108E+03  0.50400001928E-02 0. -1.
       -1    1    3    3    0  502  0.24786709073E+03  0.96516101443E-01 -0.52987933943E+03  0.58498736598E+03  0.50400001928E-02 0.  1.
</event>
<event>
 5   0  0.3751091E-03  0.1226498E+04  0.7818609E-02  0.9089974E-01
        2   -1    0    0  501    0  0.00000000000E+00  0.00000000000E+00  0.74046223873E+03  0.74046223874E+03  0.25500000920E-02 0.  1.
       -2   -1    0    0    0  501  0.00000000000E+00  0.00000000000E+00 -0.50789093839E+03  0.50789093840E+03  0.25500000920E-02 0. -1.
    10030    2    1    2    0    0  0.00000000000E+00  0.00000000000E+00  0.23257130034E+03  0.12483531771E+04  0.12264975520E+04 0.  0.
        5    1    3    3  502    0  0.49147309865E+03 -0.36607467506E+03  0.13894206766E+03  0.62839753547E+03  0.46999998093E+01 0. -1.
       -5    1    3    3    0  502 -0.49147309865E+03  0.36607467506E+03  0.93629232680E+02  0.61995564166E+03  0.46999998093E+01 0.  1.
</event>
<event>
 5   0  0.3650180E-03  0.1246626E+04  0.7818609E-02  0.9072996E-01
        2   -1    0    0  501    0  0.00000000000E+00  0.00000000000E+00  0.83153174038E+03  0.83153174039E+03  0.25500000920E-02 0. -1.
       -2   -1    0    0    0  501  0.00000000000E+00  0.00000000000E+00 -0.46723321619E+03  0.46723321620E+03  0.25500000920E-02 0.  1.
    10030    2    1    2    0    0  0.00000000000E+00  0.00000000000E+00  0.36429852420E+03  0.12987649566E+04  0.12466262462E+04 0.  0.
        3    1    3    3  502    0 -0.79686267382E+02  0.19598330954E+03 -0.42868289250E+03  0.47804643221E+03  0.10100000352E+00 0.  1.
       -3    1    3    3    0  502  0.79686267382E+02 -0.19598330954E+03  0.79298141669E+03  0.82071852437E+03  0.10100000352E+00 0. -1.
</event>
<event>
 5   0  0.2047109E-03  0.1120226E+04  0.7818609E-02  0.9185699E-01
       -1   -1    0    0    0  501  0.00000000000E+00  0.00000000000E+00  0.10563305009E+04  0.10563305009E+04  0.50400001928E-02 0. -1.
        1   -1    0    0  501    0  0.00000000000E+00  0.00000000000E+00 -0.29699684096E+03  0.29699684100E+03  0.50400001928E-02 0.  1.
    10030    2    1    2    0    0  0.00000000000E+00  0.00000000000E+00  0.75933365994E+03  0.13533273419E+04  0.11202264446E+04 0.  0.
        1    1    3    3  502    0  0.53525201572E+03 -0.35983200454E+02  0.18510416417E+03  0.56749719177E+03  0.50400001928E-02 0.  1.
       -1    1    3    3    0  502 -0.53525201572E+03  0.35983200454E+02  0.57422949578E+03  0.78583015015E+03  0.50400001928E-02 0. -1.
</event>
<event>
 5   0  0.2047109E-03  0.1185887E+04  0.7818609E-02  0.9125300E-01
        1   -1    0    0  501    0  0.00000000000E+00  0.00000000000E+00  0.17522412686E+04  0.17522412686E+04  0.50400001928E-02 0. -1.
       -1   -1    0    0    0  501  0.00000000000E+00  0.00000000000E+00 -0.20064701803E+03  0.20064701810E+03  0.50400001928E-02 0.  1.
    10030    2    1    2    0    0  0.00000000000E+00  0.00000000000E+00  0.15515942505E+04  0.19528882867E+04  0.11858869853E+04 0.  0.
        1    1    3    3  502    0 -0.23744424706E+03  0.42179716770E+03  0.13397767496E+04  0.14245330323E+04  0.50400001928E-02 0. -1.
       -1    1    3    3    0  502  0.23744424706E+03 -0.42179716770E+03  0.21181750090E+03  0.52835525441E+03  0.50400001928E-02 0.  1.
</event>
<event>
 5   0  0.2047109E-03  0.1190395E+04  0.7818609E-02  0.9121305E-01
        1   -1    0    0  501    0  0.00000000000E+00  0.00000000000E+00  0.82181088460E+03  0.82181088461E+03  0.50400001928E-02 0.  1.
       -1   -1    0    0    0  501  0.00000000000E+00  0.00000000000E+00 -0.43107270655E+03  0.43107270658E+03  0.50400001928E-02 0. -1.
    10030    2    1    2    0    0  0.00000000000E+00  0.00000000000E+00  0.39073817805E+03  0.12528835912E+04  0.11903952996E+04 0.  0.
        1    1    3    3  502    0  0.44053497548E+03 -0.38099518392E+03  0.32440948848E+03  0.66668576633E+03  0.50400001928E-02 0. -1.
       -1    1    3    3    0  502 -0.44053497548E+03  0.38099518392E+03  0.66328689569E+02  0.58619782486E+03  0.50400001928E-02 0.  1.
</event>
<event>
 5   0  0.3751091E-03  0.1204847E+04  0.7818609E-02  0.9108625E-01
        2   -1    0    0  501    0  0.00000000000E+00  0.00000000000E+00  0.10980274609E+04  0.10980274609E+04  0.25500000920E-02 0.  1.
       -2   -1    0    0    0  501  0.00000000000E+00  0.00000000000E+00 -0.33051449442E+03  0.33051449443E+03  0.25500000920E-02 0. -1.
    10030    2    1    2    0    0  0.00000000000E+00  0.00000000000E+00  0.76751296649E+03  0.14285419553E+04  0.12048468635E+04 0.  0.
        5    1    3    3  502    0 -0.49424480690E+03  0.30603586020E+03  0.19645170876E+03  0.61363771131E+03  0.46999998093E+01 0. -1.
       -5    1    3    3    0  502  0.49424480690E+03 -0.30603586020E+03  0.57106125773E+03  0.81490424403E+03  0.46999998093E+01 0.  1.
</event>
<event>
 5   0  0.3626049E-03  0.1193853E+04  0.7818609E-02  0.9118254E-01
        2   -1    0    0  501    0  0.00000000000E+00  0.00000000000E+00  0.14624832896E+04  0.14624832896E+04  0.25500000920E-02 0.  1.
       -2   -1    0    0    0  501  0.00000000000E+00  0.00000000000E+00 -0.24364118280E+03  0.24364118282E+03  0.25500000920E-02 0. -1.
    10030    2    1    2    0    0  0.00000000000E+00  0.00000000000E+00  0.12188421068E+04  0.17061244724E+04  0.11938528528E+04 0.  0.
        1    1    3    3  502    0  0.51989161476E+02  0.21103861340E+03  0.14039249979E+04  0.14206496996E+04  0.50400001928E-02 0.  1.
       -1    1    3    3    0  502 -0.51989161476E+02 -0.21103861340E+03 -0.18508289116E+03  0.28547477275E+03  0.50400001928E-02 0. -1.
</event>
<event>
 5   0  0.2025294E-03  0.1177690E+04  0.7818609E-02  0.9132612E-01
       -1   -1    0    0    0  501  0.00000000000E+00  0.00000000000E+00  0.54148872969E+03  0.54148872971E+03  0.50400001928E-02 0.  1.
        1   -1    0    0  501    0  0.00000000000E+00  0.00000000000E+00 -0.64034230914E+03  0.64034230916E+03  0.50400001928E-02 0. -1.
    10030    2    1    2    0    0  0.00000000000E+00  0.00000000000E+00 -0.98853579445E+02  0.11818310389E+04  0.11776895067E+04 0.  0.
        5    1    3    3  502    0 -0.54363471213E+03 -0.22620188083E+03 -0.46243498252E+02  0.59064925484E+03  0.46999998093E+01 0.  1.
       -5    1    3    3    0  502  0.54363471213E+03  0.22620188083E+03 -0.52610081194E+02  0.59118178402E+03  0.46999998093E+01 0. -1.
</event>
<event>
 5   0  0.2078258E-03  0.1175111E+04  0.7818609E-02  0.9134925E-01
        1   -1    0    0  501    0  0.00000000000E+00  0.00000000000E+00  0.56314403277E+03  0.56314403280E+03  0.50400001928E-02 0. -1.
       -1   -1    0    0    0  501  0.00000000000E+00  0.00000000000E+00 -0.61302486402E+03  0.61302486404E+03  0.50400001928E-02 0.  1.
    10030    2    1    2    0    0  0.00000000000E+00  0.00000000000E+00 -0.49880831244E+02  0.11761688968E+04  0.11751107082E+04 0.  0.
        3    1    3    3  502    0 -0.35205980237E+03 -0.18506996071E+03 -0.45779289856E+03  0.60644154127E+03  0.10100000352E+00 0.  1.
       -3    1    3    3    0  502  0.35205980237E+03  0.18506996071E+03  0.40791206732E+03  0.56972735556E+03  0.10100000352E+00 0. -1.
</event>
<event>
 5   0  0.3626049E-03  0.1205141E+04  0.7818609E-02  0.9108368E-01
       -2   -1    0    0    0  501  0.00000000000E+00  0.00000000000E+00  0.47716132123E+03  0.47716132124E+03  0.25500000920E-02 0. -1.
        2   -1    0    0  501    0  0.00000000000E+00  0.00000000000E+00 -0.76094057714E+03  0.76094057714E+03  0.25500000920E-02 0.  1.
    10030    2    1    2    0    0  0.00000000000E+00  0.00000000000E+00 -0.28377925590E+03  0.12381018984E+04  0.12051413381E+04 0.  0.
        1    1    3    3  502    0  0.53792359509E+03  0.23010941869E+03 -0.28998230173E+03  0.65299454368E+03  0.50400001928E-02 0.  1.
       -1    1    3    3    0  502 -0.53792359509E+03 -0.23010941869E+03  0.62030458225E+01  0.58510735471E+03  0.50400001928E-02 0. -1.
</event>
<event>
 5   0  0.2047109E-03  0.1184782E+04  0.7818609E-02  0.9126282E-01
       -1   -1    0    0    0  501  0.00000000000E+00  0.00000000000E+00  0.54988980456E+03  0.54988980458E+03  0.50400001928E-02 0. -1.
        1   -1    0    0  501    0  0.00000000000E+00  0.00000000000E+00 -0.63817722920E+03  0.63817722922E+03  0.50400001928E-02 0.  1.
    10030    2    1    2    0    0  0.00000000000E+00  0.00000000000E+00 -0.88287424643E+02  0.11880670338E+04  0.11847820928E+04 0.  0.
        1    1    3    3  502    0  0.22235858855E+03  0.28766999463E+03 -0.51312598406E+03  0.62888444349E+03  0.50400001928E-02 0.  1.
       -1    1    3    3    0  502 -0.22235858855E+03 -0.28766999463E+03  0.42483855942E+03  0.55918259031E+03  0.50400001928E-02 0. -1.
</event>
<event>
 5   0  0.2096270E-03  0.1206086E+04  0.7818609E-02  0.9107546E-01
       -1   -1    0    0    0  501  0.00000000000E+00  0.00000000000E+00  0.16724873704E+03  0.16724873712E+03  0.50400001928E-02 0.  1.
        1   -1    0    0  501    0  0.00000000000E+00  0.00000000000E+00 -0.21743697564E+04  0.21743697564E+04  0.50400001928E-02 0. -1.
    10030    2    1    2    0    0  0.00000000000E+00  0.00000000000E+00 -0.20071210194E+04  0.23416184936E+04  0.12060855620E+04 0.  0.
        2    1    3    3  502    0 -0.54122497233E+03  0.11907543313E+03 -0.54183715590E+03  0.77504253624E+03  0.25500000920E-02 0.  1.
       -2    1    3    3    0  502  0.54122497233E+03 -0.11907543313E+03 -0.14652838635E+04  0.15665759573E+04  0.25500000920E-02 0. -1.
</event>
<event>
 5   0  0.2134992E-03  0.1174397E+04  0.7818609E-02  0.9135567E-01
        1   -1    0    0  501    0  0.00000000000E+00  0.00000000000E+00  0.15635730061E+04  0.15635730061E+04  0.50400001928E-02 0.  1.
       -1   -1    0    0    0  501  0.00000000000E+00  0.00000000000E+00 -0.22052181108E+03  0.22052181113E+03  0.50400001928E-02 0. -1.
    10030    2    1    2    0    0  0.00000000000E+00  0.00000000000E+00  0.13430511950E+04  0.17840948172E+04  0.11743967832E+04 0.  0.
        4    1    3    3  502    0 -0.52533017040E+03 -0.26208816120E+03  0.68939402897E+03  0.90549860974E+03  0.12699999809E+01 0.  1.
       -4    1    3    3    0  502  0.52533017040E+03  0.26208816120E+03  0.65365716602E+03  0.87859620746E+03  0.12699999809E+01 0. -1.
</event>
<event>
 5   0  0.2134992E-03  0.1183090E+04  0.7818609E-02  0.9127788E-01
        1   -1    0    0  501    0  0.00000000000E+00  0.00000000000E+00  0.53359671563E+03  0.53359671566E+03  0.50400001928E-02 0. -1.
       -1   -1    0    0    0  501  0.00000000000E+00  0.00000000000E+00 -0.65578615399E+03  0.65578615401E+03  0.50400001928E-02 0.  1.
    10030    2    1    2    0    0  0.00000000000E+00  0.00000000000E+00 -0.12218943836E+03  0.11893828697E+04  0.11830897480E+04 0.  0.
        4    1    3    3  502    0  0.20796826160E+03  0.32020565320E+03  0.39312856284E+03  0.54802749748E+03  0.12699999809E+01 0. -1.
       -4    1    3    3    0  502 -0.20796826160E+03 -0.32020565320E+03 -0.51531800119E+03  0.64135537218E+03  0.12699999809E+01 0.  1.
</event>
<event>
 5   0  0.2047109E-03  0.1182821E+04  0.7818609E-02  0.9128028E-01
       -1   -1    0    0    0  501  0.00000000000E+00  0.00000000000E+00  0.69430626900E+03  0.69430626902E+03  0.50400001928E-02 0.  1.
        1   -1    0    0  501    0  0.00000000000E+00  0.00000000000E+00 -0.50376364361E+03  0.50376364364E+03  0.50400001928E-02 0. -1.
    10030    2    1    2    0    0  0.00000000000E+00  0.00000000000E+00  0.19054262538E+03  0.11980699127E+04  0.11828207910E+04 0.  0.
        1    1    3    3  502    0 -0.35898729261E+03 -0.44055039596E+03 -0.70576373855E+02  0.57265832065E+03  0.50400001928E-02 0. -1.
       -1    1    3    3    0  502  0.35898729261E+03  0.44055039596E+03  0.26111899924E+03  0.62541159201E+03  0.50400001928E-02 0.  1.
</event>
<event>
 5   0  0.2078258E-03  0.1204998E+04  0.7818609E-02  0.9108493E-01
        1   -1    0    0  501    0  0.00000000000E+00  0.00000000000E+00  0.35905912315E+03  0.35905912319E+03  0.50400001928E-02 0. -1.
       -1   -1    0    0    0  501  0.00000000000E+00  0.00000000000E+00 -0.10109896206E+04  0.10109896206E+04  0.50400001928E-02 0.  1.
    10030    2    1    2    0    0  0.00000000000E+00  0.00000000000E+00 -0.65193049742E+03  0.13700487438E+04  0.12049980028E+04 0.  0.
        3    1    3    3  502    0  0.21254482656E+02  0.38194861026E+03 -0.85519910932E+03  0.93685752422E+03  0.10100000352E+00 0.  1.
       -3    1    3    3    0  502 -0.21254482656E+02 -0.38194861026E+03  0.20326861190E+03  0.43319121955E+03  0.10100000352E+00 0. -1.
</event>
<event>
 5   0  0.2134992E-03  0.1194947E+04  0.7818609E-02  0.9117291E-01
        1   -1    0    0  501    0  0.00000000000E+00  0.00000000000E+00  0.20756419403E+04  0.20756419403E+04  0.50400001928E-02 0.  1.
       -1   -1    0    0    0  501  0.00000000000E+00  0.00000000000E+00 -0.17198287397E+03  0.17198287404E+03  0.50400001928E-02 0. -1.
    10030    2    1    2    0    0  0.00000000000E+00  0.00000000000E+00  0.19036590664E+04  0.22476248144E+04  0.11949474739E+04 0.  0.
        4    1    3    3  502    0  0.44254699386E+03  0.35743250458E+03  0.60824287404E+03  0.83280660650E+03  0.12699999809E+01 0. -1.
       -4    1    3    3    0  502 -0.44254699386E+03 -0.35743250458E+03  0.12954161923E+04  0.14148182079E+04  0.12699999809E+01 0.  1.
</event>
<event>
 5   0  0.3751091E-03  0.1192651E+04  0.7818609E-02  0.9119314E-01
        2   -1    0    0  501    0  0.00000000000E+00  0.00000000000E+00  0.13546144381E+04  0.13546144381E+04  0.25500000920E-02 0.  1.
       -2   -1    0    0    0  501  0.00000000000E+00  0.00000000000E+00 -0.26251294511E+03  0.26251294512E+03  0.25500000920E-02 0. -1.
    10030    2    1    2    0    0  0.00000000000E+00  0.00000000000E+00  0.10921014930E+04  0.16171273832E+04  0.11926505367E+04 0.  0.
        5    1    3    3  502    0  0.45128803247E+03 -0.15419878365E+03  0.10314280381E+04  0.11363555962E+04  0.46999998093E+01 0.  1.
       -5    1    3    3    0  502 -0.45128803247E+03  0.15419878365E+03  0.60673454897E+02  0.48077178708E+03  0.46999998093E+01 0. -1.
</event>
<event>
 5   0  0.2096270E-03  0.1161213E+04  0.7818609E-02  0.9147501E-01
       -1   -1    0    0    0  501  0.00000000000E+00  0.00000000000E+00  0.33531139637E+03  0.33531139640E+03  0.50400001928E-02 0.  1.
        1   -1    0    0  501    0  0.00000000000E+00  0.00000000000E+00 -0.10053454459E+04  0.10053454459E+04  0.50400001928E-02 0. -1.
    10030    2    1    2    0    0  0.00000000000E+00  0.00000000000E+00 -0.67003404951E+03  0.13406568423E+04  0.11612127890E+04 0.  0.
        2    1    3    3  502    0  0.55109013112E+03  0.60044278765E+02 -0.53431384840E+03  0.76993307283E+03  0.25500000920E-02 0.  1.
       -2    1    3    3    0  502 -0.55109013112E+03 -0.60044278765E+02 -0.13572020111E+03  0.57072376946E+03  0.25500000920E-02 0. -1.
</event>
<event>
 5   0  0.2078258E-03  0.1168341E+04  0.7818609E-02  0.9141028E-01
        1   -1    0    0  501    0  0.00000000000E+00  0.00000000000E+00  0.90499435254E+03  0.90499435255E+03  0.50400001928E-02 0. -1.
       -1   -1    0    0    0  501  0.00000000000E+00  0.00000000000E+00 -0.37707973906E+03  0.37707973909E+03  0.50400001928E-02 0.  1.
    10030    2    1    2    0    0  0.00000000000E+00  0.00000000000E+00  0.52791461348E+03  0.12820740916E+04  0.11683407625E+04 0.  0.
        3    1    3    3  502    0  0.12063572083E+03 -0.34982717650E+03 -0.23206615194E+03  0.43679141433E+03  0.10100000352E+00 0.  1.
       -3    1    3    3    0  502 -0.12063572083E+03  0.34982717650E+03  0.75998076542E+03  0.84528267731E+03  0.10100000352E+00 0. -1.
</event>
<event>
 5   0  0.2096270E-03  0.1220049E+04  0.7818609E-02  0.9095487E-01
        1   -1    0    0  501    0  0.00000000000E+00  0.00000000000E+00  0.68741182413E+03  0.68741182415E+03  0.50400001928E-02 0.  1.
       -1   -1    0    0    0  501  0.00000000000E+00  0.00000000000E+00 -0.54134884293E+03  0.54134884295E+03  0.50400001928E-02 0. -1.
    10030    2    1    2    0    0  0.00000000000E+00  0.00000000000E+00  0.14606298120E+03  0.12287606671E+04  0.12200485165E+04 0.  0.
        2    1    3    3  502    0 -0.32662671454E+02  0.33964745065E+03  0.58231259565E+03  0.67491866169E+03  0.25500000920E-02 0.  1.
       -2    1    3    3    0  502  0.32662671454E+02 -0.33964745065E+03 -0.43624961445E+03  0.55384200541E+03  0.25500000920E-02 0. -1.
</event>
<event>
 5   0  0.3626049E-03  0.1183719E+04  0.7818609E-02  0.9127228E-01
        2   -1    0    0  501    0  0.00000000000E+00  0.00000000000E+00  0.37366583265E+03  0.37366583266E+03  0.25500000920E-02 0. -1.
       -2   -1    0    0    0  501  0.00000000000E+00  0.00000000000E+00 -0.93746252116E+03  0.93746252117E+03  0.25500000920E-02 0.  1.
    10030    2    1    2    0    0  0.00000000000E+00  0.00000000000E+00 -0.56379668851E+03  0.13111283538E+04  0.11837190774E+04 0.  0.
        1    1    3    3  502    0 -0.52968798270E+03  0.26256246370E+03 -0.25077977755E+03  0.64218292037E+03  0.50400001928E-02 0.  1.
       -1    1    3    3    0  502  0.52968798270E+03 -0.26256246370E+03 -0.31301691096E+03  0.66894543345E+03  0.50400001928E-02 0. -1.
</event>
<event>
 5   0  0.2047109E-03  0.1072870E+04  0.7818609E-02  0.9232046E-01
        1   -1    0    0  501    0  0.00000000000E+00  0.00000000000E+00  0.60562244578E+03  0.60562244580E+03  0.50400001928E-02 0.  1.
       -1   -1    0    0    0  501  0.00000000000E+00  0.00000000000E+00 -0.47515169019E+03  0.47515169021E+03  0.50400001928E-02 0. -1.
    10030    2    1    2    0    0  0.00000000000E+00  0.00000000000E+00  0.13047075560E+03  0.10807741360E+04  0.10728700364E+04 0.  0.
        1    1    3    3  502    0 -0.42622720759E+03  0.24672085954E+03 -0.14898527324E+03  0.51452641010E+03  0.50400001928E-02 0.  1.
       -1    1    3    3    0  502  0.42622720759E+03 -0.24672085954E+03  0.27945602884E+03  0.56624772592E+03  0.50400001928E-02 0. -1.
</event>
<event>
 5   0  0.3706035E-03  0.1214659E+04  0.7818609E-02  0.9100121E-01
       -2   -1    0    0    0  501  0.00000000000E+00  0.00000000000E+00  0.21523023084E+03  0.21523023086E+03  0.25500000920E-02 0.  1.
        2   -1    0    0  501    0  0.00000000000E+00  0.00000000000E+00 -0.17137431696E+04  0.17137431696E+04  0.25500000920E-02 0. -1.
    10030    2    1    2    0    0  0.00000000000E+00  0.00000000000E+00 -0.14985129387E+04  0.19289734004E+04  0.12146593564E+04 0.  0.
        2    1    3    3  502    0 -0.30682034726E+03  0.26047468203E+03 -0.14715500057E+04  0.15255966718E+04  0.25500000920E-02 0. -1.
       -2    1    3    3    0  502  0.30682034726E+03 -0.26047468203E+03 -0.26962932982E+02  0.40337672867E+03  0.25500000920E-02 0.  1.
</event>
<event>
 5   0  0.2025294E-03  0.1178516E+04  0.7818609E-02  0.9131872E-01
       -1   -1    0    0    0  501  0.00000000000E+00  0.00000000000E+00  0.38263406401E+03  0.38263406404E+03  0.50400001928E-02 0. -1.
        1   -1    0    0  501    0  0.00000000000E+00  0.00000000000E+00 -0.90745946428E+03  0.90745946429E+03  0.50400001928E-02 0.  1.
    10030    2    1    2    0    0  0.00000000000E+00  0.00000000000E+00 -0.52482540027E+03  0.12900935283E+04  0.11785158510E+04 0.  0.
        5    1    3    3  502    0 -0.70309691743E+02 -0.26326910824E+03 -0.83432088598E+03  0.87770582025E+03  0.46999998093E+01 0.  1.
       -5    1    3    3    0  502  0.70309691743E+02  0.26326910824E+03  0.30949548571E+03  0.41238770809E+03  0.46999998093E+01 0. -1.
</event>
<event>
 5   0  0.2047109E-03  0.1186114E+04  0.7818609E-02  0.9125098E-01
       -1   -1    0    0    0  501  0.00000000000E+00  0.00000000000E+00  0.58616499202E+03  0.58616499204E+03  0.50400001928E-02 0. -1.
        1   -1    0    0  501    0  0.00000000000E+00  0.00000000000E+00 -0.60003017830E+03  0.60003017832E+03  0.50400001928E-02 0.  1.
    10030    2    1    2    0    0  0.00000000000E+00  0.00000000000E+00 -0.13865186287E+02  0.11861951704E+04  0.11861141340E+04 0.  0.
        1    1    3    3  502    0  0.52860579457E+03  0.17767062172E+03 -0.20875259668E+03  0.59545661683E+03  0.50400001928E-02 0. -1.
       -1    1    3    3    0  502 -0.52860579457E+03 -0.17767062172E+03  0.19488741039E+03  0.59073855353E+03  0.50400001928E-02 0.  1.
</event>
<event>
 5   0  0.2078258E-03  0.1202391E+04  0.7818609E-02  0.9110766E-01
       -1   -1    0    0    0  501  0.00000000000E+00  0.00000000000E+00  0.55641673664E+03  0.55641673667E+03  0.50400001928E-02 0. -1.
        1   -1    0    0  501    0  0.00000000000E+00  0.00000000000E+00 -0.64957831745E+03  0.64957831747E+03  0.50400001928E-02 0.  1.
    10030    2    1    2    0    0  0.00000000000E+00  0.00000000000E+00 -0.93161580802E+02  0.12059950541E+04  0.12023913633E+04 0.  0.
        3    1    3    3  502    0  0.44491754609E+03 -0.37999335983E+03 -0.18516022581E+03  0.61370261182E+03  0.10100000352E+00 0.  1.
       -3    1    3    3    0  502 -0.44491754609E+03  0.37999335983E+03  0.91998645006E+02  0.59229244231E+03  0.10100000352E+00 0. -1.
</event>
<event>
 5   0  0.1397500E-03  0.1159238E+04  0.7818609E-02  0.9149303E-01
        3   -1    0    0  501    0  0.00000000000E+00  0.00000000000E+00  0.18547344585E+04  0.18547344613E+04  0.10100000352E+00 0. -1.
       -3   -1    0    0    0  501  0.00000000000E+00  0.00000000000E+00 -0.18113539770E+03  0.18113542585E+03  0.10100000352E+00 0.  1.
    10030    2    1    2    0    0  0.00000000000E+00  0.00000000000E+00  0.16735990608E+04  0.20358698871E+04  0.11592378448E+04 0.  0.
        3    1    3    3  502    0 -0.28881648502E+03  0.41053123238E+03  0.32777841190E+03  0.59949107774E+03  0.10100000352E+00 0.  1.
       -3    1    3    3    0  502  0.28881648502E+03 -0.41053123238E+03  0.13458206489E+04  0.14363788094E+04  0.10100000352E+00 0. -1.
</event>
<event>
 5   0  0.3650180E-03  0.1191173E+04  0.7818609E-02  0.9120618E-01
        2   -1    0    0  501    0  0.00000000000E+00  0.00000000000E+00  0.34008552392E+03  0.34008552393E+03  0.25500000920E-02 0.  1.
       -2   -1    0    0    0  501  0.00000000000E+00  0.00000000000E+00 -0.10430416883E+04  0.10430416883E+04  0.25500000920E-02 0. -1.
    10030    2    1    2    0    0  0.00000000000E+00  0.00000000000E+00 -0.70295616436E+03  0.13831272122E+04  0.11911731680E+04 0.  0.
        3    1    3    3  502    0  0.48295573819E+03 -0.18436517245E+03 -0.69492372466E+03  0.86611532440E+03  0.10100000352E+00 0. -1.
       -3    1    3    3    0  502 -0.48295573819E+03  0.18436517245E+03 -0.80324397016E+01  0.51701188782E+03  0.10100000352E+00 0.  1.
</event>
<event>
 5   0  0.3725376E-03  0.1223587E+04  0.7818609E-02  0.9092458E-01
       -2   -1    0    0    0  501  0.00000000000E+00  0.00000000000E+00  0.82878481070E+03  0.82878481071E+03  0.25500000920E-02 0. -1.
        2   -1    0    0  501    0  0.00000000000E+00  0.00000000000E+00 -0.45161425890E+03  0.45161425891E+03  0.25500000920E-02 0.  1.
    10030    2    1    2    0    0  0.00000000000E+00  0.00000000000E+00  0.37717055180E+03  0.12803990696E+04  0.12235865937E+04 0.  0.
        4    1    3    3  502    0 -0.16942478969E+03  0.45456775907E+03  0.57865686510E+03  0.75510395799E+03  0.12699999809E+01 0. -1.
       -4    1    3    3    0  502  0.16942478969E+03 -0.45456775907E+03 -0.20148631330E+03  0.52529511162E+03  0.12699999809E+01 0.  1.
</event>
<event>
 5   0  0.2047109E-03  0.1211074E+04  0.7818609E-02  0.9103218E-01
       -1   -1    0    0    0  501  0.00000000000E+00  0.00000000000E+00  0.51026090118E+03  0.51026090121E+03  0.50400001928E-02 0. -1.
        1   -1    0    0  501    0  0.00000000000E+00  0.00000000000E+00 -0.71860354514E+03  0.71860354516E+03  0.50400001928E-02 0.  1.
    10030    2    1    2    0    0  0.00000000000E+00  0.00000000000E+00 -0.20834264396E+03  0.12288644464E+04  0.12110743868E+04 0.  0.
        1    1    3    3  502    0  0.23806872634E+03 -0.30844736912E+03 -0.57450895314E+03  0.69417363479E+03  0.50400001928E-02 0.  1.
       -1    1    3    3    0  502 -0.23806872634E+03  0.30844736912E+03  0.36616630918E+03  0.53469081158E+03  0.50400001928E-02 0. -1.
</event>
<event>
 5   0  0.2025294E-03  0.1036334E+04  0.7818609E-02  0.9269568E-01
        1   -1    0    0  501    0  0.00000000000E+00  0.00000000000E+00  0.21601288615E+04  0.21601288615E+04  0.50400001928E-02 0.  1.
       -1   -1    0    0    0  501  0.00000000000E+00  0.00000000000E+00 -0.12429686822E+03  0.12429686832E+03  0.50400001928E-02 0. -1.
    10030    2    1    2    0    0  0.00000000000E+00  0.00000000000E+00  0.20358319932E+04  0.22844257298E+04  0.10363344104E+04 0.  0.
        5    1    3    3  502    0  0.62890854675E+02  0.49528252493E+03  0.71235443999E+03  0.86990285508E+03  0.46999998093E+01 0.  1.
       -5    1    3    3    0  502 -0.62890854675E+02 -0.49528252493E+03  0.13234775533E+04  0.14145228747E+04  0.46999998093E+01 0. -1.
</event>
<event>
 5   0  0.3650180E-03  0.1200720E+04  0.7818609E-02  0.9112226E-01
       -2   -1    0    0    0  501  0.00000000000E+00  0.00000000000E+00  0.55608748528E+03  0.55608748528E+03  0.25500000920E-02 0. -1.
        2   -1    0    0  501    0  0.00000000000E+00  0.00000000000E+00 -0.64815773853E+03  0.64815773853E+03  0.25500000920E-02 0.  1.
    10030    2    1    2    0    0  0.00000000000E+00  0.00000000000E+00 -0.92070253250E+02  0.12042452238E+04  0.12007204619E+04 0.  0.
        3    1    3    3  502    0  0.27386544125E+03 -0.43644998148E+03 -0.35506547749E+03  0.62574944646E+03  0.10100000352E+00 0.  1.
       -3    1    3    3    0  502 -0.27386544125E+03  0.43644998148E+03  0.26299522424E+03  0.57849577735E+03  0.10100000352E+00 0. -1.
</event>
<event>
 5   0  0.2134992E-03  0.1197220E+04  0.7818609E-02  0.9115294E-01
       -1   -1    0    0    0  501  0.00000000000E+00  0.00000000000E+00  0.26313758285E+03  0.26313758290E+03  0.50400001928E-02 0. -1.
        1   -1    0    0  501    0  0.00000000000E+00  0.00000000000E+00 -0.13617731605E+04  0.13617731605E+04  0.50400001928E-02 0.  1.
    10030    2    1    2    0    0  0.00000000000E+00  0.00000000000E+00 -0.10986355776E+04  0.16249107434E+04  0.11972196087E+04 0.  0.
        4    1    3    3  502    0 -0.42523590915E+03  0.18965296479E+03 -0.38703911040E+02  0.46721882573E+03  0.12699999809E+01 0. -1.
       -4    1    3    3    0  502  0.42523590915E+03 -0.18965296479E+03 -0.10599316666E+04  0.11576919176E+04  0.12699999809E+01 0.  1.
</event>
<event>
 5   0  0.3650180E-03  0.1237206E+04  0.7818609E-02  0.9080899E-01
       -2   -1    0    0    0  501  0.00000000000E+00  0.00000000000E+00  0.45355752819E+03  0.45355752819E+03  0.25500000920E-02 0. -1.
        2   -1    0    0  501    0  0.00000000000E+00  0.00000000000E+00 -0.84370743831E+03  0.84370743831E+03  0.25500000920E-02 0.  1.
    10030    2    1    2    0    0  0.00000000000E+00  0.00000000000E+00 -0.39014991012E+03  0.12972649665E+04  0.12372063049E+04 0.  0.
        3    1    3    3  502    0  0.12259180109E+03  0.17291053008E+03  0.41429322860E+03  0.46536618976E+03  0.10100000352E+00 0. -1.
       -3    1    3    3    0  502 -0.12259180109E+03 -0.17291053008E+03 -0.80444313873E+03  0.83189877674E+03  0.10100000352E+00 0.  1.
</event>
<event>
 5   0  0.2025294E-03  0.1204894E+04  0.7818609E-02  0.9108584E-01
        1   -1    0    0  501    0  0.00000000000E+00  0.00000000000E+00  0.10480079334E+04  0.10480079334E+04  0.50400001928E-02 0.  1.
       -1   -1    0    0    0  501  0.00000000000E+00  0.00000000000E+00 -0.34631636847E+03  0.34631636851E+03  0.50400001928E-02 0. -1.
    10030    2    1    2    0    0  0.00000000000E+00  0.00000000000E+00  0.70169156495E+03  0.13943243019E+04  0.12048938570E+04 0.  0.
        5    1    3    3  502    0 -0.34770458670E+03 -0.19187719364E+03  0.87506005757E+03  0.96097218035E+03  0.46999998093E+01 0.  1.
       -5    1    3    3    0  502  0.34770458670E+03  0.19187719364E+03 -0.17336849262E+03  0.43335212159E+03  0.46999998093E+01 0. -1.
</event>
<event>
 5   0  0.2096270E-03  0.1211855E+04  0.7818609E-02  0.9102543E-01
       -1   -1    0    0    0  501  0.00000000000E+00  0.00000000000E+00  0.41592506190E+03  0.41592506193E+03  0.50400001928E-02 0. -1.
        1   -1    0    0  501    0  0.00000000000E+00  0.00000000000E+00 -0.88272606871E+03  0.88272606872E+03  0.50400001928E-02 0.  1.
    10030    2    1    2    0    0  0.00000000000E+00  0.00000000000E+00 -0.46680100681E+03  0.12986511307E+04  0.12118546032E+04 0.  0.
        2    1    3    3  502    0  0.83422635155E+02 -0.39066442171E+03 -0.72163013727E+03  0.82482002975E+03  0.25500000920E-02 0.  1.
       -2    1    3    3    0  502 -0.83422635155E+02  0.39066442171E+03  0.25482913046E+03  0.47383110090E+03  0.25500000920E-02 0. -1.
</event>
<event>
 5   0  0.3751091E-03  0.1196318E+04  0.7818609E-02  0.9116086E-01
        2   -1    0    0  501    0  0.00000000000E+00  0.00000000000E+00  0.56027506026E+03  0.56027506027E+03  0.25500000920E-02 0. -1.
       -2   -1    0    0    0  501  0.00000000000E+00  0.00000000000E+00 -0.63860424502E+03  0.63860424503E+03  0.25500000920E-02 0.  1.
    10030    2    1    2    0    0  0.00000000000E+00  0.00000000000E+00 -0.78329184764E+02  0.11988793053E+04  0.11963177368E+04 0.  0.
        5    1    3    3  502    0 -0.18987999110E+03 -0.33833545192E+03 -0.49538287407E+03  0.62924682833E+03  0.46999998093E+01 0.  1.
       -5    1    3    3    0  502  0.18987999110E+03  0.33833545192E+03  0.41705368931E+03  0.56963247696E+03  0.46999998093E+01 0. -1.
</event>
<event>
 5   0  0.2047109E-03  0.1074310E+04  0.7818609E-02  0.9230599E-01
       -1   -1    0    0    0  501  0.00000000000E+00  0.00000000000E+00  0.23960539185E+03  0.23960539190E+03  0.50400001928E-02 0.  1.
        1   -1    0    0  501    0  0.00000000000E+00  0.00000000000E+00 -0.12042115235E+04  0.12042115235E+04  0.50400001928E-02 0. -1.
    10030    2    1    2    0    0  0.00000000000E+00  0.00000000000E+00 -0.96460613161E+03  0.14438169154E+04  0.10743101489E+04 0.  0.
        1    1    3    3  502    0  0.43568101188E+03  0.31392288581E+03 -0.46477746822E+03  0.71019970243E+03  0.50400001928E-02 0.  1.
       -1    1    3    3    0  502 -0.43568101188E+03 -0.31392288581E+03 -0.49982866339E+03  0.73361721294E+03  0.50400001928E-02 0. -1.
</event>
<event>
 5   0  0.2047109E-03  0.1213848E+04  0.7818609E-02  0.9100821E-01
       -1   -1    0    0    0  501  0.00000000000E+00  0.00000000000E+00  0.43806316483E+03  0.43806316486E+03  0.50400001928E-02 0. -1.
        1   -1    0    0  501    0  0.00000000000E+00  0.00000000000E+00 -0.84087563747E+03  0.84087563748E+03  0.50400001928E-02 0.  1.
    10030    2    1    2    0    0  0.00000000000E+00  0.00000000000E+00 -0.40281247264E+03  0.12789388023E+04  0.12138478373E+04 0.  0.
        1    1    3    3  502    0  0.21422384180E+03 -0.19456069681E+03  0.36069080261E+03  0.46243223747E+03  0.50400001928E-02 0. -1.
       -1    1    3    3    0  502 -0.21422384180E+03  0.19456069681E+03 -0.76350327525E+03  0.81650656487E+03  0.50400001928E-02 0.  1.
</event>
<event>
 5   0  0.3650180E-03  0.1193696E+04  0.7818609E-02  0.9118392E-01
       -2   -1    0    0    0  501  0.00000000000E+00  0.00000000000E+00  0.56981855045E+03  0.56981855045E+03  0.25500000920E-02 0.  1.
        2   -1    0    0  501    0  0.00000000000E+00  0.00000000000E+00 -0.62515990378E+03  0.62515990378E+03  0.25500000920E-02 0. -1.
    10030    2    1    2    0    0  0.00000000000E+00  0.00000000000E+00 -0.55341353329E+02  0.11949784542E+04  0.11936962933E+04 0.  0.
        3    1    3    3  502    0 -0.11289324175E+03 -0.16901741907E+03 -0.58944714457E+03  0.62350598909E+03  0.10100000352E+00 0. -1.
       -3    1    3    3    0  502  0.11289324175E+03  0.16901741907E+03  0.53410579124E+03  0.57147246515E+03  0.10100000352E+00 0.  1.
</event>
<event>
 5   0  0.2134992E-03  0.1154683E+04  0.7818609E-02  0.9153474E-01
        1   -1    0    0  501    0  0.00000000000E+00  0.00000000000E+00  0.11750916526E+04  0.11750916526E+04  0.50400001928E-02 0. -1.
       -1   -1    0    0    0  501  0.00000000000E+00  0.00000000000E+00 -0.28365737513E+03  0.28365737518E+03  0.50400001928E-02 0.  1.
    10030    2    1    2    0    0  0.00000000000E+00  0.00000000000E+00  0.89143427747E+03  0.14587490278E+04  0.11546833570E+04 0.  0.
        4    1    3    3  502    0  0.13561819290E+03  0.45944094662E+03  0.85282302388E+03  0.97815489604E+03  0.12699999809E+01 0. -1.
       -4    1    3    3    0  502 -0.13561819290E+03 -0.45944094662E+03  0.38611253584E+02  0.48059413175E+03  0.12699999809E+01 0.  1.
</event>
<event>
 5   0  0.2047109E-03  0.1144306E+04  0.7818609E-02  0.9163052E-01
        1   -1    0    0  501    0  0.00000000000E+00  0.00000000000E+00  0.12390957737E+04  0.12390957737E+04  0.50400001928E-02 0. -1.
       -1   -1    0    0    0  501  0.00000000000E+00  0.00000000000E+00 -0.26419200994E+03  0.26419200999E+03  0.50400001928E-02 0.  1.
    10030    2    1    2    0    0  0.00000000000E+00  0.00000000000E+00  0.97490376379E+03  0.15032877837E+04  0.11443062580E+04 0.  0.
        1    1    3    3  502    0  0.93289921774E+02 -0.24961328486E+03  0.11525963893E+04  0.11829996780E+04  0.50400001928E-02 0. -1.
       -1    1    3    3    0  502 -0.93289921774E+02  0.24961328486E+03 -0.17769262551E+03  0.32028810573E+03  0.50400001928E-02 0.  1.
</event>
<event>
 5   0  0.3751091E-03  0.1192148E+04  0.7818609E-02  0.9119757E-01
       -2   -1    0    0    0  501  0.00000000000E+00  0.00000000000E+00  0.36277658077E+03  0.36277658078E+03  0.25500000920E-02 0.  1.
        2   -1    0    0  501    0  0.00000000000E+00  0.00000000000E+00 -0.97940232231E+03  0.97940232231E+03  0.25500000920E-02 0. -1.
    10030    2    1    2    0    0  0.00000000000E+00  0.00000000000E+00 -0.61662574154E+03  0.13421789031E+04  0.11921480205E+04 0.  0.
        5    1    3    3  502    0 -0.69499602632E+02  0.41011568701E+03 -0.78895563792E+03  0.89190703557E+03  0.46999998093E+01 0. -1.
       -5    1    3    3    0  502  0.69499602632E+02 -0.41011568701E+03  0.17232989638E+03  0.45027186752E+03  0.46999998093E+01 0.  1.
</event>
<event>
 5   0  0.2025294E-03  0.1207494E+04  0.7818609E-02  0.9106322E-01
       -1   -1    0    0    0  501  0.00000000000E+00  0.00000000000E+00  0.43741508831E+03  0.43741508834E+03  0.50400001928E-02 0.  1.
        1   -1    0    0  501    0  0.00000000000E+00  0.00000000000E+00 -0.83332877905E+03  0.83332877906E+03  0.50400001928E-02 0. -1.
    10030    2    1    2    0    0  0.00000000000E+00  0.00000000000E+00 -0.39591369074E+03  0.12707438674E+04  0.12074942344E+04 0.  0.
        5    1    3    3  502    0  0.45895087192E+03  0.34486817116E+03 -0.39461001599E+03  0.69664130873E+03  0.46999998093E+01 0.  1.
       -5    1    3    3    0  502 -0.45895087192E+03 -0.34486817116E+03 -0.13036747410E+01  0.57410255867E+03  0.46999998093E+01 0. -1.
</event>
<event>
 5   0  0.3650180E-03  0.1199630E+04  0.7818609E-02  0.9113181E-01
        2   -1    0    0  501    0  0.00000000000E+00  0.00000000000E+00  0.92147942794E+03  0.92147942795E+03  0.25500000920E-02 0.  1.
       -2   -1    0    0    0  501  0.00000000000E+00  0.00000000000E+00 -0.39043517524E+03  0.39043517525E+03  0.25500000920E-02 0. -1.
    10030    2    1    2    0    0  0.00000000000E+00  0.00000000000E+00  0.53104425271E+03  0.13119146032E+04  0.11996299128E+04 0.  0.
        3    1    3    3  502    0 -0.31468421596E+03 -0.42263406644E+03 -0.47889549359E+02  0.52909274142E+03  0.10100000352E+00 0. -1.
       -3    1    3    3    0  502  0.31468421596E+03  0.42263406644E+03  0.57893380206E+03  0.78282186177E+03  0.10100000352E+00 0.  1.
</event>
<event>
 5   0  0.2096270E-03  0.1203542E+04  0.7818609E-02  0.9109762E-01
        1   -1    0    0  501    0  0.00000000000E+00  0.00000000000E+00  0.59753043530E+03  0.59753043533E+03  0.50400001928E-02 0.  1.
       -1   -1    0    0    0  501  0.00000000000E+00  0.00000000000E+00 -0.60604157517E+03  0.60604157519E+03  0.50400001928E-02 0. -1.
    10030    2    1    2    0    0  0.00000000000E+00  0.00000000000E+00 -0.85111398645E+01  0.12035720105E+04  0.12035419166E+04 0.  0.
        2    1    3    3  502    0 -0.76602018531E+02 -0.16323514274E+03 -0.57839073613E+03  0.60584604043E+03  0.25500000920E-02 0. -1.
       -2    1    3    3    0  502  0.76602018531E+02  0.16323514274E+03  0.56987959626E+03  0.59772597008E+03  0.25500000920E-02 0.  1.
</event>
<event>
 5   0  0.2134992E-03  0.1204061E+04  0.7818609E-02  0.9109309E-01
        1   -1    0    0  501    0  0.00000000000E+00  0.00000000000E+00  0.32848808522E+03  0.32848808526E+03  0.50400001928E-02 0.  1.
       -1   -1    0    0    0  501  0.00000000000E+00  0.00000000000E+00 -0.11033611261E+04  0.11033611261E+04  0.50400001928E-02 0. -1.
    10030    2    1    2    0    0  0.00000000000E+00  0.00000000000E+00 -0.77487304091E+03  0.14318492114E+04  0.12040614331E+04 0.  0.
        4    1    3    3  502    0  0.35094964180E+03  0.86453609830E+01 -0.96904174368E+03  0.10306715807E+04  0.12699999809E+01 0. -1.
       -4    1    3    3    0  502 -0.35094964180E+03 -0.86453609830E+01  0.19416870277E+03  0.40117763071E+03  0.12699999809E+01 0.  1.
</event>
<event>
 5   0  0.2047109E-03  0.1207059E+04  0.7818609E-02  0.9106700E-01
       -1   -1    0    0    0  501  0.00000000000E+00  0.00000000000E+00  0.37805686236E+03  0.37805686240E+03  0.50400001928E-02 0. -1.
        1   -1    0    0  501    0  0.00000000000E+00  0.00000000000E+00 -0.96347366008E+03  0.96347366009E+03  0.50400001928E-02 0.  1.
    10030    2    1    2    0    0  0.00000000000E+00  0.00000000000E+00 -0.58541679771E+03  0.13415305225E+04  0.12070589529E+04 0.  0.
        1    1    3    3  502    0 -0.21324157451E+03  0.37239140634E+03  0.17895213279E+03  0.46494214100E+03  0.50400001928E-02 0. -1.
       -1    1    3    3    0  502  0.21324157451E+03 -0.37239140634E+03 -0.76436893050E+03  0.87658838149E+03  0.50400001928E-02 0.  1.
</event>
<event>
 5   0  0.2134992E-03  0.1185207E+04  0.7818609E-02  0.9125904E-01
        1   -1    0    0  501    0  0.00000000000E+00  0.00000000000E+00  0.93510333608E+03  0.93510333609E+03  0.50400001928E-02 0.  1.
       -1   -1    0    0    0  501  0.00000000000E+00  0.00000000000E+00 -0.37555097979E+03  0.37555097982E+03  0.50400001928E-02 0. -1.
    10030    2    1    2    0    0  0.00000000000E+00  0.00000000000E+00  0.55955235629E+03  0.13106543159E+04  0.11852071112E+04 0.  0.
        4    1    3    3  502    0  0.30990151530E+03 -0.36263618029E+02  0.83691023810E+03  0.89318215315E+03  0.12699999809E+01 0.  1.
       -4    1    3    3    0  502 -0.30990151530E+03  0.36263618029E+02 -0.27735788181E+03  0.41747216276E+03  0.12699999809E+01 0. -1.
</event>
<event>
 5   0  0.3706035E-03  0.1206545E+04  0.7818609E-02  0.9107147E-01
        2   -1    0    0  501    0  0.00000000000E+00  0.00000000000E+00  0.11873168298E+04  0.11873168298E+04  0.25500000920E-02 0.  1.
       -2   -1    0    0    0  501  0.00000000000E+00  0.00000000000E+00 -0.30652136439E+03  0.30652136440E+03  0.25500000920E-02 0. -1.
    10030    2    1    2    0    0  0.00000000000E+00  0.00000000000E+00  0.88079546538E+03  0.14938381942E+04  0.12065454399E+04 0.  0.
        2    1    3    3  502    0  0.52162517654E+03  0.27030857096E+03  0.27073382186E+03  0.64688202220E+03  0.25500000920E-02 0. -1.
       -2    1    3    3    0  502 -0.52162517654E+03 -0.27030857096E+03  0.61006164352E+03  0.84695617197E+03  0.25500000920E-02 0.  1.
</event>
<event>
 5   0  0.3626049E-03  0.1212990E+04  0.7818609E-02  0.9101562E-01
       -2   -1    0    0    0  501  0.00000000000E+00  0.00000000000E+00  0.11185249579E+04  0.11185249579E+04  0.25500000920E-02 0. -1.
        2   -1    0    0  501    0  0.00000000000E+00  0.00000000000E+00 -0.32885837067E+03  0.32885837068E+03  0.25500000920E-02 0.  1.
    10030    2    1    2    0    0  0.00000000000E+00  0.00000000000E+00  0.78966658719E+03  0.14473833285E+04  0.12129901817E+04 0.  0.
        1    1    3    3  502    0 -0.46556529781E+03  0.32379439067E+03  0.13823919900E+03  0.58369849247E+03  0.50400001928E-02 0.  1.
       -1    1    3    3    0  502  0.46556529781E+03 -0.32379439067E+03  0.65142738819E+03  0.86368483607E+03  0.50400001928E-02 0. -1.
</event>
<event>
 5   0  0.3650180E-03  0.1208546E+04  0.7818609E-02  0.9105409E-01
       -2   -1    0    0    0  501  0.00000000000E+00  0.00000000000E+00  0.84607455458E+03  0.84607455458E+03  0.25500000920E-02 0. -1.
        2   -1    0    0  501    0  0.00000000000E+00  0.00000000000E+00 -0.43157618440E+03  0.43157618441E+03  0.25500000920E-02 0.  1.
    10030    2    1    2    0    0  0.00000000000E+00  0.00000000000E+00  0.41449837018E+03  0.12776507390E+04  0.12085456185E+04 0.  0.
        3    1    3    3  502    0  0.34426626152E+03 -0.26554607457E+03  0.65090189082E+03  0.78275619334E+03  0.10100000352E+00 0. -1.
       -3    1    3    3    0  502 -0.34426626152E+03  0.26554607457E+03 -0.23640352064E+03  0.49489454565E+03  0.10100000352E+00 0.  1.
</event>
<event>
 5   0  0.3626049E-03  0.1216024E+04  0.7818609E-02  0.9098946E-01
       -2   -1    0    0    0  501  0.00000000000E+00  0.00000000000E+00  0.23237865082E+03  0.23237865084E+03  0.25500000920E-02 0. -1.
        2   -1    0    0  501    0  0.00000000000E+00  0.00000000000E+00 -0.15908447951E+04  0.15908447951E+04  0.25500000920E-02 0.  1.
    10030    2    1    2    0    0  0.00000000000E+00  0.00000000000E+00 -0.13584661443E+04  0.18232234459E+04  0.12160236300E+04 0.  0.
        1    1    3    3  502    0  0.41788769074E+02  0.10647175821E+03  0.21610285810E+03  0.24450558648E+03  0.50400001928E-02 0. -1.
       -1    1    3    3    0  502 -0.41788769074E+02 -0.10647175821E+03 -0.15745690024E+04  0.15787178594E+04  0.50400001928E-02 0.  1.
</event>
<event>
 5   0  0.3725376E-03  0.1212723E+04  0.7818609E-02  0.9101792E-01
        2   -1    0    0  501    0  0.00000000000E+00  0.00000000000E+00  0.71431793496E+03  0.71431793496E+03  0.25500000920E-02 0. -1.
       -2   -1    0    0    0  501  0.00000000000E+00  0.00000000000E+00 -0.51472115714E+03  0.51472115714E+03  0.25500000920E-02 0.  1.
    10030    2    1    2    0    0  0.00000000000E+00  0.00000000000E+00  0.19959677782E+03  0.12290390921E+04  0.12127234706E+04 0.  0.
        4    1    3    3  502    0 -0.94125222603E+02 -0.56586186617E+03  0.29894586334E+03  0.64686123027E+03  0.12699999809E+01 0. -1.
       -4    1    3    3    0  502  0.94125222603E+02  0.56586186617E+03 -0.99349085521E+02  0.58217786183E+03  0.12699999809E+01 0.  1.
</event>
<event>
 5   0  0.2078258E-03  0.1229100E+04  0.7818609E-02  0.9087760E-01
        1   -1    0    0  501    0  0.00000000000E+00  0.00000000000E+00  0.18084135505E+04  0.18084135505E+04  0.50400001928E-02 0.  1.
       -1   -1    0    0    0  501  0.00000000000E+00  0.00000000000E+00 -0.20884152172E+03  0.20884152178E+03  0.50400001928E-02 0. -1.
    10030    2    1    2    0    0  0.00000000000E+00  0.00000000000E+00  0.15995720288E+04  0.20172550723E+04  0.12291002203E+04 0.  0.
        3    1    3    3  502    0 -0.23057565641E+03  0.25715185679E+03 -0.34476335924E+02  0.34710349857E+03  0.10100000352E+00 0. -1.
       -3    1    3    3    0  502  0.23057565641E+03 -0.25715185679E+03  0.16340483647E+04  0.16701515737E+04  0.10100000352E+00 0.  1.
</event>
<event>
 5   0  0.2047109E-03  0.1187748E+04  0.7818609E-02  0.9123649E-01
       -1   -1    0    0    0  501  0.00000000000E+00  0.00000000000E+00  0.46133993764E+03  0.46133993767E+03  0.50400001928E-02 0.  1.
        1   -1    0    0  501    0  0.00000000000E+00  0.00000000000E+00 -0.76448190513E+03  0.76448190515E+03  0.50400001928E-02 0. -1.
    10030    2    1    2    0    0  0.00000000000E+00  0.00000000000E+00 -0.30314196749E+03  0.12258218428E+04  0.11877475059E+04 0.  0.
        1    1    3    3  502    0 -0.74870118691E+02  0.58415957694E+03 -0.23042767736E+03  0.63241193895E+03  0.50400001928E-02 0. -1.
       -1    1    3    3    0  502  0.74870118691E+02 -0.58415957694E+03 -0.72714290129E+02  0.59340990387E+03  0.50400001928E-02 0.  1.
</event>
<event>
 5   0  0.2025294E-03  0.1217234E+04  0.7818609E-02  0.9097904E-01
        1   -1    0    0  501    0  0.00000000000E+00  0.00000000000E+00  0.90039327556E+03  0.90039327558E+03  0.50400001928E-02 0.  1.
       -1   -1    0    0    0  501  0.00000000000E+00  0.00000000000E+00 -0.41139237216E+03  0.41139237219E+03  0.50400001928E-02 0. -1.
    10030    2    1    2    0    0  0.00000000000E+00  0.00000000000E+00  0.48900090340E+03  0.13117856478E+04  0.12172344483E+04 0.  0.
        5    1    3    3  502    0  0.16549608455E+03 -0.27118744700E+03 -0.31491801753E+03  0.44735560036E+03  0.46999998093E+01 0. -1.
       -5    1    3    3    0  502 -0.16549608455E+03  0.27118744700E+03  0.80391892094E+03  0.86443004740E+03  0.46999998093E+01 0.  1.
</event>
<event>
 5   0  0.2047109E-03  0.1194348E+04  0.7818609E-02  0.9117818E-01
       -1   -1    0    0    0  501  0.00000000000E+00  0.00000000000E+00  0.43663627042E+03  0.43663627045E+03  0.50400001928E-02 0.  1.
        1   -1    0    0  501    0  0.00000000000E+00  0.00000000000E+00 -0.81673646642E+03  0.81673646644E+03  0.50400001928E-02 0. -1.
    10030    2    1    2    0    0  0.00000000000E+00  0.00000000000E+00 -0.38010019601E+03  0.12533727369E+04  0.11943479638E+04 0.  0.
        1    1    3    3  502    0  0.29259981153E+03  0.16342710650E+03  0.32863706549E+03  0.46938831439E+03  0.50400001928E-02 0.  1.
       -1    1    3    3    0  502 -0.29259981153E+03 -0.16342710650E+03 -0.70873726150E+03  0.78398442249E+03  0.50400001928E-02 0. -1.
</event>
<event>
 5   0  0.2134992E-03  0.1325901E+04  0.7818609E-02  0.9009274E-01
       -1   -1    0    0    0  501  0.00000000000E+00  0.00000000000E+00  0.33029611144E+03  0.33029611147E+03  0.50400001928E-02 0.  1.
        1   -1    0    0  501    0  0.00000000000E+00  0.00000000000E+00 -0.13306346120E+04  0.13306346121E+04  0.50400001928E-02 0. -1.
    10030    2    1    2    0    0  0.00000000000E+00  0.00000000000E+00 -0.10003385006E+04  0.16609307235E+04  0.13259011096E+04 0.  0.
        4    1    3    3  502    0  0.50517351622E+03 -0.35052977501E+03 -0.81064817737E+03  0.10174593284E+04  0.12699999809E+01 0. -1.
       -4    1    3    3    0  502 -0.50517351622E+03  0.35052977501E+03 -0.18969032324E+03  0.64347139509E+03  0.12699999809E+01 0.  1.
</event>
<event>
 5   0  0.2078258E-03  0.1231815E+04  0.7818609E-02  0.9085456E-01
       -1   -1    0    0    0  501  0.00000000000E+00  0.00000000000E+00  0.54812201417E+03  0.54812201419E+03  0.50400001928E-02 0. -1.
        1   -1    0    0  501    0  0.00000000000E+00  0.00000000000E+00 -0.69207620649E+03  0.69207620651E+03  0.50400001928E-02 0.  1.
    10030    2    1    2    0    0  0.00000000000E+00  0.00000000000E+00 -0.14395419232E+03  0.12401982207E+04  0.12318152528E+04 0.  0.
        3    1    3    3  502    0  0.12613432753E+03 -0.56813004903E+03 -0.27499403416E+03  0.64366400413E+03  0.10100000352E+00 0.  1.
       -3    1    3    3    0  502 -0.12613432753E+03  0.56813004903E+03  0.13103984185E+03  0.59653421657E+03  0.10100000352E+00 0. -1.
</event>
<event>
 5   0  0.3725376E-03  0.1195921E+04  0.7818609E-02  0.9116434E-01
       -2   -1    0    0    0  501  0.00000000000E+00  0.00000000000E+00  0.37586995920E+03  0.37586995921E+03  0.25500000920E-02 0. -1.
        2   -1    0    0  501    0  0.00000000000E+00  0.00000000000E+00 -0.95127832454E+03  0.95127832454E+03  0.25500000920E-02 0.  1.
    10030    2    1    2    0    0  0.00000000000E+00  0.00000000000E+00 -0.57540836534E+03  0.13271482837E+04  0.11959213102E+04 0.  0.
        4    1    3    3  502    0  0.32620532753E+03 -0.15044971311E+03  0.24277669762E+03  0.43357487208E+03  0.12699999809E+01 0. -1.
       -4    1    3    3    0  502 -0.32620532753E+03  0.15044971311E+03 -0.81818506296E+03  0.89357341167E+03  0.12699999809E+01 0.  1.
</event>
<event>
 5   0  0.2096270E-03  0.1197262E+04  0.7818609E-02  0.9115256E-01
        1   -1    0    0  501    0  0.00000000000E+00  0.00000000000E+00  0.21607747088E+04  0.21607747088E+04  0.50400001928E-02 0.  1.
       -1   -1    0    0    0  501  0.00000000000E+00  0.00000000000E+00 -0.16584762507E+03  0.16584762514E+03  0.50400001928E-02 0. -1.
    10030    2    1    2    0    0  0.00000000000E+00  0.00000000000E+00  0.19949270837E+04  0.23266223339E+04  0.11972624672E+04 0.  0.
        2    1    3    3  502    0 -0.27085480205E+03  0.16675038237E+03  0.19829818468E+04  0.20083289119E+04  0.25500000920E-02 0.  1.
       -2    1    3    3    0  502  0.27085480205E+03 -0.16675038237E+03  0.11945236958E+02  0.31829342203E+03  0.25500000920E-02 0. -1.
</event>
<event>
 5   0  0.2078258E-03  0.1175099E+04  0.7818609E-02  0.9134936E-01
       -1   -1    0    0    0  501  0.00000000000E+00  0.00000000000E+00  0.22269641106E+03  0.22269641112E+03  0.50400001928E-02 0.  1.
        1   -1    0    0  501    0  0.00000000000E+00  0.00000000000E+00 -0.15501571481E+04  0.15501571481E+04  0.50400001928E-02 0. -1.
    10030    2    1    2    0    0  0.00000000000E+00  0.00000000000E+00 -0.13274607370E+04  0.17728535592E+04  0.11750990316E+04 0.  0.
        3    1    3    3  502    0  0.94038918779E+02 -0.43419869564E+02 -0.15362741965E+04  0.15397620012E+04  0.10100000352E+00 0. -1.
       -3    1    3    3    0  502 -0.94038918779E+02  0.43419869564E+02  0.20881345952E+03  0.23309155797E+03  0.10100000352E+00 0.  1.
</event>
<event>
 5   0  0.3751091E-03  0.1184896E+04  0.7818609E-02  0.9126181E-01
        2   -1    0    0  501    0  0.00000000000E+00  0.00000000000E+00  0.84860327317E+03  0.84860327318E+03  0.25500000920E-02 0. -1.
       -2   -1    0    0    0  501  0.00000000000E+00  0.00000000000E+00 -0.41361438402E+03  0.41361438403E+03  0.25500000920E-02 0.  1.
    10030    2    1    2    0    0  0.00000000000E+00  0.00000000000E+00  0.43498888915E+03  0.12622176572E+04  0.11848958100E+04 0.  0.
        5    1    3    3  502    0  0.19566917828E+03 -0.17466186148E+03 -0.34837548345E+03  0.43609719175E+03  0.46999998093E+01 0.  1.
       -5    1    3    3    0  502 -0.19566917828E+03  0.17466186148E+03  0.78336437260E+03  0.82612046545E+03  0.46999998093E+01 0. -1.
</event>
<event>
 5   0  0.2096270E-03  0.1199579E+04  0.7818609E-02  0.9113226E-01
        1   -1    0    0  501    0  0.00000000000E+00  0.00000000000E+00  0.13466501793E+04  0.13466501793E+04  0.50400001928E-02 0.  1.
       -1   -1    0    0    0  501  0.00000000000E+00  0.00000000000E+00 -0.26714223952E+03  0.26714223957E+03  0.50400001928E-02 0. -1.
    10030    2    1    2    0    0  0.00000000000E+00  0.00000000000E+00  0.10795079398E+04  0.16137924189E+04  0.11995785006E+04 0.  0.
        2    1    3    3  502    0  0.33073548707E+03  0.49942902644E+03  0.49868750431E+03  0.77942577698E+03  0.25500000920E-02 0.  1.
       -2    1    3    3    0  502 -0.33073548707E+03 -0.49942902644E+03  0.58082043550E+03  0.83436664193E+03  0.25500000920E-02 0. -1.
</event>
<event>
 5   0  0.2025294E-03  0.1201299E+04  0.7818609E-02  0.9111720E-01
        1   -1    0    0  501    0  0.00000000000E+00  0.00000000000E+00  0.11820700281E+04  0.11820700282E+04  0.50400001928E-02 0.  1.
       -1   -1    0    0    0  501  0.00000000000E+00  0.00000000000E+00 -0.30521016322E+03  0.30521016326E+03  0.50400001928E-02 0. -1.
    10030    2    1    2    0    0  0.00000000000E+00  0.00000000000E+00  0.87685986493E+03  0.14872801914E+04  0.12012989408E+04 0.  0.
        5    1    3    3  502    0  0.46822883768E+03 -0.83904715810E+02 -0.15584504045E+02  0.47596555814E+03  0.46999998093E+01 0. -1.
       -5    1    3    3    0  502 -0.46822883768E+03  0.83904715810E+02  0.89244436897E+03  0.10113146333E+04  0.46999998093E+01 0.  1.
</event>
<event>
 5   0  0.2025294E-03  0.1165792E+04  0.7818609E-02  0.9143337E-01
        1   -1    0    0  501    0  0.00000000000E+00  0.00000000000E+00  0.53915876621E+03  0.53915876624E+03  0.50400001928E-02 0. -1.
       -1   -1    0    0    0  501  0.00000000000E+00  0.00000000000E+00 -0.63018142324E+03  0.63018142326E+03  0.50400001928E-02 0.  1.
    10030    2    1    2    0    0  0.00000000000E+00  0.00000000000E+00 -0.91022657028E+02  0.11693401895E+04  0.11657921576E+04 0.  0.
        5    1    3    3  502    0 -0.25433578049E+03  0.37326865841E+03 -0.41504752162E+03  0.61343517652E+03  0.46999998093E+01 0.  1.
       -5    1    3    3    0  502  0.25433578049E+03 -0.37326865841E+03  0.32402486459E+03  0.55590501298E+03  0.46999998093E+01 0. -1.
</event>
<event>
 5   0  0.3706035E-03  0.1216692E+04  0.7818609E-02  0.9098370E-01
        2   -1    0    0  501    0  0.00000000000E+00  0.00000000000E+00  0.83251651998E+03  0.83251651998E+03  0.25500000920E-02 0.  1.
       -2   -1    0    0    0  501  0.00000000000E+00  0.00000000000E+00 -0.44453772990E+03  0.44453772991E+03  0.25500000920E-02 0. -1.
    10030    2    1    2    0    0  0.00000000000E+00  0.00000000000E+00  0.38797879008E+03  0.12770542499E+04  0.12166922436E+04 0.  0.
        2    1    3    3  502    0 -0.79040150250E+02 -0.49570991633E+03  0.55470981159E+03  0.74811672991E+03  0.25500000920E-02 0.  1.
       -2    1    3    3    0  502  0.79040150250E+02  0.49570991633E+03 -0.16673102151E+03  0.52893751998E+03  0.25500000920E-02 0. -1.
</event>
<event>
 5   0  0.3706035E-03  0.1210877E+04  0.7818609E-02  0.9103389E-01
       -2   -1    0    0    0  501  0.00000000000E+00  0.00000000000E+00  0.53407836117E+03  0.53407836117E+03  0.25500000920E-02 0.  1.
        2   -1    0    0  501    0  0.00000000000E+00  0.00000000000E+00 -0.68633368475E+03  0.68633368476E+03  0.25500000920E-02 0. -1.
    10030    2    1    2    0    0  0.00000000000E+00  0.00000000000E+00 -0.15225532359E+03  0.12204120459E+04  0.12108773176E+04 0.  0.
        2    1    3    3  502    0 -0.10324803774E+03  0.53873457392E+02  0.52268320500E+03  0.53549999020E+03  0.25500000920E-02 0.  1.
       -2    1    3    3    0  502  0.10324803774E+03 -0.53873457392E+02 -0.67493852858E+03  0.68491205573E+03  0.25500000920E-02 0. -1.
</event>
<event>
 5   0  0.3751091E-03  0.1205443E+04  0.7818609E-02  0.9108106E-01
        2   -1    0    0  501    0  0.00000000000E+00  0.00000000000E+00  0.16349887703E+04  0.16349887703E+04  0.25500000920E-02 0. -1.
       -2   -1    0    0    0  501  0.00000000000E+00  0.00000000000E+00 -0.22218691244E+03  0.22218691246E+03  0.25500000920E-02 0.  1.
    10030    2    1    2    0    0  0.00000000000E+00  0.00000000000E+00  0.14128018579E+04  0.18571756828E+04  0.12054428344E+04 0.  0.
        5    1    3    3  502    0 -0.44867045765E+03  0.19789826996E+03  0.16654991863E+03  0.51790913317E+03  0.46999998093E+01 0.  1.
       -5    1    3    3    0  502  0.44867045765E+03 -0.19789826996E+03  0.12462519393E+04  0.13392665496E+04  0.46999998093E+01 0. -1.
</event>
<event>
 5   0  0.3725376E-03  0.1196305E+04  0.7818609E-02  0.9116097E-01
        2   -1    0    0  501    0  0.00000000000E+00  0.00000000000E+00  0.14832236902E+04  0.14832236902E+04  0.25500000920E-02 0. -1.
       -2   -1    0    0    0  501  0.00000000000E+00  0.00000000000E+00 -0.24122199859E+03  0.24122199860E+03  0.25500000920E-02 0.  1.
    10030    2    1    2    0    0  0.00000000000E+00  0.00000000000E+00  0.12420016916E+04  0.17244456888E+04  0.11963046149E+04 0.  0.
        4    1    3    3  502    0  0.12609560325E+03 -0.28497183987E+03  0.13569670409E+04  0.13922895581E+04  0.12699999809E+01 0. -1.
       -4    1    3    3    0  502 -0.12609560325E+03  0.28497183987E+03 -0.11496534932E+03  0.33215613064E+03  0.12699999809E+01 0.  1.
</event>
<event>
 5   0  0.2047109E-03  0.1197708E+04  0.7818609E-02  0.9114865E-01
        1   -1    0    0  501    0  0.00000000000E+00  0.00000000000E+00  0.53218633684E+03  0.53218633687E+03  0.50400001928E-02 0.  1.
       -1   -1    0    0    0  501  0.00000000000E+00  0.00000000000E+00 -0.67387362499E+03  0.67387362501E+03  0.50400001928E-02 0. -1.
    10030    2    1    2    0    0  0.00000000000E+00  0.00000000000E+00 -0.14168728814E+03  0.12060599619E+04  0.11977083719E+04 0.  0.
        1    1    3    3  502    0 -0.50832030470E+03 -0.24922120904E+03 -0.26746293130E+03  0.62612871109E+03  0.50400001928E-02 0.  1.
       -1    1    3    3    0  502  0.50832030470E+03  0.24922120904E+03  0.12577564316E+03  0.57993125079E+03  0.50400001928E-02 0. -1.
</event>
<event>
 5   0  0.3725376E-03  0.1194564E+04  0.7818609E-02  0.9117628E-01
        2   -1    0    0  501    0  0.00000000000E+00  0.00000000000E+00  0.12259331799E+04  0.12259331800E+04  0.25500000920E-02 0. -1.
       -2   -1    0    0    0  501  0.00000000000E+00  0.00000000000E+00 -0.29099927984E+03  0.29099927985E+03  0.25500000920E-02 0.  1.
    10030    2    1    2    0    0  0.00000000000E+00  0.00000000000E+00  0.93493390011E+03  0.15169324598E+04  0.11945638074E+04 0.  0.
        4    1    3    3  502    0 -0.21674603601E+03 -0.24257667123E+03  0.11035679332E+04  0.11505155721E+04  0.12699999809E+01 0. -1.
       -4    1    3    3    0  502  0.21674603601E+03  0.24257667123E+03 -0.16863403312E+03  0.36641688768E+03  0.12699999809E+01 0.  1.
</event>
<event>
 5   0  0.2134992E-03  0.1194759E+04  0.7818609E-02  0.9117457E-01
        1   -1    0    0  501    0  0.00000000000E+00  0.00000000000E+00  0.28477607951E+03  0.28477607956E+03  0.50400001928E-02 0.  1.
       -1   -1    0    0    0  501  0.00000000000E+00  0.00000000000E+00 -0.12531324743E+04  0.12531324743E+04  0.50400001928E-02 0. -1.
    10030    2    1    2    0    0  0.00000000000E+00  0.00000000000E+00 -0.96835639476E+03  0.15379085538E+04  0.11947588094E+04 0.  0.
        4    1    3    3  502    0 -0.38568400310E+03 -0.37654043182E+03 -0.15267236773E+03  0.56021898558E+03  0.12699999809E+01 0.  1.
       -4    1    3    3    0  502  0.38568400310E+03  0.37654043182E+03 -0.81568402703E+03  0.97768956826E+03  0.12699999809E+01 0. -1.
</event>
<event>
 5   0  0.3626049E-03  0.1184403E+04  0.7818609E-02  0.9126619E-01
       -2   -1    0    0    0  501  0.00000000000E+00  0.00000000000E+00  0.20185382442E+03  0.20185382444E+03  0.25500000920E-02 0. -1.
        2   -1    0    0  501    0  0.00000000000E+00  0.00000000000E+00 -0.17374076659E+04  0.17374076659E+04  0.25500000920E-02 0.  1.
    10030    2    1    2    0    0  0.00000000000E+00  0.00000000000E+00 -0.15355538415E+04  0.19392614903E+04  0.11844026038E+04 0.  0.
        1    1    3    3  502    0 -0.19967599276E+03  0.32147844254E+03 -0.21965906131E+02  0.37907966466E+03  0.50400001928E-02 0. -1.
       -1    1    3    3    0  502  0.19967599276E+03 -0.32147844254E+03 -0.15135879354E+04  0.15601818257E+04  0.50400001928E-02 0.  1.
</event>
<event>
 5   0  0.2078258E-03  0.1161777E+04  0.7818609E-02  0.9146987E-01
       -1   -1    0    0    0  501  0.00000000000E+00  0.00000000000E+00  0.37295271282E+03  0.37295271286E+03  0.50400001928E-02 0. -1.
        1   -1    0    0  501    0  0.00000000000E+00  0.00000000000E+00 -0.90475592414E+03  0.90475592416E+03  0.50400001928E-02 0.  1.
    10030    2    1    2    0    0  0.00000000000E+00  0.00000000000E+00 -0.53180321132E+03  0.12777086370E+04  0.11617765299E+04 0.  0.
        3    1    3    3  502    0  0.88570504636E+02 -0.24795558993E+03  0.30355580498E+03  0.40183683978E+03  0.10100000352E+00 0. -1.
       -3    1    3    3    0  502 -0.88570504636E+02  0.24795558993E+03 -0.83535901630E+03  0.87587179723E+03  0.10100000352E+00 0.  1.
</event>
<event>
 5   0  0.3650180E-03  0.1192151E+04  0.7818609E-02  0.9119755E-01
       -2   -1    0    0    0  501  0.00000000000E+00  0.00000000000E+00  0.36934303075E+03  0.36934303076E+03  0.25500000920E-02 0.  1.
        2   -1    0    0  501    0  0.00000000000E+00  0.00000000000E+00 -0.96199414601E+03  0.96199414601E+03  0.25500000920E-02 0. -1.
    10030    2    1    2    0    0  0.00000000000E+00  0.00000000000E+00 -0.59265111526E+03  0.13313371768E+04  0.11921507177E+04 0.  0.
        3    1    3    3  502    0 -0.45485755138E+03  0.36666406703E+03 -0.16434123520E+03  0.60691513565E+03  0.10100000352E+00 0. -1.
       -3    1    3    3    0  502  0.45485755138E+03 -0.36666406703E+03 -0.42830988006E+03  0.72442204111E+03  0.10100000352E+00 0.  1.
</event>
<event>
 5   0  0.2025294E-03  0.1192110E+04  0.7818609E-02  0.9119790E-01
       -1   -1    0    0    0  501  0.00000000000E+00  0.00000000000E+00  0.87233664959E+03  0.87233664961E+03  0.50400001928E-02 0.  1.
        1   -1    0    0  501    0  0.00000000000E+00  0.00000000000E+00 -0.40727606817E+03  0.40727606821E+03  0.50400001928E-02 0. -1.
    10030    2    1    2    0    0  0.00000000000E+00  0.00000000000E+00  0.46506058142E+03  0.12796127178E+04  0.11921104660E+04 0.  0.
        5    1    3    3  502    0 -0.30623584701E+03 -0.23222056056E+03 -0.25648959644E+03  0.46207768376E+03  0.46999998093E+01 0. -1.
       -5    1    3    3    0  502  0.30623584701E+03  0.23222056056E+03  0.72155017786E+03  0.81753503406E+03  0.46999998093E+01 0.  1.
</event>
<event>
 5   0  0.3626049E-03  0.1242202E+04  0.7818609E-02  0.9076699E-01
       -2   -1    0    0    0  501  0.00000000000E+00  0.00000000000E+00  0.36971131019E+03  0.36971131020E+03  0.25500000920E-02 0.  1.
        2   -1    0    0  501    0  0.00000000000E+00  0.00000000000E+00 -0.10434262004E+04  0.10434262004E+04  0.25500000920E-02 0. -1.
    10030    2    1    2    0    0  0.00000000000E+00  0.00000000000E+00 -0.67371489017E+03  0.14131375106E+04  0.12422020248E+04 0.  0.
        1    1    3    3  502    0 -0.33321445072E+03 -0.58378696896E+02 -0.92942561329E+03  0.98907629285E+03  0.50400001928E-02 0. -1.
       -1    1    3    3    0  502  0.33321445072E+03  0.58378696896E+02  0.25571072312E+03  0.42406121770E+03  0.50400001928E-02 0.  1.
</event>
<event>
 5   0  0.3650180E-03  0.1204317E+04  0.7818609E-02  0.9109086E-01
       -2   -1    0    0    0  501  0.00000000000E+00  0.00000000000E+00  0.29546098133E+03  0.29546098134E+03  0.25500000920E-02 0. -1.
        2   -1    0    0  501    0  0.00000000000E+00  0.00000000000E+00 -0.12272182820E+04  0.12272182820E+04  0.25500000920E-02 0.  1.
    10030    2    1    2    0    0  0.00000000000E+00  0.00000000000E+00 -0.93175730064E+03  0.15226792633E+04  0.12043174298E+04 0.  0.
        3    1    3    3  502    0  0.52239481006E+03  0.11269013629E+02 -0.87476964514E+02  0.52978821973E+03  0.10100000352E+00 0. -1.
       -3    1    3    3    0  502 -0.52239481006E+03 -0.11269013629E+02 -0.84428033612E+03  0.99289104357E+03  0.10100000352E+00 0.  1.
</event>
<event>
 5   0  0.2025294E-03  0.1192359E+04  0.7818609E-02  0.9119571E-01
       -1   -1    0    0    0  501  0.00000000000E+00  0.00000000000E+00  0.11812794658E+04  0.11812794658E+04  0.50400001928E-02 0. -1.
        1   -1    0    0  501    0  0.00000000000E+00  0.00000000000E+00 -0.30088539637E+03  0.30088539641E+03  0.50400001928E-02 0.  1.
    10030    2    1    2    0    0  0.00000000000E+00  0.00000000000E+00  0.88039406938E+03  0.14821648622E+04  0.11923585708E+04 0.  0.
        5    1    3    3  502    0 -0.34955498267E+02 -0.56426802821E+03  0.20504191363E+03  0.60140217065E+03  0.46999998093E+01 0.  1.
       -5    1    3    3    0  502  0.34955498267E+02  0.56426802821E+03  0.67535215575E+03  0.88076269153E+03  0.46999998093E+01 0. -1.
</event>
<event>
 5   0  0.2134992E-03  0.1199657E+04  0.7818609E-02  0.9113157E-01
       -1   -1    0    0    0  501  0.00000000000E+00  0.00000000000E+00  0.20326369684E+03  0.20326369690E+03  0.50400001928E-02 0. -1.
        1   -1    0    0  501    0  0.00000000000E+00  0.00000000000E+00 -0.17700865502E+04  0.17700865502E+04  0.50400001928E-02 0.  1.
    10030    2    1    2    0    0  0.00000000000E+00  0.00000000000E+00 -0.15668228533E+04  0.19733502471E+04  0.11996571777E+04 0.  0.
        4    1    3    3  502    0  0.13274523226E+03 -0.46086635421E+03 -0.13759822224E+04  0.14571711576E+04  0.12699999809E+01 0.  1.
       -4    1    3    3    0  502 -0.13274523226E+03  0.46086635421E+03 -0.19084063090E+03  0.51617908949E+03  0.12699999809E+01 0. -1.
</event>
<event>
 5   0  0.2096270E-03  0.1192426E+04  0.7818609E-02  0.9119512E-01
        1   -1    0    0  501    0  0.00000000000E+00  0.00000000000E+00  0.14893589424E+04  0.14893589424E+04  0.50400001928E-02 0.  1.
       -1   -1    0    0    0  501  0.00000000000E+00  0.00000000000E+00 -0.23867300801E+03  0.23867300806E+03  0.50400001928E-02 0. -1.
    10030    2    1    2    0    0  0.00000000000E+00  0.00000000000E+00  0.12506859344E+04  0.17280319505E+04  0.11924257274E+04 0.  0.
        2    1    3    3  502    0 -0.53338165766E+03  0.26120094980E+02  0.24113008811E+03  0.58593683234E+03  0.25500000920E-02 0. -1.
       -2    1    3    3    0  502  0.53338165766E+03 -0.26120094980E+02  0.10095558463E+04  0.11420951181E+04  0.25500000920E-02 0.  1.
</event>
<event>
 5   0  0.3725376E-03  0.1222396E+04  0.7818609E-02  0.9093476E-01
       -2   -1    0    0    0  501  0.00000000000E+00  0.00000000000E+00  0.72419780962E+03  0.72419780962E+03  0.25500000920E-02 0. -1.
        2   -1    0    0  501    0  0.00000000000E+00  0.00000000000E+00 -0.51582985688E+03  0.51582985688E+03  0.25500000920E-02 0.  1.
    10030    2    1    2    0    0  0.00000000000E+00  0.00000000000E+00  0.20836795274E+03  0.12400276665E+04  0.12223957665E+04 0.  0.
        4    1    3    3  502    0  0.40092291370E+03 -0.94469992760E+02 -0.35387928833E+03  0.54304320811E+03  0.12699999809E+01 0.  1.
       -4    1    3    3    0  502 -0.40092291370E+03  0.94469992760E+02  0.56224724107E+03  0.69698445840E+03  0.12699999809E+01 0. -1.
</event>
<event>
 5   0  0.3626049E-03  0.1175287E+04  0.7818609E-02  0.9134767E-01
        2   -1    0    0  501    0  0.00000000000E+00  0.00000000000E+00  0.11024274303E+04  0.11024274303E+04  0.25500000920E-02 0. -1.
       -2   -1    0    0    0  501  0.00000000000E+00  0.00000000000E+00 -0.31324036675E+03  0.31324036676E+03  0.25500000920E-02 0.  1.
    10030    2    1    2    0    0  0.00000000000E+00  0.00000000000E+00  0.78918706351E+03  0.14156677970E+04  0.11752868119E+04 0.  0.
        1    1    3    3  502    0  0.38506764584E+03  0.41081482899E+03  0.59715107259E+03  0.82075289772E+03  0.50400001928E-02 0. -1.
       -1    1    3    3    0  502 -0.38506764584E+03 -0.41081482899E+03  0.19203599092E+03  0.59491489931E+03  0.50400001928E-02 0.  1.
</event>
<event>
 5   0  0.2047109E-03  0.1479817E+04  0.7818609E-02  0.8897986E-01
        1   -1    0    0  501    0  0.00000000000E+00  0.00000000000E+00  0.77657504344E+03  0.77657504346E+03  0.50400001928E-02 0.  1.
       -1   -1    0    0    0  501  0.00000000000E+00  0.00000000000E+00 -0.70497319372E+03  0.70497319374E+03  0.50400001928E-02 0. -1.
    10030    2    1    2    0    0  0.00000000000E+00  0.00000000000E+00  0.71601849723E+02  0.14815482372E+04  0.14798170003E+04 0.  0.
        1    1    3    3  502    0  0.21175258388E+03  0.44036899679E+03  0.59205922650E+03  0.76765756547E+03  0.50400001928E-02 0.  1.
       -1    1    3    3    0  502 -0.21175258388E+03 -0.44036899679E+03 -0.52045737678E+03  0.71389067173E+03  0.50400001928E-02 0. -1.
</event>
<event>
 5   0  0.3751091E-03  0.1217786E+04  0.7818609E-02  0.9097430E-01
       -2   -1    0    0    0  501  0.00000000000E+00  0.00000000000E+00  0.21839080773E+03  0.21839080775E+03  0.25500000920E-02 0. -1.
        2   -1    0    0  501    0  0.00000000000E+00  0.00000000000E+00 -0.16976474545E+04  0.16976474545E+04  0.25500000920E-02 0.  1.
    10030    2    1    2    0    0  0.00000000000E+00  0.00000000000E+00 -0.14792566467E+04  0.19160382622E+04  0.12177858578E+04 0.  0.
        5    1    3    3  502    0  0.25574859511E+03  0.75690017884E+02  0.12156071291E+03  0.29314743667E+03  0.46999998093E+01 0. -1.
       -5    1    3    3    0  502 -0.25574859511E+03 -0.75690017884E+02 -0.16008173596E+04  0.16228908255E+04  0.46999998093E+01 0.  1.
</event>
<event>
 5   0  0.2134992E-03  0.1184444E+04  0.7818609E-02  0.9126583E-01
        1   -1    0    0  501    0  0.00000000000E+00  0.00000000000E+00  0.31491623111E+03  0.31491623115E+03  0.50400001928E-02 0.  1.
       -1   -1    0    0    0  501  0.00000000000E+00  0.00000000000E+00 -0.11137139733E+04  0.11137139733E+04  0.50400001928E-02 0. -1.
    10030    2    1    2    0    0  0.00000000000E+00  0.00000000000E+00 -0.79879774220E+03  0.14286302045E+04  0.11844435099E+04 0.  0.
        4    1    3    3  502    0 -0.50315430242E+03 -0.24088696326E+03 -0.63922252991E+03  0.84840900322E+03  0.12699999809E+01 0. -1.
       -4    1    3    3    0  502  0.50315430242E+03  0.24088696326E+03 -0.15957521229E+03  0.58022120125E+03  0.12699999809E+01 0.  1.
</event>
<event>
 5   0  0.2078258E-03  0.1178942E+04  0.7818609E-02  0.9131491E-01
       -1   -1    0    0    0  501  0.00000000000E+00  0.00000000000E+00  0.20149659278E+03  0.20149659284E+03  0.50400001928E-02 0. -1.
        1   -1    0    0  501    0  0.00000000000E+00  0.00000000000E+00 -0.17244764014E+04  0.17244764014E+04  0.50400001928E-02 0.  1.
    10030    2    1    2    0    0  0.00000000000E+00  0.00000000000E+00 -0.15229798086E+04  0.19259729942E+04  0.11789421008E+04 0.  0.
        3    1    3    3  502    0  0.40609676809E+03  0.33805399791E+03 -0.11883717755E+04  0.13005470301E+04  0.10100000352E+00 0.  1.
       -3    1    3    3    0  502 -0.40609676809E+03 -0.33805399791E+03 -0.33460803308E+03  0.62542596409E+03  0.10100000352E+00 0. -1.
</event>
<event>
 5   0  0.1397500E-03  0.1022486E+04  0.7818609E-02  0.9284221E-01
        3   -1    0    0  501    0  0.00000000000E+00  0.00000000000E+00  0.48163182760E+03  0.48163183819E+03  0.10100000352E+00 0. -1.
       -3   -1    0    0    0  501  0.00000000000E+00  0.00000000000E+00 -0.54267475896E+03  0.54267476836E+03  0.10100000352E+00 0.  1.
    10030    2    1    2    0    0  0.00000000000E+00  0.00000000000E+00 -0.61042931362E+02  0.10243066065E+04  0.10224860805E+04 0.  0.
        5    1    3    3  502    0 -0.18750419782E+03  0.45388084249E+03  0.11179383027E+03  0.50367210947E+03  0.46999998093E+01 0. -1.
       -5    1    3    3    0  502  0.18750419782E+03 -0.45388084249E+03 -0.17283676163E+03  0.52063449708E+03  0.46999998093E+01 0.  1.
</event>
<event>
 5   0  0.2096270E-03  0.1185476E+04  0.7818609E-02  0.9125665E-01
        1   -1    0    0  501    0  0.00000000000E+00  0.00000000000E+00  0.32441149805E+03  0.32441149809E+03  0.50400001928E-02 0.  1.
       -1   -1    0    0    0  501  0.00000000000E+00  0.00000000000E+00 -0.10830024174E+04  0.10830024174E+04  0.50400001928E-02 0. -1.
    10030    2    1    2    0    0  0.00000000000E+00  0.00000000000E+00 -0.75859091930E+03  0.14074139155E+04  0.11854761687E+04 0.  0.
        2    1    3    3  502    0  0.53669676379E+03  0.24724061192E+03 -0.32402812650E+03  0.67391806862E+03  0.25500000920E-02 0. -1.
       -2    1    3    3    0  502 -0.53669676379E+03 -0.24724061192E+03 -0.43456279280E+03  0.73349584684E+03  0.25500000920E-02 0.  1.
</event>
<event>
 5   0  0.3725376E-03  0.1155531E+04  0.7818609E-02  0.9152696E-01
       -2   -1    0    0    0  501  0.00000000000E+00  0.00000000000E+00  0.41213811168E+03  0.41213811169E+03  0.25500000920E-02 0. -1.
        2   -1    0    0  501    0  0.00000000000E+00  0.00000000000E+00 -0.80995452899E+03  0.80995452899E+03  0.25500000920E-02 0.  1.
    10030    2    1    2    0    0  0.00000000000E+00  0.00000000000E+00 -0.39781641731E+03  0.12220926407E+04  0.11555312720E+04 0.  0.
        4    1    3    3  502    0  0.48953485983E+03 -0.29449992573E+03 -0.29011335205E+03  0.64073547988E+03  0.12699999809E+01 0. -1.
       -4    1    3    3    0  502 -0.48953485983E+03  0.29449992573E+03 -0.10770306526E+03  0.58135716080E+03  0.12699999809E+01 0.  1.
</event>
<event>
 5   0  0.2047109E-03  0.1225415E+04  0.7818609E-02  0.9090897E-01
       -1   -1    0    0    0  501  0.00000000000E+00  0.00000000000E+00  0.23067601814E+03  0.23067601820E+03  0.50400001928E-02 0.  1.
        1   -1    0    0  501    0  0.00000000000E+00  0.00000000000E+00 -0.16274359256E+04  0.16274359256E+04  0.50400001928E-02 0. -1.
    10030    2    1    2    0    0  0.00000000000E+00  0.00000000000E+00 -0.13967599074E+04  0.18581119438E+04  0.12254149324E+04 0.  0.
        1    1    3    3  502    0  0.25776056911E+02 -0.51710740885E+03 -0.20157998205E+03  0.55560684534E+03  0.50400001928E-02 0. -1.
       -1    1    3    3    0  502 -0.25776056911E+02  0.51710740885E+03 -0.11951799254E+04  0.13025050984E+04  0.50400001928E-02 0.  1.
</event>
<event>
 5   0  0.2078258E-03  0.1136472E+04  0.7818609E-02  0.9170355E-01
        1   -1    0    0  501    0  0.00000000000E+00  0.00000000000E+00  0.15521041229E+04  0.15521041229E+04  0.50400001928E-02 0.  1.
       -1   -1    0    0    0  501  0.00000000000E+00  0.00000000000E+00 -0.20803517883E+03  0.20803517890E+03  0.50400001928E-02 0. -1.
    10030    2    1    2    0    0  0.00000000000E+00  0.00000000000E+00  0.13440689441E+04  0.17601393018E+04  0.11364721886E+04 0.  0.
        3    1    3    3  502    0  0.52526744900E+03 -0.63766125113E+02  0.99289720883E+03  0.11250852809E+04  0.10100000352E+00 0.  1.
       -3    1    3    3    0  502 -0.52526744900E+03  0.63766125113E+02  0.35117173524E+03  0.63505402095E+03  0.10100000352E+00 0. -1.
</event>
<event>
 5   0  0.3706035E-03  0.1214389E+04  0.7818609E-02  0.9100355E-01
       -2   -1    0    0    0  501  0.00000000000E+00  0.00000000000E+00  0.29172395147E+03  0.29172395148E+03  0.25500000920E-02 0.  1.
        2   -1    0    0  501    0  0.00000000000E+00  0.00000000000E+00 -0.12638143575E+04  0.12638143575E+04  0.25500000920E-02 0. -1.
    10030    2    1    2    0    0  0.00000000000E+00  0.00000000000E+00 -0.97209040605E+03  0.15555383090E+04  0.12143886006E+04 0.  0.
        2    1    3    3  502    0 -0.21027433239E+03 -0.49558518722E+03 -0.84576557470E+03  0.10025663968E+04  0.25500000920E-02 0.  1.
       -2    1    3    3    0  502  0.21027433239E+03  0.49558518722E+03 -0.12632483135E+03  0.55297191220E+03  0.25500000920E-02 0. -1.
</event>
<event>
 5   0  0.3725376E-03  0.1196436E+04  0.7818609E-02  0.9115982E-01
       -2   -1    0    0    0  501  0.00000000000E+00  0.00000000000E+00  0.16131305112E+04  0.16131305112E+04  0.25500000920E-02 0. -1.
        2   -1    0    0  501    0  0.00000000000E+00  0.00000000000E+00 -0.22184495170E+03  0.22184495171E+03  0.25500000920E-02 0.  1.
    10030    2    1    2    0    0  0.00000000000E+00  0.00000000000E+00  0.13912855595E+04  0.18349754629E+04  0.11964361418E+04 0.  0.
        4    1    3    3  502    0 -0.39664498504E+03  0.42651823716E+03  0.90491401816E+03  0.10761580014E+04  0.12699999809E+01 0.  1.
       -4    1    3    3    0  502  0.39664498504E+03 -0.42651823716E+03  0.48637154136E+03  0.75881746154E+03  0.12699999809E+01 0. -1.
</event>
<event>
 5   0  0.2025294E-03  0.1171095E+04  0.7818609E-02  0.9138540E-01
       -1   -1    0    0    0  501  0.00000000000E+00  0.00000000000E+00  0.32243879070E+03  0.32243879074E+03  0.50400001928E-02 0.  1.
        1   -1    0    0  501    0  0.00000000000E+00  0.00000000000E+00 -0.10633510611E+04  0.10633510611E+04  0.50400001928E-02 0. -1.
    10030    2    1    2    0    0  0.00000000000E+00  0.00000000000E+00 -0.74091227037E+03  0.13857898518E+04  0.11710945824E+04 0.  0.
        5    1    3    3  502    0  0.23747308738E+03 -0.49981036233E+03 -0.14394935344E+03  0.57179311982E+03  0.46999998093E+01 0.  1.
       -5    1    3    3    0  502 -0.23747308738E+03  0.49981036233E+03 -0.59696291693E+03  0.81399673200E+03  0.46999998093E+01 0. -1.
</event>
<event>
 5   0  0.3725376E-03  0.1198024E+04  0.7818609E-02  0.9114588E-01
        2   -1    0    0  501    0  0.00000000000E+00  0.00000000000E+00  0.19448097504E+04  0.19448097504E+04  0.25500000920E-02 0.  1.
       -2   -1    0    0    0  501  0.00000000000E+00  0.00000000000E+00 -0.18449884374E+03  0.18449884376E+03  0.25500000920E-02 0. -1.
    10030    2    1    2    0    0  0.00000000000E+00  0.00000000000E+00  0.17603109066E+04  0.21293085941E+04  0.11980236229E+04 0.  0.
        4    1    3    3  502    0 -0.19368461689E+03 -0.48109480824E+03  0.34740178787E+03  0.62422396658E+03  0.12699999809E+01 0. -1.
       -4    1    3    3    0  502  0.19368461689E+03  0.48109480824E+03  0.14129091188E+04  0.15050846276E+04  0.12699999809E+01 0.  1.
</event>
<event>
 5   0  0.2096270E-03  0.1199313E+04  0.7818609E-02  0.9113458E-01
        1   -1    0    0  501    0  0.00000000000E+00  0.00000000000E+00  0.23443036967E+04  0.23443036967E+04  0.50400001928E-02 0. -1.
       -1   -1    0    0    0  501  0.00000000000E+00  0.00000000000E+00 -0.15338790583E+03  0.15338790591E+03  0.50400001928E-02 0.  1.
    10030    2    1    2    0    0  0.00000000000E+00  0.00000000000E+00  0.21909157908E+04  0.24976916026E+04  0.11993128612E+04 0.  0.
        2    1    3    3  502    0  0.57944430784E+02  0.43395928660E+03  0.24207466190E+03  0.50027828399E+03  0.25500000920E-02 0.  1.
       -2    1    3    3    0  502 -0.57944430784E+02 -0.43395928660E+03  0.19488411289E+04  0.19974133186E+04  0.25500000920E-02 0. -1.
</event>
<event>
 5   0  0.3751091E-03  0.1192351E+04  0.7818609E-02  0.9119578E-01
       -2   -1    0    0    0  501  0.00000000000E+00  0.00000000000E+00  0.20095909089E+03  0.20095909091E+03  0.25500000920E-02 0. -1.
        2   -1    0    0  501    0  0.00000000000E+00  0.00000000000E+00 -0.17686452735E+04  0.17686452735E+04  0.25500000920E-02 0.  1.
    10030    2    1    2    0    0  0.00000000000E+00  0.00000000000E+00 -0.15676861826E+04  0.19696043644E+04  0.11923512004E+04 0.  0.
        5    1    3    3  502    0 -0.21744753473E+03 -0.35523395456E+03 -0.14884150734E+04  0.15455989498E+04  0.46999998093E+01 0. -1.
       -5    1    3    3    0  502  0.21744753473E+03  0.35523395456E+03 -0.79271109136E+02  0.42400541456E+03  0.46999998093E+01 0.  1.
</event>
<event>
 5   0  0.2134992E-03  0.1200240E+04  0.7818609E-02  0.9112647E-01
        1   -1    0    0  501    0  0.00000000000E+00  0.00000000000E+00  0.10298639196E+04  0.10298639197E+04  0.50400001928E-02 0. -1.
       -1   -1    0    0    0  501  0.00000000000E+00  0.00000000000E+00 -0.34970055392E+03  0.34970055395E+03  0.50400001928E-02 0.  1.
    10030    2    1    2    0    0  0.00000000000E+00  0.00000000000E+00  0.68016336572E+03  0.13795644736E+04  0.12002399480E+04 0.  0.
        4    1    3    3  502    0  0.91143104001E+01  0.48987342736E+03  0.73838624101E+03  0.88615737841E+03  0.12699999809E+01 0. -1.
       -4    1    3    3    0  502 -0.91143104001E+01 -0.48987342736E+03 -0.58222875292E+02  0.49340709520E+03  0.12699999809E+01 0.  1.
</event>
<event>
 5   0  0.3650180E-03  0.1169900E+04  0.7818609E-02  0.9139619E-01
        2   -1    0    0  501    0  0.00000000000E+00  0.00000000000E+00  0.10142086931E+04  0.10142086931E+04  0.25500000920E-02 0.  1.
       -2   -1    0    0    0  501  0.00000000000E+00  0.00000000000E+00 -0.33737280450E+03  0.33737280451E+03  0.25500000920E-02 0. -1.
    10030    2    1    2    0    0  0.00000000000E+00  0.00000000000E+00  0.67683588856E+03  0.13515814976E+04  0.11698998780E+04 0.  0.
        3    1    3    3  502    0 -0.50412558366E+03  0.26325475629E+03  0.49649002332E+03  0.75494902097E+03  0.10100000352E+00 0.  1.
       -3    1    3    3    0  502  0.50412558366E+03 -0.26325475629E+03  0.18034586524E+03  0.59663247659E+03  0.10100000352E+00 0. -1.
</event>
<event>
 5   0  0.1397500E-03  0.1202491E+04  0.7818609E-02  0.9110679E-01
       -4   -1    0    0    0  501  0.00000000000E+00  0.00000000000E+00  0.40039157168E+03  0.40039358583E+03  0.12699999809E+01 0. -1.
        4   -1    0    0  501    0  0.00000000000E+00  0.00000000000E+00 -0.90285205526E+03  0.90285294848E+03  0.12699999809E+01 0.  1.
    10030    2    1    2    0    0  0.00000000000E+00  0.00000000000E+00 -0.50246048358E+03  0.13032465343E+04  0.12024911607E+04 0.  0.
        3    1    3    3  502    0 -0.40447066926E+03  0.24184385852E+03  0.15343287080E+03  0.49560733473E+03  0.10100000352E+00 0. -1.
       -3    1    3    3    0  502  0.40447066926E+03 -0.24184385852E+03 -0.65589335438E+03  0.80763919959E+03  0.10100000352E+00 0.  1.
</event>
<event>
 5   0  0.3706035E-03  0.1202961E+04  0.7818609E-02  0.9110268E-01
       -2   -1    0    0    0  501  0.00000000000E+00  0.00000000000E+00  0.48697091826E+03  0.48697091827E+03  0.25500000920E-02 0. -1.
        2   -1    0    0  501    0  0.00000000000E+00  0.00000000000E+00 -0.74291712901E+03  0.74291712901E+03  0.25500000920E-02 0.  1.
    10030    2    1    2    0    0  0.00000000000E+00  0.00000000000E+00 -0.25594621075E+03  0.12298880473E+04  0.12029614067E+04 0.  0.
        2    1    3    3  502    0  0.67005544283E+02  0.59500216055E+03 -0.69583251364E+02  0.60279278604E+03  0.25500000920E-02 0.  1.
       -2    1    3    3    0  502 -0.67005544283E+02 -0.59500216055E+03 -0.18636295938E+03  0.62709526124E+03  0.25500000920E-02 0. -1.
</event>
<event>
 5   0  0.1397500E-03  0.1218749E+04  0.7818609E-02  0.9096602E-01
       -3   -1    0    0    0  501  0.00000000000E+00  0.00000000000E+00  0.75724644332E+03  0.75724645006E+03  0.10100000352E+00 0. -1.
        3   -1    0    0  501    0  0.00000000000E+00  0.00000000000E+00 -0.49037855065E+03  0.49037856105E+03  0.10100000352E+00 0.  1.
    10030    2    1    2    0    0  0.00000000000E+00  0.00000000000E+00  0.26686789267E+03  0.12476250111E+04  0.12187492343E+04 0.  0.
        4    1    3    3  502    0  0.58875110948E+03 -0.96320649356E+02  0.26059571102E+03  0.65101249904E+03  0.12699999809E+01 0. -1.
       -4    1    3    3    0  502 -0.58875110948E+03  0.96320649356E+02  0.62721816556E+01  0.59661251207E+03  0.12699999809E+01 0.  1.
</event>
<event>
 5   0  0.3725376E-03  0.1205862E+04  0.7818609E-02  0.9107741E-01
        2   -1    0    0  501    0  0.00000000000E+00  0.00000000000E+00  0.48349576503E+03  0.48349576504E+03  0.25500000920E-02 0.  1.
       -2   -1    0    0    0  501  0.00000000000E+00  0.00000000000E+00 -0.75186943382E+03  0.75186943383E+03  0.25500000920E-02 0. -1.
    10030    2    1    2    0    0  0.00000000000E+00  0.00000000000E+00 -0.26837366879E+03  0.12353651989E+04  0.12058618281E+04 0.  0.
        4    1    3    3  502    0  0.36260758483E+03  0.92033761529E+01  0.35921389685E+03  0.51049505315E+03  0.12699999809E+01 0.  1.
       -4    1    3    3    0  502 -0.36260758483E+03 -0.92033761529E+01 -0.62758756564E+03  0.72487014571E+03  0.12699999809E+01 0. -1.
</event>
<event>
 5   0  0.3751091E-03  0.1204112E+04  0.7818609E-02  0.9109264E-01
        2   -1    0    0  501    0  0.00000000000E+00  0.00000000000E+00  0.63789401670E+03  0.63789401671E+03  0.25500000920E-02 0.  1.
       -2   -1    0    0    0  501  0.00000000000E+00  0.00000000000E+00 -0.56823189640E+03  0.56823189640E+03  0.25500000920E-02 0. -1.
    10030    2    1    2    0    0  0.00000000000E+00  0.00000000000E+00  0.69662120305E+02  0.12061259131E+04  0.12041124978E+04 0.  0.
        5    1    3    3  502    0  0.26607263650E+02 -0.52912819560E+03 -0.25159294859E+03  0.58651998742E+03  0.46999998093E+01 0. -1.
       -5    1    3    3    0  502 -0.26607263650E+02  0.52912819560E+03  0.32125506890E+03  0.61960592569E+03  0.46999998093E+01 0.  1.
</event>
<event>
 5   0  0.2134992E-03  0.1202724E+04  0.7818609E-02  0.9110475E-01
       -1   -1    0    0    0  501  0.00000000000E+00  0.00000000000E+00  0.96270552851E+03  0.96270552852E+03  0.50400001928E-02 0. -1.
        1   -1    0    0  501    0  0.00000000000E+00  0.00000000000E+00 -0.37564587632E+03  0.37564587635E+03  0.50400001928E-02 0.  1.
    10030    2    1    2    0    0  0.00000000000E+00  0.00000000000E+00  0.58705965219E+03  0.13383514049E+04  0.12027241777E+04 0.  0.
        4    1    3    3  502    0  0.26287017500E+03  0.44355312332E+03  0.63793902150E+03  0.82024868800E+03  0.12699999809E+01 0. -1.
       -4    1    3    3    0  502 -0.26287017500E+03 -0.44355312332E+03 -0.50879369309E+02  0.51810271688E+03  0.12699999809E+01 0.  1.
</event>
<event>
 5   0  0.1397500E-03  0.1187319E+04  0.7818609E-02  0.9124029E-01
        4   -1    0    0  501    0  0.00000000000E+00  0.00000000000E+00  0.59288786410E+03  0.59288922430E+03  0.12699999809E+01 0.  1.
       -4   -1    0    0    0  501  0.00000000000E+00  0.00000000000E+00 -0.59442911284E+03  0.59443046952E+03  0.12699999809E+01 0. -1.
    10030    2    1    2    0    0  0.00000000000E+00  0.00000000000E+00 -0.15412487399E+01  0.11873196938E+04  0.11873186935E+04 0.  0.
        5    1    3    3  502    0 -0.58647749549E+03 -0.90934318743E+02  0.12809774841E+02  0.59364221832E+03  0.46999998093E+01 0.  1.
       -5    1    3    3    0  502  0.58647749549E+03  0.90934318743E+02 -0.14351023581E+02  0.59367747550E+03  0.46999998093E+01 0. -1.
</event>
<event>
 5   0  0.3751091E-03  0.1185145E+04  0.7818609E-02  0.9125959E-01
        2   -1    0    0  501    0  0.00000000000E+00  0.00000000000E+00  0.11907268259E+04  0.11907268259E+04  0.25500000920E-02 0.  1.
       -2   -1    0    0    0  501  0.00000000000E+00  0.00000000000E+00 -0.29489751860E+03  0.29489751861E+03  0.25500000920E-02 0. -1.
    10030    2    1    2    0    0  0.00000000000E+00  0.00000000000E+00  0.89582930732E+03  0.14856243445E+04  0.11851453688E+04 0.  0.
        5    1    3    3  502    0 -0.50103639128E+03  0.31635518540E+03  0.44604373586E+03  0.74168401157E+03  0.46999998093E+01 0. -1.
       -5    1    3    3    0  502  0.50103639128E+03 -0.31635518540E+03  0.44978557146E+03  0.74394033296E+03  0.46999998093E+01 0.  1.
</event>
<event>
 5   0  0.2078258E-03  0.1244790E+04  0.7818609E-02  0.9074531E-01
       -1   -1    0    0    0  501  0.00000000000E+00  0.00000000000E+00  0.24383871895E+03  0.24383871900E+03  0.50400001928E-02 0. -1.
        1   -1    0    0  501    0  0.00000000000E+00  0.00000000000E+00 -0.15886545700E+04  0.15886545700E+04  0.50400001928E-02 0.  1.
    10030    2    1    2    0    0  0.00000000000E+00  0.00000000000E+00 -0.13448158511E+04  0.18324932890E+04  0.12447899345E+04 0.  0.
        3    1    3    3  502    0  0.92538286913E+01  0.23281055056E+03  0.17721561124E+03  0.29273156452E+03  0.10100000352E+00 0. -1.
       -3    1    3    3    0  502 -0.92538286913E+01 -0.23281055056E+03 -0.15220314623E+04  0.15397617245E+04  0.10100000352E+00 0.  1.
</event>
<event>
 5   0  0.3626049E-03  0.1184987E+04  0.7818609E-02  0.9126100E-01
       -2   -1    0    0    0  501  0.00000000000E+00  0.00000000000E+00  0.68166907239E+03  0.68166907240E+03  0.25500000920E-02 0. -1.
        2   -1    0    0  501    0  0.00000000000E+00  0.00000000000E+00 -0.51498353275E+03  0.51498353276E+03  0.25500000920E-02 0.  1.
    10030    2    1    2    0    0  0.00000000000E+00  0.00000000000E+00  0.16668553964E+03  0.11966526052E+04  0.11849866617E+04 0.  0.
        1    1    3    3  502    0  0.15671865258E+03  0.50578057049E+03  0.35180507447E+03  0.63572126911E+03  0.50400001928E-02 0. -1.
       -1    1    3    3    0  502 -0.15671865258E+03 -0.50578057049E+03 -0.18511953483E+03  0.56093133604E+03  0.50400001928E-02 0.  1.
</event>
<event>
 5   0  0.2047109E-03  0.1198164E+04  0.7818609E-02  0.9114465E-01
        1   -1    0    0  501    0  0.00000000000E+00  0.00000000000E+00  0.14315940457E+04  0.14315940457E+04  0.50400001928E-02 0.  1.
       -1   -1    0    0    0  501  0.00000000000E+00  0.00000000000E+00 -0.25069903600E+03  0.25069903605E+03  0.50400001928E-02 0. -1.
    10030    2    1    2    0    0  0.00000000000E+00  0.00000000000E+00  0.11808950097E+04  0.16822930817E+04  0.11981640075E+04 0.  0.
        1    1    3    3  502    0 -0.84331479752E+02  0.47531939990E+03  0.92335069012E+02  0.49149373892E+03  0.50400001928E-02 0. -1.
       -1    1    3    3    0  502  0.84331479752E+02 -0.47531939990E+03  0.10885599407E+04  0.11907993428E+04  0.50400001928E-02 0.  1.
</event>
<event>
 5   0  0.3626049E-03  0.1198570E+04  0.7818609E-02  0.9114109E-01
       -2   -1    0    0    0  501  0.00000000000E+00  0.00000000000E+00  0.32974418900E+03  0.32974418901E+03  0.25500000920E-02 0. -1.
        2   -1    0    0  501    0  0.00000000000E+00  0.00000000000E+00 -0.10891542177E+04  0.10891542177E+04  0.25500000920E-02 0.  1.
    10030    2    1    2    0    0  0.00000000000E+00  0.00000000000E+00 -0.75941002867E+03  0.14188984067E+04  0.11985696045E+04 0.  0.
        1    1    3    3  502    0 -0.30276680853E+02 -0.56675724219E+03 -0.15195506323E+03  0.58755492530E+03  0.50400001928E-02 0.  1.
       -1    1    3    3    0  502  0.30276680853E+02  0.56675724219E+03 -0.60745496544E+03  0.83134348139E+03  0.50400001928E-02 0. -1.
</event>
<event>
 5   0  0.3626049E-03  0.1204000E+04  0.7818609E-02  0.9109362E-01
        2   -1    0    0  501    0  0.00000000000E+00  0.00000000000E+00  0.58528022486E+03  0.58528022487E+03  0.25500000920E-02 0. -1.
       -2   -1    0    0    0  501  0.00000000000E+00  0.00000000000E+00 -0.61919773860E+03  0.61919773860E+03  0.25500000920E-02 0.  1.
    10030    2    1    2    0    0  0.00000000000E+00  0.00000000000E+00 -0.33917513734E+02  0.12044779635E+04  0.12040003184E+04 0.  0.
        1    1    3    3  502    0 -0.25932297205E+03  0.33856209938E+02  0.52548282264E+03  0.58696409064E+03  0.50400001928E-02 0. -1.
       -1    1    3    3    0  502  0.25932297205E+03 -0.33856209938E+02 -0.55940033637E+03  0.61751387284E+03  0.50400001928E-02 0.  1.
</event>
<event>
 5   0  0.3751091E-03  0.1369572E+04  0.7818609E-02  0.8976143E-01
        2   -1    0    0  501    0  0.00000000000E+00  0.00000000000E+00  0.97845668524E+03  0.97845668525E+03  0.25500000920E-02 0.  1.
       -2   -1    0    0    0  501  0.00000000000E+00  0.00000000000E+00 -0.47925656066E+03  0.47925656067E+03  0.25500000920E-02 0. -1.
    10030    2    1    2    0    0  0.00000000000E+00  0.00000000000E+00  0.49920012458E+03  0.14577132459E+04  0.13695718831E+04 0.  0.
        5    1    3    3  502    0  0.27144023572E+03  0.15851306007E+03  0.89711362134E+03  0.95060040573E+03  0.46999998093E+01 0.  1.
       -5    1    3    3    0  502 -0.27144023572E+03 -0.15851306007E+03 -0.39791349676E+03  0.50711284018E+03  0.46999998093E+01 0. -1.
</event>
<event>
 5   0  0.3650180E-03  0.1191537E+04  0.7818609E-02  0.9120296E-01
        2   -1    0    0  501    0  0.00000000000E+00  0.00000000000E+00  0.88478972155E+03  0.88478972155E+03  0.25500000920E-02 0. -1.
       -2   -1    0    0    0  501  0.00000000000E+00  0.00000000000E+00 -0.40115774590E+03  0.40115774591E+03  0.25500000920E-02 0.  1.
    10030    2    1    2    0    0  0.00000000000E+00  0.00000000000E+00  0.48363197564E+03  0.12859474675E+04  0.11915372429E+04 0.  0.
        3    1    3    3  502    0 -0.34921369793E+03 -0.19193089838E+03 -0.23616717688E+03  0.46320904807E+03  0.10100000352E+00 0.  1.
       -3    1    3    3    0  502  0.34921369793E+03  0.19193089838E+03  0.71979915252E+03  0.82273841939E+03  0.10100000352E+00 0. -1.
</event>
<event>
 5   0  0.2096270E-03  0.1076235E+04  0.7818609E-02  0.9228669E-01
       -1   -1    0    0    0  501  0.00000000000E+00  0.00000000000E+00  0.15202723754E+03  0.15202723763E+03  0.50400001928E-02 0.  1.
        1   -1    0    0  501    0  0.00000000000E+00  0.00000000000E+00 -0.19047273645E+04  0.19047273645E+04  0.50400001928E-02 0. -1.
    10030    2    1    2    0    0  0.00000000000E+00  0.00000000000E+00 -0.17527001270E+04  0.20567546021E+04  0.10762349922E+04 0.  0.
        2    1    3    3  502    0  0.13714979069E+03  0.25100807304E+02  0.11690786199E+03  0.18195484004E+03  0.25500000920E-02 0.  1.
       -2    1    3    3    0  502 -0.13714979069E+03 -0.25100807304E+02 -0.18696079889E+04  0.18747997621E+04  0.25500000920E-02 0. -1.
</event>
<event>
 5   0  0.2078258E-03  0.1194730E+04  0.7818609E-02  0.9117482E-01
        1   -1    0    0  501    0  0.00000000000E+00  0.00000000000E+00  0.22572864071E+03  0.22572864077E+03  0.50400001928E-02 0.  1.
       -1   -1    0    0    0  501  0.00000000000E+00  0.00000000000E+00 -0.15808567670E+04  0.15808567670E+04  0.50400001928E-02 0. -1.
    10030    2    1    2    0    0  0.00000000000E+00  0.00000000000E+00 -0.13551281263E+04  0.18065854078E+04  0.11947295079E+04 0.  0.
        3    1    3    3  502    0  0.28093144276E+03 -0.37335936466E+03 -0.12403625307E+04  0.13254504550E+04  0.10100000352E+00 0. -1.
       -3    1    3    3    0  502 -0.28093144276E+03  0.37335936466E+03 -0.11476559557E+03  0.48113495283E+03  0.10100000352E+00 0.  1.
</event>
<event>
 5   0  0.1397500E-03  0.1190227E+04  0.7818609E-02  0.9121454E-01
       -3   -1    0    0    0  501  0.00000000000E+00  0.00000000000E+00  0.21925985315E+03  0.21925987641E+03  0.10100000352E+00 0. -1.
        3   -1    0    0  501    0  0.00000000000E+00  0.00000000000E+00 -0.16152531232E+04  0.16152531263E+04  0.10100000352E+00 0.  1.
    10030    2    1    2    0    0  0.00000000000E+00  0.00000000000E+00 -0.13959932700E+04  0.18345130028E+04  0.11902271831E+04 0.  0.
        1    1    3    3  502    0  0.10955181367E+03  0.91314671756E+02 -0.15885239552E+04  0.15949132658E+04  0.50400001928E-02 0.  1.
       -1    1    3    3    0  502 -0.10955181367E+03 -0.91314671756E+02  0.19253068521E+03  0.23959973691E+03  0.50400001928E-02 0. -1.
</event>
<event>
 5   0  0.2096270E-03  0.1178112E+04  0.7818609E-02  0.9132233E-01
        1   -1    0    0  501    0  0.00000000000E+00  0.00000000000E+00  0.11679515960E+04  0.11679515960E+04  0.50400001928E-02 0.  1.
       -1   -1    0    0    0  501  0.00000000000E+00  0.00000000000E+00 -0.29709040924E+03  0.29709040928E+03  0.50400001928E-02 0. -1.
    10030    2    1    2    0    0  0.00000000000E+00  0.00000000000E+00  0.87086118677E+03  0.14650420053E+04  0.11781124185E+04 0.  0.
        2    1    3    3  502    0 -0.23726067881E+03 -0.28884080414E+03 -0.13071343872E+03  0.39598944799E+03  0.25500000920E-02 0. -1.
       -2    1    3    3    0  502  0.23726067881E+03  0.28884080414E+03  0.10015746255E+04  0.10690525573E+04  0.25500000920E-02 0.  1.
</event>
<event>
 5   0  0.2047109E-03  0.1172208E+04  0.7818609E-02  0.9137536E-01
       -1   -1    0    0    0  501  0.00000000000E+00  0.00000000000E+00  0.47546426485E+03  0.47546426488E+03  0.50400001928E-02 0.  1.
        1   -1    0    0  501    0  0.00000000000E+00  0.00000000000E+00 -0.72248994307E+03  0.72248994309E+03  0.50400001928E-02 0. -1.
    10030    2    1    2    0    0  0.00000000000E+00  0.00000000000E+00 -0.24702567822E+03  0.11979542080E+04  0.11722084280E+04 0.  0.
        1    1    3    3  502    0  0.81839517136E+02 -0.24661430525E+03 -0.66041030814E+03  0.70968873264E+03  0.50400001928E-02 0. -1.
       -1    1    3    3    0  502 -0.81839517136E+02  0.24661430525E+03  0.41338462991E+03  0.48826547533E+03  0.50400001928E-02 0.  1.
</event>
<event>
 5   0  0.3626049E-03  0.1191784E+04  0.7818609E-02  0.9120079E-01
       -2   -1    0    0    0  501  0.00000000000E+00  0.00000000000E+00  0.34592262782E+03  0.34592262783E+03  0.25500000920E-02 0. -1.
        2   -1    0    0  501    0  0.00000000000E+00  0.00000000000E+00 -0.10264933452E+04  0.10264933452E+04  0.25500000920E-02 0.  1.
    10030    2    1    2    0    0  0.00000000000E+00  0.00000000000E+00 -0.68057071743E+03  0.13724159731E+04  0.11917839996E+04 0.  0.
        1    1    3    3  502    0 -0.36358719618E+03 -0.57007713048E+02 -0.87997695809E+03  0.95383697526E+03  0.50400001928E-02 0.  1.
       -1    1    3    3    0  502  0.36358719618E+03  0.57007713048E+02  0.19940624067E+03  0.41857899782E+03  0.50400001928E-02 0. -1.
</event>
<event>
 5   0  0.2078258E-03  0.1164240E+04  0.7818609E-02  0.9144747E-01
        1   -1    0    0  501    0  0.00000000000E+00  0.00000000000E+00  0.41133058598E+03  0.41133058601E+03  0.50400001928E-02 0. -1.
       -1   -1    0    0    0  501  0.00000000000E+00  0.00000000000E+00 -0.82382266730E+03  0.82382266731E+03  0.50400001928E-02 0.  1.
    10030    2    1    2    0    0  0.00000000000E+00  0.00000000000E+00 -0.41249208131E+03  0.12351532533E+04  0.11642395982E+04 0.  0.
        3    1    3    3  502    0  0.30072106899E+03  0.45496822215E+03 -0.42219841812E+03  0.68969613524E+03  0.10100000352E+00 0. -1.
       -3    1    3    3    0  502 -0.30072106899E+03 -0.45496822215E+03  0.97063368072E+01  0.54545711809E+03  0.10100000352E+00 0.  1.
</event>
<event>
 5   0  0.3706035E-03  0.1192100E+04  0.7818609E-02  0.9119799E-01
        2   -1    0    0  501    0  0.00000000000E+00  0.00000000000E+00  0.14108019863E+04  0.14108019863E+04  0.25500000920E-02 0.  1.
       -2   -1    0    0    0  501  0.00000000000E+00  0.00000000000E+00 -0.25182546798E+03  0.25182546800E+03  0.25500000920E-02 0. -1.
    10030    2    1    2    0    0  0.00000000000E+00  0.00000000000E+00  0.11589765183E+04  0.16626274543E+04  0.11921004495E+04 0.  0.
        2    1    3    3  502    0 -0.32603036020E+03  0.38463784472E+03  0.10228063418E+04  0.11403398091E+04  0.25500000920E-02 0.  1.
       -2    1    3    3    0  502  0.32603036020E+03 -0.38463784472E+03  0.13617017652E+03  0.52228764521E+03  0.25500000920E-02 0. -1.
</event>
<event>
 5   0  0.2025294E-03  0.1195433E+04  0.7818609E-02  0.9116864E-01
        1   -1    0    0  501    0  0.00000000000E+00  0.00000000000E+00  0.88284910692E+03  0.88284910693E+03  0.50400001928E-02 0.  1.
       -1   -1    0    0    0  501  0.00000000000E+00  0.00000000000E+00 -0.40467273604E+03  0.40467273608E+03  0.50400001928E-02 0. -1.
    10030    2    1    2    0    0  0.00000000000E+00  0.00000000000E+00  0.47817637087E+03  0.12875218430E+04  0.11954329151E+04 0.  0.
        5    1    3    3  502    0 -0.12044594698E+03 -0.44865632348E+03 -0.16597274628E+03  0.49332419893E+03  0.46999998093E+01 0. -1.
       -5    1    3    3    0  502  0.12044594698E+03  0.44865632348E+03  0.64414911715E+03  0.79419764408E+03  0.46999998093E+01 0.  1.
</event>
<event>
 5   0  0.3725376E-03  0.1176405E+04  0.7818609E-02  0.9133764E-01
        2   -1    0    0  501    0  0.00000000000E+00  0.00000000000E+00  0.12937698991E+04  0.12937698991E+04  0.25500000920E-02 0. -1.
       -2   -1    0    0    0  501  0.00000000000E+00  0.00000000000E+00 -0.26742161569E+03  0.26742161570E+03  0.25500000920E-02 0.  1.
    10030    2    1    2    0    0  0.00000000000E+00  0.00000000000E+00  0.10263482835E+04  0.15611915148E+04  0.11764047548E+04 0.  0.
        4    1    3    3  502    0  0.91206321238E+02 -0.39353542568E+03  0.10805588757E+04  0.11536021069E+04  0.12699999809E+01 0. -1.
       -4    1    3    3    0  502 -0.91206321238E+02  0.39353542568E+03 -0.54210592206E+02  0.40758940799E+03  0.12699999809E+01 0.  1.
</event>
<event>
 5   0  0.3626049E-03  0.1207544E+04  0.7818609E-02  0.9106279E-01
       -2   -1    0    0    0  501  0.00000000000E+00  0.00000000000E+00  0.99827691157E+03  0.99827691158E+03  0.25500000920E-02 0.  1.
        2   -1    0    0  501    0  0.00000000000E+00  0.00000000000E+00 -0.36516959291E+03  0.36516959292E+03  0.25500000920E-02 0. -1.
    10030    2    1    2    0    0  0.00000000000E+00  0.00000000000E+00  0.63310731866E+03  0.13634465045E+04  0.12075435784E+04 0.  0.
        1    1    3    3  502    0  0.46030515227E+03  0.35541375297E+03  0.13330189783E+03  0.59663151526E+03  0.50400001928E-02 0. -1.
       -1    1    3    3    0  502 -0.46030515227E+03 -0.35541375297E+03  0.49980542083E+03  0.76681498924E+03  0.50400001928E-02 0.  1.
</event>
<event>
 5   0  0.3626049E-03  0.1208959E+04  0.7818609E-02  0.9105051E-01
       -2   -1    0    0    0  501  0.00000000000E+00  0.00000000000E+00  0.26406027035E+03  0.26406027037E+03  0.25500000920E-02 0.  1.
        2   -1    0    0  501    0  0.00000000000E+00  0.00000000000E+00 -0.13837567193E+04  0.13837567193E+04  0.25500000920E-02 0. -1.
    10030    2    1    2    0    0  0.00000000000E+00  0.00000000000E+00 -0.11196964489E+04  0.16478169896E+04  0.12089585161E+04 0.  0.
        1    1    3    3  502    0  0.64444812578E+02  0.49335203366E+03 -0.91946494285E+02  0.50596790493E+03  0.50400001928E-02 0.  1.
       -1    1    3    3    0  502 -0.64444812578E+02 -0.49335203366E+03 -0.10277499546E+04  0.11418490847E+04  0.50400001928E-02 0. -1.
</event>
<event>
 5   0  0.2134992E-03  0.1202507E+04  0.7818609E-02  0.9110665E-01
       -1   -1    0    0    0  501  0.00000000000E+00  0.00000000000E+00  0.12334477356E+04  0.12334477356E+04  0.50400001928E-02 0. -1.
        1   -1    0    0  501    0  0.00000000000E+00  0.00000000000E+00 -0.29308581479E+03  0.29308581483E+03  0.50400001928E-02 0.  1.
    10030    2    1    2    0    0  0.00000000000E+00  0.00000000000E+00  0.94036192084E+03  0.15265335505E+04  0.12025074380E+04 0.  0.
        4    1    3    3  502    0 -0.46918121642E+03  0.37207266361E+03  0.40140322773E+03  0.72089891453E+03  0.12699999809E+01 0.  1.
       -4    1    3    3    0  502  0.46918121642E+03 -0.37207266361E+03  0.53895869311E+03  0.80563463594E+03  0.12699999809E+01 0. -1.
</event>
<event>
 5   0  0.3725376E-03  0.1197347E+04  0.7818609E-02  0.9115182E-01
       -2   -1    0    0    0  501  0.00000000000E+00  0.00000000000E+00  0.25582023146E+03  0.25582023147E+03  0.25500000920E-02 0.  1.
        2   -1    0    0  501    0  0.00000000000E+00  0.00000000000E+00 -0.14010222574E+04  0.14010222574E+04  0.25500000920E-02 0. -1.
    10030    2    1    2    0    0  0.00000000000E+00  0.00000000000E+00 -0.11452020260E+04  0.16568424889E+04  0.11973467972E+04 0.  0.
        4    1    3    3  502    0 -0.16040821805E+03 -0.35073027730E+03  0.61013275219E+02  0.39046991751E+03  0.12699999809E+01 0.  1.
       -4    1    3    3    0  502  0.16040821805E+03  0.35073027730E+03 -0.12062153012E+04  0.12663725714E+04  0.12699999809E+01 0. -1.
</event>
<event>
 5   0  0.3725376E-03  0.1183292E+04  0.7818609E-02  0.9127608E-01
        2   -1    0    0  501    0  0.00000000000E+00  0.00000000000E+00  0.93204206010E+03  0.93204206011E+03  0.25500000920E-02 0. -1.
       -2   -1    0    0    0  501  0.00000000000E+00  0.00000000000E+00 -0.37556789906E+03  0.37556789907E+03  0.25500000920E-02 0.  1.
    10030    2    1    2    0    0  0.00000000000E+00  0.00000000000E+00  0.55647416104E+03  0.13076099592E+04  0.11832921505E+04 0.  0.
        4    1    3    3  502    0 -0.36546043488E+03  0.44773243461E+03  0.13837895281E+03  0.59428613474E+03  0.12699999809E+01 0.  1.
       -4    1    3    3    0  502  0.36546043488E+03 -0.44773243461E+03  0.41809520823E+03  0.71332382444E+03  0.12699999809E+01 0. -1.
</event>
<event>
 5   0  0.2096270E-03  0.1208370E+04  0.7818609E-02  0.9105562E-01
        1   -1    0    0  501    0  0.00000000000E+00  0.00000000000E+00  0.99611336091E+03  0.99611336092E+03  0.50400001928E-02 0. -1.
       -1   -1    0    0    0  501  0.00000000000E+00  0.00000000000E+00 -0.36646388627E+03  0.36646388631E+03  0.50400001928E-02 0.  1.
    10030    2    1    2    0    0  0.00000000000E+00  0.00000000000E+00  0.62964947463E+03  0.13625772472E+04  0.12083700980E+04 0.  0.
        2    1    3    3  502    0  0.23229920233E+03  0.53335159802E+03  0.49877730388E+03  0.76629344601E+03  0.25500000920E-02 0. -1.
       -2    1    3    3    0  502 -0.23229920233E+03 -0.53335159802E+03  0.13087217075E+03  0.59628380122E+03  0.25500000920E-02 0.  1.
</event>
<event>
 5   0  0.3626049E-03  0.1186094E+04  0.7818609E-02  0.9125117E-01
        2   -1    0    0  501    0  0.00000000000E+00  0.00000000000E+00  0.13586944390E+04  0.13586944390E+04  0.25500000920E-02 0. -1.
       -2   -1    0    0    0  501  0.00000000000E+00  0.00000000000E+00 -0.25885473997E+03  0.25885473999E+03  0.25500000920E-02 0.  1.
    10030    2    1    2    0    0  0.00000000000E+00  0.00000000000E+00  0.10998396990E+04  0.16175491790E+04  0.11860935810E+04 0.  0.
        1    1    3    3  502    0 -0.24140715765E+03  0.31908692279E+03  0.11468840961E+04  0.12146756810E+04  0.50400001928E-02 0. -1.
       -1    1    3    3    0  502  0.24140715765E+03 -0.31908692279E+03 -0.47044397090E+02  0.40287349799E+03  0.50400001928E-02 0.  1.
</event>
<event>
 5   0  0.2025294E-03  0.1226180E+04  0.7818609E-02  0.9090245E-01
        1   -1    0    0  501    0  0.00000000000E+00  0.00000000000E+00  0.17265204047E+04  0.17265204047E+04  0.50400001928E-02 0.  1.
       -1   -1    0    0    0  501  0.00000000000E+00  0.00000000000E+00 -0.21770928630E+03  0.21770928636E+03  0.50400001928E-02 0. -1.
    10030    2    1    2    0    0  0.00000000000E+00  0.00000000000E+00  0.15088111184E+04  0.19442296911E+04  0.12261802888E+04 0.  0.
        5    1    3    3  502    0  0.49995225936E+02 -0.10062347242E+03 -0.20121566649E+03  0.23050908932E+03  0.46999998093E+01 0. -1.
       -5    1    3    3    0  502 -0.49995225936E+02  0.10062347242E+03  0.17100267849E+04  0.17137206017E+04  0.46999998093E+01 0.  1.
</event>
<event>
 5   0  0.2025294E-03  0.1211310E+04  0.7818609E-02  0.9103014E-01
        1   -1    0    0  501    0  0.00000000000E+00  0.00000000000E+00  0.82402991519E+03  0.82402991520E+03  0.50400001928E-02 0. -1.
       -1   -1    0    0    0  501  0.00000000000E+00  0.00000000000E+00 -0.44515117763E+03  0.44515117766E+03  0.50400001928E-02 0.  1.
    10030    2    1    2    0    0  0.00000000000E+00  0.00000000000E+00  0.37887873755E+03  0.12691810929E+04  0.12113098483E+04 0.  0.
        5    1    3    3  502    0 -0.47438028612E+03  0.37198501973E+03  0.25041133350E+03  0.65279203174E+03  0.46999998093E+01 0. -1.
       -5    1    3    3    0  502  0.47438028612E+03 -0.37198501973E+03  0.12846740405E+03  0.61638906112E+03  0.46999998093E+01 0.  1.
</event>
<event>
 5   0  0.2025294E-03  0.1203157E+04  0.7818609E-02  0.9110098E-01
       -1   -1    0    0    0  501  0.00000000000E+00  0.00000000000E+00  0.80027906822E+03  0.80027906824E+03  0.50400001928E-02 0. -1.
        1   -1    0    0  501    0  0.00000000000E+00  0.00000000000E+00 -0.45221288191E+03  0.45221288194E+03  0.50400001928E-02 0.  1.
    10030    2    1    2    0    0  0.00000000000E+00  0.00000000000E+00  0.34806618632E+03  0.12524919502E+04  0.12031566877E+04 0.  0.
        5    1    3    3  502    0 -0.36325435354E+02 -0.24059348896E+03 -0.39868010417E+03  0.46708958417E+03  0.46999998093E+01 0.  1.
       -5    1    3    3    0  502  0.36325435354E+02  0.24059348896E+03  0.74674629048E+03  0.78540236601E+03  0.46999998093E+01 0. -1.
</event>
<event>
 5   0  0.2096270E-03  0.1065023E+04  0.7818609E-02  0.9239970E-01
       -1   -1    0    0    0  501  0.00000000000E+00  0.00000000000E+00  0.63172505293E+03  0.63172505295E+03  0.50400001928E-02 0. -1.
        1   -1    0    0  501    0  0.00000000000E+00  0.00000000000E+00 -0.44887938155E+03  0.44887938157E+03  0.50400001928E-02 0.  1.
    10030    2    1    2    0    0  0.00000000000E+00  0.00000000000E+00  0.18284567138E+03  0.10806044345E+04  0.10650227248E+04 0.  0.
        2    1    3    3  502    0 -0.48719322613E+03 -0.42600881592E+02  0.30520976237E+03  0.57647642948E+03  0.25500000920E-02 0.  1.
       -2    1    3    3    0  502  0.48719322613E+03  0.42600881592E+02 -0.12236409099E+03  0.50412800504E+03  0.25500000920E-02 0. -1.
</event>
<event>
 5   0  0.3650180E-03  0.1198244E+04  0.7818609E-02  0.9114395E-01
        2   -1    0    0  501    0  0.00000000000E+00  0.00000000000E+00  0.11673013070E+04  0.11673013070E+04  0.25500000920E-02 0. -1.
       -2   -1    0    0    0  501  0.00000000000E+00  0.00000000000E+00 -0.30750173863E+03  0.30750173864E+03  0.25500000920E-02 0.  1.
    10030    2    1    2    0    0  0.00000000000E+00  0.00000000000E+00  0.85979956836E+03  0.14748030456E+04  0.11982440176E+04 0.  0.
        3    1    3    3  502    0  0.14111660509E+03  0.36391327922E+03  0.98934084098E+03  0.10635516353E+04  0.10100000352E+00 0. -1.
       -3    1    3    3    0  502 -0.14111660509E+03 -0.36391327922E+03 -0.12954127262E+03  0.41125141037E+03  0.10100000352E+00 0.  1.
</event>
<event>
 5   0  0.3751091E-03  0.1182252E+04  0.7818609E-02  0.9128535E-01
        2   -1    0    0  501    0  0.00000000000E+00  0.00000000000E+00  0.61504441240E+03  0.61504441241E+03  0.25500000920E-02 0. -1.
       -2   -1    0    0    0  501  0.00000000000E+00  0.00000000000E+00 -0.56813752983E+03  0.56813752983E+03  0.25500000920E-02 0.  1.
    10030    2    1    2    0    0  0.00000000000E+00  0.00000000000E+00  0.46906882576E+02  0.11831819422E+04  0.11822517722E+04 0.  0.
        5    1    3    3  502    0 -0.26947525068E+03  0.33574532804E+03  0.42882260107E+03  0.60766170623E+03  0.46999998093E+01 0. -1.
       -5    1    3    3    0  502  0.26947525068E+03 -0.33574532804E+03 -0.38191571849E+03  0.57552023601E+03  0.46999998093E+01 0.  1.
</event>
<event>
 5   0  0.3706035E-03  0.1196526E+04  0.7818609E-02  0.9115903E-01
       -2   -1    0    0    0  501  0.00000000000E+00  0.00000000000E+00  0.67468850092E+03  0.67468850092E+03  0.25500000920E-02 0. -1.
        2   -1    0    0  501    0  0.00000000000E+00  0.00000000000E+00 -0.53049471497E+03  0.53049471498E+03  0.25500000920E-02 0.  1.
    10030    2    1    2    0    0  0.00000000000E+00  0.00000000000E+00  0.14419378594E+03  0.12051832159E+04  0.11965261117E+04 0.  0.
        2    1    3    3  502    0  0.23488441708E+03 -0.21662564430E+02 -0.48167981740E+03  0.53633515882E+03  0.25500000920E-02 0.  1.
       -2    1    3    3    0  502 -0.23488441708E+03  0.21662564430E+02  0.62587360335E+03  0.66884805708E+03  0.25500000920E-02 0. -1.
</event>
<event>
 5   0  0.2096270E-03  0.1281428E+04  0.7818609E-02  0.9044424E-01
        1   -1    0    0  501    0  0.00000000000E+00  0.00000000000E+00  0.11329021649E+04  0.11329021649E+04  0.50400001928E-02 0.  1.
       -1   -1    0    0    0  501  0.00000000000E+00  0.00000000000E+00 -0.36235626667E+03  0.36235626670E+03  0.50400001928E-02 0. -1.
    10030    2    1    2    0    0  0.00000000000E+00  0.00000000000E+00  0.77054589819E+03  0.14952584316E+04  0.12814276398E+04 0.  0.
        2    1    3    3  502    0  0.54822594640E+03 -0.33008584594E+03  0.34826562348E+03  0.72855837000E+03  0.25500000920E-02 0.  1.
       -2    1    3    3    0  502 -0.54822594640E+03  0.33008584594E+03  0.42228027471E+03  0.76670006157E+03  0.25500000920E-02 0. -1.
</event>
<event>
 5   0  0.3626049E-03  0.1188086E+04  0.7818609E-02  0.9123349E-01
        2   -1    0    0  501    0  0.00000000000E+00  0.00000000000E+00  0.47685160045E+03  0.47685160045E+03  0.25500000920E-02 0. -1.
       -2   -1    0    0    0  501  0.00000000000E+00  0.00000000000E+00 -0.74003565546E+03  0.74003565546E+03  0.25500000920E-02 0.  1.
    10030    2    1    2    0    0  0.00000000000E+00  0.00000000000E+00 -0.26318405501E+03  0.12168872559E+04  0.11880861698E+04 0.  0.
        1    1    3    3  502    0  0.11007821804E+03 -0.58033982104E+03 -0.19617340107E+03  0.62241105813E+03  0.50400001928E-02 0.  1.
       -1    1    3    3    0  502 -0.11007821804E+03  0.58033982104E+03 -0.67010653943E+02  0.59447619779E+03  0.50400001928E-02 0. -1.
</event>
<event>
 5   0  0.1397500E-03  0.1014712E+04  0.7818609E-02  0.9292554E-01
       -3   -1    0    0    0  501  0.00000000000E+00  0.00000000000E+00  0.17254459563E+03  0.17254462519E+03  0.10100000352E+00 0. -1.
        3   -1    0    0  501    0  0.00000000000E+00  0.00000000000E+00 -0.14918479099E+04  0.14918479133E+04  0.10100000352E+00 0.  1.
    10030    2    1    2    0    0  0.00000000000E+00  0.00000000000E+00 -0.13193033142E+04  0.16643925385E+04  0.10147124160E+04 0.  0.
        1    1    3    3  502    0 -0.35478481004E+03  0.35734021474E+03 -0.55792864994E+03  0.75156414827E+03  0.50400001928E-02 0. -1.
       -1    1    3    3    0  502  0.35478481004E+03 -0.35734021474E+03 -0.76137466429E+03  0.91282839020E+03  0.50400001928E-02 0.  1.
</event>
<event>
 5   0  0.1397500E-03  0.1178877E+04  0.7818609E-02  0.9131549E-01
       -4   -1    0    0    0  501  0.00000000000E+00  0.00000000000E+00  0.14589162509E+04  0.14589168037E+04  0.12699999809E+01 0. -1.
        4   -1    0    0  501    0  0.00000000000E+00  0.00000000000E+00 -0.23814572250E+03  0.23814910885E+03  0.12699999809E+01 0.  1.
    10030    2    1    2    0    0  0.00000000000E+00  0.00000000000E+00  0.12207705284E+04  0.16970659126E+04  0.11788774442E+04 0.  0.
        5    1    3    3  502    0  0.42621585697E+03 -0.38896892721E+03  0.43728361959E+03  0.72401369948E+03  0.46999998093E+01 0.  1.
       -5    1    3    3    0  502 -0.42621585697E+03  0.38896892721E+03  0.78348690883E+03  0.97305221308E+03  0.46999998093E+01 0. -1.
</event>
<event>
 5   0  0.2047109E-03  0.1193542E+04  0.7818609E-02  0.9118528E-01
       -1   -1    0    0    0  501  0.00000000000E+00  0.00000000000E+00  0.47765654248E+03  0.47765654250E+03  0.50400001928E-02 0. -1.
        1   -1    0    0  501    0  0.00000000000E+00  0.00000000000E+00 -0.74558904916E+03  0.74558904918E+03  0.50400001928E-02 0.  1.
    10030    2    1    2    0    0  0.00000000000E+00  0.00000000000E+00 -0.26793250669E+03  0.12232455917E+04  0.11935417669E+04 0.  0.
        1    1    3    3  502    0  0.24074240399E+03  0.79329901958E+02 -0.68767602279E+03  0.73290412112E+03  0.50400001928E-02 0.  1.
       -1    1    3    3    0  502 -0.24074240399E+03 -0.79329901958E+02  0.41974351610E+03  0.49034147056E+03  0.50400001928E-02 0. -1.
</event>
<event>
 5   0  0.2078258E-03  0.1178234E+04  0.7818609E-02  0.9132125E-01
        1   -1    0    0  501    0  0.00000000000E+00  0.00000000000E+00  0.46526462294E+03  0.46526462297E+03  0.50400001928E-02 0. -1.
       -1   -1    0    0    0  501  0.00000000000E+00  0.00000000000E+00 -0.74593815947E+03  0.74593815949E+03  0.50400001928E-02 0.  1.
    10030    2    1    2    0    0  0.00000000000E+00  0.00000000000E+00 -0.28067353653E+03  0.12112027825E+04  0.11782336551E+04 0.  0.
        3    1    3    3  502    0  0.27020751890E+03 -0.15086097800E+03  0.37497595898E+03  0.48618732806E+03  0.10100000352E+00 0. -1.
       -3    1    3    3    0  502 -0.27020751890E+03  0.15086097800E+03 -0.65564949551E+03  0.72501545440E+03  0.10100000352E+00 0.  1.
</event>
<event>
 5   0  0.2096270E-03  0.1203903E+04  0.7818609E-02  0.9109447E-01
        1   -1    0    0  501    0  0.00000000000E+00  0.00000000000E+00  0.10991362574E+04  0.10991362574E+04  0.50400001928E-02 0. -1.
       -1   -1    0    0    0  501  0.00000000000E+00  0.00000000000E+00 -0.32966412683E+03  0.32966412687E+03  0.50400001928E-02 0.  1.
    10030    2    1    2    0    0  0.00000000000E+00  0.00000000000E+00  0.76947213058E+03  0.14288003843E+04  0.12039033094E+04 0.  0.
        2    1    3    3  502    0  0.29313956976E+03  0.70062275794E+02  0.10031366301E+04  0.10474362169E+04  0.25500000920E-02 0. -1.
       -2    1    3    3    0  502 -0.29313956976E+03 -0.70062275794E+02 -0.23366449949E+03  0.38136416740E+03  0.25500000920E-02 0.  1.
</event>
<event>
 5   0  0.2078258E-03  0.1192383E+04  0.7818609E-02  0.9119550E-01
        1   -1    0    0  501    0  0.00000000000E+00  0.00000000000E+00  0.98363012495E+03  0.98363012496E+03  0.50400001928E-02 0. -1.
       -1   -1    0    0    0  501  0.00000000000E+00  0.00000000000E+00 -0.36135957371E+03  0.36135957374E+03  0.50400001928E-02 0.  1.
    10030    2    1    2    0    0  0.00000000000E+00  0.00000000000E+00  0.62227055124E+03  0.13449896987E+04  0.11923827618E+04 0.  0.
        3    1    3    3  502    0 -0.32809714807E+03  0.42094980790E+03  0.11427187844E+02  0.53383243642E+03  0.10100000352E+00 0.  1.
       -3    1    3    3    0  502  0.32809714807E+03 -0.42094980790E+03  0.61084336339E+03  0.81115726228E+03  0.10100000352E+00 0. -1.
</event>
<event>
 5   0  0.2134992E-03  0.1218591E+04  0.7818609E-02  0.9096737E-01
       -1   -1    0    0    0  501  0.00000000000E+00  0.00000000000E+00  0.35350963100E+03  0.35350963104E+03  0.50400001928E-02 0. -1.
        1   -1    0    0  501    0  0.00000000000E+00  0.00000000000E+00 -0.10501586514E+04  0.10501586514E+04  0.50400001928E-02 0.  1.
    10030    2    1    2    0    0  0.00000000000E+00  0.00000000000E+00 -0.69664902039E+03  0.14036682824E+04  0.12185913136E+04 0.  0.
        4    1    3    3  502    0  0.11781040908E+03 -0.57440708305E+03 -0.53905264005E+03  0.79649366049E+03  0.12699999809E+01 0.  1.
       -4    1    3    3    0  502 -0.11781040908E+03  0.57440708305E+03 -0.15759638034E+03  0.60717462195E+03  0.12699999809E+01 0. -1.
</event>
<event>
 5   0  0.2096270E-03  0.1228327E+04  0.7818609E-02  0.9088417E-01
       -1   -1    0    0    0  501  0.00000000000E+00  0.00000000000E+00  0.46435043983E+03  0.46435043986E+03  0.50400001928E-02 0.  1.
        1   -1    0    0  501    0  0.00000000000E+00  0.00000000000E+00 -0.81231059757E+03  0.81231059759E+03  0.50400001928E-02 0. -1.
    10030    2    1    2    0    0  0.00000000000E+00  0.00000000000E+00 -0.34796015774E+03  0.12766610374E+04  0.12283269651E+04 0.  0.
        2    1    3    3  502    0 -0.60824676513E+03  0.75747988060E+02 -0.21416539983E+03  0.64928322285E+03  0.25500000920E-02 0. -1.
       -2    1    3    3    0  502  0.60824676513E+03 -0.75747988060E+02 -0.13379475791E+03  0.62737781459E+03  0.25500000920E-02 0.  1.
</event>
<event>
 5   0  0.3706035E-03  0.1196380E+04  0.7818609E-02  0.9116031E-01
        2   -1    0    0  501    0  0.00000000000E+00  0.00000000000E+00  0.12490794537E+04  0.12490794537E+04  0.25500000920E-02 0.  1.
       -2   -1    0    0    0  501  0.00000000000E+00  0.00000000000E+00 -0.28647575333E+03  0.28647575334E+03  0.25500000920E-02 0. -1.
    10030    2    1    2    0    0  0.00000000000E+00  0.00000000000E+00  0.96260370041E+03  0.15355552071E+04  0.11963795008E+04 0.  0.
        2    1    3    3  502    0 -0.39549112151E+03  0.61912595685E+02  0.10518246396E+04  0.11254250171E+04  0.25500000920E-02 0.  1.
       -2    1    3    3    0  502  0.39549112151E+03 -0.61912595685E+02 -0.89220939205E+02  0.41013018994E+03  0.25500000920E-02 0. -1.
</event>
<event>
 5   0  0.2096270E-03  0.1227210E+04  0.7818609E-02  0.9089367E-01
        1   -1    0    0  501    0  0.00000000000E+00  0.00000000000E+00  0.81424428645E+03  0.81424428646E+03  0.50400001928E-02 0. -1.
       -1   -1    0    0    0  501  0.00000000000E+00  0.00000000000E+00 -0.46240563311E+03  0.46240563314E+03  0.50400001928E-02 0.  1.
    10030    2    1    2    0    0  0.00000000000E+00  0.00000000000E+00  0.35183865334E+03  0.12766499196E+04  0.12272100795E+04 0.  0.
        2    1    3    3  502    0  0.26194688971E+03 -0.96693567676E+02  0.74432453213E+03  0.79497473431E+03  0.25500000920E-02 0. -1.
       -2    1    3    3    0  502 -0.26194688971E+03  0.96693567676E+02 -0.39248587880E+03  0.48167518529E+03  0.25500000920E-02 0.  1.
</event>
<event>
 5   0  0.2025294E-03  0.1193348E+04  0.7818609E-02  0.9118699E-01
       -1   -1    0    0    0  501  0.00000000000E+00  0.00000000000E+00  0.41957993030E+03  0.41957993033E+03  0.50400001928E-02 0. -1.
        1   -1    0    0  501    0  0.00000000000E+00  0.00000000000E+00 -0.84851512011E+03  0.84851512012E+03  0.50400001928E-02 0.  1.
    10030    2    1    2    0    0  0.00000000000E+00  0.00000000000E+00 -0.42893518980E+03  0.12680950505E+04  0.11933480883E+04 0.  0.
        5    1    3    3  502    0 -0.41793323476E+03  0.48633280524E+02 -0.66400728202E+03  0.78610504722E+03  0.46999998093E+01 0.  1.
       -5    1    3    3    0  502  0.41793323476E+03 -0.48633280524E+02  0.23507209221E+03  0.48199000324E+03  0.46999998093E+01 0. -1.
</event>
<event>
 5   0  0.1397500E-03  0.1186845E+04  0.7818609E-02  0.9124450E-01
       -3   -1    0    0    0  501  0.00000000000E+00  0.00000000000E+00  0.40049578124E+03  0.40049579397E+03  0.10100000352E+00 0.  1.
        3   -1    0    0  501    0  0.00000000000E+00  0.00000000000E+00 -0.87928536492E+03  0.87928537072E+03  0.10100000352E+00 0. -1.
    10030    2    1    2    0    0  0.00000000000E+00  0.00000000000E+00 -0.47878958369E+03  0.12797811647E+04  0.11868447093E+04 0.  0.
        4    1    3    3  502    0 -0.19885059349E+02 -0.59308640832E+03 -0.24074796887E+03  0.64039683067E+03  0.12699999809E+01 0.  1.
       -4    1    3    3    0  502  0.19885059349E+02  0.59308640832E+03 -0.23804161482E+03  0.63938433403E+03  0.12699999809E+01 0. -1.
</event>
<event>
 5   0  0.3650180E-03  0.1189867E+04  0.7818609E-02  0.9121772E-01
       -2   -1    0    0    0  501  0.00000000000E+00  0.00000000000E+00  0.15725422688E+03  0.15725422690E+03  0.25500000920E-02 0. -1.
        2   -1    0    0  501    0  0.00000000000E+00  0.00000000000E+00 -0.22507888888E+04  0.22507888888E+04  0.25500000920E-02 0.  1.
    10030    2    1    2    0    0  0.00000000000E+00  0.00000000000E+00 -0.20935346619E+04  0.24080431157E+04  0.11898673314E+04 0.  0.
        3    1    3    3  502    0 -0.25863778751E+03  0.29422927144E+02 -0.21294234865E+04  0.21452747164E+04  0.10100000352E+00 0.  1.
       -3    1    3    3    0  502  0.25863778751E+03 -0.29422927144E+02  0.35888824537E+02  0.26276839935E+03  0.10100000352E+00 0. -1.
</event>
<event>
 5   0  0.3650180E-03  0.1164468E+04  0.7818609E-02  0.9144539E-01
       -2   -1    0    0    0  501  0.00000000000E+00  0.00000000000E+00  0.37927563076E+03  0.37927563077E+03  0.25500000920E-02 0. -1.
        2   -1    0    0  501    0  0.00000000000E+00  0.00000000000E+00 -0.89379982454E+03  0.89379982455E+03  0.25500000920E-02 0.  1.
    10030    2    1    2    0    0  0.00000000000E+00  0.00000000000E+00 -0.51452419378E+03  0.12730754553E+04  0.11644681056E+04 0.  0.
        3    1    3    3  502    0  0.10511396529E+03  0.57235891319E+03 -0.23672696500E+03  0.62823828073E+03  0.10100000352E+00 0.  1.
       -3    1    3    3    0  502 -0.10511396529E+03 -0.57235891319E+03 -0.27779722878E+03  0.64483717459E+03  0.10100000352E+00 0. -1.
</event>
<event>
 5   0  0.3725376E-03  0.1189747E+04  0.7818609E-02  0.9121878E-01
       -2   -1    0    0    0  501  0.00000000000E+00  0.00000000000E+00  0.29125715664E+03  0.29125715665E+03  0.25500000920E-02 0.  1.
        2   -1    0    0  501    0  0.00000000000E+00  0.00000000000E+00 -0.12149904998E+04  0.12149904998E+04  0.25500000920E-02 0. -1.
    10030    2    1    2    0    0  0.00000000000E+00  0.00000000000E+00 -0.92373334317E+03  0.15062476565E+04  0.11897473317E+04 0.  0.
        4    1    3    3  502    0 -0.50828297423E+03 -0.20267913303E+03 -0.16646613275E+03  0.57196415894E+03  0.12699999809E+01 0.  1.
       -4    1    3    3    0  502  0.50828297423E+03  0.20267913303E+03 -0.75726721042E+03  0.93428349751E+03  0.12699999809E+01 0. -1.
</event>
<event>
 5   0  0.3650180E-03  0.1213592E+04  0.7818609E-02  0.9101042E-01
       -2   -1    0    0    0  501  0.00000000000E+00  0.00000000000E+00  0.87351809559E+03  0.87351809560E+03  0.25500000920E-02 0. -1.
        2   -1    0    0  501    0  0.00000000000E+00  0.00000000000E+00 -0.42151522214E+03  0.42151522215E+03  0.25500000920E-02 0.  1.
    10030    2    1    2    0    0  0.00000000000E+00  0.00000000000E+00  0.45200287345E+03  0.12950333177E+04  0.12135916514E+04 0.  0.
        3    1    3    3  502    0  0.36437397442E+03  0.45127064334E+02  0.74153312172E+03  0.82745164570E+03  0.10100000352E+00 0. -1.
       -3    1    3    3    0  502 -0.36437397442E+03 -0.45127064334E+02 -0.28953024827E+03  0.46758167205E+03  0.10100000352E+00 0.  1.
</event>
<event>
 5   0  0.3626049E-03  0.1214338E+04  0.7818609E-02  0.9100398E-01
        2   -1    0    0  501    0  0.00000000000E+00  0.00000000000E+00  0.12492467420E+04  0.12492467420E+04  0.25500000920E-02 0. -1.
       -2   -1    0    0    0  501  0.00000000000E+00  0.00000000000E+00 -0.29510118559E+03  0.29510118560E+03  0.25500000920E-02 0.  1.
    10030    2    1    2    0    0  0.00000000000E+00  0.00000000000E+00  0.95414555637E+03  0.15443479276E+04  0.12143380002E+04 0.  0.
        1    1    3    3  502    0  0.50894400428E+03 -0.15918521997E+03  0.84630046805E+03  0.10002941647E+04  0.50400001928E-02 0. -1.
       -1    1    3    3    0  502 -0.50894400428E+03  0.15918521997E+03  0.10784508833E+03  0.54405376283E+03  0.50400001928E-02 0.  1.
</event>
<event>
 5   0  0.3751091E-03  0.1468671E+04  0.7818609E-02  0.8905558E-01
        2   -1    0    0  501    0  0.00000000000E+00  0.00000000000E+00  0.57558138448E+03  0.57558138449E+03  0.25500000920E-02 0.  1.
       -2   -1    0    0    0  501  0.00000000000E+00  0.00000000000E+00 -0.93687688923E+03  0.93687688923E+03  0.25500000920E-02 0. -1.
    10030    2    1    2    0    0  0.00000000000E+00  0.00000000000E+00 -0.36129550474E+03  0.15124582737E+04  0.14686713683E+04 0.  0.
        5    1    3    3  502    0  0.33147172843E+03 -0.59147119056E+02  0.49138371251E+03  0.59569449499E+03  0.46999998093E+01 0.  1.
       -5    1    3    3    0  502 -0.33147172843E+03  0.59147119056E+02 -0.85267921726E+03  0.91676377873E+03  0.46999998093E+01 0. -1.
</event>
<event>
 5   0  0.3751091E-03  0.1159060E+04  0.7818609E-02  0.9149466E-01
       -2   -1    0    0    0  501  0.00000000000E+00  0.00000000000E+00  0.53107450598E+03  0.53107450598E+03  0.25500000920E-02 0. -1.
        2   -1    0    0  501    0  0.00000000000E+00  0.00000000000E+00 -0.63240605998E+03  0.63240605998E+03  0.25500000920E-02 0.  1.
    10030    2    1    2    0    0  0.00000000000E+00  0.00000000000E+00 -0.10133155400E+03  0.11634805660E+04  0.11590595082E+04 0.  0.
        5    1    3    3  502    0 -0.26481631853E+03  0.33024779071E+03  0.34662329759E+03  0.54713900085E+03  0.46999998093E+01 0. -1.
       -5    1    3    3    0  502  0.26481631853E+03 -0.33024779071E+03 -0.44795485159E+03  0.61634156511E+03  0.46999998093E+01 0.  1.
</event>
<event>
 5   0  0.2078258E-03  0.1238028E+04  0.7818609E-02  0.9080207E-01
       -1   -1    0    0    0  501  0.00000000000E+00  0.00000000000E+00  0.11152156309E+04  0.11152156310E+04  0.50400001928E-02 0. -1.
        1   -1    0    0  501    0  0.00000000000E+00  0.00000000000E+00 -0.34359114118E+03  0.34359114122E+03  0.50400001928E-02 0.  1.
    10030    2    1    2    0    0  0.00000000000E+00  0.00000000000E+00  0.77162448976E+03  0.14588067722E+04  0.12380278048E+04 0.  0.
        3    1    3    3  502    0 -0.19656053383E+03 -0.32514187340E+03 -0.19003486633E+03  0.42481353783E+03  0.10100000352E+00 0.  1.
       -3    1    3    3    0  502  0.19656053383E+03  0.32514187340E+03  0.96165935609E+03  0.10339932343E+04  0.10100000352E+00 0. -1.
</event>
<event>
 5   0  0.2047109E-03  0.1212216E+04  0.7818609E-02  0.9102231E-01
       -1   -1    0    0    0  501  0.00000000000E+00  0.00000000000E+00  0.26452416879E+03  0.26452416884E+03  0.50400001928E-02 0. -1.
        1   -1    0    0  501    0  0.00000000000E+00  0.00000000000E+00 -0.13887830411E+04  0.13887830411E+04  0.50400001928E-02 0.  1.
    10030    2    1    2    0    0  0.00000000000E+00  0.00000000000E+00 -0.11242588723E+04  0.16533072099E+04  0.12122156237E+04 0.  0.
        1    1    3    3  502    0  0.15516557690E+03  0.37070805155E+03 -0.11809515885E+04  0.12474564001E+04  0.50400001928E-02 0.  1.
       -1    1    3    3    0  502 -0.15516557690E+03 -0.37070805155E+03  0.56692716208E+02  0.40585080982E+03  0.50400001928E-02 0. -1.
</event>
<event>
 5   0  0.2078258E-03  0.1193177E+04  0.7818609E-02  0.9118850E-01
       -1   -1    0    0    0  501  0.00000000000E+00  0.00000000000E+00  0.44367610209E+03  0.44367610212E+03  0.50400001928E-02 0.  1.
        1   -1    0    0  501    0  0.00000000000E+00  0.00000000000E+00 -0.80220219890E+03  0.80220219892E+03  0.50400001928E-02 0. -1.
    10030    2    1    2    0    0  0.00000000000E+00  0.00000000000E+00 -0.35852609681E+03  0.12458783010E+04  0.11931771783E+04 0.  0.
        3    1    3    3  502    0  0.32819690018E+03  0.41664252322E+03 -0.46448311707E+03  0.70501686057E+03  0.10100000352E+00 0. -1.
       -3    1    3    3    0  502 -0.32819690018E+03 -0.41664252322E+03  0.10595702026E+03  0.54086144047E+03  0.10100000352E+00 0.  1.
</event>
<event>
 5   0  0.2047109E-03  0.1196182E+04  0.7818609E-02  0.9116205E-01
        1   -1    0    0  501    0  0.00000000000E+00  0.00000000000E+00  0.16865268788E+04  0.16865268788E+04  0.50400001928E-02 0. -1.
       -1   -1    0    0    0  501  0.00000000000E+00  0.00000000000E+00 -0.21210045816E+03  0.21210045822E+03  0.50400001928E-02 0.  1.
    10030    2    1    2    0    0  0.00000000000E+00  0.00000000000E+00  0.14744264207E+04  0.18986273371E+04  0.11961824673E+04 0.  0.
        1    1    3    3  502    0 -0.44402159860E+03  0.73846641547E+02  0.13623206394E+04  0.14347564362E+04  0.50400001928E-02 0. -1.
       -1    1    3    3    0  502  0.44402159860E+03 -0.73846641547E+02  0.11210578126E+03  0.46387090091E+03  0.50400001928E-02 0.  1.
</event>
<event>
 5   0  0.2134992E-03  0.1225877E+04  0.7818609E-02  0.9090503E-01
        1   -1    0    0  501    0  0.00000000000E+00  0.00000000000E+00  0.12191987899E+04  0.12191987900E+04  0.50400001928E-02 0. -1.
       -1   -1    0    0    0  501  0.00000000000E+00  0.00000000000E+00 -0.30814784093E+03  0.30814784097E+03  0.50400001928E-02 0.  1.
    10030    2    1    2    0    0  0.00000000000E+00  0.00000000000E+00  0.91105094901E+03  0.15273466309E+04  0.12258767880E+04 0.  0.
        4    1    3    3  502    0  0.15949578019E+03  0.58933626796E+03  0.38801856889E+03  0.72340594643E+03  0.12699999809E+01 0.  1.
       -4    1    3    3    0  502 -0.15949578019E+03 -0.58933626796E+03  0.52303238012E+03  0.80394068449E+03  0.12699999809E+01 0. -1.
</event>
<event>
 5   0  0.3725376E-03  0.1190280E+04  0.7818609E-02  0.9121407E-01
        2   -1    0    0  501    0  0.00000000000E+00  0.00000000000E+00  0.14164781156E+04  0.14164781156E+04  0.25500000920E-02 0.  1.
       -2   -1    0    0    0  501  0.00000000000E+00  0.00000000000E+00 -0.25005088237E+03  0.25005088238E+03  0.25500000920E-02 0. -1.
    10030    2    1    2    0    0  0.00000000000E+00  0.00000000000E+00  0.11664272333E+04  0.16665289980E+04  0.11902799716E+04 0.  0.
        4    1    3    3  502    0 -0.92160057588E+02 -0.26323624242E+03 -0.15288377326E+03  0.31805951733E+03  0.12699999809E+01 0. -1.
       -4    1    3    3    0  502  0.92160057588E+02  0.26323624242E+03  0.13193110065E+04  0.13484694807E+04  0.12699999809E+01 0.  1.
</event>
<event>
 5   0  0.3751091E-03  0.1212404E+04  0.7818609E-02  0.9102068E-01
        2   -1    0    0  501    0  0.00000000000E+00  0.00000000000E+00  0.15091042752E+04  0.15091042752E+04  0.25500000920E-02 0.  1.
       -2   -1    0    0    0  501  0.00000000000E+00  0.00000000000E+00 -0.24350928700E+03  0.24350928701E+03  0.25500000920E-02 0. -1.
    10030    2    1    2    0    0  0.00000000000E+00  0.00000000000E+00  0.12655949882E+04  0.17526135623E+04  0.12124040681E+04 0.  0.
        5    1    3    3  502    0  0.11909252949E+03  0.57401374116E+02 -0.22238919981E+03  0.25876049644E+03  0.46999998093E+01 0. -1.
       -5    1    3    3    0  502 -0.11909252949E+03 -0.57401374116E+02  0.14879841881E+04  0.14938530658E+04  0.46999998093E+01 0.  1.
</event>
<event>
 5   0  0.2047109E-03  0.1213179E+04  0.7818609E-02  0.9101399E-01
       -1   -1    0    0    0  501  0.00000000000E+00  0.00000000000E+00  0.91860802291E+03  0.91860802292E+03  0.50400001928E-02 0.  1.
        1   -1    0    0  501    0  0.00000000000E+00  0.00000000000E+00 -0.40055258950E+03  0.40055258953E+03  0.50400001928E-02 0. -1.
    10030    2    1    2    0    0  0.00000000000E+00  0.00000000000E+00  0.51805543341E+03  0.13191606125E+04  0.12131790014E+04 0.  0.
        1    1    3    3  502    0 -0.42316706701E+03  0.31705012000E+03 -0.64193492869E+02  0.53264617688E+03  0.50400001928E-02 0. -1.
       -1    1    3    3    0  502  0.42316706701E+03 -0.31705012000E+03  0.58224892628E+03  0.78651443558E+03  0.50400001928E-02 0.  1.
</event>
<event>
 5   0  0.3650180E-03  0.1205357E+04  0.7818609E-02  0.9108181E-01
        2   -1    0    0  501    0  0.00000000000E+00  0.00000000000E+00  0.84658849968E+03  0.84658849968E+03  0.25500000920E-02 0.  1.
       -2   -1    0    0    0  501  0.00000000000E+00  0.00000000000E+00 -0.42904090366E+03  0.42904090367E+03  0.25500000920E-02 0. -1.
    10030    2    1    2    0    0  0.00000000000E+00  0.00000000000E+00  0.41754759602E+03  0.12756294033E+04  0.12053565364E+04 0.  0.
        3    1    3    3  502    0 -0.14188453102E+03  0.55052813476E+03 -0.29091496540E+01  0.56852521549E+03  0.10100000352E+00 0.  1.
       -3    1    3    3    0  502  0.14188453102E+03 -0.55052813476E+03  0.42045674567E+03  0.70710418785E+03  0.10100000352E+00 0. -1.
</event>
<event>
 5   0  0.3626049E-03  0.1195904E+04  0.7818609E-02  0.9116449E-01
        2   -1    0    0  501    0  0.00000000000E+00  0.00000000000E+00  0.92373257893E+03  0.92373257893E+03  0.25500000920E-02 0.  1.
       -2   -1    0    0    0  501  0.00000000000E+00  0.00000000000E+00 -0.38706729338E+03  0.38706729339E+03  0.25500000920E-02 0. -1.
    10030    2    1    2    0    0  0.00000000000E+00  0.00000000000E+00  0.53666528555E+03  0.13107998723E+04  0.11959041252E+04 0.  0.
        1    1    3    3  502    0 -0.47068018439E+03 -0.15514308441E+02  0.67219721787E+03  0.82074943161E+03  0.50400001928E-02 0.  1.
       -1    1    3    3    0  502  0.47068018439E+03  0.15514308441E+02 -0.13553193232E+03  0.49005044072E+03  0.50400001928E-02 0. -1.
</event>
<event>
 5   0  0.3706035E-03  0.1181299E+04  0.7818609E-02  0.9129385E-01
        2   -1    0    0  501    0  0.00000000000E+00  0.00000000000E+00  0.82438274521E+03  0.82438274521E+03  0.25500000920E-02 0.  1.
       -2   -1    0    0    0  501  0.00000000000E+00  0.00000000000E+00 -0.42318532890E+03  0.42318532891E+03  0.25500000920E-02 0. -1.
    10030    2    1    2    0    0  0.00000000000E+00  0.00000000000E+00  0.40119741631E+03  0.12475680741E+04  0.11812987483E+04 0.  0.
        2    1    3    3  502    0 -0.58038454718E-01  0.63112287892E+02 -0.41961409781E+03  0.42433377822E+03  0.25500000920E-02 0. -1.
       -2    1    3    3    0  502  0.58038454718E-01 -0.63112287892E+02  0.82081151411E+03  0.82323429591E+03  0.25500000920E-02 0.  1.
</event>
<event>
 5   0  0.2096270E-03  0.1240249E+04  0.7818609E-02  0.9078338E-01
        1   -1    0    0  501    0  0.00000000000E+00  0.00000000000E+00  0.11656340134E+04  0.11656340134E+04  0.50400001928E-02 0.  1.
       -1   -1    0    0    0  501  0.00000000000E+00  0.00000000000E+00 -0.32991003880E+03  0.32991003883E+03  0.50400001928E-02 0. -1.
    10030    2    1    2    0    0  0.00000000000E+00  0.00000000000E+00  0.83572397460E+03  0.14955440522E+04  0.12402489470E+04 0.  0.
        2    1    3    3  502    0 -0.13338623924E+03 -0.48670303710E+03  0.85243812503E+03  0.99061722787E+03  0.25500000920E-02 0. -1.
       -2    1    3    3    0  502  0.13338623924E+03  0.48670303710E+03 -0.16714150433E+02  0.50492682437E+03  0.25500000920E-02 0.  1.
</event>
<event>
 5   0  0.2134992E-03  0.1213520E+04  0.7818609E-02  0.9101104E-01
       -1   -1    0    0    0  501  0.00000000000E+00  0.00000000000E+00  0.15687385676E+03  0.15687385684E+03  0.50400001928E-02 0. -1.
        1   -1    0    0  501    0  0.00000000000E+00  0.00000000000E+00 -0.23468402696E+04  0.23468402696E+04  0.50400001928E-02 0.  1.
    10030    2    1    2    0    0  0.00000000000E+00  0.00000000000E+00 -0.21899664129E+04  0.25037141265E+04  0.12135203079E+04 0.  0.
        4    1    3    3  502    0 -0.40373288421E+03 -0.18493776374E+03 -0.24192750034E+03  0.50570025367E+03  0.12699999809E+01 0. -1.
       -4    1    3    3    0  502  0.40373288421E+03  0.18493776374E+03 -0.19480389125E+04  0.19980138728E+04  0.12699999809E+01 0.  1.
</event>
<event>
 5   0  0.3751091E-03  0.1196233E+04  0.7818609E-02  0.9116160E-01
       -2   -1    0    0    0  501  0.00000000000E+00  0.00000000000E+00  0.24245678102E+03  0.24245678103E+03  0.25500000920E-02 0. -1.
        2   -1    0    0  501    0  0.00000000000E+00  0.00000000000E+00 -0.14754944516E+04  0.14754944516E+04  0.25500000920E-02 0.  1.
    10030    2    1    2    0    0  0.00000000000E+00  0.00000000000E+00 -0.12330376706E+04  0.17179512326E+04  0.11962334808E+04 0.  0.
        5    1    3    3  502    0 -0.35831573701E+01 -0.30710422710E+02 -0.14743194427E+04  0.14746511039E+04  0.46999998093E+01 0.  1.
       -5    1    3    3    0  502  0.35831573701E+01  0.30710422710E+02  0.24128177213E+03  0.24330012873E+03  0.46999998093E+01 0. -1.
</event>
<event>
 5   0  0.1397500E-03  0.1210939E+04  0.7818609E-02  0.9103335E-01
       -4   -1    0    0    0  501  0.00000000000E+00  0.00000000000E+00  0.37707932097E+03  0.37708145964E+03  0.12699999809E+01 0.  1.
        4   -1    0    0  501    0  0.00000000000E+00  0.00000000000E+00 -0.97218573977E+03  0.97218656929E+03  0.12699999809E+01 0. -1.
    10030    2    1    2    0    0  0.00000000000E+00  0.00000000000E+00 -0.59510641879E+03  0.13492680289E+04  0.12109387120E+04 0.  0.
        3    1    3    3  502    0 -0.40918267262E+03  0.42788302740E+03 -0.15626604923E+03  0.61231808160E+03  0.10100000352E+00 0. -1.
       -3    1    3    3    0  502  0.40918267262E+03 -0.42788302740E+03 -0.43884036957E+03  0.73694994733E+03  0.10100000352E+00 0.  1.
</event>
<event>
 5   0  0.2025294E-03  0.1045449E+04  0.7818609E-02  0.9260055E-01
       -1   -1    0    0    0  501  0.00000000000E+00  0.00000000000E+00  0.39337597494E+03  0.39337597497E+03  0.50400001928E-02 0.  1.
        1   -1    0    0  501    0  0.00000000000E+00  0.00000000000E+00 -0.69460475981E+03  0.69460475983E+03  0.50400001928E-02 0. -1.
    10030    2    1    2    0    0  0.00000000000E+00  0.00000000000E+00 -0.30122878488E+03  0.10879807348E+04  0.10454488502E+04 0.  0.
        5    1    3    3  502    0  0.45894298478E+03  0.12037062698E+02  0.10944220646E+03  0.47198860231E+03  0.46999998093E+01 0.  1.
       -5    1    3    3    0  502 -0.45894298478E+03 -0.12037062698E+02 -0.41067099134E+03  0.61599213249E+03  0.46999998093E+01 0. -1.
</event>
<event>
 5   0  0.2134992E-03  0.1205436E+04  0.7818609E-02  0.9108112E-01
       -1   -1    0    0    0  501  0.00000000000E+00  0.00000000000E+00  0.48989623018E+03  0.48989623021E+03  0.50400001928E-02 0. -1.
        1   -1    0    0  501    0  0.00000000000E+00  0.00000000000E+00 -0.74152195075E+03  0.74152195076E+03  0.50400001928E-02 0.  1.
    10030    2    1    2    0    0  0.00000000000E+00  0.00000000000E+00 -0.25162572056E+03  0.12314181810E+04  0.12054357026E+04 0.  0.
        4    1    3    3  502    0 -0.32622151581E+03  0.46962324509E+03  0.68821344313E+02  0.57593789599E+03  0.12699999809E+01 0.  1.
       -4    1    3    3    0  502  0.32622151581E+03 -0.46962324509E+03 -0.32044706488E+03  0.65548028498E+03  0.12699999809E+01 0. -1.
</event>
<event>
 5   0  0.2078258E-03  0.1275745E+04  0.7818609E-02  0.9049024E-01
       -1   -1    0    0    0  501  0.00000000000E+00  0.00000000000E+00  0.30769422282E+03  0.30769422286E+03  0.50400001928E-02 0. -1.
        1   -1    0    0  501    0  0.00000000000E+00  0.00000000000E+00 -0.13223567456E+04  0.13223567456E+04  0.50400001928E-02 0.  1.
    10030    2    1    2    0    0  0.00000000000E+00  0.00000000000E+00 -0.10146625228E+04  0.16300509685E+04  0.12757453213E+04 0.  0.
        3    1    3    3  502    0  0.62598826302E+03  0.10849158296E+03 -0.58017043001E+03  0.86036589139E+03  0.10100000352E+00 0.  1.
       -3    1    3    3    0  502 -0.62598826302E+03 -0.10849158296E+03 -0.43449209280E+03  0.76968507711E+03  0.10100000352E+00 0. -1.
</event>
<event>
 5   0  0.1397500E-03  0.1192466E+04  0.7818609E-02  0.9119476E-01
       -3   -1    0    0    0  501  0.00000000000E+00  0.00000000000E+00  0.53283497572E+03  0.53283498530E+03  0.10100000352E+00 0.  1.
        3   -1    0    0  501    0  0.00000000000E+00  0.00000000000E+00 -0.66717463225E+03  0.66717463989E+03  0.10100000352E+00 0. -1.
    10030    2    1    2    0    0  0.00000000000E+00  0.00000000000E+00 -0.13433965652E+03  0.12000096252E+04  0.11924663338E+04 0.  0.
        5    1    3    3  502    0 -0.11131867150E+03  0.58370627690E+03 -0.11612977558E+03  0.60548582072E+03  0.46999998093E+01 0. -1.
       -5    1    3    3    0  502  0.11131867150E+03 -0.58370627690E+03 -0.18209880945E+02  0.59452380447E+03  0.46999998093E+01 0.  1.
</event>
<event>
 5   0  0.2025294E-03  0.1195539E+04  0.7818609E-02  0.9116771E-01
        1   -1    0    0  501    0  0.00000000000E+00  0.00000000000E+00  0.82255562673E+03  0.82255562675E+03  0.50400001928E-02 0. -1.
       -1   -1    0    0    0  501  0.00000000000E+00  0.00000000000E+00 -0.43441215070E+03  0.43441215073E+03  0.50400001928E-02 0.  1.
    10030    2    1    2    0    0  0.00000000000E+00  0.00000000000E+00  0.38814347604E+03  0.12569677775E+04  0.11955386383E+04 0.  0.
        5    1    3    3  502    0  0.57079352483E+03  0.12501046640E+03  0.32653420220E+03  0.66938743632E+03  0.46999998093E+01 0. -1.
       -5    1    3    3    0  502 -0.57079352483E+03 -0.12501046640E+03  0.61609273836E+02  0.58758034116E+03  0.46999998093E+01 0.  1.
</event>
<event>
 5   0  0.2047109E-03  0.1199065E+04  0.7818609E-02  0.9113675E-01
        1   -1    0    0  501    0  0.00000000000E+00  0.00000000000E+00  0.42923524668E+03  0.42923524671E+03  0.50400001928E-02 0. -1.
       -1   -1    0    0    0  501  0.00000000000E+00  0.00000000000E+00 -0.83739437567E+03  0.83739437569E+03  0.50400001928E-02 0.  1.
    10030    2    1    2    0    0  0.00000000000E+00  0.00000000000E+00 -0.40815912899E+03  0.12666296224E+04  0.11990649381E+04 0.  0.
        1    1    3    3  502    0  0.24138889348E+03  0.37592144634E+03 -0.62642539859E+03  0.76941166598E+03  0.50400001928E-02 0.  1.
       -1    1    3    3    0  502 -0.24138889348E+03 -0.37592144634E+03  0.21826626961E+03  0.49721795642E+03  0.50400001928E-02 0. -1.
</event>
<event>
 5   0  0.1397500E-03  0.1197409E+04  0.7818609E-02  0.9115128E-01
       -3   -1    0    0    0  501  0.00000000000E+00  0.00000000000E+00  0.32290815841E+03  0.32290817421E+03  0.10100000352E+00 0.  1.
        3   -1    0    0  501    0  0.00000000000E+00  0.00000000000E+00 -0.11100580870E+04  0.11100580916E+04  0.10100000352E+00 0. -1.
    10030    2    1    2    0    0  0.00000000000E+00  0.00000000000E+00 -0.78714992861E+03  0.14329662658E+04  0.11974085806E+04 0.  0.
        4    1    3    3  502    0 -0.30579404433E+03  0.31020991055E+03 -0.88511354821E+03  0.98649267218E+03  0.12699999809E+01 0.  1.
       -4    1    3    3    0  502  0.30579404433E+03 -0.31020991055E+03  0.97963619599E+02  0.44647359364E+03  0.12699999809E+01 0. -1.
</event>
<event>
 5   0  0.3626049E-03  0.1184168E+04  0.7818609E-02  0.9126828E-01
        2   -1    0    0  501    0  0.00000000000E+00  0.00000000000E+00  0.56647929091E+03  0.56647929091E+03  0.25500000920E-02 0.  1.
       -2   -1    0    0    0  501  0.00000000000E+00  0.00000000000E+00 -0.61884596849E+03  0.61884596850E+03  0.25500000920E-02 0. -1.
    10030    2    1    2    0    0  0.00000000000E+00  0.00000000000E+00 -0.52366677583E+02  0.11853252594E+04  0.11841679364E+04 0.  0.
        1    1    3    3  502    0 -0.15216512849E+03  0.54919166047E+03  0.13459032061E+03  0.58555978404E+03  0.50400001928E-02 0. -1.
       -1    1    3    3    0  502  0.15216512849E+03 -0.54919166047E+03 -0.18695699819E+03  0.59976547538E+03  0.50400001928E-02 0.  1.
</event>
<event>
 5   0  0.2047109E-03  0.1191503E+04  0.7818609E-02  0.9120327E-01
        1   -1    0    0  501    0  0.00000000000E+00  0.00000000000E+00  0.61883131201E+03  0.61883131203E+03  0.50400001928E-02 0. -1.
       -1   -1    0    0    0  501  0.00000000000E+00  0.00000000000E+00 -0.57353228835E+03  0.57353228838E+03  0.50400001928E-02 0.  1.
    10030    2    1    2    0    0  0.00000000000E+00  0.00000000000E+00  0.45299023653E+02  0.11923636004E+04  0.11915028133E+04 0.  0.
        1    1    3    3  502    0 -0.20648991211E+03  0.44337886883E+03  0.36303761584E+03  0.60911346699E+03  0.50400001928E-02 0. -1.
       -1    1    3    3    0  502  0.20648991211E+03 -0.44337886883E+03 -0.31773859219E+03  0.58325013341E+03  0.50400001928E-02 0.  1.
</event>
<event>
 5   0  0.3725376E-03  0.1205693E+04  0.7818609E-02  0.9107888E-01
        2   -1    0    0  501    0  0.00000000000E+00  0.00000000000E+00  0.13098846733E+04  0.13098846733E+04  0.25500000920E-02 0.  1.
       -2   -1    0    0    0  501  0.00000000000E+00  0.00000000000E+00 -0.27744739629E+03  0.27744739630E+03  0.25500000920E-02 0. -1.
    10030    2    1    2    0    0  0.00000000000E+00  0.00000000000E+00  0.10324372770E+04  0.15873320696E+04  0.12056933143E+04 0.  0.
        4    1    3    3  502    0 -0.49324968521E+03 -0.34626912448E+03  0.49647416413E+03  0.78082377466E+03  0.12699999809E+01 0. -1.
       -4    1    3    3    0  502  0.49324968521E+03  0.34626912448E+03  0.53596311287E+03  0.80650829492E+03  0.12699999809E+01 0.  1.
</event>
<event>
 5   0  0.3751091E-03  0.1207413E+04  0.7818609E-02  0.9106392E-01
       -2   -1    0    0    0  501  0.00000000000E+00  0.00000000000E+00  0.83348133852E+03  0.83348133853E+03  0.25500000920E-02 0.  1.
        2   -1    0    0  501    0  0.00000000000E+00  0.00000000000E+00 -0.43727630720E+03  0.43727630720E+03  0.25500000920E-02 0. -1.
    10030    2    1    2    0    0  0.00000000000E+00  0.00000000000E+00  0.39620503133E+03  0.12707576457E+04  0.12074131718E+04 0.  0.
        5    1    3    3  502    0  0.54068404193E+03  0.65077501869E+01 -0.84416592797E+02  0.54729318939E+03  0.46999998093E+01 0. -1.
       -5    1    3    3    0  502 -0.54068404193E+03 -0.65077501869E+01  0.48062162412E+03  0.72346445634E+03  0.46999998093E+01 0.  1.
</event>
<event>
 5   0  0.2096270E-03  0.1229474E+04  0.7818609E-02  0.9087442E-01
        1   -1    0    0  501    0  0.00000000000E+00  0.00000000000E+00  0.10707997889E+04  0.10707997889E+04  0.50400001928E-02 0. -1.
       -1   -1    0    0    0  501  0.00000000000E+00  0.00000000000E+00 -0.35291537129E+03  0.35291537132E+03  0.50400001928E-02 0.  1.
    10030    2    1    2    0    0  0.00000000000E+00  0.00000000000E+00  0.71788441759E+03  0.14237151602E+04  0.12294742049E+04 0.  0.
        2    1    3    3  502    0 -0.56472023726E+03  0.24204452218E+03  0.38230968668E+03  0.72364023771E+03  0.25500000920E-02 0.  1.
       -2    1    3    3    0  502  0.56472023726E+03 -0.24204452218E+03  0.33557473090E+03  0.70007492250E+03  0.25500000920E-02 0. -1.
</event>
<event>
 5   0  0.2047109E-03  0.1222812E+04  0.7818609E-02  0.9093120E-01
       -1   -1    0    0    0  501  0.00000000000E+00  0.00000000000E+00  0.33149661471E+03  0.33149661475E+03  0.50400001928E-02 0. -1.
        1   -1    0    0  501    0  0.00000000000E+00  0.00000000000E+00 -0.11276651499E+04  0.11276651499E+04  0.50400001928E-02 0.  1.
    10030    2    1    2    0    0  0.00000000000E+00  0.00000000000E+00 -0.79616853516E+03  0.14591617646E+04  0.12228118085E+04 0.  0.
        1    1    3    3  502    0  0.40584626701E+03 -0.72117322027E+02  0.14075326529E+03  0.43557270610E+03  0.50400001928E-02 0. -1.
       -1    1    3    3    0  502 -0.40584626701E+03  0.72117322027E+02 -0.93692180045E+03  0.10235890585E+04  0.50400001928E-02 0.  1.
</event>
<event>
 5   0  0.3706035E-03  0.1200062E+04  0.7818609E-02  0.9112802E-01
        2   -1    0    0  501    0  0.00000000000E+00  0.00000000000E+00  0.15385890521E+04  0.15385890521E+04  0.25500000920E-02 0. -1.
       -2   -1    0    0    0  501  0.00000000000E+00  0.00000000000E+00 -0.23400490314E+03  0.23400490315E+03  0.25500000920E-02 0.  1.
    10030    2    1    2    0    0  0.00000000000E+00  0.00000000000E+00  0.13045841490E+04  0.17725939553E+04  0.12000623019E+04 0.  0.
        2    1    3    3  502    0  0.73988482033E+02  0.98952487922E+02  0.15195956658E+04  0.15246104020E+04  0.25500000920E-02 0. -1.
       -2    1    3    3    0  502 -0.73988482033E+02 -0.98952487922E+02 -0.21501151681E+03  0.24798355330E+03  0.25500000920E-02 0.  1.
</event>
<event>
 5   0  0.2078258E-03  0.1202839E+04  0.7818609E-02  0.9110375E-01
        1   -1    0    0  501    0  0.00000000000E+00  0.00000000000E+00  0.26638226123E+04  0.26638226123E+04  0.50400001928E-02 0. -1.
       -1   -1    0    0    0  501  0.00000000000E+00  0.00000000000E+00 -0.13578428544E+03  0.13578428554E+03  0.50400001928E-02 0.  1.
    10030    2    1    2    0    0  0.00000000000E+00  0.00000000000E+00  0.25280383268E+04  0.27996068978E+04  0.12028387258E+04 0.  0.
        3    1    3    3  502    0 -0.28550858911E+03 -0.40810119924E+03  0.20486438114E+04  0.21083176278E+04  0.10100000352E+00 0. -1.
       -3    1    3    3    0  502  0.28550858911E+03  0.40810119924E+03  0.47939451542E+03  0.69128927005E+03  0.10100000352E+00 0.  1.
</event>
<event>
 5   0  0.2078258E-03  0.1223678E+04  0.7818609E-02  0.9092380E-01
       -1   -1    0    0    0  501  0.00000000000E+00  0.00000000000E+00  0.45150089307E+03  0.45150089310E+03  0.50400001928E-02 0. -1.
        1   -1    0    0  501    0  0.00000000000E+00  0.00000000000E+00 -0.82911661548E+03  0.82911661549E+03  0.50400001928E-02 0.  1.
    10030    2    1    2    0    0  0.00000000000E+00  0.00000000000E+00 -0.37761572241E+03  0.12806175086E+04  0.12236778863E+04 0.  0.
        3    1    3    3  502    0 -0.14494078225E+03  0.59188416093E+03 -0.13137061126E+03  0.62337223072E+03  0.10100000352E+00 0. -1.
       -3    1    3    3    0  502  0.14494078225E+03 -0.59188416093E+03 -0.24624511115E+03  0.65724527788E+03  0.10100000352E+00 0.  1.
</event>
<event>
 5   0  0.3706035E-03  0.1219622E+04  0.7818609E-02  0.9095853E-01
        2   -1    0    0  501    0  0.00000000000E+00  0.00000000000E+00  0.13933276186E+04  0.13933276186E+04  0.25500000920E-02 0. -1.
       -2   -1    0    0    0  501  0.00000000000E+00  0.00000000000E+00 -0.26689286051E+03  0.26689286053E+03  0.25500000920E-02 0.  1.
    10030    2    1    2    0    0  0.00000000000E+00  0.00000000000E+00  0.11264347581E+04  0.16602204792E+04  0.12196215705E+04 0.  0.
        2    1    3    3  502    0 -0.34625489455E+03 -0.28348707091E+02  0.12454417450E+04  0.12929892657E+04  0.25500000920E-02 0. -1.
       -2    1    3    3    0  502  0.34625489455E+03  0.28348707091E+02 -0.11900698685E+03  0.36723121343E+03  0.25500000920E-02 0.  1.
</event>
<event>
 5   0  0.2025294E-03  0.1200200E+04  0.7818609E-02  0.9112681E-01
        1   -1    0    0  501    0  0.00000000000E+00  0.00000000000E+00  0.22084760174E+03  0.22084760180E+03  0.50400001928E-02 0.  1.
       -1   -1    0    0    0  501  0.00000000000E+00  0.00000000000E+00 -0.16306271806E+04  0.16306271806E+04  0.50400001928E-02 0. -1.
    10030    2    1    2    0    0  0.00000000000E+00  0.00000000000E+00 -0.14097795789E+04  0.18514747824E+04  0.12002001537E+04 0.  0.
        5    1    3    3  502    0 -0.32389192739E+02  0.21438963855E+03 -0.15680590619E+04  0.15829855617E+04  0.46999998093E+01 0. -1.
       -5    1    3    3    0  502  0.32389192739E+02 -0.21438963855E+03  0.15827948300E+03  0.26848922075E+03  0.46999998093E+01 0.  1.
</event>
<event>
 5   0  0.3650180E-03  0.1136488E+04  0.7818609E-02  0.9170340E-01
        2   -1    0    0  501    0  0.00000000000E+00  0.00000000000E+00  0.12853762895E+04  0.12853762895E+04  0.25500000920E-02 0.  1.
       -2   -1    0    0    0  501  0.00000000000E+00  0.00000000000E+00 -0.25121165704E+03  0.25121165705E+03  0.25500000920E-02 0. -1.
    10030    2    1    2    0    0  0.00000000000E+00  0.00000000000E+00  0.10341646324E+04  0.15365879465E+04  0.11364884647E+04 0.  0.
        3    1    3    3  502    0 -0.75715765597E+02 -0.76921570268E+02 -0.23722487967E+03  0.26062513092E+03  0.10100000352E+00 0. -1.
       -3    1    3    3    0  502  0.75715765597E+02  0.76921570268E+02  0.12713895121E+04  0.12759628156E+04  0.10100000352E+00 0.  1.
</event>
<event>
 5   0  0.3650180E-03  0.1180555E+04  0.7818609E-02  0.9130049E-01
       -2   -1    0    0    0  501  0.00000000000E+00  0.00000000000E+00  0.26196256157E+03  0.26196256159E+03  0.25500000920E-02 0. -1.
        2   -1    0    0  501    0  0.00000000000E+00  0.00000000000E+00 -0.13300666195E+04  0.13300666195E+04  0.25500000920E-02 0.  1.
    10030    2    1    2    0    0  0.00000000000E+00  0.00000000000E+00 -0.10681040579E+04  0.15920291811E+04  0.11805552231E+04 0.  0.
        3    1    3    3  502    0  0.43793607159E+03  0.11267048510E+03 -0.22413760811E+02  0.45275272268E+03  0.10100000352E+00 0. -1.
       -3    1    3    3    0  502 -0.43793607159E+03 -0.11267048510E+03 -0.10456902971E+04  0.11392764584E+04  0.10100000352E+00 0.  1.
</event>
<event>
 5   0  0.3706035E-03  0.1224741E+04  0.7818609E-02  0.9091473E-01
       -2   -1    0    0    0  501  0.00000000000E+00  0.00000000000E+00  0.78349280381E+03  0.78349280382E+03  0.25500000920E-02 0. -1.
        2   -1    0    0  501    0  0.00000000000E+00  0.00000000000E+00 -0.47862255719E+03  0.47862255719E+03  0.25500000920E-02 0.  1.
    10030    2    1    2    0    0  0.00000000000E+00  0.00000000000E+00  0.30487024663E+03  0.12621153610E+04  0.12247405102E+04 0.  0.
        2    1    3    3  502    0  0.30606105980E+03 -0.73747968059E+02 -0.38884136952E+03  0.50030964989E+03  0.25500000920E-02 0.  1.
       -2    1    3    3    0  502 -0.30606105980E+03  0.73747968059E+02  0.69371161615E+03  0.76180571112E+03  0.25500000920E-02 0. -1.
</event>
<event>
 5   0  0.2134992E-03  0.1192227E+04  0.7818609E-02  0.9119688E-01
        1   -1    0    0  501    0  0.00000000000E+00  0.00000000000E+00  0.43388126288E+03  0.43388126291E+03  0.50400001928E-02 0. -1.
       -1   -1    0    0    0  501  0.00000000000E+00  0.00000000000E+00 -0.81900592320E+03  0.81900592322E+03  0.50400001928E-02 0.  1.
    10030    2    1    2    0    0  0.00000000000E+00  0.00000000000E+00 -0.38512466032E+03  0.12528871861E+04  0.11922270326E+04 0.  0.
        4    1    3    3  502    0  0.16562851183E+03  0.36539345966E+03  0.27078449308E+03  0.48401553578E+03  0.12699999809E+01 0. -1.
       -4    1    3    3    0  502 -0.16562851183E+03 -0.36539345966E+03 -0.65590915340E+03  0.76887165034E+03  0.12699999809E+01 0.  1.
</event>
<event>
 5   0  0.3626049E-03  0.1141936E+04  0.7818609E-02  0.9165255E-01
        2   -1    0    0  501    0  0.00000000000E+00  0.00000000000E+00  0.19134833653E+04  0.19134833653E+04  0.25500000920E-02 0. -1.
       -2   -1    0    0    0  501  0.00000000000E+00  0.00000000000E+00 -0.17037223892E+03  0.17037223894E+03  0.25500000920E-02 0.  1.
    10030    2    1    2    0    0  0.00000000000E+00  0.00000000000E+00  0.17431111264E+04  0.20838556043E+04  0.11419359791E+04 0.  0.
        1    1    3    3  502    0  0.27215989165E+03 -0.39159106696E+03  0.29857218563E+03  0.56263657934E+03  0.50400001928E-02 0.  1.
       -1    1    3    3    0  502 -0.27215989165E+03  0.39159106696E+03  0.14445389408E+04  0.15212190249E+04  0.50400001928E-02 0. -1.
</event>
<event>
 5   0  0.3706035E-03  0.1195945E+04  0.7818609E-02  0.9116413E-01
       -2   -1    0    0    0  501  0.00000000000E+00  0.00000000000E+00  0.40381862108E+03  0.40381862109E+03  0.25500000920E-02 0. -1.
        2   -1    0    0  501    0  0.00000000000E+00  0.00000000000E+00 -0.88547491850E+03  0.88547491851E+03  0.25500000920E-02 0.  1.
    10030    2    1    2    0    0  0.00000000000E+00  0.00000000000E+00 -0.48165629742E+03  0.12892935396E+04  0.11959452506E+04 0.  0.
        2    1    3    3  502    0 -0.54670324627E+03 -0.10082273161E+03 -0.47829776763E+03  0.73336104152E+03  0.25500000920E-02 0.  1.
       -2    1    3    3    0  502  0.54670324627E+03  0.10082273161E+03 -0.33585297937E+01  0.55593249808E+03  0.25500000920E-02 0. -1.
</event>
<event>
 5   0  0.3626049E-03  0.1194300E+04  0.7818609E-02  0.9117860E-01
        2   -1    0    0  501    0  0.00000000000E+00  0.00000000000E+00  0.95432935948E+03  0.95432935949E+03  0.25500000920E-02 0.  1.
       -2   -1    0    0    0  501  0.00000000000E+00  0.00000000000E+00 -0.37365328677E+03  0.37365328678E+03  0.25500000920E-02 0. -1.
    10030    2    1    2    0    0  0.00000000000E+00  0.00000000000E+00  0.58067607272E+03  0.13279826463E+04  0.11943003003E+04 0.  0.
        1    1    3    3  502    0 -0.32420566058E+03  0.63505900679E+02  0.84345766447E+03  0.90584940336E+03  0.50400001928E-02 0.  1.
       -1    1    3    3    0  502  0.32420566058E+03 -0.63505900679E+02 -0.26278159176E+03  0.42213324291E+03  0.50400001928E-02 0. -1.
</event>
<event>
 5   0  0.3650180E-03  0.1209119E+04  0.7818609E-02  0.9104912E-01
       -2   -1    0    0    0  501  0.00000000000E+00  0.00000000000E+00  0.43518588414E+03  0.43518588415E+03  0.25500000920E-02 0. -1.
        2   -1    0    0  501    0  0.00000000000E+00  0.00000000000E+00 -0.83985239448E+03  0.83985239448E+03  0.25500000920E-02 0.  1.
    10030    2    1    2    0    0  0.00000000000E+00  0.00000000000E+00 -0.40466651034E+03  0.12750382786E+04  0.12091185332E+04 0.  0.
        3    1    3    3  502    0 -0.49882394594E+03 -0.26516818524E+03 -0.42936702643E+03  0.70957420267E+03  0.10100000352E+00 0. -1.
       -3    1    3    3    0  502  0.49882394594E+03  0.26516818524E+03  0.24700516097E+02  0.56546407596E+03  0.10100000352E+00 0.  1.
</event>
<event>
 5   0  0.2096270E-03  0.1178106E+04  0.7818609E-02  0.9132239E-01
        1   -1    0    0  501    0  0.00000000000E+00  0.00000000000E+00  0.13530861623E+04  0.13530861623E+04  0.50400001928E-02 0. -1.
       -1   -1    0    0    0  501  0.00000000000E+00  0.00000000000E+00 -0.25643849646E+03  0.25643849651E+03  0.50400001928E-02 0.  1.
    10030    2    1    2    0    0  0.00000000000E+00  0.00000000000E+00  0.10966476658E+04  0.16095246588E+04  0.11781059054E+04 0.  0.
        2    1    3    3  502    0  0.24958609837E+03  0.22314633920E+03 -0.11381795014E+03  0.35361283203E+03  0.25500000920E-02 0.  1.
       -2    1    3    3    0  502 -0.24958609837E+03 -0.22314633920E+03  0.12104656160E+04  0.12559118268E+04  0.25500000920E-02 0. -1.
</event>
<event>
 5   0  0.3626049E-03  0.1157905E+04  0.7818609E-02  0.9150521E-01
       -2   -1    0    0    0  501  0.00000000000E+00  0.00000000000E+00  0.34366665413E+03  0.34366665414E+03  0.25500000920E-02 0.  1.
        2   -1    0    0  501    0  0.00000000000E+00  0.00000000000E+00 -0.97532379388E+03  0.97532379388E+03  0.25500000920E-02 0. -1.
    10030    2    1    2    0    0  0.00000000000E+00  0.00000000000E+00 -0.63165713974E+03  0.13189904480E+04  0.11579054624E+04 0.  0.
        1    1    3    3  502    0 -0.15131385089E+03  0.31054018170E+03 -0.84506506456E+03  0.91294361781E+03  0.50400001928E-02 0. -1.
       -1    1    3    3    0  502  0.15131385089E+03 -0.31054018170E+03  0.21340792482E+03  0.40604683021E+03  0.50400001928E-02 0.  1.
</event>
<event>
 5   0  0.3725376E-03  0.1185104E+04  0.7818609E-02  0.9125996E-01
        2   -1    0    0  501    0  0.00000000000E+00  0.00000000000E+00  0.10779281476E+04  0.10779281476E+04  0.25500000920E-02 0. -1.
       -2   -1    0    0    0  501  0.00000000000E+00  0.00000000000E+00 -0.32573380035E+03  0.32573380036E+03  0.25500000920E-02 0.  1.
    10030    2    1    2    0    0  0.00000000000E+00  0.00000000000E+00  0.75219434725E+03  0.14036619480E+04  0.11851035938E+04 0.  0.
        4    1    3    3  502    0 -0.28222532262E+03 -0.80823154148E+02  0.98573770626E+03  0.10285251350E+04  0.12699999809E+01 0. -1.
       -4    1    3    3    0  502  0.28222532262E+03  0.80823154148E+02 -0.23354335901E+03  0.37513681292E+03  0.12699999809E+01 0.  1.
</event>
<event>
 5   0  0.2047109E-03  0.1238059E+04  0.7818609E-02  0.9080181E-01
        1   -1    0    0  501    0  0.00000000000E+00  0.00000000000E+00  0.51704912728E+03  0.51704912731E+03  0.50400001928E-02 0. -1.
       -1   -1    0    0    0  501  0.00000000000E+00  0.00000000000E+00 -0.74112356261E+03  0.74112356262E+03  0.50400001928E-02 0.  1.
    10030    2    1    2    0    0  0.00000000000E+00  0.00000000000E+00 -0.22407443532E+03  0.12581726899E+04  0.12380586275E+04 0.  0.
        1    1    3    3  502    0  0.22357700463E+03  0.13241633434E+03  0.45894185285E+03  0.52739775021E+03  0.50400001928E-02 0. -1.
       -1    1    3    3    0  502 -0.22357700463E+03 -0.13241633434E+03 -0.68301628817E+03  0.73077493973E+03  0.50400001928E-02 0.  1.
</event>
<event>
 5   0  0.2096270E-03  0.1197347E+04  0.7818609E-02  0.9115182E-01
        1   -1    0    0  501    0  0.00000000000E+00  0.00000000000E+00  0.14291801442E+04  0.14291801442E+04  0.50400001928E-02 0. -1.
       -1   -1    0    0    0  501  0.00000000000E+00  0.00000000000E+00 -0.25078021666E+03  0.25078021671E+03  0.50400001928E-02 0.  1.
    10030    2    1    2    0    0  0.00000000000E+00  0.00000000000E+00  0.11783999276E+04  0.16799603610E+04  0.11973472450E+04 0.  0.
        2    1    3    3  502    0 -0.35423785667E+01  0.55568054113E+03  0.27666916122E+03  0.62075698708E+03  0.25500000920E-02 0. -1.
       -2    1    3    3    0  502  0.35423785667E+01 -0.55568054113E+03  0.90173076636E+03  0.10592033739E+04  0.25500000920E-02 0.  1.
</event>
<event>
 5   0  0.2025294E-03  0.1203662E+04  0.7818609E-02  0.9109657E-01
       -1   -1    0    0    0  501  0.00000000000E+00  0.00000000000E+00  0.61552300602E+03  0.61552300604E+03  0.50400001928E-02 0.  1.
        1   -1    0    0  501    0  0.00000000000E+00  0.00000000000E+00 -0.58844402352E+03  0.58844402354E+03  0.50400001928E-02 0. -1.
    10030    2    1    2    0    0  0.00000000000E+00  0.00000000000E+00  0.27078982500E+02  0.12039670296E+04  0.12036624681E+04 0.  0.
        5    1    3    3  502    0 -0.20390886219E+03 -0.30612534732E+03  0.48998678583E+03  0.61269951252E+03  0.46999998093E+01 0.  1.
       -5    1    3    3    0  502  0.20390886219E+03  0.30612534732E+03 -0.46290780333E+03  0.59126751706E+03  0.46999998093E+01 0. -1.
</event>
<event>
 5   0  0.1397500E-03  0.1208805E+04  0.7818609E-02  0.9105184E-01
        3   -1    0    0  501    0  0.00000000000E+00  0.00000000000E+00  0.19933201021E+03  0.19933203580E+03  0.10100000352E+00 0.  1.
       -3   -1    0    0    0  501  0.00000000000E+00  0.00000000000E+00 -0.18326332442E+04  0.18326332470E+04  0.10100000352E+00 0. -1.
    10030    2    1    2    0    0  0.00000000000E+00  0.00000000000E+00 -0.16333012340E+04  0.20319652828E+04  0.12088051909E+04 0.  0.
        4    1    3    3  502    0 -0.46800972724E+03 -0.25730416434E+03 -0.34101526659E+03  0.63366518188E+03  0.12699999809E+01 0.  1.
       -4    1    3    3    0  502  0.46800972724E+03  0.25730416434E+03 -0.12922859674E+04  0.13983001009E+04  0.12699999809E+01 0. -1.
</event>
<event>
 5   0  0.2078258E-03  0.1209018E+04  0.7818609E-02  0.9104999E-01
       -1   -1    0    0    0  501  0.00000000000E+00  0.00000000000E+00  0.61565982671E+03  0.61565982673E+03  0.50400001928E-02 0.  1.
        1   -1    0    0  501    0  0.00000000000E+00  0.00000000000E+00 -0.59356052080E+03  0.59356052082E+03  0.50400001928E-02 0. -1.
    10030    2    1    2    0    0  0.00000000000E+00  0.00000000000E+00  0.22099305910E+02  0.12092203475E+04  0.12090183909E+04 0.  0.
        3    1    3    3  502    0 -0.10055365758E+03  0.10719138505E+03  0.59751806966E+03  0.61532827405E+03  0.10100000352E+00 0.  1.
       -3    1    3    3    0  502  0.10055365758E+03 -0.10719138505E+03 -0.57541876375E+03  0.59389207349E+03  0.10100000352E+00 0. -1.
</event>
<event>
 5   0  0.3725376E-03  0.1206353E+04  0.7818609E-02  0.9107314E-01
       -2   -1    0    0    0  501  0.00000000000E+00  0.00000000000E+00  0.72922489752E+03  0.72922489753E+03  0.25500000920E-02 0.  1.
        2   -1    0    0  501    0  0.00000000000E+00  0.00000000000E+00 -0.49891601016E+03  0.49891601017E+03  0.25500000920E-02 0. -1.
    10030    2    1    2    0    0  0.00000000000E+00  0.00000000000E+00  0.23030888736E+03  0.12281409077E+04  0.12063531430E+04 0.  0.
        4    1    3    3  502    0 -0.33932026979E+03 -0.31936227215E+03  0.50507288890E+03  0.68719047022E+03  0.12699999809E+01 0.  1.
       -4    1    3    3    0  502  0.33932026979E+03  0.31936227215E+03 -0.27476400154E+03  0.54095043748E+03  0.12699999809E+01 0. -1.
</event>
<event>
 5   0  0.2047109E-03  0.1217844E+04  0.7818609E-02  0.9097379E-01
       -1   -1    0    0    0  501  0.00000000000E+00  0.00000000000E+00  0.49726234052E+03  0.49726234055E+03  0.50400001928E-02 0. -1.
        1   -1    0    0  501    0  0.00000000000E+00  0.00000000000E+00 -0.74565507666E+03  0.74565507668E+03  0.50400001928E-02 0.  1.
    10030    2    1    2    0    0  0.00000000000E+00  0.00000000000E+00 -0.24839273614E+03  0.12429174172E+04  0.12178443064E+04 0.  0.
        1    1    3    3  502    0  0.39600295992E+03 -0.25896570873E+03 -0.51536877319E+03  0.69963315743E+03  0.50400001928E-02 0.  1.
       -1    1    3    3    0  502 -0.39600295992E+03  0.25896570873E+03  0.26697603705E+03  0.54328425980E+03  0.50400001928E-02 0. -1.
</event>
<event>
 5   0  0.3751091E-03  0.1128920E+04  0.7818609E-02  0.9177454E-01
        2   -1    0    0  501    0  0.00000000000E+00  0.00000000000E+00  0.21524195041E+04  0.21524195041E+04  0.25500000920E-02 0. -1.
       -2   -1    0    0    0  501  0.00000000000E+00  0.00000000000E+00 -0.14802639359E+03  0.14802639361E+03  0.25500000920E-02 0.  1.
    10030    2    1    2    0    0  0.00000000000E+00  0.00000000000E+00  0.20043931105E+04  0.23004458977E+04  0.11289196547E+04 0.  0.
        5    1    3    3  502    0 -0.21230609369E+03 -0.50809023257E+03  0.12547716158E+04  0.13702932021E+04  0.46999998093E+01 0. -1.
       -5    1    3    3    0  502  0.21230609369E+03  0.50809023257E+03  0.74962149473E+03  0.93015269565E+03  0.46999998093E+01 0.  1.
</event>
<event>
 5   0  0.3751091E-03  0.1209887E+04  0.7818609E-02  0.9104247E-01
        2   -1    0    0  501    0  0.00000000000E+00  0.00000000000E+00  0.60141867208E+03  0.60141867209E+03  0.25500000920E-02 0. -1.
       -2   -1    0    0    0  501  0.00000000000E+00  0.00000000000E+00 -0.60848865214E+03  0.60848865214E+03  0.25500000920E-02 0.  1.
    10030    2    1    2    0    0  0.00000000000E+00  0.00000000000E+00 -0.70699800572E+01  0.12099073242E+04  0.12098866677E+04 0.  0.
        5    1    3    3  502    0 -0.55697947486E+03  0.16175661257E+02 -0.23900994206E+03  0.60632963793E+03  0.46999998093E+01 0. -1.
       -5    1    3    3    0  502  0.55697947486E+03 -0.16175661257E+02  0.23193996200E+03  0.60357768630E+03  0.46999998093E+01 0.  1.
</event>
<event>
 5   0  0.3751091E-03  0.1218380E+04  0.7818609E-02  0.9096919E-01
        2   -1    0    0  501    0  0.00000000000E+00  0.00000000000E+00  0.25550518974E+04  0.25550518974E+04  0.25500000920E-02 0. -1.
       -2   -1    0    0    0  501  0.00000000000E+00  0.00000000000E+00 -0.14524642871E+03  0.14524642874E+03  0.25500000920E-02 0.  1.
    10030    2    1    2    0    0  0.00000000000E+00  0.00000000000E+00  0.24098054687E+04  0.27002983261E+04  0.12183795194E+04 0.  0.
        5    1    3    3  502    0 -0.47838992932E+03 -0.34432995209E+03  0.86392298420E+03  0.10458513532E+04  0.46999998093E+01 0.  1.
       -5    1    3    3    0  502  0.47838992932E+03  0.34432995209E+03  0.15458824845E+04  0.16544469729E+04  0.46999998093E+01 0. -1.
</event>
<event>
 5   0  0.3706035E-03  0.1154663E+04  0.7818609E-02  0.9153492E-01
        2   -1    0    0  501    0  0.00000000000E+00  0.00000000000E+00  0.12631186256E+04  0.12631186256E+04  0.25500000920E-02 0. -1.
       -2   -1    0    0    0  501  0.00000000000E+00  0.00000000000E+00 -0.26388001064E+03  0.26388001066E+03  0.25500000920E-02 0.  1.
    10030    2    1    2    0    0  0.00000000000E+00  0.00000000000E+00  0.99923861498E+03  0.15269986363E+04  0.11546631654E+04 0.  0.
        2    1    3    3  502    0  0.15051301221E+03 -0.37901642424E+03  0.10400586485E+04  0.11171524556E+04  0.25500000920E-02 0. -1.
       -2    1    3    3    0  502 -0.15051301221E+03  0.37901642424E+03 -0.40820033524E+02  0.40984618070E+03  0.25500000920E-02 0.  1.
</event>
<event>
 5   0  0.2134992E-03  0.1192187E+04  0.7818609E-02  0.9119723E-01
       -1   -1    0    0    0  501  0.00000000000E+00  0.00000000000E+00  0.34703044394E+03  0.34703044397E+03  0.50400001928E-02 0.  1.
        1   -1    0    0  501    0  0.00000000000E+00  0.00000000000E+00 -0.10239078462E+04  0.10239078462E+04  0.50400001928E-02 0. -1.
    10030    2    1    2    0    0  0.00000000000E+00  0.00000000000E+00 -0.67687740222E+03  0.13709382901E+04  0.11921865532E+04 0.  0.
        4    1    3    3  502    0  0.54956713259E+03 -0.96663380151E+01 -0.60369310594E+03  0.81643398408E+03  0.12699999809E+01 0. -1.
       -4    1    3    3    0  502 -0.54956713259E+03  0.96663380151E+01 -0.73184296278E+02  0.55450430605E+03  0.12699999809E+01 0.  1.
</event>
<event>
 5   0  0.3626049E-03  0.9859879E+03  0.7818609E-02  0.9324048E-01
       -2   -1    0    0    0  501  0.00000000000E+00  0.00000000000E+00  0.17219429008E+03  0.17219429009E+03  0.25500000920E-02 0. -1.
        2   -1    0    0  501    0  0.00000000000E+00  0.00000000000E+00 -0.14114465816E+04  0.14114465816E+04  0.25500000920E-02 0.  1.
    10030    2    1    2    0    0  0.00000000000E+00  0.00000000000E+00 -0.12392522916E+04  0.15836408717E+04  0.98598791498E+03 0.  0.
        1    1    3    3  502    0 -0.37679561271E+02  0.37541139462E+03 -0.10996987837E+03  0.39299725028E+03  0.50400001928E-02 0. -1.
       -1    1    3    3    0  502  0.37679561271E+02 -0.37541139462E+03 -0.11292824132E+04  0.11906436215E+04  0.50400001928E-02 0.  1.
</event>
<event>
 5   0  0.3751091E-03  0.1129693E+04  0.7818609E-02  0.9176725E-01
        2   -1    0    0  501    0  0.00000000000E+00  0.00000000000E+00  0.61065280656E+03  0.61065280657E+03  0.25500000920E-02 0.  1.
       -2   -1    0    0    0  501  0.00000000000E+00  0.00000000000E+00 -0.52247627589E+03  0.52247627589E+03  0.25500000920E-02 0. -1.
    10030    2    1    2    0    0  0.00000000000E+00  0.00000000000E+00  0.88176530672E+02  0.11331290825E+04  0.11296930632E+04 0.  0.
        5    1    3    3  502    0  0.13274059200E+03 -0.18543947982E+03 -0.47422480517E+03  0.52623105313E+03  0.46999998093E+01 0. -1.
       -5    1    3    3    0  502 -0.13274059200E+03  0.18543947982E+03  0.56240133585E+03  0.60689802933E+03  0.46999998093E+01 0.  1.
</event>
<event>
 5   0  0.3725376E-03  0.1185594E+04  0.7818609E-02  0.9125561E-01
       -2   -1    0    0    0  501  0.00000000000E+00  0.00000000000E+00  0.33843697817E+03  0.33843697818E+03  0.25500000920E-02 0.  1.
        2   -1    0    0  501    0  0.00000000000E+00  0.00000000000E+00 -0.10383262689E+04  0.10383262689E+04  0.25500000920E-02 0. -1.
    10030    2    1    2    0    0  0.00000000000E+00  0.00000000000E+00 -0.69988929078E+03  0.13767632471E+04  0.11855935304E+04 0.  0.
        4    1    3    3  502    0 -0.19207411093E+03  0.30940745424E+03 -0.89310517128E+03  0.96450189045E+03  0.12699999809E+01 0. -1.
       -4    1    3    3    0  502  0.19207411093E+03 -0.30940745424E+03  0.19321588050E+03  0.41226135668E+03  0.12699999809E+01 0.  1.
</event>
<event>
 5   0  0.3650180E-03  0.1195514E+04  0.7818609E-02  0.9116792E-01
       -2   -1    0    0    0  501  0.00000000000E+00  0.00000000000E+00  0.54015086660E+03  0.54015086660E+03  0.25500000920E-02 0.  1.
        2   -1    0    0  501    0  0.00000000000E+00  0.00000000000E+00 -0.66150723803E+03  0.66150723803E+03  0.25500000920E-02 0. -1.
    10030    2    1    2    0    0  0.00000000000E+00  0.00000000000E+00 -0.12135637143E+03  0.12016581046E+04  0.11955144631E+04 0.  0.
        3    1    3    3  502    0  0.48250514170E+03  0.85765932275E+02 -0.40470405261E+03  0.63557248785E+03  0.10100000352E+00 0. -1.
       -3    1    3    3    0  502 -0.48250514170E+03 -0.85765932275E+02  0.28334768118E+03  0.56608561679E+03  0.10100000352E+00 0.  1.
</event>
<event>
 5   0  0.3751091E-03  0.1245609E+04  0.7818609E-02  0.9073846E-01
        2   -1    0    0  501    0  0.00000000000E+00  0.00000000000E+00  0.11467153511E+04  0.11467153511E+04  0.25500000920E-02 0.  1.
       -2   -1    0    0    0  501  0.00000000000E+00  0.00000000000E+00 -0.33825765524E+03  0.33825765525E+03  0.25500000920E-02 0. -1.
    10030    2    1    2    0    0  0.00000000000E+00  0.00000000000E+00  0.80845769588E+03  0.14849730064E+04  0.12456086800E+04 0.  0.
        5    1    3    3  502    0 -0.27489677923E+03  0.22591469765E+03  0.10135851239E+04  0.10742358136E+04  0.46999998093E+01 0.  1.
       -5    1    3    3    0  502  0.27489677923E+03 -0.22591469765E+03 -0.20512742798E+03  0.41073719281E+03  0.46999998093E+01 0. -1.
</event>
<event>
 5   0  0.2134992E-03  0.1193572E+04  0.7818609E-02  0.9118501E-01
       -1   -1    0    0    0  501  0.00000000000E+00  0.00000000000E+00  0.39783259478E+03  0.39783259482E+03  0.50400001928E-02 0. -1.
        1   -1    0    0  501    0  0.00000000000E+00  0.00000000000E+00 -0.89523520922E+03  0.89523520923E+03  0.50400001928E-02 0.  1.
    10030    2    1    2    0    0  0.00000000000E+00  0.00000000000E+00 -0.49740261444E+03  0.12930678040E+04  0.11935723627E+04 0.  0.
        4    1    3    3  502    0 -0.33280588166E+03  0.46750442426E+03 -0.42616070380E+03  0.71479696413E+03  0.12699999809E+01 0.  1.
       -4    1    3    3    0  502  0.33280588166E+03 -0.46750442426E+03 -0.71241910638E+02  0.57827083992E+03  0.12699999809E+01 0. -1.
</event>
<event>
 5   0  0.2078258E-03  0.1190987E+04  0.7818609E-02  0.9120782E-01
        1   -1    0    0  501    0  0.00000000000E+00  0.00000000000E+00  0.30461603182E+03  0.30461603186E+03  0.50400001928E-02 0.  1.
       -1   -1    0    0    0  501  0.00000000000E+00  0.00000000000E+00 -0.11641301308E+04  0.11641301308E+04  0.50400001928E-02 0. -1.
    10030    2    1    2    0    0  0.00000000000E+00  0.00000000000E+00 -0.85951409894E+03  0.14687461626E+04  0.11909873232E+04 0.  0.
        3    1    3    3  502    0  0.59059965718E+03  0.59081738156E+01 -0.33608261383E+03  0.67955455638E+03  0.10100000352E+00 0. -1.
       -3    1    3    3    0  502 -0.59059965718E+03 -0.59081738156E+01 -0.52343148510E+03  0.78919160625E+03  0.10100000352E+00 0.  1.
</event>
<event>
 5   0  0.2025294E-03  0.1211572E+04  0.7818609E-02  0.9102787E-01
        1   -1    0    0  501    0  0.00000000000E+00  0.00000000000E+00  0.29781219098E+03  0.29781219102E+03  0.50400001928E-02 0. -1.
       -1   -1    0    0    0  501  0.00000000000E+00  0.00000000000E+00 -0.12322429209E+04  0.12322429209E+04  0.50400001928E-02 0.  1.
    10030    2    1    2    0    0  0.00000000000E+00  0.00000000000E+00 -0.93443072992E+03  0.15300551119E+04  0.12115724727E+04 0.  0.
        5    1    3    3  502    0  0.24331010899E+03 -0.95822412190E+02  0.22283857114E+03  0.34359985826E+03  0.46999998093E+01 0. -1.
       -5    1    3    3    0  502 -0.24331010899E+03  0.95822412190E+02 -0.11572693011E+04  0.11864552537E+04  0.46999998093E+01 0.  1.
</event>
<event>
 5   0  0.3626049E-03  0.1187791E+04  0.7818609E-02  0.9123611E-01
        2   -1    0    0  501    0  0.00000000000E+00  0.00000000000E+00  0.28750919214E+03  0.28750919215E+03  0.25500000920E-02 0. -1.
       -2   -1    0    0    0  501  0.00000000000E+00  0.00000000000E+00 -0.12267840975E+04  0.12267840975E+04  0.25500000920E-02 0.  1.
    10030    2    1    2    0    0  0.00000000000E+00  0.00000000000E+00 -0.93927490535E+03  0.15142932896E+04  0.11877907304E+04 0.  0.
        1    1    3    3  502    0 -0.55954494457E+01  0.31668916406E+03  0.17084131152E+03  0.35987510255E+03  0.50400001928E-02 0. -1.
       -1    1    3    3    0  502  0.55954494457E+01 -0.31668916406E+03 -0.11101162169E+04  0.11544181871E+04  0.50400001928E-02 0.  1.
</event>
<event>
 5   0  0.3751091E-03  0.1200023E+04  0.7818609E-02  0.9112836E-01
        2   -1    0    0  501    0  0.00000000000E+00  0.00000000000E+00  0.52556095458E+03  0.52556095458E+03  0.25500000920E-02 0.  1.
       -2   -1    0    0    0  501  0.00000000000E+00  0.00000000000E+00 -0.68500902268E+03  0.68500902268E+03  0.25500000920E-02 0. -1.
    10030    2    1    2    0    0  0.00000000000E+00  0.00000000000E+00 -0.15944806810E+03  0.12105699773E+04  0.12000233262E+04 0.  0.
        5    1    3    3  502    0  0.29316437288E+03 -0.35865032322E+03  0.30496256520E+03  0.55461667848E+03  0.46999998093E+01 0.  1.
       -5    1    3    3    0  502 -0.29316437288E+03  0.35865032322E+03 -0.46441063330E+03  0.65595329879E+03  0.46999998093E+01 0. -1.
</event>
<event>
 5   0  0.2025294E-03  0.1138552E+04  0.7818609E-02  0.9168410E-01
       -1   -1    0    0    0  501  0.00000000000E+00  0.00000000000E+00  0.59588207804E+03  0.59588207807E+03  0.50400001928E-02 0.  1.
        1   -1    0    0  501    0  0.00000000000E+00  0.00000000000E+00 -0.54385800366E+03  0.54385800368E+03  0.50400001928E-02 0. -1.
    10030    2    1    2    0    0  0.00000000000E+00  0.00000000000E+00  0.52024074388E+02  0.11397400817E+04  0.11385521286E+04 0.  0.
        5    1    3    3  502    0  0.29389320851E+03  0.31748998149E+03 -0.34434701617E+03  0.55296479445E+03  0.46999998093E+01 0. -1.
       -5    1    3    3    0  502 -0.29389320851E+03 -0.31748998149E+03  0.39637109056E+03  0.58677528730E+03  0.46999998093E+01 0.  1.
</event>
<event>
 5   0  0.2047109E-03  0.1203076E+04  0.7818609E-02  0.9110168E-01
       -1   -1    0    0    0  501  0.00000000000E+00  0.00000000000E+00  0.38362922139E+03  0.38362922142E+03  0.50400001928E-02 0.  1.
        1   -1    0    0  501    0  0.00000000000E+00  0.00000000000E+00 -0.94322305683E+03  0.94322305684E+03  0.50400001928E-02 0. -1.
    10030    2    1    2    0    0  0.00000000000E+00  0.00000000000E+00 -0.55959383544E+03  0.13268522783E+04  0.12030759360E+04 0.  0.
        1    1    3    3  502    0 -0.34443551274E+03 -0.48737982603E+03 -0.19672843170E+03  0.62839238786E+03  0.50400001928E-02 0.  1.
       -1    1    3    3    0  502  0.34443551274E+03  0.48737982603E+03 -0.36286540374E+03  0.69845989041E+03  0.50400001928E-02 0. -1.
</event>
<event>
 5   0  0.3725376E-03  0.1173738E+04  0.7818609E-02  0.9136159E-01
        2   -1    0    0  501    0  0.00000000000E+00  0.00000000000E+00  0.67422215006E+03  0.67422215007E+03  0.25500000920E-02 0. -1.
       -2   -1    0    0    0  501  0.00000000000E+00  0.00000000000E+00 -0.51083386914E+03  0.51083386915E+03  0.25500000920E-02 0.  1.
    10030    2    1    2    0    0  0.00000000000E+00  0.00000000000E+00  0.16338828092E+03  0.11850560192E+04  0.11737384880E+04 0.  0.
        4    1    3    3  502    0  0.47356575183E+03  0.10023413604E+03  0.41671057461E+03  0.63871802794E+03  0.12699999809E+01 0. -1.
       -4    1    3    3    0  502 -0.47356575183E+03 -0.10023413604E+03 -0.25332229368E+03  0.54633799127E+03  0.12699999809E+01 0.  1.
</event>
<event>
 5   0  0.2047109E-03  0.1075167E+04  0.7818609E-02  0.9229740E-01
       -1   -1    0    0    0  501  0.00000000000E+00  0.00000000000E+00  0.76905007488E+03  0.76905007490E+03  0.50400001928E-02 0.  1.
        1   -1    0    0  501    0  0.00000000000E+00  0.00000000000E+00 -0.37578295169E+03  0.37578295172E+03  0.50400001928E-02 0. -1.
    10030    2    1    2    0    0  0.00000000000E+00  0.00000000000E+00  0.39326712320E+03  0.11448330266E+04  0.10751667911E+04 0.  0.
        1    1    3    3  502    0 -0.19398823749E+03 -0.14925148534E+03  0.70627873899E+03  0.74748719009E+03  0.50400001928E-02 0.  1.
       -1    1    3    3    0  502  0.19398823749E+03  0.14925148534E+03 -0.31301161580E+03  0.39734583653E+03  0.50400001928E-02 0. -1.
</event>
<event>
 5   0  0.3725376E-03  0.1186478E+04  0.7818609E-02  0.9124775E-01
       -2   -1    0    0    0  501  0.00000000000E+00  0.00000000000E+00  0.23946442480E+03  0.23946442482E+03  0.25500000920E-02 0. -1.
        2   -1    0    0  501    0  0.00000000000E+00  0.00000000000E+00 -0.14696656658E+04  0.14696656658E+04  0.25500000920E-02 0.  1.
    10030    2    1    2    0    0  0.00000000000E+00  0.00000000000E+00 -0.12302012410E+04  0.17091300906E+04  0.11864782229E+04 0.  0.
        4    1    3    3  502    0 -0.30268066431E+03 -0.50845642893E+03 -0.67600367500E+03  0.89840197360E+03  0.12699999809E+01 0. -1.
       -4    1    3    3    0  502  0.30268066431E+03  0.50845642893E+03 -0.55419756599E+03  0.81072811701E+03  0.12699999809E+01 0.  1.
</event>
<event>
 5   0  0.3626049E-03  0.1203753E+04  0.7818609E-02  0.9109578E-01
        2   -1    0    0  501    0  0.00000000000E+00  0.00000000000E+00  0.75517378302E+03  0.75517378302E+03  0.25500000920E-02 0.  1.
       -2   -1    0    0    0  501  0.00000000000E+00  0.00000000000E+00 -0.47969796757E+03  0.47969796757E+03  0.25500000920E-02 0. -1.
    10030    2    1    2    0    0  0.00000000000E+00  0.00000000000E+00  0.27547581545E+03  0.12348717506E+04  0.12037530127E+04 0.  0.
        1    1    3    3  502    0  0.18547090697E+03 -0.30375096771E+03 -0.36018719338E+03  0.50635849160E+03  0.50400001928E-02 0. -1.
       -1    1    3    3    0  502 -0.18547090697E+03  0.30375096771E+03  0.63566300882E+03  0.72851325899E+03  0.50400001928E-02 0.  1.
</event>
<event>
 5   0  0.1397500E-03  0.1075739E+04  0.7818609E-02  0.9229167E-01
        4   -1    0    0  501    0  0.00000000000E+00  0.00000000000E+00  0.40393990145E+03  0.40394189790E+03  0.12699999809E+01 0.  1.
       -4   -1    0    0    0  501  0.00000000000E+00  0.00000000000E+00 -0.71619984472E+03  0.71620097074E+03  0.12699999809E+01 0. -1.
    10030    2    1    2    0    0  0.00000000000E+00  0.00000000000E+00 -0.31225994328E+03  0.11201428686E+04  0.10757387108E+04 0.  0.
        1    1    3    3  502    0  0.46367731621E+03  0.20809176196E+03 -0.33947947887E+03  0.61118340256E+03  0.50400001928E-02 0. -1.
       -1    1    3    3    0  502 -0.46367731621E+03 -0.20809176196E+03  0.27219535588E+02  0.50895946608E+03  0.50400001928E-02 0.  1.
</event>
<event>
 5   0  0.2047109E-03  0.1029174E+04  0.7818609E-02  0.9277114E-01
       -1   -1    0    0    0  501  0.00000000000E+00  0.00000000000E+00  0.36031784793E+03  0.36031784796E+03  0.50400001928E-02 0.  1.
        1   -1    0    0  501    0  0.00000000000E+00  0.00000000000E+00 -0.73490568725E+03  0.73490568727E+03  0.50400001928E-02 0. -1.
    10030    2    1    2    0    0  0.00000000000E+00  0.00000000000E+00 -0.37458783932E+03  0.10952235352E+04  0.10291737184E+04 0.  0.
        1    1    3    3  502    0 -0.46038797104E+03  0.74676788182E+02 -0.41865386872E+03  0.62674138877E+03  0.50400001928E-02 0. -1.
       -1    1    3    3    0  502  0.46038797104E+03 -0.74676788182E+02  0.44066029401E+02  0.46848214646E+03  0.50400001928E-02 0.  1.
</event>
<event>
 5   0  0.1397500E-03  0.1167643E+04  0.7818609E-02  0.9141660E-01
        3   -1    0    0  501    0  0.00000000000E+00  0.00000000000E+00  0.50057544986E+03  0.50057546005E+03  0.10100000352E+00 0.  1.
       -3   -1    0    0    0  501  0.00000000000E+00  0.00000000000E+00 -0.68091122480E+03  0.68091123229E+03  0.10100000352E+00 0. -1.
    10030    2    1    2    0    0  0.00000000000E+00  0.00000000000E+00 -0.18033577494E+03  0.11814866923E+04  0.11676428446E+04 0.  0.
        2    1    3    3  502    0  0.27300208147E+03 -0.38221359204E+03  0.26068527234E+03  0.53719100667E+03  0.25500000920E-02 0.  1.
       -2    1    3    3    0  502 -0.27300208147E+03  0.38221359204E+03 -0.44102104727E+03  0.64429568567E+03  0.25500000920E-02 0. -1.
</event>
<event>
 5   0  0.3725376E-03  0.1189960E+04  0.7818609E-02  0.9121690E-01
       -2   -1    0    0    0  501  0.00000000000E+00  0.00000000000E+00  0.65306314330E+03  0.65306314330E+03  0.25500000920E-02 0. -1.
        2   -1    0    0  501    0  0.00000000000E+00  0.00000000000E+00 -0.54206303778E+03  0.54206303779E+03  0.25500000920E-02 0.  1.
    10030    2    1    2    0    0  0.00000000000E+00  0.00000000000E+00  0.11100010551E+03  0.11951261811E+04  0.11899603209E+04 0.  0.
        4    1    3    3  502    0 -0.48421297382E+02  0.26289054838E+03  0.58935602628E+03  0.64714619761E+03  0.12699999809E+01 0. -1.
       -4    1    3    3    0  502  0.48421297382E+02 -0.26289054838E+03 -0.47835592077E+03  0.54797998348E+03  0.12699999809E+01 0.  1.
</event>
<event>
 5   0  0.2134992E-03  0.1220079E+04  0.7818609E-02  0.9095460E-01
       -1   -1    0    0    0  501  0.00000000000E+00  0.00000000000E+00  0.45568188405E+03  0.45568188408E+03  0.50400001928E-02 0. -1.
        1   -1    0    0  501    0  0.00000000000E+00  0.00000000000E+00 -0.81668463220E+03  0.81668463222E+03  0.50400001928E-02 0.  1.
    10030    2    1    2    0    0  0.00000000000E+00  0.00000000000E+00 -0.36100274816E+03  0.12723665163E+04  0.12200793284E+04 0.  0.
        4    1    3    3  502    0 -0.14230468385E+03  0.58046959768E+03 -0.30801665119E+03  0.67236258610E+03  0.12699999809E+01 0. -1.
       -4    1    3    3    0  502  0.14230468385E+03 -0.58046959768E+03 -0.52986096968E+02  0.60000393019E+03  0.12699999809E+01 0.  1.
</event>
<event>
 5   0  0.3725376E-03  0.1222700E+04  0.7818609E-02  0.9093216E-01
        2   -1    0    0  501    0  0.00000000000E+00  0.00000000000E+00  0.37020481671E+03  0.37020481672E+03  0.25500000920E-02 0.  1.
       -2   -1    0    0    0  501  0.00000000000E+00  0.00000000000E+00 -0.10095724734E+04  0.10095724734E+04  0.25500000920E-02 0. -1.
    10030    2    1    2    0    0  0.00000000000E+00  0.00000000000E+00 -0.63936765671E+03  0.13797772901E+04  0.12226996238E+04 0.  0.
        4    1    3    3  502    0 -0.22786243362E+03 -0.29657192213E+03 -0.86541304047E+03  0.94277120086E+03  0.12699999809E+01 0. -1.
       -4    1    3    3    0  502  0.22786243362E+03  0.29657192213E+03  0.22604538376E+03  0.43700608928E+03  0.12699999809E+01 0.  1.
</event>
<event>
 5   0  0.2096270E-03  0.1184825E+04  0.7818609E-02  0.9126244E-01
       -1   -1    0    0    0  501  0.00000000000E+00  0.00000000000E+00  0.91656404768E+03  0.91656404770E+03  0.50400001928E-02 0. -1.
        1   -1    0    0  501    0  0.00000000000E+00  0.00000000000E+00 -0.38290039983E+03  0.38290039986E+03  0.50400001928E-02 0.  1.
    10030    2    1    2    0    0  0.00000000000E+00  0.00000000000E+00  0.53366364785E+03  0.12994644476E+04  0.11848252873E+04 0.  0.
        2    1    3    3  502    0 -0.51057101097E+03 -0.23624045078E+03  0.47042839032E+03  0.73334519720E+03  0.25500000920E-02 0. -1.
       -2    1    3    3    0  502  0.51057101097E+03  0.23624045078E+03  0.63235257536E+02  0.56611925036E+03  0.25500000920E-02 0.  1.
</event>
<event>
 5   0  0.3626049E-03  0.1122624E+04  0.7818609E-02  0.9183417E-01
       -2   -1    0    0    0  501  0.00000000000E+00  0.00000000000E+00  0.56977147647E+03  0.56977147648E+03  0.25500000920E-02 0.  1.
        2   -1    0    0  501    0  0.00000000000E+00  0.00000000000E+00 -0.55297836403E+03  0.55297836404E+03  0.25500000920E-02 0. -1.
    10030    2    1    2    0    0  0.00000000000E+00  0.00000000000E+00  0.16793112441E+02  0.11227498405E+04  0.11226242451E+04 0.  0.
        1    1    3    3  502    0 -0.49259040836E+03  0.19432498935E+03 -0.17780640721E+03  0.55858985880E+03  0.50400001928E-02 0. -1.
       -1    1    3    3    0  502  0.49259040836E+03 -0.19432498935E+03  0.19459951965E+03  0.56415998171E+03  0.50400001928E-02 0.  1.
</event>
<event>
 5   0  0.2078258E-03  0.1194166E+04  0.7818609E-02  0.9117978E-01
        1   -1    0    0  501    0  0.00000000000E+00  0.00000000000E+00  0.15149029098E+04  0.15149029098E+04  0.50400001928E-02 0.  1.
       -1   -1    0    0    0  501  0.00000000000E+00  0.00000000000E+00 -0.23533392669E+03  0.23533392674E+03  0.50400001928E-02 0. -1.
    10030    2    1    2    0    0  0.00000000000E+00  0.00000000000E+00  0.12795689832E+04  0.17502368366E+04  0.11941659020E+04 0.  0.
        3    1    3    3  502    0  0.51333224932E+03  0.27661260330E+03  0.82795735669E+03  0.10126884640E+04  0.10100000352E+00 0.  1.
       -3    1    3    3    0  502 -0.51333224932E+03 -0.27661260330E+03  0.45161162646E+03  0.73754837255E+03  0.10100000352E+00 0. -1.
</event>
<event>
 5   0  0.2047109E-03  0.1182208E+04  0.7818609E-02  0.9128574E-01
        1   -1    0    0  501    0  0.00000000000E+00  0.00000000000E+00  0.69533267907E+03  0.69533267908E+03  0.50400001928E-02 0.  1.
       -1   -1    0    0    0  501  0.00000000000E+00  0.00000000000E+00 -0.50249915363E+03  0.50249915365E+03  0.50400001928E-02 0. -1.
    10030    2    1    2    0    0  0.00000000000E+00  0.00000000000E+00  0.19283352544E+03  0.11978318327E+04  0.11822082435E+04 0.  0.
        1    1    3    3  502    0 -0.21769375655E+03 -0.20300426540E+03 -0.42102082634E+03  0.51561598079E+03  0.50400001928E-02 0. -1.
       -1    1    3    3    0  502  0.21769375655E+03  0.20300426540E+03  0.61385435178E+03  0.68221585194E+03  0.50400001928E-02 0.  1.
</event>
<event>
 5   0  0.2078258E-03  0.1198337E+04  0.7818609E-02  0.9114313E-01
       -1   -1    0    0    0  501  0.00000000000E+00  0.00000000000E+00  0.52528181224E+03  0.52528181227E+03  0.50400001928E-02 0.  1.
        1   -1    0    0  501    0  0.00000000000E+00  0.00000000000E+00 -0.68344842813E+03  0.68344842814E+03  0.50400001928E-02 0. -1.
    10030    2    1    2    0    0  0.00000000000E+00  0.00000000000E+00 -0.15816661588E+03  0.12087302404E+04  0.11983372295E+04 0.  0.
        3    1    3    3  502    0 -0.37327280154E+02  0.31281068871E+03  0.43500269099E+03  0.53709515375E+03  0.10100000352E+00 0.  1.
       -3    1    3    3    0  502  0.37327280154E+02 -0.31281068871E+03 -0.59316930687E+03  0.67163508666E+03  0.10100000352E+00 0. -1.
</event>
<event>
 5   0  0.3650180E-03  0.1205034E+04  0.7818609E-02  0.9108462E-01
        2   -1    0    0  501    0  0.00000000000E+00  0.00000000000E+00  0.12967309332E+04  0.12967309332E+04  0.25500000920E-02 0. -1.
       -2   -1    0    0    0  501  0.00000000000E+00  0.00000000000E+00 -0.27995539249E+03  0.27995539250E+03  0.25500000920E-02 0.  1.
    10030    2    1    2    0    0  0.00000000000E+00  0.00000000000E+00  0.10167755407E+04  0.15766863257E+04  0.12050341362E+04 0.  0.
        3    1    3    3  502    0  0.83433142428E+02  0.39402287167E+02 -0.27065650901E+03  0.28595206864E+03  0.10100000352E+00 0.  1.
       -3    1    3    3    0  502 -0.83433142428E+02 -0.39402287167E+02  0.12874320497E+04  0.12907342571E+04  0.10100000352E+00 0. -1.
</event>
<event>
 5   0  0.3706035E-03  0.1211954E+04  0.7818609E-02  0.9102458E-01
       -2   -1    0    0    0  501  0.00000000000E+00  0.00000000000E+00  0.15287507198E+04  0.15287507198E+04  0.25500000920E-02 0.  1.
        2   -1    0    0  501    0  0.00000000000E+00  0.00000000000E+00 -0.24020125992E+03  0.24020125993E+03  0.25500000920E-02 0. -1.
    10030    2    1    2    0    0  0.00000000000E+00  0.00000000000E+00  0.12885494599E+04  0.17689519797E+04  0.12119535453E+04 0.  0.
        2    1    3    3  502    0  0.59828896195E+03 -0.70140492256E+02  0.54813590993E+03  0.81444603652E+03  0.25500000920E-02 0. -1.
       -2    1    3    3    0  502 -0.59828896195E+03  0.70140492256E+02  0.74041354994E+03  0.95450594319E+03  0.25500000920E-02 0.  1.
</event>
<event>
 5   0  0.2134992E-03  0.1185731E+04  0.7818609E-02  0.9125439E-01
        1   -1    0    0  501    0  0.00000000000E+00  0.00000000000E+00  0.10180450057E+04  0.10180450057E+04  0.50400001928E-02 0. -1.
       -1   -1    0    0    0  501  0.00000000000E+00  0.00000000000E+00 -0.34525912177E+03  0.34525912181E+03  0.50400001928E-02 0.  1.
    10030    2    1    2    0    0  0.00000000000E+00  0.00000000000E+00  0.67278588390E+03  0.13633041275E+04  0.11857307023E+04 0.  0.
        4    1    3    3  502    0 -0.43526310147E+03  0.61366861231E+01 -0.12637039511E+03  0.45327995331E+03  0.12699999809E+01 0.  1.
       -4    1    3    3    0  502  0.43526310147E+03 -0.61366861231E+01  0.79915627901E+03  0.91002417418E+03  0.12699999809E+01 0. -1.
</event>
<event>
 5   0  0.3626049E-03  0.1182652E+04  0.7818609E-02  0.9128178E-01
       -2   -1    0    0    0  501  0.00000000000E+00  0.00000000000E+00  0.46006655360E+03  0.46006655360E+03  0.25500000920E-02 0. -1.
        2   -1    0    0  501    0  0.00000000000E+00  0.00000000000E+00 -0.76003469989E+03  0.76003469990E+03  0.25500000920E-02 0.  1.
    10030    2    1    2    0    0  0.00000000000E+00  0.00000000000E+00 -0.29996814630E+03  0.12201012535E+04  0.11826521805E+04 0.  0.
        1    1    3    3  502    0 -0.21798151282E+03 -0.21779147131E+03  0.37069270788E+03  0.48203957162E+03  0.50400001928E-02 0. -1.
       -1    1    3    3    0  502  0.21798151282E+03  0.21779147131E+03 -0.67066085418E+03  0.73806168188E+03  0.50400001928E-02 0.  1.
</event>
<event>
 5   0  0.3751091E-03  0.1230208E+04  0.7818609E-02  0.9086819E-01
        2   -1    0    0  501    0  0.00000000000E+00  0.00000000000E+00  0.50005479162E+03  0.50005479162E+03  0.25500000920E-02 0. -1.
       -2   -1    0    0    0  501  0.00000000000E+00  0.00000000000E+00 -0.75662276918E+03  0.75662276919E+03  0.25500000920E-02 0.  1.
    10030    2    1    2    0    0  0.00000000000E+00  0.00000000000E+00 -0.25656797757E+03  0.12566775608E+04  0.12302078543E+04 0.  0.
        5    1    3    3  502    0 -0.13329411860E+03  0.57317161206E+03  0.54558131461E+02  0.59100905123E+03  0.46999998093E+01 0. -1.
       -5    1    3    3    0  502  0.13329411860E+03 -0.57317161206E+03 -0.31112610903E+03  0.66566850958E+03  0.46999998093E+01 0.  1.
</event>
<event>
 5   0  0.2134992E-03  0.1208772E+04  0.7818609E-02  0.9105213E-01
        1   -1    0    0  501    0  0.00000000000E+00  0.00000000000E+00  0.59417553566E+03  0.59417553568E+03  0.50400001928E-02 0.  1.
       -1   -1    0    0    0  501  0.00000000000E+00  0.00000000000E+00 -0.61477154039E+03  0.61477154041E+03  0.50400001928E-02 0. -1.
    10030    2    1    2    0    0  0.00000000000E+00  0.00000000000E+00 -0.20596004727E+02  0.12089470761E+04  0.12087716233E+04 0.  0.
        4    1    3    3  502    0 -0.51729930937E+03  0.30791731495E+03 -0.63868339647E+02  0.60538617925E+03  0.12699999809E+01 0. -1.
       -4    1    3    3    0  502  0.51729930937E+03 -0.30791731495E+03  0.43272334920E+02  0.60356089684E+03  0.12699999809E+01 0.  1.
</event>
<event>
 5   0  0.3626049E-03  0.1185521E+04  0.7818609E-02  0.9125625E-01
       -2   -1    0    0    0  501  0.00000000000E+00  0.00000000000E+00  0.28668944803E+03  0.28668944804E+03  0.25500000920E-02 0.  1.
        2   -1    0    0  501    0  0.00000000000E+00  0.00000000000E+00 -0.12255942038E+04  0.12255942038E+04  0.25500000920E-02 0. -1.
    10030    2    1    2    0    0  0.00000000000E+00  0.00000000000E+00 -0.93890475579E+03  0.15122836519E+04  0.11855208574E+04 0.  0.
        1    1    3    3  502    0 -0.25746234654E+03 -0.30388031633E+03 -0.10294731663E+04  0.11038320102E+04  0.50400001928E-02 0. -1.
       -1    1    3    3    0  502  0.25746234654E+03  0.30388031633E+03  0.90568410555E+02  0.40845164164E+03  0.50400001928E-02 0.  1.
</event>
<event>
 5   0  0.2047109E-03  0.8812426E+03  0.7818609E-02  0.9449338E-01
        1   -1    0    0  501    0  0.00000000000E+00  0.00000000000E+00  0.14133556048E+04  0.14133556048E+04  0.50400001928E-02 0.  1.
       -1   -1    0    0    0  501  0.00000000000E+00  0.00000000000E+00 -0.13736607320E+03  0.13736607329E+03  0.50400001928E-02 0. -1.
    10030    2    1    2    0    0  0.00000000000E+00  0.00000000000E+00  0.12759895316E+04  0.15507216781E+04  0.88124255356E+03 0.  0.
        1    1    3    3  502    0 -0.37764205685E+03 -0.16389458615E+03  0.91439722679E+03  0.10027947182E+04  0.50400001928E-02 0.  1.
       -1    1    3    3    0  502  0.37764205685E+03  0.16389458615E+03  0.36159230482E+03  0.54792695991E+03  0.50400001928E-02 0. -1.
</event>
<event>
 5   0  0.3626049E-03  0.1205838E+04  0.7818609E-02  0.9107762E-01
       -2   -1    0    0    0  501  0.00000000000E+00  0.00000000000E+00  0.71309094375E+03  0.71309094375E+03  0.25500000920E-02 0. -1.
        2   -1    0    0  501    0  0.00000000000E+00  0.00000000000E+00 -0.50976859639E+03  0.50976859640E+03  0.25500000920E-02 0.  1.
    10030    2    1    2    0    0  0.00000000000E+00  0.00000000000E+00  0.20332234736E+03  0.12228595402E+04  0.12058380812E+04 0.  0.
        1    1    3    3  502    0  0.55760483342E+03  0.44144347642E+02  0.32986991069E+03  0.64937356867E+03  0.50400001928E-02 0. -1.
       -1    1    3    3    0  502 -0.55760483342E+03 -0.44144347642E+02 -0.12654756333E+03  0.57348597149E+03  0.50400001928E-02 0.  1.
</event>
<event>
 5   0  0.2134992E-03  0.1253342E+04  0.7818609E-02  0.9067407E-01
       -1   -1    0    0    0  501  0.00000000000E+00  0.00000000000E+00  0.40094031216E+03  0.40094031219E+03  0.50400001928E-02 0. -1.
        1   -1    0    0  501    0  0.00000000000E+00  0.00000000000E+00 -0.97948804323E+03  0.97948804324E+03  0.50400001928E-02 0.  1.
    10030    2    1    2    0    0  0.00000000000E+00  0.00000000000E+00 -0.57854773107E+03  0.13804283554E+04  0.12533415206E+04 0.  0.
        4    1    3    3  502    0  0.49580184241E+03 -0.30330065450E+03 -0.31198861467E+02  0.58205303523E+03  0.12699999809E+01 0. -1.
       -4    1    3    3    0  502 -0.49580184241E+03  0.30330065450E+03 -0.54734886960E+03  0.79837532020E+03  0.12699999809E+01 0.  1.
</event>
<event>
 5   0  0.3706035E-03  0.1216747E+04  0.7818609E-02  0.9098323E-01
       -2   -1    0    0    0  501  0.00000000000E+00  0.00000000000E+00  0.41873048633E+03  0.41873048634E+03  0.25500000920E-02 0.  1.
        2   -1    0    0  501    0  0.00000000000E+00  0.00000000000E+00 -0.88390622410E+03  0.88390622410E+03  0.25500000920E-02 0. -1.
    10030    2    1    2    0    0  0.00000000000E+00  0.00000000000E+00 -0.46517573777E+03  0.13026367104E+04  0.12167472755E+04 0.  0.
        2    1    3    3  502    0 -0.30518027616E+03  0.12346342752E+03 -0.78030736370E+03  0.84691073954E+03  0.25500000920E-02 0. -1.
       -2    1    3    3    0  502  0.30518027616E+03 -0.12346342752E+03  0.31513162593E+03  0.45572597091E+03  0.25500000920E-02 0.  1.
</event>
<event>
 5   0  0.3706035E-03  0.1194971E+04  0.7818609E-02  0.9117270E-01
        2   -1    0    0  501    0  0.00000000000E+00  0.00000000000E+00  0.51322292502E+03  0.51322292502E+03  0.25500000920E-02 0. -1.
       -2   -1    0    0    0  501  0.00000000000E+00  0.00000000000E+00 -0.69558249793E+03  0.69558249793E+03  0.25500000920E-02 0.  1.
    10030    2    1    2    0    0  0.00000000000E+00  0.00000000000E+00 -0.18235957291E+03  0.12088054230E+04  0.11949709355E+04 0.  0.
        2    1    3    3  502    0 -0.47777896710E+03 -0.14537338364E+03  0.24061558377E+03  0.55434828513E+03  0.25500000920E-02 0. -1.
       -2    1    3    3    0  502  0.47777896710E+03  0.14537338364E+03 -0.42297515668E+03  0.65445713782E+03  0.25500000920E-02 0.  1.
</event>
<event>
 5   0  0.2134992E-03  0.1201497E+04  0.7818609E-02  0.9111547E-01
       -1   -1    0    0    0  501  0.00000000000E+00  0.00000000000E+00  0.33462299479E+03  0.33462299483E+03  0.50400001928E-02 0. -1.
        1   -1    0    0  501    0  0.00000000000E+00  0.00000000000E+00 -0.10785230146E+04  0.10785230146E+04  0.50400001928E-02 0.  1.
    10030    2    1    2    0    0  0.00000000000E+00  0.00000000000E+00 -0.74390001980E+03  0.14131460094E+04  0.12014967351E+04 0.  0.
        4    1    3    3  502    0  0.16191143238E+03 -0.48483300131E+03 -0.74317289304E+03  0.90198997386E+03  0.12699999809E+01 0.  1.
       -4    1    3    3    0  502 -0.16191143238E+03  0.48483300131E+03 -0.72712675851E+00  0.51115603558E+03  0.12699999809E+01 0. -1.
</event>
<event>
 5   0  0.2025294E-03  0.1181337E+04  0.7818609E-02  0.9129351E-01
       -1   -1    0    0    0  501  0.00000000000E+00  0.00000000000E+00  0.59688902041E+03  0.59688902043E+03  0.50400001928E-02 0. -1.
        1   -1    0    0  501    0  0.00000000000E+00  0.00000000000E+00 -0.58451307809E+03  0.58451307812E+03  0.50400001928E-02 0.  1.
    10030    2    1    2    0    0  0.00000000000E+00  0.00000000000E+00  0.12375942313E+02  0.11814020985E+04  0.11813372738E+04 0.  0.
        5    1    3    3  502    0  0.37853816451E+03 -0.60055221109E+02 -0.44324694452E+03  0.58599293118E+03  0.46999998093E+01 0.  1.
       -5    1    3    3    0  502 -0.37853816451E+03  0.60055221109E+02  0.45562288684E+03  0.59540916736E+03  0.46999998093E+01 0. -1.
</event>
<event>
 5   0  0.2096270E-03  0.1208617E+04  0.7818609E-02  0.9105348E-01
        1   -1    0    0  501    0  0.00000000000E+00  0.00000000000E+00  0.10834433508E+04  0.10834433508E+04  0.50400001928E-02 0.  1.
       -1   -1    0    0    0  501  0.00000000000E+00  0.00000000000E+00 -0.33706289647E+03  0.33706289650E+03  0.50400001928E-02 0. -1.
    10030    2    1    2    0    0  0.00000000000E+00  0.00000000000E+00  0.74638045435E+03  0.14205062473E+04  0.12086166539E+04 0.  0.
        2    1    3    3  502    0  0.72852067489E+01  0.28147600283E+03 -0.25525404216E+03  0.38004794494E+03  0.25500000920E-02 0. -1.
       -2    1    3    3    0  502 -0.72852067489E+01 -0.28147600283E+03  0.10016344965E+04  0.10404583024E+04  0.25500000920E-02 0.  1.
</event>
<event>
 5   0  0.3650180E-03  0.1204803E+04  0.7818609E-02  0.9108663E-01
       -2   -1    0    0    0  501  0.00000000000E+00  0.00000000000E+00  0.37255679490E+03  0.37255679491E+03  0.25500000920E-02 0. -1.
        2   -1    0    0  501    0  0.00000000000E+00  0.00000000000E+00 -0.97404634532E+03  0.97404634532E+03  0.25500000920E-02 0.  1.
    10030    2    1    2    0    0  0.00000000000E+00  0.00000000000E+00 -0.60148955041E+03  0.13466031402E+04  0.12048030287E+04 0.  0.
        3    1    3    3  502    0  0.55442973022E+02 -0.35646498459E+03 -0.83996357636E+03  0.91415536333E+03  0.10100000352E+00 0.  1.
       -3    1    3    3    0  502 -0.55442973022E+02  0.35646498459E+03  0.23847402594E+03  0.43244777690E+03  0.10100000352E+00 0. -1.
</event>
<event>
 5   0  0.2096270E-03  0.1178652E+04  0.7818609E-02  0.9131750E-01
       -1   -1    0    0    0  501  0.00000000000E+00  0.00000000000E+00  0.39816985733E+03  0.39816985736E+03  0.50400001928E-02 0. -1.
        1   -1    0    0  501    0  0.00000000000E+00  0.00000000000E+00 -0.87225372407E+03  0.87225372409E+03  0.50400001928E-02 0.  1.
    10030    2    1    2    0    0  0.00000000000E+00  0.00000000000E+00 -0.47408386675E+03  0.12704235814E+04  0.11786520112E+04 0.  0.
        2    1    3    3  502    0  0.24908141335E+03  0.24367446824E+03 -0.74932256107E+03  0.82637951178E+03  0.25500000920E-02 0.  1.
       -2    1    3    3    0  502 -0.24908141335E+03 -0.24367446824E+03  0.27523869432E+03  0.44404406967E+03  0.25500000920E-02 0. -1.
</event>
<event>
 5   0  0.2047109E-03  0.1252791E+04  0.7818609E-02  0.9067863E-01
        1   -1    0    0  501    0  0.00000000000E+00  0.00000000000E+00  0.54758774558E+03  0.54758774560E+03  0.50400001928E-02 0. -1.
       -1   -1    0    0    0  501  0.00000000000E+00  0.00000000000E+00 -0.71654559092E+03  0.71654559094E+03  0.50400001928E-02 0.  1.
    10030    2    1    2    0    0  0.00000000000E+00  0.00000000000E+00 -0.16895784534E+03  0.12641333365E+04  0.12527914188E+04 0.  0.
        1    1    3    3  502    0  0.33077065200E+03  0.11621474778E+03  0.43931257048E+03  0.56205927306E+03  0.50400001928E-02 0. -1.
       -1    1    3    3    0  502 -0.33077065200E+03 -0.11621474778E+03 -0.60827041582E+03  0.70207406348E+03  0.50400001928E-02 0.  1.
</event>
<event>
 5   0  0.3626049E-03  0.1202158E+04  0.7818609E-02  0.9110969E-01
       -2   -1    0    0    0  501  0.00000000000E+00  0.00000000000E+00  0.43035722187E+03  0.43035722187E+03  0.25500000920E-02 0.  1.
        2   -1    0    0  501    0  0.00000000000E+00  0.00000000000E+00 -0.83952632494E+03  0.83952632494E+03  0.25500000920E-02 0. -1.
    10030    2    1    2    0    0  0.00000000000E+00  0.00000000000E+00 -0.40916910307E+03  0.12698835468E+04  0.12021584203E+04 0.  0.
        1    1    3    3  502    0 -0.26022533526E+03 -0.10968660739E+02 -0.77682120686E+03  0.81932211253E+03  0.50400001928E-02 0. -1.
       -1    1    3    3    0  502  0.26022533526E+03  0.10968660739E+02  0.36765210378E+03  0.45056143429E+03  0.50400001928E-02 0.  1.
</event>
<event>
 5   0  0.2025294E-03  0.1198242E+04  0.7818609E-02  0.9114397E-01
       -1   -1    0    0    0  501  0.00000000000E+00  0.00000000000E+00  0.37887682523E+03  0.37887682527E+03  0.50400001928E-02 0. -1.
        1   -1    0    0  501    0  0.00000000000E+00  0.00000000000E+00 -0.94739453072E+03  0.94739453073E+03  0.50400001928E-02 0.  1.
    10030    2    1    2    0    0  0.00000000000E+00  0.00000000000E+00 -0.56851770549E+03  0.13262713560E+04  0.11982417654E+04 0.  0.
        5    1    3    3  502    0 -0.52132045166E+02  0.25093434930E+02  0.37575697021E+03  0.38021417815E+03  0.46999998093E+01 0. -1.
       -5    1    3    3    0  502  0.52132045166E+02 -0.25093434930E+02 -0.94427467569E+03  0.94605717785E+03  0.46999998093E+01 0.  1.
</event>
<event>
 5   0  0.2025294E-03  0.1212256E+04  0.7818609E-02  0.9102196E-01
        1   -1    0    0  501    0  0.00000000000E+00  0.00000000000E+00  0.16238641691E+04  0.16238641691E+04  0.50400001928E-02 0.  1.
       -1   -1    0    0    0  501  0.00000000000E+00  0.00000000000E+00 -0.22624506814E+03  0.22624506819E+03  0.50400001928E-02 0. -1.
    10030    2    1    2    0    0  0.00000000000E+00  0.00000000000E+00  0.13976191010E+04  0.18501092373E+04  0.12122561770E+04 0.  0.
        5    1    3    3  502    0 -0.31511148947E+02 -0.41989436018E+03  0.33453705867E+02  0.42242806092E+03  0.46999998093E+01 0. -1.
       -5    1    3    3    0  502  0.31511148947E+02  0.41989436018E+03  0.13641653951E+04  0.14276811764E+04  0.46999998093E+01 0.  1.
</event>
<event>
 5   0  0.3706035E-03  0.1246158E+04  0.7818609E-02  0.9073387E-01
        2   -1    0    0  501    0  0.00000000000E+00  0.00000000000E+00  0.24715776918E+04  0.24715776918E+04  0.25500000920E-02 0.  1.
       -2   -1    0    0    0  501  0.00000000000E+00  0.00000000000E+00 -0.15707685045E+03  0.15707685047E+03  0.25500000920E-02 0. -1.
    10030    2    1    2    0    0  0.00000000000E+00  0.00000000000E+00  0.23145008413E+04  0.26286545423E+04  0.12461583198E+04 0.  0.
        2    1    3    3  502    0  0.19214631642E+03 -0.50052892828E+03  0.18268939012E+04  0.19039408449E+04  0.25500000920E-02 0.  1.
       -2    1    3    3    0  502 -0.19214631642E+03  0.50052892828E+03  0.48760694019E+03  0.72471369733E+03  0.25500000920E-02 0. -1.
</event>
<event>
 5   0  0.3706035E-03  0.1173357E+04  0.7818609E-02  0.9136502E-01
       -2   -1    0    0    0  501  0.00000000000E+00  0.00000000000E+00  0.42175063563E+03  0.42175063564E+03  0.25500000920E-02 0. -1.
        2   -1    0    0  501    0  0.00000000000E+00  0.00000000000E+00 -0.81610252441E+03  0.81610252441E+03  0.25500000920E-02 0.  1.
    10030    2    1    2    0    0  0.00000000000E+00  0.00000000000E+00 -0.39435188877E+03  0.12378531601E+04  0.11733571637E+04 0.  0.
        2    1    3    3  502    0 -0.47349017333E+03 -0.31363992102E+03 -0.35232718569E+03  0.66835423997E+03  0.25500000920E-02 0. -1.
       -2    1    3    3    0  502  0.47349017333E+03  0.31363992102E+03 -0.42024703084E+02  0.56949892008E+03  0.25500000920E-02 0.  1.
</event>
<event>
 5   0  0.2078258E-03  0.1152590E+04  0.7818609E-02  0.9155398E-01
        1   -1    0    0  501    0  0.00000000000E+00  0.00000000000E+00  0.70345276910E+03  0.70345276911E+03  0.50400001928E-02 0.  1.
       -1   -1    0    0    0  501  0.00000000000E+00  0.00000000000E+00 -0.47212237213E+03  0.47212237215E+03  0.50400001928E-02 0. -1.
    10030    2    1    2    0    0  0.00000000000E+00  0.00000000000E+00  0.23133039697E+03  0.11755751413E+04  0.11525897623E+04 0.  0.
        3    1    3    3  502    0  0.66804297294E+00  0.27601937828E+03  0.63164782340E+03  0.68932294788E+03  0.10100000352E+00 0.  1.
       -3    1    3    3    0  502 -0.66804297294E+00 -0.27601937828E+03 -0.40031742643E+03  0.48625219339E+03  0.10100000352E+00 0. -1.
</event>
<event>
 5   0  0.3751091E-03  0.1210388E+04  0.7818609E-02  0.9103812E-01
       -2   -1    0    0    0  501  0.00000000000E+00  0.00000000000E+00  0.50919167340E+03  0.50919167341E+03  0.25500000920E-02 0. -1.
        2   -1    0    0  501    0  0.00000000000E+00  0.00000000000E+00 -0.71929667538E+03  0.71929667538E+03  0.25500000920E-02 0.  1.
    10030    2    1    2    0    0  0.00000000000E+00  0.00000000000E+00 -0.21010500198E+03  0.12284883488E+04  0.12103881655E+04 0.  0.
        5    1    3    3  502    0 -0.31676957237E+03  0.56557720426E+02 -0.62525585087E+03  0.70321313040E+03  0.46999998093E+01 0.  1.
       -5    1    3    3    0  502  0.31676957237E+03 -0.56557720426E+02  0.41515084889E+03  0.52527521839E+03  0.46999998093E+01 0. -1.
</event>
<event>
 5   0  0.2134992E-03  0.1203636E+04  0.7818609E-02  0.9109680E-01
       -1   -1    0    0    0  501  0.00000000000E+00  0.00000000000E+00  0.36207159925E+03  0.36207159928E+03  0.50400001928E-02 0.  1.
        1   -1    0    0  501    0  0.00000000000E+00  0.00000000000E+00 -0.10003121596E+04  0.10003121597E+04  0.50400001928E-02 0. -1.
    10030    2    1    2    0    0  0.00000000000E+00  0.00000000000E+00 -0.63824056040E+03  0.13623837589E+04  0.12036355319E+04 0.  0.
        4    1    3    3  502    0 -0.44571266936E+03  0.22075560888E+03  0.64372190419E+02  0.50153585543E+03  0.12699999809E+01 0.  1.
       -4    1    3    3    0  502  0.44571266936E+03 -0.22075560888E+03 -0.70261275082E+03  0.86084790352E+03  0.12699999809E+01 0. -1.
</event>
<event>
 5   0  0.3706035E-03  0.1283430E+04  0.7818609E-02  0.9042810E-01
       -2   -1    0    0    0  501  0.00000000000E+00  0.00000000000E+00  0.46310749959E+03  0.46310749960E+03  0.25500000920E-02 0. -1.
        2   -1    0    0  501    0  0.00000000000E+00  0.00000000000E+00 -0.88920588527E+03  0.88920588527E+03  0.25500000920E-02 0.  1.
    10030    2    1    2    0    0  0.00000000000E+00  0.00000000000E+00 -0.42609838567E+03  0.13523133849E+04  0.12834296462E+04 0.  0.
        2    1    3    3  502    0 -0.62139150145E+03 -0.14992213305E+03 -0.15350164197E+03  0.65739394441E+03  0.25500000920E-02 0. -1.
       -2    1    3    3    0  502  0.62139150145E+03  0.14992213305E+03 -0.27259674370E+03  0.69491944046E+03  0.25500000920E-02 0.  1.
</event>
<event>
 5   0  0.2025294E-03  0.1250994E+04  0.7818609E-02  0.9069356E-01
       -1   -1    0    0    0  501  0.00000000000E+00  0.00000000000E+00  0.86827096636E+03  0.86827096637E+03  0.50400001928E-02 0. -1.
        1   -1    0    0  501    0  0.00000000000E+00  0.00000000000E+00 -0.45060444986E+03  0.45060444989E+03  0.50400001928E-02 0.  1.
    10030    2    1    2    0    0  0.00000000000E+00  0.00000000000E+00  0.41766651650E+03  0.13188754163E+04  0.12509944223E+04 0.  0.
        5    1    3    3  502    0 -0.51993191473E+03  0.48030305190E+01 -0.15769881501E+03  0.54336292780E+03  0.46999998093E+01 0.  1.
       -5    1    3    3    0  502  0.51993191473E+03 -0.48030305190E+01  0.57536533151E+03  0.77551248846E+03  0.46999998093E+01 0. -1.
</event>
<event>
 5   0  0.2025294E-03  0.1176213E+04  0.7818609E-02  0.9133936E-01
        1   -1    0    0  501    0  0.00000000000E+00  0.00000000000E+00  0.70444245697E+03  0.70444245699E+03  0.50400001928E-02 0. -1.
       -1   -1    0    0    0  501  0.00000000000E+00  0.00000000000E+00 -0.49098285161E+03  0.49098285164E+03  0.50400001928E-02 0.  1.
    10030    2    1    2    0    0  0.00000000000E+00  0.00000000000E+00  0.21345960536E+03  0.11954253086E+04  0.11762128487E+04 0.  0.
        5    1    3    3  502    0  0.51449629436E+03 -0.27739897152E+03  0.17252085919E+03  0.60946055095E+03  0.46999998093E+01 0. -1.
       -5    1    3    3    0  502 -0.51449629436E+03  0.27739897152E+03  0.40938746166E+02  0.58596475768E+03  0.46999998093E+01 0.  1.
</event>
<event>
 5   0  0.2096270E-03  0.1207552E+04  0.7818609E-02  0.9106272E-01
       -1   -1    0    0    0  501  0.00000000000E+00  0.00000000000E+00  0.18241337479E+03  0.18241337486E+03  0.50400001928E-02 0.  1.
        1   -1    0    0  501    0  0.00000000000E+00  0.00000000000E+00 -0.19984570356E+04  0.19984570356E+04  0.50400001928E-02 0. -1.
    10030    2    1    2    0    0  0.00000000000E+00  0.00000000000E+00 -0.18160436608E+04  0.21808704104E+04  0.12075517253E+04 0.  0.
        2    1    3    3  502    0 -0.13931407166E+03 -0.33281593535E+03 -0.33691528041E+02  0.36236718457E+03  0.25500000920E-02 0.  1.
       -2    1    3    3    0  502  0.13931407166E+03  0.33281593535E+03 -0.17823521327E+04  0.18185032259E+04  0.25500000920E-02 0. -1.
</event>
<event>
 5   0  0.2025294E-03  0.1198661E+04  0.7818609E-02  0.9114029E-01
        1   -1    0    0  501    0  0.00000000000E+00  0.00000000000E+00  0.23337715925E+04  0.23337715925E+04  0.50400001928E-02 0.  1.
       -1   -1    0    0    0  501  0.00000000000E+00  0.00000000000E+00 -0.15391265255E+03  0.15391265263E+03  0.50400001928E-02 0. -1.
    10030    2    1    2    0    0  0.00000000000E+00  0.00000000000E+00  0.21798589399E+04  0.24876842451E+04  0.11986608801E+04 0.  0.
        5    1    3    3  502    0  0.27830960523E+03  0.40525240262E+03  0.37855579992E+03  0.62049361789E+03  0.46999998093E+01 0. -1.
       -5    1    3    3    0  502 -0.27830960523E+03 -0.40525240262E+03  0.18013031400E+04  0.18671906272E+04  0.46999998093E+01 0.  1.
</event>
<event>
 5   0  0.3706035E-03  0.1260838E+04  0.7818609E-02  0.9061211E-01
       -2   -1    0    0    0  501  0.00000000000E+00  0.00000000000E+00  0.39667450406E+03  0.39667450407E+03  0.25500000920E-02 0. -1.
        2   -1    0    0  501    0  0.00000000000E+00  0.00000000000E+00 -0.10018995247E+04  0.10018995247E+04  0.25500000920E-02 0.  1.
    10030    2    1    2    0    0  0.00000000000E+00  0.00000000000E+00 -0.60522502068E+03  0.13985740288E+04  0.12608378121E+04 0.  0.
        2    1    3    3  502    0 -0.40584894641E+03  0.70209704383E+02  0.22679367610E+03  0.47018947396E+03  0.25500000920E-02 0. -1.
       -2    1    3    3    0  502  0.40584894641E+03 -0.70209704383E+02 -0.83201869679E+03  0.92838455486E+03  0.25500000920E-02 0.  1.
</event>
<event>
 5   0  0.3706035E-03  0.1206984E+04  0.7818609E-02  0.9106766E-01
        2   -1    0    0  501    0  0.00000000000E+00  0.00000000000E+00  0.15242432499E+04  0.15242432499E+04  0.25500000920E-02 0.  1.
       -2   -1    0    0    0  501  0.00000000000E+00  0.00000000000E+00 -0.23893976538E+03  0.23893976539E+03  0.25500000920E-02 0. -1.
    10030    2    1    2    0    0  0.00000000000E+00  0.00000000000E+00  0.12853034845E+04  0.17631830153E+04  0.12069835533E+04 0.  0.
        2    1    3    3  502    0 -0.19255502753E+03  0.46693264234E+03  0.16014207944E+03  0.52985754380E+03  0.25500000920E-02 0. -1.
       -2    1    3    3    0  502  0.19255502753E+03 -0.46693264234E+03  0.11251614051E+04  0.12333254715E+04  0.25500000920E-02 0.  1.
</event>
<event>
 5   0  0.2134992E-03  0.1211646E+04  0.7818609E-02  0.9102723E-01
       -1   -1    0    0    0  501  0.00000000000E+00  0.00000000000E+00  0.80176379472E+03  0.80176379473E+03  0.50400001928E-02 0.  1.
        1   -1    0    0  501    0  0.00000000000E+00  0.00000000000E+00 -0.45776778979E+03  0.45776778982E+03  0.50400001928E-02 0. -1.
    10030    2    1    2    0    0  0.00000000000E+00  0.00000000000E+00  0.34399600492E+03  0.12595315846E+04  0.12116462194E+04 0.  0.
        4    1    3    3  502    0  0.17746210535E+03  0.57231489724E+03  0.79119924360E+02  0.60439946705E+03  0.12699999809E+01 0. -1.
       -4    1    3    3    0  502 -0.17746210535E+03 -0.57231489724E+03  0.26487608056E+03  0.65513211751E+03  0.12699999809E+01 0.  1.
</event>
<event>
 5   0  0.3725376E-03  0.1170194E+04  0.7818609E-02  0.9139353E-01
       -2   -1    0    0    0  501  0.00000000000E+00  0.00000000000E+00  0.82501089567E+03  0.82501089567E+03  0.25500000920E-02 0. -1.
        2   -1    0    0  501    0  0.00000000000E+00  0.00000000000E+00 -0.41495008264E+03  0.41495008265E+03  0.25500000920E-02 0.  1.
    10030    2    1    2    0    0  0.00000000000E+00  0.00000000000E+00  0.41006081303E+03  0.12399609783E+04  0.11701937264E+04 0.  0.
        4    1    3    3  502    0 -0.25799650969E+03  0.14511040200E+03  0.73981593094E+03  0.79683652800E+03  0.12699999809E+01 0. -1.
       -4    1    3    3    0  502  0.25799650969E+03 -0.14511040200E+03 -0.32975511792E+03  0.44312445032E+03  0.12699999809E+01 0.  1.
</event>
<event>
 5   0  0.1397500E-03  0.1204712E+04  0.7818609E-02  0.9108742E-01
       -3   -1    0    0    0  501  0.00000000000E+00  0.00000000000E+00  0.11133218373E+04  0.11133218419E+04  0.10100000352E+00 0.  1.
        3   -1    0    0  501    0  0.00000000000E+00  0.00000000000E+00 -0.32590102451E+03  0.32590104016E+03  0.10100000352E+00 0. -1.
    10030    2    1    2    0    0  0.00000000000E+00  0.00000000000E+00  0.78742081280E+03  0.14392228821E+04  0.12047119854E+04 0.  0.
        4    1    3    3  502    0 -0.45871345067E+03 -0.37620406351E+03  0.51834286042E+03  0.78779975950E+03  0.12699999809E+01 0.  1.
       -4    1    3    3    0  502  0.45871345067E+03  0.37620406351E+03  0.26907795238E+03  0.65142312255E+03  0.12699999809E+01 0. -1.
</event>
<event>
 5   0  0.2025294E-03  0.1199162E+04  0.7818609E-02  0.9113591E-01
       -1   -1    0    0    0  501  0.00000000000E+00  0.00000000000E+00  0.39220027262E+03  0.39220027265E+03  0.50400001928E-02 0. -1.
        1   -1    0    0  501    0  0.00000000000E+00  0.00000000000E+00 -0.91661648746E+03  0.91661648747E+03  0.50400001928E-02 0.  1.
    10030    2    1    2    0    0  0.00000000000E+00  0.00000000000E+00 -0.52441621484E+03  0.13088167601E+04  0.11991617677E+04 0.  0.
        5    1    3    3  502    0 -0.47120120021E+03 -0.31110073380E+03 -0.42123528127E+02  0.56622497232E+03  0.46999998093E+01 0. -1.
       -5    1    3    3    0  502  0.47120120021E+03  0.31110073380E+03 -0.48229268671E+03  0.74259178780E+03  0.46999998093E+01 0.  1.
</event>
<event>
 5   0  0.2078258E-03  0.1189544E+04  0.7818609E-02  0.9122059E-01
        1   -1    0    0  501    0  0.00000000000E+00  0.00000000000E+00  0.10382313518E+04  0.10382313518E+04  0.50400001928E-02 0. -1.
       -1   -1    0    0    0  501  0.00000000000E+00  0.00000000000E+00 -0.34072698352E+03  0.34072698356E+03  0.50400001928E-02 0.  1.
    10030    2    1    2    0    0  0.00000000000E+00  0.00000000000E+00  0.69750436828E+03  0.13789583354E+04  0.11895435036E+04 0.  0.
        3    1    3    3  502    0  0.75914590311E+02 -0.18266391419E+03  0.99898209474E+03  0.10183783022E+04  0.10100000352E+00 0. -1.
       -3    1    3    3    0  502 -0.75914590311E+02  0.18266391419E+03 -0.30147772646E+03  0.36058003317E+03  0.10100000352E+00 0.  1.
</event>
<event>
 5   0  0.3706035E-03  0.1197624E+04  0.7818609E-02  0.9114938E-01
       -2   -1    0    0    0  501  0.00000000000E+00  0.00000000000E+00  0.17888101661E+03  0.17888101663E+03  0.25500000920E-02 0. -1.
        2   -1    0    0  501    0  0.00000000000E+00  0.00000000000E+00 -0.20045506486E+04  0.20045506486E+04  0.25500000920E-02 0.  1.
    10030    2    1    2    0    0  0.00000000000E+00  0.00000000000E+00 -0.18256696320E+04  0.21834316653E+04  0.11976244117E+04 0.  0.
        2    1    3    3  502    0 -0.32672128071E+03 -0.45416712264E+03 -0.13019856011E+04  0.14171030577E+04  0.25500000920E-02 0. -1.
       -2    1    3    3    0  502  0.32672128071E+03  0.45416712264E+03 -0.52368403089E+03  0.76632860756E+03  0.25500000920E-02 0.  1.
</event>
<event>
 5   0  0.2047109E-03  0.1158023E+04  0.7818609E-02  0.9150414E-01
       -1   -1    0    0    0  501  0.00000000000E+00  0.00000000000E+00  0.80867176971E+03  0.80867176973E+03  0.50400001928E-02 0. -1.
        1   -1    0    0  501    0  0.00000000000E+00  0.00000000000E+00 -0.41457390322E+03  0.41457390325E+03  0.50400001928E-02 0.  1.
    10030    2    1    2    0    0  0.00000000000E+00  0.00000000000E+00  0.39409786649E+03  0.12232456730E+04  0.11580228185E+04 0.  0.
        1    1    3    3  502    0 -0.55581574138E+03  0.62549026804E+02  0.38915313218E+02  0.56067630657E+03  0.50400001928E-02 0. -1.
       -1    1    3    3    0  502  0.55581574138E+03 -0.62549026804E+02  0.35518255327E+03  0.66256936641E+03  0.50400001928E-02 0.  1.
</event>
<event>
 5   0  0.3706035E-03  0.1201224E+04  0.7818609E-02  0.9111786E-01
        2   -1    0    0  501    0  0.00000000000E+00  0.00000000000E+00  0.11912382541E+04  0.11912382541E+04  0.25500000920E-02 0. -1.
       -2   -1    0    0    0  501  0.00000000000E+00  0.00000000000E+00 -0.30282350865E+03  0.30282350866E+03  0.25500000920E-02 0.  1.
    10030    2    1    2    0    0  0.00000000000E+00  0.00000000000E+00  0.88841474550E+03  0.14940617628E+04  0.12012242884E+04 0.  0.
        2    1    3    3  502    0 -0.43881180909E+03 -0.33320700542E+03  0.74155265849E+03  0.92384146777E+03  0.25500000920E-02 0. -1.
       -2    1    3    3    0  502  0.43881180909E+03  0.33320700542E+03  0.14686208701E+03  0.57022029503E+03  0.25500000920E-02 0.  1.
</event>
<event>
 5   0  0.3706035E-03  0.1206991E+04  0.7818609E-02  0.9106760E-01
        2   -1    0    0  501    0  0.00000000000E+00  0.00000000000E+00  0.16889836916E+04  0.16889836916E+04  0.25500000920E-02 0. -1.
       -2   -1    0    0    0  501  0.00000000000E+00  0.00000000000E+00 -0.21563652419E+03  0.21563652420E+03  0.25500000920E-02 0.  1.
    10030    2    1    2    0    0  0.00000000000E+00  0.00000000000E+00  0.14733471674E+04  0.19046202158E+04  0.12069905927E+04 0.  0.
        2    1    3    3  502    0 -0.50617435225E+03 -0.11492022539E+03  0.25084853755E+03  0.57649295041E+03  0.25500000920E-02 0.  1.
       -2    1    3    3    0  502  0.50617435225E+03  0.11492022539E+03  0.12224986299E+04  0.13281272654E+04  0.25500000920E-02 0. -1.
</event>
<event>
 5   0  0.2078258E-03  0.1165623E+04  0.7818609E-02  0.9143490E-01
       -1   -1    0    0    0  501  0.00000000000E+00  0.00000000000E+00  0.28104861594E+03  0.28104861598E+03  0.50400001928E-02 0. -1.
        1   -1    0    0  501    0  0.00000000000E+00  0.00000000000E+00 -0.12085783723E+04  0.12085783723E+04  0.50400001928E-02 0.  1.
    10030    2    1    2    0    0  0.00000000000E+00  0.00000000000E+00 -0.92752975634E+03  0.14896269883E+04  0.11656230588E+04 0.  0.
        3    1    3    3  502    0  0.54024704564E+03  0.21805646225E+03 -0.48412338923E+03  0.75748990571E+03  0.10100000352E+00 0. -1.
       -3    1    3    3    0  502 -0.54024704564E+03 -0.21805646225E+03 -0.44340636711E+03  0.73213708256E+03  0.10100000352E+00 0.  1.
</event>
<event>
 5   0  0.2047109E-03  0.1194329E+04  0.7818609E-02  0.9117835E-01
       -1   -1    0    0    0  501  0.00000000000E+00  0.00000000000E+00  0.42340739798E+03  0.42340739801E+03  0.50400001928E-02 0.  1.
        1   -1    0    0  501    0  0.00000000000E+00  0.00000000000E+00 -0.84222749621E+03  0.84222749623E+03  0.50400001928E-02 0. -1.
    10030    2    1    2    0    0  0.00000000000E+00  0.00000000000E+00 -0.41882009823E+03  0.12656348942E+04  0.11943288537E+04 0.  0.
        1    1    3    3  502    0  0.10256066901E+03 -0.58796837764E+03 -0.18875672949E+03  0.62598291262E+03  0.50400001928E-02 0. -1.
       -1    1    3    3    0  502 -0.10256066901E+03  0.58796837764E+03 -0.23006336874E+03  0.63965198162E+03  0.50400001928E-02 0.  1.
</event>
<event>
 5   0  0.2078258E-03  0.1202694E+04  0.7818609E-02  0.9110502E-01
       -1   -1    0    0    0  501  0.00000000000E+00  0.00000000000E+00  0.49602520245E+03  0.49602520248E+03  0.50400001928E-02 0.  1.
        1   -1    0    0  501    0  0.00000000000E+00  0.00000000000E+00 -0.72903137794E+03  0.72903137796E+03  0.50400001928E-02 0. -1.
    10030    2    1    2    0    0  0.00000000000E+00  0.00000000000E+00 -0.23300617549E+03  0.12250565804E+04  0.12026935385E+04 0.  0.
        3    1    3    3  502    0  0.47850235586E+03  0.16115591094E+03  0.21619257572E+03  0.54924946262E+03  0.10100000352E+00 0.  1.
       -3    1    3    3    0  502 -0.47850235586E+03 -0.16115591094E+03 -0.44919875121E+03  0.67580711781E+03  0.10100000352E+00 0. -1.
</event>
<event>
 5   0  0.1397500E-03  0.1212687E+04  0.7818609E-02  0.9101823E-01
        3   -1    0    0  501    0  0.00000000000E+00  0.00000000000E+00  0.76844217254E+03  0.76844217918E+03  0.10100000352E+00 0. -1.
       -3   -1    0    0    0  501  0.00000000000E+00  0.00000000000E+00 -0.47843889685E+03  0.47843890751E+03  0.10100000352E+00 0.  1.
    10030    2    1    2    0    0  0.00000000000E+00  0.00000000000E+00  0.29000327570E+03  0.12468810867E+04  0.12126873234E+04 0.  0.
        2    1    3    3  502    0 -0.14190175898E+02 -0.53882261117E+03 -0.14053631755E+03  0.55702928465E+03  0.25500000920E-02 0.  1.
       -2    1    3    3    0  502  0.14190175898E+02  0.53882261117E+03  0.43053959325E+03  0.68985180203E+03  0.25500000920E-02 0. -1.
</event>
<event>
 5   0  0.2134992E-03  0.1209617E+04  0.7818609E-02  0.9104480E-01
       -1   -1    0    0    0  501  0.00000000000E+00  0.00000000000E+00  0.25058778185E+03  0.25058778190E+03  0.50400001928E-02 0. -1.
        1   -1    0    0  501    0  0.00000000000E+00  0.00000000000E+00 -0.14597410763E+04  0.14597410763E+04  0.50400001928E-02 0.  1.
    10030    2    1    2    0    0  0.00000000000E+00  0.00000000000E+00 -0.12091532944E+04  0.17103288582E+04  0.12096169285E+04 0.  0.
        4    1    3    3  502    0 -0.30199695097E+03  0.32093899525E+03 -0.11902760808E+04  0.12692370773E+04  0.12699999809E+01 0.  1.
       -4    1    3    3    0  502  0.30199695097E+03 -0.32093899525E+03 -0.18877213655E+02  0.44109178088E+03  0.12699999809E+01 0. -1.
</event>
<event>
 5   0  0.2134992E-03  0.1188526E+04  0.7818609E-02  0.9122959E-01
       -1   -1    0    0    0  501  0.00000000000E+00  0.00000000000E+00  0.68971918730E+03  0.68971918732E+03  0.50400001928E-02 0. -1.
        1   -1    0    0  501    0  0.00000000000E+00  0.00000000000E+00 -0.51201806461E+03  0.51201806463E+03  0.50400001928E-02 0.  1.
    10030    2    1    2    0    0  0.00000000000E+00  0.00000000000E+00  0.17770112269E+03  0.12017372519E+04  0.11885262865E+04 0.  0.
        4    1    3    3  502    0 -0.22638977562E+03 -0.12890559610E+03  0.62890176634E+03  0.68072610338E+03  0.12699999809E+01 0. -1.
       -4    1    3    3    0  502  0.22638977562E+03  0.12890559610E+03 -0.45120064365E+03  0.52101114857E+03  0.12699999809E+01 0.  1.
</event>
<event>
 5   0  0.3626049E-03  0.1184314E+04  0.7818609E-02  0.9126698E-01
        2   -1    0    0  501    0  0.00000000000E+00  0.00000000000E+00  0.55074814213E+03  0.55074814214E+03  0.25500000920E-02 0. -1.
       -2   -1    0    0    0  501  0.00000000000E+00  0.00000000000E+00 -0.63667932358E+03  0.63667932359E+03  0.25500000920E-02 0.  1.
    10030    2    1    2    0    0  0.00000000000E+00  0.00000000000E+00 -0.85931181453E+02  0.11874274657E+04  0.11843140709E+04 0.  0.
        1    1    3    3  502    0  0.46975847995E+03  0.16198837635E+03  0.27996292494E+03  0.57034419689E+03  0.50400001928E-02 0. -1.
       -1    1    3    3    0  502 -0.46975847995E+03 -0.16198837635E+03 -0.36589410639E+03  0.61708326884E+03  0.50400001928E-02 0.  1.
</event>
<event>
 5   0  0.3650180E-03  0.1229987E+04  0.7818609E-02  0.9087007E-01
       -2   -1    0    0    0  501  0.00000000000E+00  0.00000000000E+00  0.77031691637E+03  0.77031691638E+03  0.25500000920E-02 0.  1.
        2   -1    0    0  501    0  0.00000000000E+00  0.00000000000E+00 -0.49098870643E+03  0.49098870643E+03  0.25500000920E-02 0. -1.
    10030    2    1    2    0    0  0.00000000000E+00  0.00000000000E+00  0.27932820995E+03  0.12613056228E+04  0.12299868395E+04 0.  0.
        3    1    3    3  502    0  0.14256563585E+03 -0.45163497037E+03 -0.26264908884E+03  0.54155670160E+03  0.10100000352E+00 0. -1.
       -3    1    3    3    0  502 -0.14256563585E+03  0.45163497037E+03  0.54197729878E+03  0.71974892121E+03  0.10100000352E+00 0.  1.
</event>
<event>
 5   0  0.2025294E-03  0.1200085E+04  0.7818609E-02  0.9112782E-01
       -1   -1    0    0    0  501  0.00000000000E+00  0.00000000000E+00  0.74624056879E+03  0.74624056881E+03  0.50400001928E-02 0.  1.
        1   -1    0    0  501    0  0.00000000000E+00  0.00000000000E+00 -0.48248657982E+03  0.48248657985E+03  0.50400001928E-02 0. -1.
    10030    2    1    2    0    0  0.00000000000E+00  0.00000000000E+00  0.26375398897E+03  0.12287271487E+04  0.12000850966E+04 0.  0.
        5    1    3    3  502    0 -0.31058130705E+02  0.25444334526E+03  0.68734042606E+03  0.73359728376E+03  0.46999998093E+01 0.  1.
       -5    1    3    3    0  502  0.31058130705E+02 -0.25444334526E+03 -0.42358643709E+03  0.49512986490E+03  0.46999998093E+01 0. -1.
</event>
<event>
 5   0  0.3706035E-03  0.1197509E+04  0.7818609E-02  0.9115039E-01
        2   -1    0    0  501    0  0.00000000000E+00  0.00000000000E+00  0.39384268395E+03  0.39384268396E+03  0.25500000920E-02 0. -1.
       -2   -1    0    0    0  501  0.00000000000E+00  0.00000000000E+00 -0.91028022603E+03  0.91028022604E+03  0.25500000920E-02 0.  1.
    10030    2    1    2    0    0  0.00000000000E+00  0.00000000000E+00 -0.51643754208E+03  0.13041229100E+04  0.11975094277E+04 0.  0.
        2    1    3    3  502    0  0.96221992564E+02  0.17001946525E+03  0.35815829070E+03  0.40797383693E+03  0.25500000920E-02 0. -1.
       -2    1    3    3    0  502 -0.96221992564E+02 -0.17001946525E+03 -0.87459583279E+03  0.89614907306E+03  0.25500000920E-02 0.  1.
</event>
<event>
 5   0  0.3725376E-03  0.1205070E+04  0.7818609E-02  0.9108430E-01
       -2   -1    0    0    0  501  0.00000000000E+00  0.00000000000E+00  0.55171538502E+03  0.55171538503E+03  0.25500000920E-02 0.  1.
        2   -1    0    0  501    0  0.00000000000E+00  0.00000000000E+00 -0.65803623396E+03  0.65803623396E+03  0.25500000920E-02 0. -1.
    10030    2    1    2    0    0  0.00000000000E+00  0.00000000000E+00 -0.10632084894E+03  0.12097516190E+04  0.12050704779E+04 0.  0.
        4    1    3    3  502    0  0.36477408226E+02  0.54568730377E+03 -0.30700998711E+03  0.62718576187E+03  0.12699999809E+01 0. -1.
       -4    1    3    3    0  502 -0.36477408226E+02 -0.54568730377E+03  0.20068913817E+03  0.58256585712E+03  0.12699999809E+01 0.  1.
</event>
<event>
 5   0  0.2134992E-03  0.1140023E+04  0.7818609E-02  0.9167037E-01
       -1   -1    0    0    0  501  0.00000000000E+00  0.00000000000E+00  0.23750439224E+03  0.23750439229E+03  0.50400001928E-02 0.  1.
        1   -1    0    0  501    0  0.00000000000E+00  0.00000000000E+00 -0.13680296985E+04  0.13680296985E+04  0.50400001928E-02 0. -1.
    10030    2    1    2    0    0  0.00000000000E+00  0.00000000000E+00 -0.11305253063E+04  0.16055340908E+04  0.11400229158E+04 0.  0.
        4    1    3    3  502    0  0.79711782414E+02  0.52350384093E+03 -0.26817003717E+03  0.59357141226E+03  0.12699999809E+01 0.  1.
       -4    1    3    3    0  502 -0.79711782414E+02 -0.52350384093E+03 -0.86235526910E+03  0.10119626785E+04  0.12699999809E+01 0. -1.
</event>
<event>
 5   0  0.3751091E-03  0.1205038E+04  0.7818609E-02  0.9108458E-01
        2   -1    0    0  501    0  0.00000000000E+00  0.00000000000E+00  0.10174811355E+04  0.10174811355E+04  0.25500000920E-02 0. -1.
       -2   -1    0    0    0  501  0.00000000000E+00  0.00000000000E+00 -0.35679212012E+03  0.35679212013E+03  0.25500000920E-02 0.  1.
    10030    2    1    2    0    0  0.00000000000E+00  0.00000000000E+00  0.66068901536E+03  0.13742732556E+04  0.12050381762E+04 0.  0.
        5    1    3    3  502    0  0.53287002915E+03  0.55272615923E+01  0.97488159122E+01  0.53300858154E+03  0.46999998093E+01 0.  1.
       -5    1    3    3    0  502 -0.53287002915E+03 -0.55272615923E+01  0.65094019945E+03  0.84126467407E+03  0.46999998093E+01 0. -1.
</event>
<event>
 5   0  0.3650180E-03  0.1203781E+04  0.7818609E-02  0.9109554E-01
       -2   -1    0    0    0  501  0.00000000000E+00  0.00000000000E+00  0.61410008189E+03  0.61410008190E+03  0.25500000920E-02 0. -1.
        2   -1    0    0  501    0  0.00000000000E+00  0.00000000000E+00 -0.58992339619E+03  0.58992339620E+03  0.25500000920E-02 0.  1.
    10030    2    1    2    0    0  0.00000000000E+00  0.00000000000E+00  0.24176685699E+02  0.12040234781E+04  0.12037807208E+04 0.  0.
        3    1    3    3  502    0 -0.51821960082E+02 -0.52796781869E+03 -0.27228653164E+03  0.59630151654E+03  0.10100000352E+00 0.  1.
       -3    1    3    3    0  502  0.51821960082E+02  0.52796781869E+03  0.29646321734E+03  0.60772196155E+03  0.10100000352E+00 0. -1.
</event>
<event>
 5   0  0.2134992E-03  0.1200151E+04  0.7818609E-02  0.9112724E-01
        1   -1    0    0  501    0  0.00000000000E+00  0.00000000000E+00  0.37267728583E+03  0.37267728587E+03  0.50400001928E-02 0.  1.
       -1   -1    0    0    0  501  0.00000000000E+00  0.00000000000E+00 -0.96622706282E+03  0.96622706284E+03  0.50400001928E-02 0. -1.
    10030    2    1    2    0    0  0.00000000000E+00  0.00000000000E+00 -0.59354977699E+03  0.13389043487E+04  0.12001514559E+04 0.  0.
        4    1    3    3  502    0 -0.23503998482E+03  0.55162109165E+03 -0.27038308273E+03  0.65775242116E+03  0.12699999809E+01 0. -1.
       -4    1    3    3    0  502  0.23503998482E+03 -0.55162109165E+03 -0.32316669426E+03  0.68115192754E+03  0.12699999809E+01 0.  1.
</event>
<event>
 5   0  0.2078258E-03  0.1205920E+04  0.7818609E-02  0.9107691E-01
       -1   -1    0    0    0  501  0.00000000000E+00  0.00000000000E+00  0.14711481549E+03  0.14711481557E+03  0.50400001928E-02 0.  1.
        1   -1    0    0  501    0  0.00000000000E+00  0.00000000000E+00 -0.24712711434E+04  0.24712711434E+04  0.50400001928E-02 0. -1.
    10030    2    1    2    0    0  0.00000000000E+00  0.00000000000E+00 -0.23241563279E+04  0.26183859590E+04  0.12059197293E+04 0.  0.
        3    1    3    3  502    0 -0.58387933071E+03  0.62961874553E+02 -0.14588474941E+04  0.15726141586E+04  0.10100000352E+00 0. -1.
       -3    1    3    3    0  502  0.58387933071E+03 -0.62961874553E+02 -0.86530883383E+03  0.10457718004E+04  0.10100000352E+00 0.  1.
</event>
<event>
 5   0  0.3725376E-03  0.1210527E+04  0.7818609E-02  0.9103692E-01
        2   -1    0    0  501    0  0.00000000000E+00  0.00000000000E+00  0.37562522609E+03  0.37562522610E+03  0.25500000920E-02 0.  1.
       -2   -1    0    0    0  501  0.00000000000E+00  0.00000000000E+00 -0.97529056511E+03  0.97529056512E+03  0.25500000920E-02 0. -1.
    10030    2    1    2    0    0  0.00000000000E+00  0.00000000000E+00 -0.59966533902E+03  0.13509157912E+04  0.12105267267E+04 0.  0.
        4    1    3    3  502    0 -0.52946027881E+02 -0.44609478555E+03  0.15284323810E+03  0.47451713130E+03  0.12699999809E+01 0.  1.
       -4    1    3    3    0  502  0.52946027881E+02  0.44609478555E+03 -0.75250857712E+03  0.87639865992E+03  0.12699999809E+01 0. -1.
</event>
<event>
 5   0  0.3650180E-03  0.1201704E+04  0.7818609E-02  0.9111366E-01
       -2   -1    0    0    0  501  0.00000000000E+00  0.00000000000E+00  0.29564319307E+03  0.29564319308E+03  0.25500000920E-02 0.  1.
        2   -1    0    0  501    0  0.00000000000E+00  0.00000000000E+00 -0.12211453809E+04  0.12211453809E+04  0.25500000920E-02 0. -1.
    10030    2    1    2    0    0  0.00000000000E+00  0.00000000000E+00 -0.92550218783E+03  0.15167885740E+04  0.12017043224E+04 0.  0.
        3    1    3    3  502    0 -0.33498641744E+03 -0.14312495309E+03  0.14036640644E+03  0.39038876818E+03  0.10100000352E+00 0.  1.
       -3    1    3    3    0  502  0.33498641744E+03  0.14312495309E+03 -0.10658685943E+04  0.11263998058E+04  0.10100000352E+00 0. -1.
</event>
<event>
 5   0  0.3706035E-03  0.1195381E+04  0.7818609E-02  0.9116909E-01
        2   -1    0    0  501    0  0.00000000000E+00  0.00000000000E+00  0.10555560509E+04  0.10555560509E+04  0.25500000920E-02 0.  1.
       -2   -1    0    0    0  501  0.00000000000E+00  0.00000000000E+00 -0.33843191516E+03  0.33843191517E+03  0.25500000920E-02 0. -1.
    10030    2    1    2    0    0  0.00000000000E+00  0.00000000000E+00  0.71712413571E+03  0.13939879660E+04  0.11953808696E+04 0.  0.
        2    1    3    3  502    0  0.19230318294E+03 -0.48120820627E+03  0.11269925700E+02  0.51833277263E+03  0.25500000920E-02 0. -1.
       -2    1    3    3    0  502 -0.19230318294E+03  0.48120820627E+03  0.70585421001E+03  0.87565519341E+03  0.25500000920E-02 0.  1.
</event>
<event>
 5   0  0.3706035E-03  0.1195408E+04  0.7818609E-02  0.9116885E-01
       -2   -1    0    0    0  501  0.00000000000E+00  0.00000000000E+00  0.21805929327E+03  0.21805929328E+03  0.25500000920E-02 0. -1.
        2   -1    0    0  501    0  0.00000000000E+00  0.00000000000E+00 -0.16383169058E+04  0.16383169058E+04  0.25500000920E-02 0.  1.
    10030    2    1    2    0    0  0.00000000000E+00  0.00000000000E+00 -0.14202576125E+04  0.18563761991E+04  0.11954082594E+04 0.  0.
        2    1    3    3  502    0 -0.11128944107E+03 -0.17385693603E+03  0.16094664856E+03  0.26175446050E+03  0.25500000920E-02 0. -1.
       -2    1    3    3    0  502  0.11128944107E+03  0.17385693603E+03 -0.15812042611E+04  0.15946217386E+04  0.25500000920E-02 0.  1.
</event>
<event>
 5   0  0.3725376E-03  0.1201061E+04  0.7818609E-02  0.9111928E-01
       -2   -1    0    0    0  501  0.00000000000E+00  0.00000000000E+00  0.31292699453E+03  0.31292699454E+03  0.25500000920E-02 0. -1.
        2   -1    0    0  501    0  0.00000000000E+00  0.00000000000E+00 -0.11524632369E+04  0.11524632369E+04  0.25500000920E-02 0.  1.
    10030    2    1    2    0    0  0.00000000000E+00  0.00000000000E+00 -0.83953624236E+03  0.14653902314E+04  0.12010609594E+04 0.  0.
        4    1    3    3  502    0 -0.47193326238E+03 -0.36900922408E+03 -0.47075567185E+03  0.76190637685E+03  0.12699999809E+01 0. -1.
       -4    1    3    3    0  502  0.47193326238E+03  0.36900922408E+03 -0.36878057051E+03  0.70348385460E+03  0.12699999809E+01 0.  1.
</event>
<event>
 5   0  0.3751091E-03  0.1227865E+04  0.7818609E-02  0.9088810E-01
       -2   -1    0    0    0  501  0.00000000000E+00  0.00000000000E+00  0.11270381190E+04  0.11270381190E+04  0.25500000920E-02 0. -1.
        2   -1    0    0  501    0  0.00000000000E+00  0.00000000000E+00 -0.33442818173E+03  0.33442818174E+03  0.25500000920E-02 0.  1.
    10030    2    1    2    0    0  0.00000000000E+00  0.00000000000E+00  0.79260993723E+03  0.14614663007E+04  0.12278653165E+04 0.  0.
        5    1    3    3  502    0  0.43170104154E+03 -0.37950718033E+03  0.65296798133E+03  0.86993147076E+03  0.46999998093E+01 0. -1.
       -5    1    3    3    0  502 -0.43170104154E+03  0.37950718033E+03  0.13964195590E+03  0.59153482994E+03  0.46999998093E+01 0.  1.
</event>
<event>
 5   0  0.3751091E-03  0.1266435E+04  0.7818609E-02  0.9056614E-01
        2   -1    0    0  501    0  0.00000000000E+00  0.00000000000E+00  0.21088856063E+04  0.21088856063E+04  0.25500000920E-02 0.  1.
       -2   -1    0    0    0  501  0.00000000000E+00  0.00000000000E+00 -0.19013095536E+03  0.19013095538E+03  0.25500000920E-02 0. -1.
    10030    2    1    2    0    0  0.00000000000E+00  0.00000000000E+00  0.19187546509E+04  0.22990165616E+04  0.12664350518E+04 0.  0.
        5    1    3    3  502    0 -0.41393817815E+03  0.46955721261E+03  0.78607553103E+03  0.10048709478E+04  0.46999998093E+01 0. -1.
       -5    1    3    3    0  502  0.41393817815E+03 -0.46955721261E+03  0.11326791199E+04  0.12941456139E+04  0.46999998093E+01 0.  1.
</event>
<event>
 5   0  0.3650180E-03  0.1204883E+04  0.7818609E-02  0.9108593E-01
       -2   -1    0    0    0  501  0.00000000000E+00  0.00000000000E+00  0.70502309854E+03  0.70502309854E+03  0.25500000920E-02 0. -1.
        2   -1    0    0  501    0  0.00000000000E+00  0.00000000000E+00 -0.51478599438E+03  0.51478599439E+03  0.25500000920E-02 0.  1.
    10030    2    1    2    0    0  0.00000000000E+00  0.00000000000E+00  0.19023710416E+03  0.12198090929E+04  0.12048834248E+04 0.  0.
        3    1    3    3  502    0  0.53562937495E+03  0.14375100556E+03 -0.14311075504E+03  0.57275114781E+03  0.10100000352E+00 0.  1.
       -3    1    3    3    0  502 -0.53562937495E+03 -0.14375100556E+03  0.33334785920E+03  0.64705794512E+03  0.10100000352E+00 0. -1.
</event>
<event>
 5   0  0.2047109E-03  0.1246060E+04  0.7818609E-02  0.9073469E-01
        1   -1    0    0  501    0  0.00000000000E+00  0.00000000000E+00  0.98797849903E+03  0.98797849904E+03  0.50400001928E-02 0.  1.
       -1   -1    0    0    0  501  0.00000000000E+00  0.00000000000E+00 -0.39288973896E+03  0.39288973899E+03  0.50400001928E-02 0. -1.
    10030    2    1    2    0    0  0.00000000000E+00  0.00000000000E+00  0.59508876007E+03  0.13808682380E+04  0.12460603751E+04 0.  0.
        1    1    3    3  502    0 -0.34136948782E+03 -0.37121733583E+02  0.87364772462E+03  0.93870735433E+03  0.50400001928E-02 0.  1.
       -1    1    3    3    0  502  0.34136948782E+03  0.37121733583E+02 -0.27855896455E+03  0.44216088370E+03  0.50400001928E-02 0. -1.
</event>
<event>
 5   0  0.2047109E-03  0.1220702E+04  0.7818609E-02  0.9094927E-01
        1   -1    0    0  501    0  0.00000000000E+00  0.00000000000E+00  0.76413655232E+03  0.76413655233E+03  0.50400001928E-02 0. -1.
       -1   -1    0    0    0  501  0.00000000000E+00  0.00000000000E+00 -0.48751538510E+03  0.48751538513E+03  0.50400001928E-02 0.  1.
    10030    2    1    2    0    0  0.00000000000E+00  0.00000000000E+00  0.27662116721E+03  0.12516519375E+04  0.12207019712E+04 0.  0.
        1    1    3    3  502    0  0.43627815483E+03  0.42043292921E+03  0.21383854988E+03  0.64251801671E+03  0.50400001928E-02 0. -1.
       -1    1    3    3    0  502 -0.43627815483E+03 -0.42043292921E+03  0.62782617329E+02  0.60913392076E+03  0.50400001928E-02 0.  1.
</event>
<event>
 5   0  0.3706035E-03  0.1211000E+04  0.7818609E-02  0.9103283E-01
        2   -1    0    0  501    0  0.00000000000E+00  0.00000000000E+00  0.13276921929E+04  0.13276921929E+04  0.25500000920E-02 0.  1.
       -2   -1    0    0    0  501  0.00000000000E+00  0.00000000000E+00 -0.27614084747E+03  0.27614084748E+03  0.25500000920E-02 0. -1.
    10030    2    1    2    0    0  0.00000000000E+00  0.00000000000E+00  0.10515513454E+04  0.16038330404E+04  0.12109996653E+04 0.  0.
        2    1    3    3  502    0  0.28184725884E+02  0.10738289511E+03 -0.26254609291E+03  0.28505423316E+03  0.25500000920E-02 0. -1.
       -2    1    3    3    0  502 -0.28184725884E+02 -0.10738289511E+03  0.13140974383E+04  0.13187788072E+04  0.25500000920E-02 0.  1.
</event>
<event>
 5   0  0.3725376E-03  0.1221093E+04  0.7818609E-02  0.9094592E-01
       -2   -1    0    0    0  501  0.00000000000E+00  0.00000000000E+00  0.27086868602E+03  0.27086868603E+03  0.25500000920E-02 0.  1.
        2   -1    0    0  501    0  0.00000000000E+00  0.00000000000E+00 -0.13761903318E+04  0.13761903318E+04  0.25500000920E-02 0. -1.
    10030    2    1    2    0    0  0.00000000000E+00  0.00000000000E+00 -0.11053216457E+04  0.16470590178E+04  0.12210927350E+04 0.  0.
        4    1    3    3  502    0  0.20359461982E+03 -0.41172197144E+03 -0.10952224882E+04  0.11876361659E+04  0.12699999809E+01 0. -1.
       -4    1    3    3    0  502 -0.20359461982E+03  0.41172197144E+03 -0.10099157561E+02  0.45942285192E+03  0.12699999809E+01 0.  1.
</event>
<event>
 5   0  0.2025294E-03  0.1203988E+04  0.7818609E-02  0.9109373E-01
        1   -1    0    0  501    0  0.00000000000E+00  0.00000000000E+00  0.66445741311E+03  0.66445741313E+03  0.50400001928E-02 0.  1.
       -1   -1    0    0    0  501  0.00000000000E+00  0.00000000000E+00 -0.54540254888E+03  0.54540254890E+03  0.50400001928E-02 0. -1.
    10030    2    1    2    0    0  0.00000000000E+00  0.00000000000E+00  0.11905486423E+03  0.12098599620E+04  0.12039879846E+04 0.  0.
        5    1    3    3  502    0 -0.56218418132E+03  0.14831662212E+03 -0.97200549770E+02  0.58950734601E+03  0.46999998093E+01 0. -1.
       -5    1    3    3    0  502  0.56218418132E+03 -0.14831662212E+03  0.21625541400E+03  0.62035261602E+03  0.46999998093E+01 0.  1.
</event>
<event>
 5   0  0.1397500E-03  0.1207694E+04  0.7818609E-02  0.9106148E-01
       -3   -1    0    0    0  501  0.00000000000E+00  0.00000000000E+00  0.21504607703E+03  0.21504610075E+03  0.10100000352E+00 0.  1.
        3   -1    0    0  501    0  0.00000000000E+00  0.00000000000E+00 -0.16955967442E+04  0.16955967473E+04  0.10100000352E+00 0. -1.
    10030    2    1    2    0    0  0.00000000000E+00  0.00000000000E+00 -0.14805506672E+04  0.19106428480E+04  0.12076944210E+04 0.  0.
        3    1    3    3  502    0  0.45715831960E+03  0.30771563136E+03 -0.34969978769E+03  0.65266575724E+03  0.10100000352E+00 0.  1.
       -3    1    3    3    0  502 -0.45715831960E+03 -0.30771563136E+03 -0.11308508795E+04  0.12579770908E+04  0.10100000352E+00 0. -1.
</event>
<event>
 5   0  0.3626049E-03  0.1213970E+04  0.7818609E-02  0.9100716E-01
       -2   -1    0    0    0  501  0.00000000000E+00  0.00000000000E+00  0.22637261889E+03  0.22637261891E+03  0.25500000920E-02 0. -1.
        2   -1    0    0  501    0  0.00000000000E+00  0.00000000000E+00 -0.16275407091E+04  0.16275407091E+04  0.25500000920E-02 0.  1.
    10030    2    1    2    0    0  0.00000000000E+00  0.00000000000E+00 -0.14011680902E+04  0.18539133280E+04  0.12139697734E+04 0.  0.
        1    1    3    3  502    0  0.27180921824E+03  0.37993126248E+03 -0.10872221537E+03  0.47963375138E+03  0.50400001928E-02 0. -1.
       -1    1    3    3    0  502 -0.27180921824E+03 -0.37993126248E+03 -0.12924458749E+04  0.13742795766E+04  0.50400001928E-02 0.  1.
</event>
<event>
 5   0  0.2025294E-03  0.1192606E+04  0.7818609E-02  0.9119353E-01
       -1   -1    0    0    0  501  0.00000000000E+00  0.00000000000E+00  0.10145336916E+04  0.10145336916E+04  0.50400001928E-02 0.  1.
        1   -1    0    0  501    0  0.00000000000E+00  0.00000000000E+00 -0.35048351639E+03  0.35048351642E+03  0.50400001928E-02 0. -1.
    10030    2    1    2    0    0  0.00000000000E+00  0.00000000000E+00  0.66405017521E+03  0.13650172080E+04  0.11926061140E+04 0.  0.
        5    1    3    3  502    0 -0.43604429141E+03  0.13472578578E+03  0.77126078167E+03  0.89618689165E+03  0.46999998093E+01 0.  1.
       -5    1    3    3    0  502  0.43604429141E+03 -0.13472578578E+03 -0.10721060646E+03  0.46883031639E+03  0.46999998093E+01 0. -1.
</event>
<event>
 5   0  0.2134992E-03  0.1189100E+04  0.7818609E-02  0.9122451E-01
       -1   -1    0    0    0  501  0.00000000000E+00  0.00000000000E+00  0.22038782339E+03  0.22038782344E+03  0.50400001928E-02 0.  1.
        1   -1    0    0  501    0  0.00000000000E+00  0.00000000000E+00 -0.16039431811E+04  0.16039431812E+04  0.50400001928E-02 0. -1.
    10030    2    1    2    0    0  0.00000000000E+00  0.00000000000E+00 -0.13835553578E+04  0.18243310046E+04  0.11890997378E+04 0.  0.
        4    1    3    3  502    0  0.55571653906E+03  0.19253210365E+03 -0.82551354309E+03  0.10135895153E+04  0.12699999809E+01 0. -1.
       -4    1    3    3    0  502 -0.55571653906E+03 -0.19253210365E+03 -0.55804181467E+03  0.81074148934E+03  0.12699999809E+01 0.  1.
</event>
<event>
 5   0  0.2047109E-03  0.1205209E+04  0.7818609E-02  0.9108309E-01
        1   -1    0    0  501    0  0.00000000000E+00  0.00000000000E+00  0.46010423073E+03  0.46010423076E+03  0.50400001928E-02 0.  1.
       -1   -1    0    0    0  501  0.00000000000E+00  0.00000000000E+00 -0.78923909379E+03  0.78923909381E+03  0.50400001928E-02 0. -1.
    10030    2    1    2    0    0  0.00000000000E+00  0.00000000000E+00 -0.32913486306E+03  0.12493433246E+04  0.12052091041E+04 0.  0.
        1    1    3    3  502    0 -0.27923946705E+03 -0.53195563849E+03 -0.21297617560E+03  0.63742476628E+03  0.50400001928E-02 0.  1.
       -1    1    3    3    0  502  0.27923946705E+03  0.53195563849E+03 -0.11615868747E+03  0.61191855828E+03  0.50400001928E-02 0. -1.
</event>
<event>
 5   0  0.2047109E-03  0.1167153E+04  0.7818609E-02  0.9142103E-01
       -1   -1    0    0    0  501  0.00000000000E+00  0.00000000000E+00  0.42428072515E+03  0.42428072518E+03  0.50400001928E-02 0.  1.
        1   -1    0    0  501    0  0.00000000000E+00  0.00000000000E+00 -0.80268037654E+03  0.80268037656E+03  0.50400001928E-02 0. -1.
    10030    2    1    2    0    0  0.00000000000E+00  0.00000000000E+00 -0.37839965139E+03  0.12269611017E+04  0.11671534813E+04 0.  0.
        1    1    3    3  502    0  0.21736110238E+03 -0.52159530317E+03 -0.35940729636E+02  0.56621484013E+03  0.50400001928E-02 0.  1.
       -1    1    3    3    0  502 -0.21736110238E+03  0.52159530317E+03 -0.34245892175E+03  0.66074626161E+03  0.50400001928E-02 0. -1.
</event>
<event>
 5   0  0.2047109E-03  0.1193748E+04  0.7818609E-02  0.9118346E-01
       -1   -1    0    0    0  501  0.00000000000E+00  0.00000000000E+00  0.49740818497E+03  0.49740818500E+03  0.50400001928E-02 0. -1.
        1   -1    0    0  501    0  0.00000000000E+00  0.00000000000E+00 -0.71623037555E+03  0.71623037557E+03  0.50400001928E-02 0.  1.
    10030    2    1    2    0    0  0.00000000000E+00  0.00000000000E+00 -0.21882219058E+03  0.12136385606E+04  0.11937484679E+04 0.  0.
        1    1    3    3  502    0 -0.18800976662E+03 -0.56343624795E+03 -0.49689039008E+02  0.59605123813E+03  0.50400001928E-02 0. -1.
       -1    1    3    3    0  502  0.18800976662E+03  0.56343624795E+03 -0.16913315157E+03  0.61758732244E+03  0.50400001928E-02 0.  1.
</event>
<event>
 5   0  0.2096270E-03  0.1177572E+04  0.7818609E-02  0.9132717E-01
       -1   -1    0    0    0  501  0.00000000000E+00  0.00000000000E+00  0.43839862933E+03  0.43839862936E+03  0.50400001928E-02 0. -1.
        1   -1    0    0  501    0  0.00000000000E+00  0.00000000000E+00 -0.79076253947E+03  0.79076253949E+03  0.50400001928E-02 0.  1.
    10030    2    1    2    0    0  0.00000000000E+00  0.00000000000E+00 -0.35236391014E+03  0.12291611688E+04  0.11775724410E+04 0.  0.
        2    1    3    3  502    0  0.36112661898E+03 -0.34941874721E+03 -0.49648574268E+03  0.70640214363E+03  0.25500000920E-02 0.  1.
       -2    1    3    3    0  502 -0.36112661898E+03  0.34941874721E+03  0.14412183253E+03  0.52275902522E+03  0.25500000920E-02 0. -1.
</event>
<event>
 5   0  0.2025294E-03  0.1195855E+04  0.7818609E-02  0.9116492E-01
        1   -1    0    0  501    0  0.00000000000E+00  0.00000000000E+00  0.50408140274E+03  0.50408140277E+03  0.50400001928E-02 0.  1.
       -1   -1    0    0    0  501  0.00000000000E+00  0.00000000000E+00 -0.70924544162E+03  0.70924544164E+03  0.50400001928E-02 0. -1.
    10030    2    1    2    0    0  0.00000000000E+00  0.00000000000E+00 -0.20516403887E+03  0.12133268444E+04  0.11958552373E+04 0.  0.
        5    1    3    3  502    0 -0.17969342340E+03 -0.18755992343E+03  0.44382759648E+03  0.51426984812E+03  0.46999998093E+01 0.  1.
       -5    1    3    3    0  502  0.17969342340E+03  0.18755992343E+03 -0.64899163536E+03  0.69905699628E+03  0.46999998093E+01 0. -1.
</event>
<event>
 5   0  0.3650180E-03  0.1196445E+04  0.7818609E-02  0.9115974E-01
       -2   -1    0    0    0  501  0.00000000000E+00  0.00000000000E+00  0.21863059201E+03  0.21863059203E+03  0.25500000920E-02 0.  1.
        2   -1    0    0  501    0  0.00000000000E+00  0.00000000000E+00 -0.16368716519E+04  0.16368716519E+04  0.25500000920E-02 0. -1.
    10030    2    1    2    0    0  0.00000000000E+00  0.00000000000E+00 -0.14182410598E+04  0.18555022439E+04  0.11964450983E+04 0.  0.
        3    1    3    3  502    0 -0.48403673432E+02  0.17964023671E+03  0.17262336585E+03  0.25379591582E+03  0.10100000352E+00 0.  1.
       -3    1    3    3    0  502  0.48403673432E+02 -0.17964023671E+03 -0.15908644257E+04  0.16017063281E+04  0.10100000352E+00 0. -1.
</event>
<event>
 5   0  0.2078258E-03  0.1195090E+04  0.7818609E-02  0.9117165E-01
        1   -1    0    0  501    0  0.00000000000E+00  0.00000000000E+00  0.31593528610E+03  0.31593528614E+03  0.50400001928E-02 0.  1.
       -1   -1    0    0    0  501  0.00000000000E+00  0.00000000000E+00 -0.11301690680E+04  0.11301690680E+04  0.50400001928E-02 0. -1.
    10030    2    1    2    0    0  0.00000000000E+00  0.00000000000E+00 -0.81423378188E+03  0.14461043541E+04  0.11950904365E+04 0.  0.
        3    1    3    3  502    0  0.20663123425E+03  0.20026293794E+03 -0.10408099693E+04  0.10798551355E+04  0.10100000352E+00 0. -1.
       -3    1    3    3    0  502 -0.20663123425E+03 -0.20026293794E+03  0.22657618738E+03  0.36624921866E+03  0.10100000352E+00 0.  1.
</event>
<event>
 5   0  0.2096270E-03  0.1195129E+04  0.7818609E-02  0.9117131E-01
       -1   -1    0    0    0  501  0.00000000000E+00  0.00000000000E+00  0.45187417773E+03  0.45187417776E+03  0.50400001928E-02 0.  1.
        1   -1    0    0  501    0  0.00000000000E+00  0.00000000000E+00 -0.79022778530E+03  0.79022778531E+03  0.50400001928E-02 0. -1.
    10030    2    1    2    0    0  0.00000000000E+00  0.00000000000E+00 -0.33835360757E+03  0.12421019631E+04  0.11951293331E+04 0.  0.
        2    1    3    3  502    0  0.38240614348E+03 -0.17377381088E+03  0.27255982312E+03  0.50072013451E+03  0.25500000920E-02 0.  1.
       -2    1    3    3    0  502 -0.38240614348E+03  0.17377381088E+03 -0.61091343069E+03  0.74138182856E+03  0.25500000920E-02 0. -1.
</event>
<event>
 5   0  0.3751091E-03  0.1049147E+04  0.7818609E-02  0.9256225E-01
        2   -1    0    0  501    0  0.00000000000E+00  0.00000000000E+00  0.17601955255E+04  0.17601955255E+04  0.25500000920E-02 0. -1.
       -2   -1    0    0    0  501  0.00000000000E+00  0.00000000000E+00 -0.15633353735E+03  0.15633353737E+03  0.25500000920E-02 0.  1.
    10030    2    1    2    0    0  0.00000000000E+00  0.00000000000E+00  0.16038619881E+04  0.19165290629E+04  0.10491474500E+04 0.  0.
        5    1    3    3  502    0  0.38500050672E+03 -0.28538158059E+03  0.11915362017E+04  0.12843086259E+04  0.46999998093E+01 0. -1.
       -5    1    3    3    0  502 -0.38500050672E+03  0.28538158059E+03  0.41232578647E+03  0.63222043695E+03  0.46999998093E+01 0.  1.
</event>
<event>
 5   0  0.3650180E-03  0.1240654E+04  0.7818609E-02  0.9077998E-01
       -2   -1    0    0    0  501  0.00000000000E+00  0.00000000000E+00  0.36085530613E+03  0.36085530614E+03  0.25500000920E-02 0.  1.
        2   -1    0    0  501    0  0.00000000000E+00  0.00000000000E+00 -0.10663704222E+04  0.10663704222E+04  0.25500000920E-02 0. -1.
    10030    2    1    2    0    0  0.00000000000E+00  0.00000000000E+00 -0.70551511606E+03  0.14272257283E+04  0.12406537392E+04 0.  0.
        3    1    3    3  502    0  0.30140167062E+02  0.50480390281E+03 -0.76604740908E+03  0.91791287883E+03  0.10100000352E+00 0. -1.
       -3    1    3    3    0  502 -0.30140167062E+02 -0.50480390281E+03  0.60532293023E+02  0.50931284949E+03  0.10100000352E+00 0.  1.
</event>
<event>
 5   0  0.2047109E-03  0.1194970E+04  0.7818609E-02  0.9117270E-01
       -1   -1    0    0    0  501  0.00000000000E+00  0.00000000000E+00  0.26711614177E+03  0.26711614181E+03  0.50400001928E-02 0.  1.
        1   -1    0    0  501    0  0.00000000000E+00  0.00000000000E+00 -0.13364541331E+04  0.13364541331E+04  0.50400001928E-02 0. -1.
    10030    2    1    2    0    0  0.00000000000E+00  0.00000000000E+00 -0.10693379914E+04  0.16035702749E+04  0.11949702452E+04 0.  0.
        1    1    3    3  502    0  0.17435691630E+03 -0.30255099230E+03  0.11592790375E+03  0.36793574996E+03  0.50400001928E-02 0.  1.
       -1    1    3    3    0  502 -0.17435691630E+03  0.30255099230E+03 -0.11852658951E+04  0.12356345250E+04  0.50400001928E-02 0. -1.
</event>
<event>
 5   0  0.3725376E-03  0.1192511E+04  0.7818609E-02  0.9119437E-01
       -2   -1    0    0    0  501  0.00000000000E+00  0.00000000000E+00  0.48730737764E+03  0.48730737765E+03  0.25500000920E-02 0. -1.
        2   -1    0    0  501    0  0.00000000000E+00  0.00000000000E+00 -0.72956183552E+03  0.72956183553E+03  0.25500000920E-02 0.  1.
    10030    2    1    2    0    0  0.00000000000E+00  0.00000000000E+00 -0.24225445788E+03  0.12168692132E+04  0.11925114086E+04 0.  0.
        4    1    3    3  502    0  0.17120344213E+02 -0.77913929648E+02  0.48183602429E+03  0.48839661528E+03  0.12699999809E+01 0. -1.
       -4    1    3    3    0  502 -0.17120344213E+02  0.77913929648E+02 -0.72409048217E+03  0.72847259790E+03  0.12699999809E+01 0.  1.
</event>
<event>
 5   0  0.3626049E-03  0.1079757E+04  0.7818609E-02  0.9225150E-01
        2   -1    0    0  501    0  0.00000000000E+00  0.00000000000E+00  0.20600540555E+04  0.20600540556E+04  0.25500000920E-02 0.  1.
       -2   -1    0    0    0  501  0.00000000000E+00  0.00000000000E+00 -0.14148595120E+03  0.14148595123E+03  0.25500000920E-02 0. -1.
    10030    2    1    2    0    0  0.00000000000E+00  0.00000000000E+00  0.19185681043E+04  0.22015400068E+04  0.10797568386E+04 0.  0.
        1    1    3    3  502    0  0.23503748164E+03  0.24905929594E+03  0.18102636645E+04  0.18423701272E+04  0.50400001928E-02 0.  1.
       -1    1    3    3    0  502 -0.23503748164E+03 -0.24905929594E+03  0.10830443987E+03  0.35916987957E+03  0.50400001928E-02 0. -1.
</event>
<event>
 5   0  0.3650180E-03  0.1214954E+04  0.7818609E-02  0.9099867E-01
       -2   -1    0    0    0  501  0.00000000000E+00  0.00000000000E+00  0.23518581588E+03  0.23518581589E+03  0.25500000920E-02 0.  1.
        2   -1    0    0  501    0  0.00000000000E+00  0.00000000000E+00 -0.15690917685E+04  0.15690917685E+04  0.25500000920E-02 0. -1.
    10030    2    1    2    0    0  0.00000000000E+00  0.00000000000E+00 -0.13339059526E+04  0.18042775844E+04  0.12149537074E+04 0.  0.
        3    1    3    3  502    0 -0.54292490174E+03  0.61155259104E+02 -0.27258472986E+03  0.61058157505E+03  0.10100000352E+00 0.  1.
       -3    1    3    3    0  502  0.54292490174E+03 -0.61155259104E+02 -0.10613212228E+04  0.11936960094E+04  0.10100000352E+00 0. -1.
</event>
<event>
 5   0  0.2025294E-03  0.1187575E+04  0.7818609E-02  0.9123802E-01
        1   -1    0    0  501    0  0.00000000000E+00  0.00000000000E+00  0.13523215378E+04  0.13523215379E+04  0.50400001928E-02 0. -1.
       -1   -1    0    0    0  501  0.00000000000E+00  0.00000000000E+00 -0.26072454705E+03  0.26072454710E+03  0.50400001928E-02 0.  1.
    10030    2    1    2    0    0  0.00000000000E+00  0.00000000000E+00  0.10915969908E+04  0.16130460850E+04  0.11875747058E+04 0.  0.
        5    1    3    3  502    0  0.35552322390E+03  0.32535435926E+03  0.10169223461E+04  0.11253467776E+04  0.46999998093E+01 0. -1.
       -5    1    3    3    0  502 -0.35552322390E+03 -0.32535435926E+03  0.74674644654E+02  0.48769930734E+03  0.46999998093E+01 0.  1.
</event>
<event>
 5   0  0.2096270E-03  0.1202376E+04  0.7818609E-02  0.9110779E-01
        1   -1    0    0  501    0  0.00000000000E+00  0.00000000000E+00  0.39591172585E+03  0.39591172588E+03  0.50400001928E-02 0.  1.
       -1   -1    0    0    0  501  0.00000000000E+00  0.00000000000E+00 -0.91289841686E+03  0.91289841687E+03  0.50400001928E-02 0. -1.
    10030    2    1    2    0    0  0.00000000000E+00  0.00000000000E+00 -0.51698669101E+03  0.13088101428E+04  0.12023762935E+04 0.  0.
        2    1    3    3  502    0 -0.34786900396E+03 -0.12524147776E+03  0.25752569345E+03  0.45057491548E+03  0.25500000920E-02 0.  1.
       -2    1    3    3    0  502  0.34786900396E+03  0.12524147776E+03 -0.77451238446E+03  0.85823522728E+03  0.25500000920E-02 0. -1.
</event>
<event>
 5   0  0.2047109E-03  0.1158687E+04  0.7818609E-02  0.9149807E-01
        1   -1    0    0  501    0  0.00000000000E+00  0.00000000000E+00  0.83141420203E+03  0.83141420204E+03  0.50400001928E-02 0. -1.
       -1   -1    0    0    0  501  0.00000000000E+00  0.00000000000E+00 -0.40369626891E+03  0.40369626894E+03  0.50400001928E-02 0.  1.
    10030    2    1    2    0    0  0.00000000000E+00  0.00000000000E+00  0.42771793312E+03  0.12351104710E+04  0.11586868625E+04 0.  0.
        1    1    3    3  502    0  0.97859832866E+02 -0.22004618117E+03  0.77553029868E+03  0.81206164355E+03  0.50400001928E-02 0. -1.
       -1    1    3    3    0  502 -0.97859832866E+02  0.22004618117E+03 -0.34781236555E+03  0.42304882744E+03  0.50400001928E-02 0.  1.
</event>
<event>
 5   0  0.3706035E-03  0.1206822E+04  0.7818609E-02  0.9106906E-01
       -2   -1    0    0    0  501  0.00000000000E+00  0.00000000000E+00  0.31349581942E+03  0.31349581943E+03  0.25500000920E-02 0. -1.
        2   -1    0    0  501    0  0.00000000000E+00  0.00000000000E+00 -0.11614336739E+04  0.11614336739E+04  0.25500000920E-02 0.  1.
    10030    2    1    2    0    0  0.00000000000E+00  0.00000000000E+00 -0.84793785443E+03  0.14749294933E+04  0.12068216128E+04 0.  0.
        2    1    3    3  502    0  0.46605752475E+03 -0.22853776139E+03 -0.80000022489E+03  0.95364536626E+03  0.25500000920E-02 0.  1.
       -2    1    3    3    0  502 -0.46605752475E+03  0.22853776139E+03 -0.47937629543E+02  0.52128412703E+03  0.25500000920E-02 0. -1.
</event>
<event>
 5   0  0.3725376E-03  0.1211447E+04  0.7818609E-02  0.9102896E-01
        2   -1    0    0  501    0  0.00000000000E+00  0.00000000000E+00  0.62365132903E+03  0.62365132903E+03  0.25500000920E-02 0.  1.
       -2   -1    0    0    0  501  0.00000000000E+00  0.00000000000E+00 -0.58831089451E+03  0.58831089451E+03  0.25500000920E-02 0. -1.
    10030    2    1    2    0    0  0.00000000000E+00  0.00000000000E+00  0.35340434524E+02  0.12119622235E+04  0.12114468560E+04 0.  0.
        4    1    3    3  502    0 -0.53414902887E+02 -0.60269634776E+03  0.46023390636E+02  0.60680788133E+03  0.12699999809E+01 0.  1.
       -4    1    3    3    0  502  0.53414902887E+02  0.60269634776E+03 -0.10682956113E+02  0.60515434222E+03  0.12699999809E+01 0. -1.
</event>
<event>
 5   0  0.2096270E-03  0.1219205E+04  0.7818609E-02  0.9096210E-01
       -1   -1    0    0    0  501  0.00000000000E+00  0.00000000000E+00  0.72283085845E+03  0.72283085846E+03  0.50400001928E-02 0.  1.
        1   -1    0    0  501    0  0.00000000000E+00  0.00000000000E+00 -0.51411123160E+03  0.51411123163E+03  0.50400001928E-02 0. -1.
    10030    2    1    2    0    0  0.00000000000E+00  0.00000000000E+00  0.20871962684E+03  0.12369420901E+04  0.12192054181E+04 0.  0.
        2    1    3    3  502    0  0.42499216985E+03  0.17905149629E+02 -0.33865790585E+03  0.54371694476E+03  0.25500000920E-02 0. -1.
       -2    1    3    3    0  502 -0.42499216985E+03 -0.17905149629E+02  0.54737753269E+03  0.69322514533E+03  0.25500000920E-02 0.  1.
</event>
<event>
 5   0  0.2025294E-03  0.1223229E+04  0.7818609E-02  0.9092764E-01
        1   -1    0    0  501    0  0.00000000000E+00  0.00000000000E+00  0.97537337302E+03  0.97537337303E+03  0.50400001928E-02 0.  1.
       -1   -1    0    0    0  501  0.00000000000E+00  0.00000000000E+00 -0.38351718641E+03  0.38351718644E+03  0.50400001928E-02 0. -1.
    10030    2    1    2    0    0  0.00000000000E+00  0.00000000000E+00  0.59185618661E+03  0.13588905595E+04  0.12232292537E+04 0.  0.
        5    1    3    3  502    0 -0.17982605343E+03  0.27292875904E+03  0.87019450333E+03  0.92956338172E+03  0.46999998093E+01 0.  1.
       -5    1    3    3    0  502  0.17982605343E+03 -0.27292875904E+03 -0.27833831672E+03  0.42932717775E+03  0.46999998093E+01 0. -1.
</event>
<event>
 5   0  0.2096270E-03  0.1196503E+04  0.7818609E-02  0.9115923E-01
        1   -1    0    0  501    0  0.00000000000E+00  0.00000000000E+00  0.10883482458E+04  0.10883482459E+04  0.50400001928E-02 0. -1.
       -1   -1    0    0    0  501  0.00000000000E+00  0.00000000000E+00 -0.32885127570E+03  0.32885127574E+03  0.50400001928E-02 0.  1.
    10030    2    1    2    0    0  0.00000000000E+00  0.00000000000E+00  0.75949697014E+03  0.14171995216E+04  0.11965027523E+04 0.  0.
        2    1    3    3  502    0 -0.19672530555E+03  0.55078245666E+03  0.23066490263E+03  0.62870379172E+03  0.25500000920E-02 0. -1.
       -2    1    3    3    0  502  0.19672530555E+03 -0.55078245666E+03  0.52883206751E+03  0.78849572988E+03  0.25500000920E-02 0.  1.
</event>
<event>
 5   0  0.1397500E-03  0.1140925E+04  0.7818609E-02  0.9166196E-01
        3   -1    0    0  501    0  0.00000000000E+00  0.00000000000E+00  0.96652253300E+03  0.96652253828E+03  0.10100000352E+00 0. -1.
       -3   -1    0    0    0  501  0.00000000000E+00  0.00000000000E+00 -0.33669949704E+03  0.33669951219E+03  0.10100000352E+00 0.  1.
    10030    2    1    2    0    0  0.00000000000E+00  0.00000000000E+00  0.62982303597E+03  0.13032220505E+04  0.11409253508E+04 0.  0.
        1    1    3    3  502    0  0.43149430513E+03  0.35294637105E+03  0.45325675899E+03  0.71847071325E+03  0.50400001928E-02 0. -1.
       -1    1    3    3    0  502 -0.43149430513E+03 -0.35294637105E+03  0.17656627697E+03  0.58475133722E+03  0.50400001928E-02 0.  1.
</event>
<event>
 5   0  0.3706035E-03  0.1029448E+04  0.7818609E-02  0.9276824E-01
       -2   -1    0    0    0  501  0.00000000000E+00  0.00000000000E+00  0.47835543915E+03  0.47835543915E+03  0.25500000920E-02 0. -1.
        2   -1    0    0  501    0  0.00000000000E+00  0.00000000000E+00 -0.55385715250E+03  0.55385715251E+03  0.25500000920E-02 0.  1.
    10030    2    1    2    0    0  0.00000000000E+00  0.00000000000E+00 -0.75501713357E+02  0.10322125917E+04  0.10294475828E+04 0.  0.
        2    1    3    3  502    0 -0.41871260910E+03  0.17729482889E+03  0.20411659842E+03  0.49841477820E+03  0.25500000920E-02 0. -1.
       -2    1    3    3    0  502  0.41871260910E+03 -0.17729482889E+03 -0.27961831178E+03  0.53379781346E+03  0.25500000920E-02 0.  1.
</event>
<event>
 5   0  0.3650180E-03  0.1143194E+04  0.7818609E-02  0.9164085E-01
       -2   -1    0    0    0  501  0.00000000000E+00  0.00000000000E+00  0.34629426282E+03  0.34629426283E+03  0.25500000920E-02 0.  1.
        2   -1    0    0  501    0  0.00000000000E+00  0.00000000000E+00 -0.94348473720E+03  0.94348473720E+03  0.25500000920E-02 0. -1.
    10030    2    1    2    0    0  0.00000000000E+00  0.00000000000E+00 -0.59719047438E+03  0.12897790000E+04  0.11431943869E+04 0.  0.
        3    1    3    3  502    0 -0.49960251428E+03  0.10179437546E+03 -0.70884006369E+01  0.50991668219E+03  0.10100000352E+00 0.  1.
       -3    1    3    3    0  502  0.49960251428E+03 -0.10179437546E+03 -0.59010207374E+03  0.77986231784E+03  0.10100000352E+00 0. -1.
</event>
<event>
 5   0  0.3706035E-03  0.1213525E+04  0.7818609E-02  0.9101100E-01
       -2   -1    0    0    0  501  0.00000000000E+00  0.00000000000E+00  0.48168607639E+03  0.48168607640E+03  0.25500000920E-02 0. -1.
        2   -1    0    0  501    0  0.00000000000E+00  0.00000000000E+00 -0.76431655881E+03  0.76431655882E+03  0.25500000920E-02 0.  1.
    10030    2    1    2    0    0  0.00000000000E+00  0.00000000000E+00 -0.28263048242E+03  0.12460026352E+04  0.12135248565E+04 0.  0.
        2    1    3    3  502    0  0.45160993513E+01  0.16618342473E+03 -0.74047648412E+03  0.75890892032E+03  0.25500000920E-02 0.  1.
       -2    1    3    3    0  502 -0.45160993513E+01 -0.16618342473E+03  0.45784600170E+03  0.48709371489E+03  0.25500000920E-02 0. -1.
</event>
<event>
 5   0  0.2078258E-03  0.1237788E+04  0.7818609E-02  0.9080409E-01
        1   -1    0    0  501    0  0.00000000000E+00  0.00000000000E+00  0.50767076684E+03  0.50767076686E+03  0.50400001928E-02 0. -1.
       -1   -1    0    0    0  501  0.00000000000E+00  0.00000000000E+00 -0.75448425998E+03  0.75448425999E+03  0.50400001928E-02 0.  1.
    10030    2    1    2    0    0  0.00000000000E+00  0.00000000000E+00 -0.24681349314E+03  0.12621550269E+04  0.12377877085E+04 0.  0.
        3    1    3    3  502    0  0.11987906541E+03 -0.60486426311E+03 -0.69470980604E+02  0.62053041381E+03  0.10100000352E+00 0.  1.
       -3    1    3    3    0  502 -0.11987906541E+03  0.60486426311E+03 -0.17734251253E+03  0.64162461305E+03  0.10100000352E+00 0. -1.
</event>
<event>
 5   0  0.2025294E-03  0.1188076E+04  0.7818609E-02  0.9123358E-01
        1   -1    0    0  501    0  0.00000000000E+00  0.00000000000E+00  0.62954139315E+03  0.62954139317E+03  0.50400001928E-02 0. -1.
       -1   -1    0    0    0  501  0.00000000000E+00  0.00000000000E+00 -0.56053701490E+03  0.56053701492E+03  0.50400001928E-02 0.  1.
    10030    2    1    2    0    0  0.00000000000E+00  0.00000000000E+00  0.69004378252E+02  0.11900784081E+04  0.11880761816E+04 0.  0.
        5    1    3    3  502    0 -0.73431409004E+02 -0.56053662251E+03 -0.14819401761E+03  0.58444592038E+03  0.46999998093E+01 0. -1.
       -5    1    3    3    0  502  0.73431409004E+02  0.56053662251E+03  0.21719839586E+03  0.60563248770E+03  0.46999998093E+01 0.  1.
</event>
<event>
 5   0  0.3751091E-03  0.1192525E+04  0.7818609E-02  0.9119425E-01
        2   -1    0    0  501    0  0.00000000000E+00  0.00000000000E+00  0.26724809223E+03  0.26724809224E+03  0.25500000920E-02 0. -1.
       -2   -1    0    0    0  501  0.00000000000E+00  0.00000000000E+00 -0.13303332293E+04  0.13303332293E+04  0.25500000920E-02 0.  1.
    10030    2    1    2    0    0  0.00000000000E+00  0.00000000000E+00 -0.10630851371E+04  0.15975813216E+04  0.11925250816E+04 0.  0.
        5    1    3    3  502    0  0.45493896820E+02 -0.30143828224E+03 -0.12180098135E+04  0.12555893948E+04  0.46999998093E+01 0.  1.
       -5    1    3    3    0  502 -0.45493896820E+02  0.30143828224E+03  0.15492467635E+03  0.34199192678E+03  0.46999998093E+01 0. -1.
</event>
<event>
 5   0  0.2025294E-03  0.1201253E+04  0.7818609E-02  0.9111761E-01
       -1   -1    0    0    0  501  0.00000000000E+00  0.00000000000E+00  0.26036144317E+03  0.26036144322E+03  0.50400001928E-02 0. -1.
        1   -1    0    0  501    0  0.00000000000E+00  0.00000000000E+00 -0.13855813782E+04  0.13855813783E+04  0.50400001928E-02 0.  1.
    10030    2    1    2    0    0  0.00000000000E+00  0.00000000000E+00 -0.11252199351E+04  0.16459428215E+04  0.12012526251E+04 0.  0.
        5    1    3    3  502    0  0.12037353846E+03  0.35173698937E+03 -0.12089574632E+04  0.12648355373E+04  0.46999998093E+01 0.  1.
       -5    1    3    3    0  502 -0.12037353846E+03 -0.35173698937E+03  0.83737528156E+02  0.38110728420E+03  0.46999998093E+01 0. -1.
</event>
<event>
 5   0  0.2096270E-03  0.1197621E+04  0.7818609E-02  0.9114941E-01
        1   -1    0    0  501    0  0.00000000000E+00  0.00000000000E+00  0.68874933976E+03  0.68874933978E+03  0.50400001928E-02 0. -1.
       -1   -1    0    0    0  501  0.00000000000E+00  0.00000000000E+00 -0.52061648055E+03  0.52061648058E+03  0.50400001928E-02 0.  1.
    10030    2    1    2    0    0  0.00000000000E+00  0.00000000000E+00  0.16813285921E+03  0.12093658204E+04  0.11976214047E+04 0.  0.
        2    1    3    3  502    0 -0.47896761124E+03  0.35666702709E+03  0.39441250625E+02  0.59847886604E+03  0.25500000920E-02 0. -1.
       -2    1    3    3    0  502  0.47896761124E+03 -0.35666702709E+03  0.12869160858E+03  0.61088695432E+03  0.25500000920E-02 0.  1.
</event>
<event>
 5   0  0.3751091E-03  0.1261281E+04  0.7818609E-02  0.9060846E-01
       -2   -1    0    0    0  501  0.00000000000E+00  0.00000000000E+00  0.31346258673E+03  0.31346258674E+03  0.25500000920E-02 0. -1.
        2   -1    0    0  501    0  0.00000000000E+00  0.00000000000E+00 -0.12687548585E+04  0.12687548585E+04  0.25500000920E-02 0.  1.
    10030    2    1    2    0    0  0.00000000000E+00  0.00000000000E+00 -0.95529227178E+03  0.15822174453E+04  0.12612805872E+04 0.  0.
        5    1    3    3  502    0  0.47695463924E+03 -0.40845278908E+03 -0.55042259784E+03  0.83504882194E+03  0.46999998093E+01 0. -1.
       -5    1    3    3    0  502 -0.47695463924E+03  0.40845278908E+03 -0.40486967394E+03  0.74716862332E+03  0.46999998093E+01 0.  1.
</event>
<event>
 5   0  0.2047109E-03  0.1175674E+04  0.7818609E-02  0.9134420E-01
       -1   -1    0    0    0  501  0.00000000000E+00  0.00000000000E+00  0.47071345263E+03  0.47071345265E+03  0.50400001928E-02 0. -1.
        1   -1    0    0  501    0  0.00000000000E+00  0.00000000000E+00 -0.73410295299E+03  0.73410295301E+03  0.50400001928E-02 0.  1.
    10030    2    1    2    0    0  0.00000000000E+00  0.00000000000E+00 -0.26338950036E+03  0.12048164057E+04  0.11756736547E+04 0.  0.
        1    1    3    3  502    0 -0.89137274386E+02 -0.58038068866E+03 -0.10335165718E+03  0.59621201139E+03  0.50400001928E-02 0.  1.
       -1    1    3    3    0  502  0.89137274386E+02  0.58038068866E+03 -0.16003784318E+03  0.60860439427E+03  0.50400001928E-02 0. -1.
</event>
<event>
 5   0  0.3650180E-03  0.1195694E+04  0.7818609E-02  0.9116634E-01
        2   -1    0    0  501    0  0.00000000000E+00  0.00000000000E+00  0.61534447954E+03  0.61534447954E+03  0.25500000920E-02 0. -1.
       -2   -1    0    0    0  501  0.00000000000E+00  0.00000000000E+00 -0.58084664159E+03  0.58084664160E+03  0.25500000920E-02 0.  1.
    10030    2    1    2    0    0  0.00000000000E+00  0.00000000000E+00  0.34497837947E+02  0.11961911211E+04  0.11956935634E+04 0.  0.
        3    1    3    3  502    0  0.45857937246E+03 -0.37754350861E+03 -0.50503870153E+02  0.59614158792E+03  0.10100000352E+00 0.  1.
       -3    1    3    3    0  502 -0.45857937246E+03  0.37754350861E+03  0.85001708100E+02  0.60004953322E+03  0.10100000352E+00 0. -1.
</event>
<event>
 5   0  0.3626049E-03  0.1169717E+04  0.7818609E-02  0.9139784E-01
       -2   -1    0    0    0  501  0.00000000000E+00  0.00000000000E+00  0.26168670451E+03  0.26168670452E+03  0.25500000920E-02 0. -1.
        2   -1    0    0  501    0  0.00000000000E+00  0.00000000000E+00 -0.13071331405E+04  0.13071331405E+04  0.25500000920E-02 0.  1.
    10030    2    1    2    0    0  0.00000000000E+00  0.00000000000E+00 -0.10454464360E+04  0.15688198450E+04  0.11697168271E+04 0.  0.
        1    1    3    3  502    0  0.12249253005E+03 -0.31933048883E+03 -0.11590257740E+04  0.12084358178E+04  0.50400001928E-02 0.  1.
       -1    1    3    3    0  502 -0.12249253005E+03  0.31933048883E+03  0.11357933800E+03  0.36038402720E+03  0.50400001928E-02 0. -1.
</event>
<event>
 5   0  0.3650180E-03  0.1187614E+04  0.7818609E-02  0.9123768E-01
       -2   -1    0    0    0  501  0.00000000000E+00  0.00000000000E+00  0.23866669282E+03  0.23866669283E+03  0.25500000920E-02 0.  1.
        2   -1    0    0  501    0  0.00000000000E+00  0.00000000000E+00 -0.14774013470E+04  0.14774013470E+04  0.25500000920E-02 0. -1.
    10030    2    1    2    0    0  0.00000000000E+00  0.00000000000E+00 -0.12387346541E+04  0.17160680398E+04  0.11876135625E+04 0.  0.
        3    1    3    3  502    0  0.52120533094E+03 -0.25162947131E+03 -0.42748457098E+03  0.71952446550E+03  0.10100000352E+00 0.  1.
       -3    1    3    3    0  502 -0.52120533094E+03  0.25162947131E+03 -0.81125008316E+03  0.99654357429E+03  0.10100000352E+00 0. -1.
</event>
<event>
 5   0  0.2096270E-03  0.1125255E+04  0.7818609E-02  0.9180920E-01
       -1   -1    0    0    0  501  0.00000000000E+00  0.00000000000E+00  0.28975078919E+03  0.28975078923E+03  0.50400001928E-02 0. -1.
        1   -1    0    0  501    0  0.00000000000E+00  0.00000000000E+00 -0.10924903332E+04  0.10924903332E+04  0.50400001928E-02 0.  1.
    10030    2    1    2    0    0  0.00000000000E+00  0.00000000000E+00 -0.80273954398E+03  0.13822411224E+04  0.11252554132E+04 0.  0.
        2    1    3    3  502    0 -0.30314372933E+03 -0.27997889809E+03  0.68420311011E+02  0.41828894675E+03  0.25500000920E-02 0. -1.
       -2    1    3    3    0  502  0.30314372933E+03  0.27997889809E+03 -0.87115985499E+03  0.96395217566E+03  0.25500000920E-02 0.  1.
</event>
<event>
 5   0  0.3725376E-03  0.1182411E+04  0.7818609E-02  0.9128393E-01
        2   -1    0    0  501    0  0.00000000000E+00  0.00000000000E+00  0.10653055602E+04  0.10653055602E+04  0.25500000920E-02 0.  1.
       -2   -1    0    0    0  501  0.00000000000E+00  0.00000000000E+00 -0.32809723832E+03  0.32809723833E+03  0.25500000920E-02 0. -1.
    10030    2    1    2    0    0  0.00000000000E+00  0.00000000000E+00  0.73720832187E+03  0.13934027985E+04  0.11824107785E+04 0.  0.
        4    1    3    3  502    0 -0.11047225248E+03 -0.32749258359E+03  0.93384713032E+03  0.99575478235E+03  0.12699999809E+01 0.  1.
       -4    1    3    3    0  502  0.11047225248E+03  0.32749258359E+03 -0.19663880845E+03  0.39764801617E+03  0.12699999809E+01 0. -1.
</event>
<event>
 5   0  0.2025294E-03  0.1171754E+04  0.7818609E-02  0.9137946E-01
       -1   -1    0    0    0  501  0.00000000000E+00  0.00000000000E+00  0.34888250555E+03  0.34888250559E+03  0.50400001928E-02 0.  1.
        1   -1    0    0  501    0  0.00000000000E+00  0.00000000000E+00 -0.98386016553E+03  0.98386016554E+03  0.50400001928E-02 0. -1.
    10030    2    1    2    0    0  0.00000000000E+00  0.00000000000E+00 -0.63497765997E+03  0.13327426711E+04  0.11717535572E+04 0.  0.
        5    1    3    3  502    0 -0.57506929818E+02 -0.36280217702E+03  0.20161182253E+03  0.41904878428E+03  0.46999998093E+01 0.  1.
       -5    1    3    3    0  502  0.57506929818E+02  0.36280217702E+03 -0.83658948250E+03  0.91369388685E+03  0.46999998093E+01 0. -1.
</event>
<event>
 5   0  0.1397500E-03  0.1168531E+04  0.7818609E-02  0.9140856E-01
       -4   -1    0    0    0  501  0.00000000000E+00  0.00000000000E+00  0.39744745199E+03  0.39744948106E+03  0.12699999809E+01 0. -1.
        4   -1    0    0  501    0  0.00000000000E+00  0.00000000000E+00 -0.85889236050E+03  0.85889329944E+03  0.12699999809E+01 0.  1.
    10030    2    1    2    0    0  0.00000000000E+00  0.00000000000E+00 -0.46144490851E+03  0.12563427805E+04  0.11685314624E+04 0.  0.
        3    1    3    3  502    0 -0.53635309469E+03 -0.20790698108E+03 -0.12072869347E+03  0.58777153946E+03  0.10100000352E+00 0. -1.
       -3    1    3    3    0  502  0.53635309469E+03  0.20790698108E+03 -0.34071621503E+03  0.66857124105E+03  0.10100000352E+00 0.  1.
</event>
<event>
 5   0  0.1397500E-03  0.1222798E+04  0.7818609E-02  0.9093132E-01
        3   -1    0    0  501    0  0.00000000000E+00  0.00000000000E+00  0.85332673301E+03  0.85332673899E+03  0.10100000352E+00 0. -1.
       -3   -1    0    0    0  501  0.00000000000E+00  0.00000000000E+00 -0.43806074802E+03  0.43806075966E+03  0.10100000352E+00 0.  1.
    10030    2    1    2    0    0  0.00000000000E+00  0.00000000000E+00  0.41526598499E+03  0.12913874987E+04  0.12227983617E+04 0.  0.
        4    1    3    3  502    0  0.29448710429E+03 -0.45977417490E+03  0.49818766545E+03  0.73912617963E+03  0.12699999809E+01 0. -1.
       -4    1    3    3    0  502 -0.29448710429E+03  0.45977417490E+03 -0.82921680459E+02  0.55226131902E+03  0.12699999809E+01 0.  1.
</event>
<event>
 5   0  0.2096270E-03  0.1253785E+04  0.7818609E-02  0.9067039E-01
       -1   -1    0    0    0  501  0.00000000000E+00  0.00000000000E+00  0.72100358339E+03  0.72100358341E+03  0.50400001928E-02 0.  1.
        1   -1    0    0  501    0  0.00000000000E+00  0.00000000000E+00 -0.54506532135E+03  0.54506532138E+03  0.50400001928E-02 0. -1.
    10030    2    1    2    0    0  0.00000000000E+00  0.00000000000E+00  0.17593826204E+03  0.12660689048E+04  0.12537847501E+04 0.  0.
        2    1    3    3  502    0  0.30124173956E+03 -0.34524282976E+03 -0.34407188874E+03  0.57299621446E+03  0.25500000920E-02 0. -1.
       -2    1    3    3    0  502 -0.30124173956E+03  0.34524282976E+03  0.52001015078E+03  0.69307269032E+03  0.25500000920E-02 0.  1.
</event>
<event>
 5   0  0.2078258E-03  0.1170301E+04  0.7818609E-02  0.9139256E-01
        1   -1    0    0  501    0  0.00000000000E+00  0.00000000000E+00  0.61303440549E+03  0.61303440551E+03  0.50400001928E-02 0.  1.
       -1   -1    0    0    0  501  0.00000000000E+00  0.00000000000E+00 -0.55853513905E+03  0.55853513907E+03  0.50400001928E-02 0. -1.
    10030    2    1    2    0    0  0.00000000000E+00  0.00000000000E+00  0.54499266439E+02  0.11715695446E+04  0.11703012551E+04 0.  0.
        3    1    3    3  502    0  0.26175889542E+03  0.30006496982E+03  0.45648527078E+03  0.60575202689E+03  0.10100000352E+00 0.  1.
       -3    1    3    3    0  502 -0.26175889542E+03 -0.30006496982E+03 -0.40198600434E+03  0.56581751769E+03  0.10100000352E+00 0. -1.
</event>
<event>
 5   0  0.2025294E-03  0.1280523E+04  0.7818609E-02  0.9045155E-01
        1   -1    0    0  501    0  0.00000000000E+00  0.00000000000E+00  0.59707234973E+03  0.59707234975E+03  0.50400001928E-02 0.  1.
       -1   -1    0    0    0  501  0.00000000000E+00  0.00000000000E+00 -0.68657503364E+03  0.68657503366E+03  0.50400001928E-02 0. -1.
    10030    2    1    2    0    0  0.00000000000E+00  0.00000000000E+00 -0.89502683917E+02  0.12836473834E+04  0.12805232815E+04 0.  0.
        5    1    3    3  502    0  0.33852757382E+03  0.45982158940E+03 -0.33507156455E+03  0.66206635293E+03  0.46999998093E+01 0. -1.
       -5    1    3    3    0  502 -0.33852757382E+03 -0.45982158940E+03  0.24556888063E+03  0.62158103048E+03  0.46999998093E+01 0.  1.
</event>
<event>
 5   0  0.3751091E-03  0.1205021E+04  0.7818609E-02  0.9108473E-01
        2   -1    0    0  501    0  0.00000000000E+00  0.00000000000E+00  0.71815214752E+03  0.71815214752E+03  0.25500000920E-02 0. -1.
       -2   -1    0    0    0  501  0.00000000000E+00  0.00000000000E+00 -0.50549061320E+03  0.50549061321E+03  0.25500000920E-02 0.  1.
    10030    2    1    2    0    0  0.00000000000E+00  0.00000000000E+00  0.21266153432E+03  0.12236427607E+04  0.12050214428E+04 0.  0.
        5    1    3    3  502    0  0.14715738105E+02 -0.19213339341E+03  0.68599822351E+03  0.71256399465E+03  0.46999998093E+01 0. -1.
       -5    1    3    3    0  502 -0.14715738105E+02  0.19213339341E+03 -0.47333668919E+03  0.51107876609E+03  0.46999998093E+01 0.  1.
</event>
<event>
 5   0  0.2047109E-03  0.1153980E+04  0.7818609E-02  0.9154120E-01
       -1   -1    0    0    0  501  0.00000000000E+00  0.00000000000E+00  0.57458894107E+03  0.57458894109E+03  0.50400001928E-02 0. -1.
        1   -1    0    0  501    0  0.00000000000E+00  0.00000000000E+00 -0.57940091936E+03  0.57940091938E+03  0.50400001928E-02 0.  1.
    10030    2    1    2    0    0  0.00000000000E+00  0.00000000000E+00 -0.48119782877E+01  0.11539898605E+04  0.11539798278E+04 0.  0.
        1    1    3    3  502    0 -0.24077194231E+03  0.61706374663E+02  0.51830820348E+03  0.57482362400E+03  0.50400001928E-02 0. -1.
       -1    1    3    3    0  502  0.24077194231E+03 -0.61706374663E+02 -0.52312018177E+03  0.57916623648E+03  0.50400001928E-02 0.  1.
</event>
<event>
 5   0  0.2025294E-03  0.1198390E+04  0.7818609E-02  0.9114267E-01
       -1   -1    0    0    0  501  0.00000000000E+00  0.00000000000E+00  0.54599705013E+03  0.54599705015E+03  0.50400001928E-02 0.  1.
        1   -1    0    0  501    0  0.00000000000E+00  0.00000000000E+00 -0.65757568641E+03  0.65757568643E+03  0.50400001928E-02 0. -1.
    10030    2    1    2    0    0  0.00000000000E+00  0.00000000000E+00 -0.11157863628E+03  0.12035727366E+04  0.11983895611E+04 0.  0.
        5    1    3    3  502    0 -0.29835490680E+03  0.51892190612E+03 -0.28902276420E+02  0.59929377324E+03  0.46999998093E+01 0.  1.
       -5    1    3    3    0  502  0.29835490680E+03 -0.51892190612E+03 -0.82676359858E+02  0.60427896334E+03  0.46999998093E+01 0. -1.
</event>
<event>
 5   0  0.2134992E-03  0.1198620E+04  0.7818609E-02  0.9114066E-01
       -1   -1    0    0    0  501  0.00000000000E+00  0.00000000000E+00  0.37262932102E+03  0.37262932106E+03  0.50400001928E-02 0.  1.
        1   -1    0    0  501    0  0.00000000000E+00  0.00000000000E+00 -0.96388613124E+03  0.96388613125E+03  0.50400001928E-02 0. -1.
    10030    2    1    2    0    0  0.00000000000E+00  0.00000000000E+00 -0.59125681021E+03  0.13365154523E+04  0.11986195971E+04 0.  0.
        4    1    3    3  502    0 -0.53694697050E+03  0.26519407347E+03 -0.32131504774E+03  0.67962115810E+03  0.12699999809E+01 0. -1.
       -4    1    3    3    0  502  0.53694697050E+03 -0.26519407347E+03 -0.26994176247E+03  0.65689429421E+03  0.12699999809E+01 0.  1.
</event>
<event>
 5   0  0.2096270E-03  0.1219653E+04  0.7818609E-02  0.9095826E-01
       -1   -1    0    0    0  501  0.00000000000E+00  0.00000000000E+00  0.30858868500E+03  0.30858868504E+03  0.50400001928E-02 0.  1.
        1   -1    0    0  501    0  0.00000000000E+00  0.00000000000E+00 -0.12051271592E+04  0.12051271592E+04  0.50400001928E-02 0. -1.
    10030    2    1    2    0    0  0.00000000000E+00  0.00000000000E+00 -0.89653847421E+03  0.15137158443E+04  0.12196534022E+04 0.  0.
        2    1    3    3  502    0 -0.34253733991E+03 -0.26399449939E+03 -0.98189123279E+03  0.10729097436E+04  0.25500000920E-02 0. -1.
       -2    1    3    3    0  502  0.34253733991E+03  0.26399449939E+03  0.85352758582E+02  0.44080610062E+03  0.25500000920E-02 0.  1.
</event>
<event>
 5   0  0.3706035E-03  0.1173789E+04  0.7818609E-02  0.9136113E-01
       -2   -1    0    0    0  501  0.00000000000E+00  0.00000000000E+00  0.37647626489E+03  0.37647626490E+03  0.25500000920E-02 0.  1.
        2   -1    0    0  501    0  0.00000000000E+00  0.00000000000E+00 -0.91491889637E+03  0.91491889637E+03  0.25500000920E-02 0. -1.
    10030    2    1    2    0    0  0.00000000000E+00  0.00000000000E+00 -0.53844263147E+03  0.12913951613E+04  0.11737891613E+04 0.  0.
        2    1    3    3  502    0 -0.35643971418E+03  0.80000393961E+02 -0.77458739055E+03  0.85640817282E+03  0.25500000920E-02 0. -1.
       -2    1    3    3    0  502  0.35643971418E+03 -0.80000393961E+02  0.23614475907E+03  0.43498698845E+03  0.25500000920E-02 0.  1.
</event>
<event>
 5   0  0.3650180E-03  0.1188500E+04  0.7818609E-02  0.9122982E-01
       -2   -1    0    0    0  501  0.00000000000E+00  0.00000000000E+00  0.23795764282E+03  0.23795764284E+03  0.25500000920E-02 0. -1.
        2   -1    0    0  501    0  0.00000000000E+00  0.00000000000E+00 -0.14840171574E+04  0.14840171574E+04  0.25500000920E-02 0.  1.
    10030    2    1    2    0    0  0.00000000000E+00  0.00000000000E+00 -0.12460595146E+04  0.17219748002E+04  0.11885002729E+04 0.  0.
        3    1    3    3  502    0 -0.32166489587E+03  0.40340582173E+03 -0.10502078565E+04  0.11701030358E+04  0.10100000352E+00 0.  1.
       -3    1    3    3    0  502  0.32166489587E+03 -0.40340582173E+03 -0.19585165805E+03  0.55187176445E+03  0.10100000352E+00 0. -1.
</event>
<event>
 5   0  0.3725376E-03  0.1108929E+04  0.7818609E-02  0.9196532E-01
        2   -1    0    0  501    0  0.00000000000E+00  0.00000000000E+00  0.14510770167E+04  0.14510770167E+04  0.25500000920E-02 0.  1.
       -2   -1    0    0    0  501  0.00000000000E+00  0.00000000000E+00 -0.21186399851E+03  0.21186399853E+03  0.25500000920E-02 0. -1.
    10030    2    1    2    0    0  0.00000000000E+00  0.00000000000E+00  0.12392130182E+04  0.16629410153E+04  0.11089291753E+04 0.  0.
        4    1    3    3  502    0 -0.12464298832E+03  0.27250875025E+02 -0.18954917612E+03  0.22849286158E+03  0.12699999809E+01 0. -1.
       -4    1    3    3    0  502  0.12464298832E+03 -0.27250875025E+02  0.14287621943E+04  0.14344481537E+04  0.12699999809E+01 0.  1.
</event>
<event>
 5   0  0.2025294E-03  0.1188000E+04  0.7818609E-02  0.9123425E-01
        1   -1    0    0  501    0  0.00000000000E+00  0.00000000000E+00  0.12557393914E+04  0.12557393914E+04  0.50400001928E-02 0.  1.
       -1   -1    0    0    0  501  0.00000000000E+00  0.00000000000E+00 -0.28097878671E+03  0.28097878676E+03  0.50400001928E-02 0. -1.
    10030    2    1    2    0    0  0.00000000000E+00  0.00000000000E+00  0.97476060472E+03  0.15367181782E+04  0.11880002200E+04 0.  0.
        5    1    3    3  502    0 -0.68292378399E+02  0.58135966511E+03  0.61783578702E+03  0.85110872330E+03  0.46999998093E+01 0.  1.
       -5    1    3    3    0  502  0.68292378399E+02 -0.58135966511E+03  0.35692481771E+03  0.68560945490E+03  0.46999998093E+01 0. -1.
</event>
<event>
 5   0  0.3626049E-03  0.1227134E+04  0.7818609E-02  0.9089432E-01
       -2   -1    0    0    0  501  0.00000000000E+00  0.00000000000E+00  0.74102145172E+03  0.74102145173E+03  0.25500000920E-02 0. -1.
        2   -1    0    0  501    0  0.00000000000E+00  0.00000000000E+00 -0.50803483605E+03  0.50803483606E+03  0.25500000920E-02 0.  1.
    10030    2    1    2    0    0  0.00000000000E+00  0.00000000000E+00  0.23298661567E+03  0.12490562878E+04  0.12271344046E+04 0.  0.
        1    1    3    3  502    0  0.68076800886E+02 -0.38237696953E+03 -0.36698485137E+03  0.53434490622E+03  0.50400001928E-02 0.  1.
       -1    1    3    3    0  502 -0.68076800886E+02  0.38237696953E+03  0.59997146704E+03  0.71471138156E+03  0.50400001928E-02 0. -1.
</event>
<event>
 5   0  0.3751091E-03  0.1171747E+04  0.7818609E-02  0.9137952E-01
       -2   -1    0    0    0  501  0.00000000000E+00  0.00000000000E+00  0.23346325710E+03  0.23346325711E+03  0.25500000920E-02 0. -1.
        2   -1    0    0  501    0  0.00000000000E+00  0.00000000000E+00 -0.14702440642E+04  0.14702440642E+04  0.25500000920E-02 0.  1.
    10030    2    1    2    0    0  0.00000000000E+00  0.00000000000E+00 -0.12367808071E+04  0.17037073213E+04  0.11717473584E+04 0.  0.
        5    1    3    3  502    0 -0.57225199778E+03 -0.12135988337E+03 -0.57183306761E+03  0.81805606010E+03  0.46999998093E+01 0.  1.
       -5    1    3    3    0  502  0.57225199778E+03  0.12135988337E+03 -0.66494773949E+03  0.88565126122E+03  0.46999998093E+01 0. -1.
</event>
<event>
 5   0  0.2134992E-03  0.1183331E+04  0.7818609E-02  0.9127574E-01
       -1   -1    0    0    0  501  0.00000000000E+00  0.00000000000E+00  0.78242963747E+03  0.78242963748E+03  0.50400001928E-02 0.  1.
        1   -1    0    0  501    0  0.00000000000E+00  0.00000000000E+00 -0.44741129209E+03  0.44741129212E+03  0.50400001928E-02 0. -1.
    10030    2    1    2    0    0  0.00000000000E+00  0.00000000000E+00  0.33501834537E+03  0.12298409296E+04  0.11833306471E+04 0.  0.
        4    1    3    3  502    0 -0.16166835649E+03 -0.56306874108E+03  0.81283356183E+02  0.59143187398E+03  0.12699999809E+01 0.  1.
       -4    1    3    3    0  502  0.16166835649E+03  0.56306874108E+03  0.25373498919E+03  0.63840905562E+03  0.12699999809E+01 0. -1.
</event>
<event>
 5   0  0.2096270E-03  0.1198821E+04  0.7818609E-02  0.9113889E-01
        1   -1    0    0  501    0  0.00000000000E+00  0.00000000000E+00  0.36690625835E+03  0.36690625839E+03  0.50400001928E-02 0.  1.
       -1   -1    0    0    0  501  0.00000000000E+00  0.00000000000E+00 -0.97924946291E+03  0.97924946293E+03  0.50400001928E-02 0. -1.
    10030    2    1    2    0    0  0.00000000000E+00  0.00000000000E+00 -0.61234320456E+03  0.13461557213E+04  0.11988206813E+04 0.  0.
        2    1    3    3  502    0  0.22826347348E+03  0.17476971590E+03 -0.89678293070E+03  0.94173684844E+03  0.25500000920E-02 0. -1.
       -2    1    3    3    0  502 -0.22826347348E+03 -0.17476971590E+03  0.28443972614E+03  0.40441887287E+03  0.25500000920E-02 0.  1.
</event>
<event>
 5   0  0.2096270E-03  0.1198784E+04  0.7818609E-02  0.9113921E-01
       -1   -1    0    0    0  501  0.00000000000E+00  0.00000000000E+00  0.57999615147E+03  0.57999615150E+03  0.50400001928E-02 0. -1.
        1   -1    0    0  501    0  0.00000000000E+00  0.00000000000E+00 -0.61943693934E+03  0.61943693936E+03  0.50400001928E-02 0.  1.
    10030    2    1    2    0    0  0.00000000000E+00  0.00000000000E+00 -0.39440787871E+02  0.11994330909E+04  0.11987844526E+04 0.  0.
        2    1    3    3  502    0  0.85476355465E+02 -0.15453341589E+03 -0.59281671452E+03  0.61856159029E+03  0.25500000920E-02 0.  1.
       -2    1    3    3    0  502 -0.85476355465E+02  0.15453341589E+03  0.55337592665E+03  0.58087150057E+03  0.25500000920E-02 0. -1.
</event>
<event>
 5   0  0.2078258E-03  0.1161779E+04  0.7818609E-02  0.9146985E-01
        1   -1    0    0  501    0  0.00000000000E+00  0.00000000000E+00  0.11201802452E+04  0.11201802452E+04  0.50400001928E-02 0. -1.
       -1   -1    0    0    0  501  0.00000000000E+00  0.00000000000E+00 -0.30123070084E+03  0.30123070088E+03  0.50400001928E-02 0.  1.
    10030    2    1    2    0    0  0.00000000000E+00  0.00000000000E+00  0.81894954434E+03  0.14214109461E+04  0.11617791190E+04 0.  0.
        3    1    3    3  502    0  0.23230917166E+03 -0.35630453520E+03 -0.74552890911E+02  0.43183169961E+03  0.10100000352E+00 0.  1.
       -3    1    3    3    0  502 -0.23230917166E+03  0.35630453520E+03  0.89350243525E+03  0.98957924647E+03  0.10100000352E+00 0. -1.
</event>
<event>
 5   0  0.2096270E-03  0.1174633E+04  0.7818609E-02  0.9135355E-01
        1   -1    0    0  501    0  0.00000000000E+00  0.00000000000E+00  0.29705378334E+03  0.29705378339E+03  0.50400001928E-02 0. -1.
       -1   -1    0    0    0  501  0.00000000000E+00  0.00000000000E+00 -0.11612055602E+04  0.11612055602E+04  0.50400001928E-02 0.  1.
    10030    2    1    2    0    0  0.00000000000E+00  0.00000000000E+00 -0.86415177687E+03  0.14582593436E+04  0.11746327170E+04 0.  0.
        2    1    3    3  502    0  0.50691866352E+03 -0.21438224069E+03 -0.68654253740E+03  0.87992439005E+03  0.25500000920E-02 0.  1.
       -2    1    3    3    0  502 -0.50691866352E+03  0.21438224069E+03 -0.17760923948E+03  0.57833495356E+03  0.25500000920E-02 0. -1.
</event>
<event>
 5   0  0.3706035E-03  0.1196640E+04  0.7818609E-02  0.9115802E-01
       -2   -1    0    0    0  501  0.00000000000E+00  0.00000000000E+00  0.46333245634E+03  0.46333245635E+03  0.25500000920E-02 0.  1.
        2   -1    0    0  501    0  0.00000000000E+00  0.00000000000E+00 -0.77263527751E+03  0.77263527752E+03  0.25500000920E-02 0. -1.
    10030    2    1    2    0    0  0.00000000000E+00  0.00000000000E+00 -0.30930282118E+03  0.12359677339E+04  0.11966402985E+04 0.  0.
        2    1    3    3  502    0 -0.12149177022E+03 -0.91429678400E+02 -0.75234682128E+03  0.76755806023E+03  0.25500000920E-02 0. -1.
       -2    1    3    3    0  502  0.12149177022E+03  0.91429678400E+02  0.44304400010E+03  0.46840967364E+03  0.25500000920E-02 0.  1.
</event>
<event>
 5   0  0.3706035E-03  0.1204521E+04  0.7818609E-02  0.9108909E-01
        2   -1    0    0  501    0  0.00000000000E+00  0.00000000000E+00  0.74690020434E+03  0.74690020435E+03  0.25500000920E-02 0.  1.
       -2   -1    0    0    0  501  0.00000000000E+00  0.00000000000E+00 -0.48563064628E+03  0.48563064628E+03  0.25500000920E-02 0. -1.
    10030    2    1    2    0    0  0.00000000000E+00  0.00000000000E+00  0.26126955807E+03  0.12325308506E+04  0.12045208657E+04 0.  0.
        2    1    3    3  502    0  0.23048191429E+03  0.47449235903E+03 -0.16673051846E+03  0.55323049210E+03  0.25500000920E-02 0. -1.
       -2    1    3    3    0  502 -0.23048191429E+03 -0.47449235903E+03  0.42800007653E+03  0.67930035854E+03  0.25500000920E-02 0.  1.
</event>
<event>
 5   0  0.3650180E-03  0.1228085E+04  0.7818609E-02  0.9088623E-01
       -2   -1    0    0    0  501  0.00000000000E+00  0.00000000000E+00  0.35978533383E+03  0.35978533383E+03  0.25500000920E-02 0.  1.
        2   -1    0    0  501    0  0.00000000000E+00  0.00000000000E+00 -0.10479810683E+04  0.10479810683E+04  0.25500000920E-02 0. -1.
    10030    2    1    2    0    0  0.00000000000E+00  0.00000000000E+00 -0.68819573451E+03  0.14077664022E+04  0.12280850435E+04 0.  0.
        3    1    3    3  502    0 -0.18743752505E+03  0.35324760132E+03 -0.87824830031E+03  0.96500610404E+03  0.10100000352E+00 0. -1.
       -3    1    3    3    0  502  0.18743752505E+03 -0.35324760132E+03  0.19005256580E+03  0.44276029813E+03  0.10100000352E+00 0.  1.
</event>
<event>
 5   0  0.2047109E-03  0.1187667E+04  0.7818609E-02  0.9123721E-01
        1   -1    0    0  501    0  0.00000000000E+00  0.00000000000E+00  0.66683687303E+03  0.66683687305E+03  0.50400001928E-02 0. -1.
       -1   -1    0    0    0  501  0.00000000000E+00  0.00000000000E+00 -0.52882239217E+03  0.52882239219E+03  0.50400001928E-02 0.  1.
    10030    2    1    2    0    0  0.00000000000E+00  0.00000000000E+00  0.13801448086E+03  0.11956592652E+04  0.11876670752E+04 0.  0.
        1    1    3    3  502    0  0.47600009313E+03  0.31008885140E+03 -0.10509315839E+03  0.57773329175E+03  0.50400001928E-02 0.  1.
       -1    1    3    3    0  502 -0.47600009313E+03 -0.31008885140E+03  0.24310763924E+03  0.61792597349E+03  0.50400001928E-02 0. -1.
</event>
<event>
 5   0  0.2096270E-03  0.1216459E+04  0.7818609E-02  0.9098571E-01
        1   -1    0    0  501    0  0.00000000000E+00  0.00000000000E+00  0.24261114777E+04  0.24261114777E+04  0.50400001928E-02 0.  1.
       -1   -1    0    0    0  501  0.00000000000E+00  0.00000000000E+00 -0.15248388600E+03  0.15248388609E+03  0.50400001928E-02 0. -1.
    10030    2    1    2    0    0  0.00000000000E+00  0.00000000000E+00  0.22736275917E+04  0.25785953638E+04  0.12164586407E+04 0.  0.
        2    1    3    3  502    0  0.34626218615E+03  0.10358422954E+03  0.99831227054E+02  0.37495795507E+03  0.25500000920E-02 0. -1.
       -2    1    3    3    0  502 -0.34626218615E+03 -0.10358422954E+03  0.21737963647E+04  0.22036374088E+04  0.25500000920E-02 0.  1.
</event>
<event>
 5   0  0.2096270E-03  0.1155250E+04  0.7818609E-02  0.9152954E-01
       -1   -1    0    0    0  501  0.00000000000E+00  0.00000000000E+00  0.10468199056E+04  0.10468199056E+04  0.50400001928E-02 0. -1.
        1   -1    0    0  501    0  0.00000000000E+00  0.00000000000E+00 -0.31872780105E+03  0.31872780109E+03  0.50400001928E-02 0.  1.
    10030    2    1    2    0    0  0.00000000000E+00  0.00000000000E+00  0.72809210455E+03  0.13655477067E+04  0.11552499412E+04 0.  0.
        2    1    3    3  502    0 -0.90371810962E+02 -0.56962666119E+03  0.40159333411E+03  0.70279357094E+03  0.25500000920E-02 0.  1.
       -2    1    3    3    0  502  0.90371810962E+02  0.56962666119E+03  0.32649877044E+03  0.66275413576E+03  0.25500000920E-02 0. -1.
</event>
<event>
 5   0  0.3650180E-03  0.1215610E+04  0.7818609E-02  0.9099302E-01
        2   -1    0    0  501    0  0.00000000000E+00  0.00000000000E+00  0.16780807086E+04  0.16780807086E+04  0.25500000920E-02 0. -1.
       -2   -1    0    0    0  501  0.00000000000E+00  0.00000000000E+00 -0.22014841454E+03  0.22014841456E+03  0.25500000920E-02 0.  1.
    10030    2    1    2    0    0  0.00000000000E+00  0.00000000000E+00  0.14579322941E+04  0.18982291232E+04  0.12156098181E+04 0.  0.
        3    1    3    3  502    0 -0.38962932710E+03 -0.34710614948E+03  0.24229223055E+03  0.57532532252E+03  0.10100000352E+00 0.  1.
       -3    1    3    3    0  502  0.38962932710E+03  0.34710614948E+03  0.12156400635E+04  0.13229038006E+04  0.10100000352E+00 0. -1.
</event>
<event>
 5   0  0.3706035E-03  0.1046465E+04  0.7818609E-02  0.9259001E-01
       -2   -1    0    0    0  501  0.00000000000E+00  0.00000000000E+00  0.11266871744E+03  0.11266871747E+03  0.25500000920E-02 0. -1.
        2   -1    0    0  501    0  0.00000000000E+00  0.00000000000E+00 -0.24298878998E+04  0.24298878998E+04  0.25500000920E-02 0.  1.
    10030    2    1    2    0    0  0.00000000000E+00  0.00000000000E+00 -0.23172191824E+04  0.25425566173E+04  0.10464651991E+04 0.  0.
        2    1    3    3  502    0  0.46938810092E+03 -0.14725837780E+03 -0.72559684546E+03  0.87664188884E+03  0.25500000920E-02 0. -1.
       -2    1    3    3    0  502 -0.46938810092E+03  0.14725837780E+03 -0.15916223369E+04  0.16659147284E+04  0.25500000920E-02 0.  1.
</event>
<event>
 5   0  0.3706035E-03  0.1201042E+04  0.7818609E-02  0.9111945E-01
       -2   -1    0    0    0  501  0.00000000000E+00  0.00000000000E+00  0.38206273990E+03  0.38206273991E+03  0.25500000920E-02 0. -1.
        2   -1    0    0  501    0  0.00000000000E+00  0.00000000000E+00 -0.94389127944E+03  0.94389127945E+03  0.25500000920E-02 0.  1.
    10030    2    1    2    0    0  0.00000000000E+00  0.00000000000E+00 -0.56182853954E+03  0.13259540194E+04  0.12010423613E+04 0.  0.
        2    1    3    3  502    0 -0.18712120214E+02  0.10320478496E+03 -0.93370045412E+03  0.93957325905E+03  0.25500000920E-02 0.  1.
       -2    1    3    3    0  502  0.18712120214E+02 -0.10320478496E+03  0.37187191458E+03  0.38638076031E+03  0.25500000920E-02 0. -1.
</event>
<event>
 5   0  0.2134992E-03  0.1190959E+04  0.7818609E-02  0.9120807E-01
        1   -1    0    0  501    0  0.00000000000E+00  0.00000000000E+00  0.37723732387E+03  0.37723732390E+03  0.50400001928E-02 0.  1.
       -1   -1    0    0    0  501  0.00000000000E+00  0.00000000000E+00 -0.93998048876E+03  0.93998048877E+03  0.50400001928E-02 0. -1.
    10030    2    1    2    0    0  0.00000000000E+00  0.00000000000E+00 -0.56274316489E+03  0.13172178127E+04  0.11909588139E+04 0.  0.
        4    1    3    3  502    0 -0.40369191077E+03 -0.37720149474E+02  0.20098791951E+03  0.45253477787E+03  0.12699999809E+01 0.  1.
       -4    1    3    3    0  502  0.40369191077E+03  0.37720149474E+02 -0.76373108440E+03  0.86468303480E+03  0.12699999809E+01 0. -1.
</event>
<event>
 5   0  0.1397500E-03  0.1185189E+04  0.7818609E-02  0.9125920E-01
       -3   -1    0    0    0  501  0.00000000000E+00  0.00000000000E+00  0.63118270269E+03  0.63118271077E+03  0.10100000352E+00 0. -1.
        3   -1    0    0  501    0  0.00000000000E+00  0.00000000000E+00 -0.55636524085E+03  0.55636525001E+03  0.10100000352E+00 0.  1.
    10030    2    1    2    0    0  0.00000000000E+00  0.00000000000E+00  0.74817461846E+02  0.11875479608E+04  0.11851888063E+04 0.  0.
        2    1    3    3  502    0  0.28712637532E+03 -0.37136661003E+03 -0.32499257520E+03  0.57094210599E+03  0.25500000920E-02 0.  1.
       -2    1    3    3    0  502 -0.28712637532E+03  0.37136661003E+03  0.39981003704E+03  0.61660585480E+03  0.25500000920E-02 0. -1.
</event>
<event>
 5   0  0.3626049E-03  0.1196553E+04  0.7818609E-02  0.9115879E-01
        2   -1    0    0  501    0  0.00000000000E+00  0.00000000000E+00  0.14023287143E+04  0.14023287143E+04  0.25500000920E-02 0.  1.
       -2   -1    0    0    0  501  0.00000000000E+00  0.00000000000E+00 -0.25524328774E+03  0.25524328775E+03  0.25500000920E-02 0. -1.
    10030    2    1    2    0    0  0.00000000000E+00  0.00000000000E+00  0.11470854266E+04  0.16575720021E+04  0.11965533696E+04 0.  0.
        1    1    3    3  502    0 -0.29316850181E+03  0.36600425382E+03  0.10882070732E+04  0.11849478969E+04  0.50400001928E-02 0.  1.
       -1    1    3    3    0  502  0.29316850181E+03 -0.36600425382E+03  0.58878353418E+02  0.47262410518E+03  0.50400001928E-02 0. -1.
</event>
<event>
 5   0  0.3650180E-03  0.1160334E+04  0.7818609E-02  0.9148303E-01
       -2   -1    0    0    0  501  0.00000000000E+00  0.00000000000E+00  0.16446126777E+03  0.16446126779E+03  0.25500000920E-02 0.  1.
        2   -1    0    0  501    0  0.00000000000E+00  0.00000000000E+00 -0.20466441068E+04  0.20466441068E+04  0.25500000920E-02 0. -1.
    10030    2    1    2    0    0  0.00000000000E+00  0.00000000000E+00 -0.18821828390E+04  0.22111053746E+04  0.11603338907E+04 0.  0.
        3    1    3    3  502    0  0.43311100363E+03  0.20451092590E+03 -0.15649570586E+04  0.16366124971E+04  0.10100000352E+00 0. -1.
       -3    1    3    3    0  502 -0.43311100363E+03 -0.20451092590E+03 -0.31722578040E+03  0.57449287744E+03  0.10100000352E+00 0.  1.
</event>
<event>
 5   0  0.2096270E-03  0.1183196E+04  0.7818609E-02  0.9127694E-01
        1   -1    0    0  501    0  0.00000000000E+00  0.00000000000E+00  0.76632273309E+03  0.76632273311E+03  0.50400001928E-02 0.  1.
       -1   -1    0    0    0  501  0.00000000000E+00  0.00000000000E+00 -0.45671110643E+03  0.45671110646E+03  0.50400001928E-02 0. -1.
    10030    2    1    2    0    0  0.00000000000E+00  0.00000000000E+00  0.30961162666E+03  0.12230338396E+04  0.11831958474E+04 0.  0.
        2    1    3    3  502    0  0.20406087660E+03  0.14903454424E+03 -0.39812152369E+03  0.47154308856E+03  0.25500000920E-02 0. -1.
       -2    1    3    3    0  502 -0.20406087660E+03 -0.14903454424E+03  0.70773315035E+03  0.75149075101E+03  0.25500000920E-02 0.  1.
</event>
<event>
 5   0  0.3650180E-03  0.1247571E+04  0.7818609E-02  0.9072208E-01
       -2   -1    0    0    0  501  0.00000000000E+00  0.00000000000E+00  0.57218485227E+03  0.57218485228E+03  0.25500000920E-02 0.  1.
        2   -1    0    0  501    0  0.00000000000E+00  0.00000000000E+00 -0.68003935105E+03  0.68003935105E+03  0.25500000920E-02 0. -1.
    10030    2    1    2    0    0  0.00000000000E+00  0.00000000000E+00 -0.10785449877E+03  0.12522242033E+04  0.12475707846E+04 0.  0.
        3    1    3    3  502    0  0.47112838469E+03 -0.26901386279E+03  0.25508108394E+03  0.59949710826E+03  0.10100000352E+00 0.  1.
       -3    1    3    3    0  502 -0.47112838469E+03  0.26901386279E+03 -0.36293558271E+03  0.65272709506E+03  0.10100000352E+00 0. -1.
</event>
<event>
 5   0  0.3706035E-03  0.1176037E+04  0.7818609E-02  0.9134094E-01
       -2   -1    0    0    0  501  0.00000000000E+00  0.00000000000E+00  0.25909076519E+03  0.25909076521E+03  0.25500000920E-02 0.  1.
        2   -1    0    0  501    0  0.00000000000E+00  0.00000000000E+00 -0.13345341440E+04  0.13345341440E+04  0.25500000920E-02 0. -1.
    10030    2    1    2    0    0  0.00000000000E+00  0.00000000000E+00 -0.10754433788E+04  0.15936249092E+04  0.11760365174E+04 0.  0.
        2    1    3    3  502    0 -0.29818996715E+03  0.18366688712E+03 -0.11777945089E+04  0.12287598167E+04  0.25500000920E-02 0. -1.
       -2    1    3    3    0  502  0.29818996715E+03 -0.18366688712E+03  0.10235113005E+03  0.36486509255E+03  0.25500000920E-02 0.  1.
</event>
<event>
 5   0  0.3751091E-03  0.1121027E+04  0.7818609E-02  0.9184937E-01
        2   -1    0    0  501    0  0.00000000000E+00  0.00000000000E+00  0.12441570963E+04  0.12441570963E+04  0.25500000920E-02 0.  1.
       -2   -1    0    0    0  501  0.00000000000E+00  0.00000000000E+00 -0.25252064042E+03  0.25252064043E+03  0.25500000920E-02 0. -1.
    10030    2    1    2    0    0  0.00000000000E+00  0.00000000000E+00  0.99163645584E+03  0.14966777367E+04  0.11210269341E+04 0.  0.
        5    1    3    3  502    0  0.41907337085E+03 -0.13346967595E+03  0.31948778474E+02  0.44099825283E+03  0.46999998093E+01 0. -1.
       -5    1    3    3    0  502 -0.41907337085E+03  0.13346967595E+03  0.95968767736E+03  0.10556794839E+04  0.46999998093E+01 0.  1.
</event>
<event>
 5   0  0.2025294E-03  0.1253280E+04  0.7818609E-02  0.9067458E-01
        1   -1    0    0  501    0  0.00000000000E+00  0.00000000000E+00  0.13940411135E+04  0.13940411135E+04  0.50400001928E-02 0.  1.
       -1   -1    0    0    0  501  0.00000000000E+00  0.00000000000E+00 -0.28168285477E+03  0.28168285482E+03  0.50400001928E-02 0. -1.
    10030    2    1    2    0    0  0.00000000000E+00  0.00000000000E+00  0.11123582588E+04  0.16757239684E+04  0.12532796664E+04 0.  0.
        5    1    3    3  502    0 -0.16936762382E+03 -0.18687146784E+03 -0.21080223278E+03  0.32873394841E+03  0.46999998093E+01 0. -1.
       -5    1    3    3    0  502  0.16936762382E+03  0.18687146784E+03  0.13231604915E+04  0.13469900200E+04  0.46999998093E+01 0.  1.
</event>
<event>
 5   0  0.2025294E-03  0.1208638E+04  0.7818609E-02  0.9105329E-01
       -1   -1    0    0    0  501  0.00000000000E+00  0.00000000000E+00  0.21484225530E+03  0.21484225536E+03  0.50400001928E-02 0. -1.
        1   -1    0    0  501    0  0.00000000000E+00  0.00000000000E+00 -0.16998577849E+04  0.16998577849E+04  0.50400001928E-02 0.  1.
    10030    2    1    2    0    0  0.00000000000E+00  0.00000000000E+00 -0.14850155296E+04  0.19147000403E+04  0.12086377129E+04 0.  0.
        5    1    3    3  502    0 -0.26874762071E+03 -0.19498388042E+03  0.57362406450E+02  0.33698150236E+03  0.46999998093E+01 0. -1.
       -5    1    3    3    0  502  0.26874762071E+03  0.19498388042E+03 -0.15423779361E+04  0.15777185379E+04  0.46999998093E+01 0.  1.
</event>
<event>
 5   0  0.3626049E-03  0.1304411E+04  0.7818609E-02  0.9026075E-01
        2   -1    0    0  501    0  0.00000000000E+00  0.00000000000E+00  0.10894571348E+04  0.10894571348E+04  0.25500000920E-02 0. -1.
       -2   -1    0    0    0  501  0.00000000000E+00  0.00000000000E+00 -0.39044375747E+03  0.39044375748E+03  0.25500000920E-02 0.  1.
    10030    2    1    2    0    0  0.00000000000E+00  0.00000000000E+00  0.69901337735E+03  0.14799008923E+04  0.13044105754E+04 0.  0.
        1    1    3    3  502    0 -0.38536627507E+03 -0.51676592080E+03  0.23709279775E+03  0.68685309756E+03  0.50400001928E-02 0.  1.
       -1    1    3    3    0  502  0.38536627507E+03  0.51676592080E+03  0.46192057960E+03  0.79304779474E+03  0.50400001928E-02 0. -1.
</event>
<event>
 5   0  0.2096270E-03  0.1203695E+04  0.7818609E-02  0.9109628E-01
       -1   -1    0    0    0  501  0.00000000000E+00  0.00000000000E+00  0.56608479610E+03  0.56608479612E+03  0.50400001928E-02 0. -1.
        1   -1    0    0  501    0  0.00000000000E+00  0.00000000000E+00 -0.63986974780E+03  0.63986974782E+03  0.50400001928E-02 0.  1.
    10030    2    1    2    0    0  0.00000000000E+00  0.00000000000E+00 -0.73784951699E+02  0.12059545439E+04  0.12036952035E+04 0.  0.
        2    1    3    3  502    0 -0.20090798822E+03  0.62880467917E+02  0.52799431935E+03  0.56841531845E+03  0.25500000920E-02 0. -1.
       -2    1    3    3    0  502  0.20090798822E+03 -0.62880467917E+02 -0.60177927105E+03  0.63753922550E+03  0.25500000920E-02 0.  1.
</event>
<event>
 5   0  0.3706035E-03  0.1230539E+04  0.7818609E-02  0.9086538E-01
        2   -1    0    0  501    0  0.00000000000E+00  0.00000000000E+00  0.19064959238E+04  0.19064959238E+04  0.25500000920E-02 0.  1.
       -2   -1    0    0    0  501  0.00000000000E+00  0.00000000000E+00 -0.19856157906E+03  0.19856157908E+03  0.25500000920E-02 0. -1.
    10030    2    1    2    0    0  0.00000000000E+00  0.00000000000E+00  0.17079343447E+04  0.21050575028E+04  0.12305394607E+04 0.  0.
        2    1    3    3  502    0 -0.34448499064E+03 -0.36600107925E+02 -0.15871027247E+02  0.34678720592E+03  0.25500000920E-02 0. -1.
       -2    1    3    3    0  502  0.34448499064E+03  0.36600107925E+02  0.17238053720E+04  0.17582702969E+04  0.25500000920E-02 0.  1.
</event>
<event>
 5   0  0.2047109E-03  0.1206382E+04  0.7818609E-02  0.9107289E-01
        1   -1    0    0  501    0  0.00000000000E+00  0.00000000000E+00  0.87487764085E+03  0.87487764086E+03  0.50400001928E-02 0.  1.
       -1   -1    0    0    0  501  0.00000000000E+00  0.00000000000E+00 -0.41587469305E+03  0.41587469308E+03  0.50400001928E-02 0. -1.
    10030    2    1    2    0    0  0.00000000000E+00  0.00000000000E+00  0.45900294780E+03  0.12907523339E+04  0.12063821457E+04 0.  0.
        1    1    3    3  502    0  0.39367998834E+02 -0.81983834630E+02  0.86749977835E+03  0.87225400769E+03  0.50400001928E-02 0.  1.
       -1    1    3    3    0  502 -0.39367998834E+02  0.81983834630E+02 -0.40849683055E+03  0.41849832625E+03  0.50400001928E-02 0. -1.
</event>
<event>
 5   0  0.3725376E-03  0.1201393E+04  0.7818609E-02  0.9111638E-01
       -2   -1    0    0    0  501  0.00000000000E+00  0.00000000000E+00  0.27729354410E+03  0.27729354411E+03  0.25500000920E-02 0.  1.
        2   -1    0    0  501    0  0.00000000000E+00  0.00000000000E+00 -0.13012787827E+04  0.13012787827E+04  0.25500000920E-02 0. -1.
    10030    2    1    2    0    0  0.00000000000E+00  0.00000000000E+00 -0.10239852386E+04  0.15785723268E+04  0.12013928675E+04 0.  0.
        4    1    3    3  502    0 -0.23432502540E+03 -0.20668047654E+03 -0.11861018312E+04  0.12265660209E+04  0.12699999809E+01 0. -1.
       -4    1    3    3    0  502  0.23432502540E+03  0.20668047654E+03  0.16211659255E+03  0.35200630590E+03  0.12699999809E+01 0.  1.
</event>
<event>
 5   0  0.2134992E-03  0.1230261E+04  0.7818609E-02  0.9086774E-01
        1   -1    0    0  501    0  0.00000000000E+00  0.00000000000E+00  0.11674202331E+04  0.11674202331E+04  0.50400001928E-02 0.  1.
       -1   -1    0    0    0  501  0.00000000000E+00  0.00000000000E+00 -0.32412112046E+03  0.32412112050E+03  0.50400001928E-02 0. -1.
    10030    2    1    2    0    0  0.00000000000E+00  0.00000000000E+00  0.84329911259E+03  0.14915413536E+04  0.12302610358E+04 0.  0.
        4    1    3    3  502    0 -0.34569168729E+03 -0.28674200147E+03 -0.87924626436E+02  0.45766370940E+03  0.12699999809E+01 0. -1.
       -4    1    3    3    0  502  0.34569168729E+03  0.28674200147E+03  0.93122373903E+03  0.10338776442E+04  0.12699999809E+01 0.  1.
</event>
<event>
 5   0  0.1397500E-03  0.1227432E+04  0.7818609E-02  0.9089178E-01
       -4   -1    0    0    0  501  0.00000000000E+00  0.00000000000E+00  0.42371224609E+03  0.42371414938E+03  0.12699999809E+01 0.  1.
        4   -1    0    0  501    0  0.00000000000E+00  0.00000000000E+00 -0.88891856665E+03  0.88891947388E+03  0.12699999809E+01 0. -1.
    10030    2    1    2    0    0  0.00000000000E+00  0.00000000000E+00 -0.46520632056E+03  0.13126336233E+04  0.12274323233E+04 0.  0.
        2    1    3    3  502    0 -0.58620582569E+03 -0.13271169641E+03 -0.99901551222E+02  0.60928645511E+03  0.25500000920E-02 0.  1.
       -2    1    3    3    0  502  0.58620582569E+03  0.13271169641E+03 -0.36530476934E+03  0.70334716815E+03  0.25500000920E-02 0. -1.
</event>
<event>
 5   0  0.2134992E-03  0.1211652E+04  0.7818609E-02  0.9102718E-01
       -1   -1    0    0    0  501  0.00000000000E+00  0.00000000000E+00  0.39016187171E+03  0.39016187174E+03  0.50400001928E-02 0.  1.
        1   -1    0    0  501    0  0.00000000000E+00  0.00000000000E+00 -0.94070014726E+03  0.94070014728E+03  0.50400001928E-02 0. -1.
    10030    2    1    2    0    0  0.00000000000E+00  0.00000000000E+00 -0.55053827555E+03  0.13308620190E+04  0.12116523102E+04 0.  0.
        4    1    3    3  502    0 -0.26350312582E+03  0.43718171196E+03 -0.63365615354E+03  0.81368512362E+03  0.12699999809E+01 0. -1.
       -4    1    3    3    0  502  0.26350312582E+03 -0.43718171196E+03  0.83117877984E+02  0.51717689540E+03  0.12699999809E+01 0.  1.
</event>
<event>
 5   0  0.2025294E-03  0.1209115E+04  0.7818609E-02  0.9104915E-01
        1   -1    0    0  501    0  0.00000000000E+00  0.00000000000E+00  0.99078539312E+03  0.99078539313E+03  0.50400001928E-02 0.  1.
       -1   -1    0    0    0  501  0.00000000000E+00  0.00000000000E+00 -0.36888917193E+03  0.36888917197E+03  0.50400001928E-02 0. -1.
    10030    2    1    2    0    0  0.00000000000E+00  0.00000000000E+00  0.62189622119E+03  0.13596745651E+04  0.12091153845E+04 0.  0.
        5    1    3    3  502    0 -0.48585441240E+03 -0.24744628190E+03  0.60458298772E+03  0.81414178833E+03  0.46999998093E+01 0.  1.
       -5    1    3    3    0  502  0.48585441240E+03  0.24744628190E+03  0.17313233469E+02  0.54553277676E+03  0.46999998093E+01 0. -1.
</event>
<event>
 5   0  0.3626049E-03  0.1195252E+04  0.7818609E-02  0.9117023E-01
       -2   -1    0    0    0  501  0.00000000000E+00  0.00000000000E+00  0.56206767922E+03  0.56206767923E+03  0.25500000920E-02 0. -1.
        2   -1    0    0  501    0  0.00000000000E+00  0.00000000000E+00 -0.63543345406E+03  0.63543345406E+03  0.25500000920E-02 0.  1.
    10030    2    1    2    0    0  0.00000000000E+00  0.00000000000E+00 -0.73365774836E+02  0.11975011333E+04  0.11952516167E+04 0.  0.
        1    1    3    3  502    0 -0.22834850489E+03  0.35679758407E+03 -0.45903178728E+03  0.62462607810E+03  0.50400001928E-02 0.  1.
       -1    1    3    3    0  502  0.22834850489E+03 -0.35679758407E+03  0.38566601245E+03  0.57287505519E+03  0.50400001928E-02 0. -1.
</event>
<event>
 5   0  0.2078258E-03  0.1184592E+04  0.7818609E-02  0.9126451E-01
        1   -1    0    0  501    0  0.00000000000E+00  0.00000000000E+00  0.10173063178E+04  0.10173063179E+04  0.50400001928E-02 0. -1.
       -1   -1    0    0    0  501  0.00000000000E+00  0.00000000000E+00 -0.34484659312E+03  0.34484659316E+03  0.50400001928E-02 0.  1.
    10030    2    1    2    0    0  0.00000000000E+00  0.00000000000E+00  0.67245972472E+03  0.13621529110E+04  0.11845921119E+04 0.  0.
        3    1    3    3  502    0 -0.15194444192E+03  0.11943726333E+03 -0.30756816100E+03  0.36324999266E+03  0.10100000352E+00 0.  1.
       -3    1    3    3    0  502  0.15194444192E+03 -0.11943726333E+03  0.98002788573E+03  0.99890291836E+03  0.10100000352E+00 0. -1.
</event>
<event>
 5   0  0.3626049E-03  0.9797697E+03  0.7818609E-02  0.9331016E-01
       -2   -1    0    0    0  501  0.00000000000E+00  0.00000000000E+00  0.77529768407E+03  0.77529768407E+03  0.25500000920E-02 0. -1.
        2   -1    0    0  501    0  0.00000000000E+00  0.00000000000E+00 -0.30954195007E+03  0.30954195009E+03  0.25500000920E-02 0.  1.
    10030    2    1    2    0    0  0.00000000000E+00  0.00000000000E+00  0.46575573399E+03  0.10848396342E+04  0.97976968114E+03 0.  0.
        1    1    3    3  502    0  0.27798201433E+03  0.17502986788E+03  0.63527631736E+03  0.71518211272E+03  0.50400001928E-02 0.  1.
       -1    1    3    3    0  502 -0.27798201433E+03 -0.17502986788E+03 -0.16952058337E+03  0.36965752143E+03  0.50400001928E-02 0. -1.
</event>
<event>
 5   0  0.2078258E-03  0.1093013E+04  0.7818609E-02  0.9212028E-01
       -1   -1    0    0    0  501  0.00000000000E+00  0.00000000000E+00  0.36006944698E+03  0.36006944702E+03  0.50400001928E-02 0.  1.
        1   -1    0    0  501    0  0.00000000000E+00  0.00000000000E+00 -0.82947744436E+03  0.82947744437E+03  0.50400001928E-02 0. -1.
    10030    2    1    2    0    0  0.00000000000E+00  0.00000000000E+00 -0.46940799737E+03  0.11895468914E+04  0.10930132382E+04 0.  0.
        3    1    3    3  502    0 -0.17345132895E+03  0.12445511611E+03  0.31281344133E+03  0.37871717511E+03  0.10100000352E+00 0.  1.
       -3    1    3    3    0  502  0.17345132895E+03 -0.12445511611E+03 -0.78222143871E+03  0.81082971629E+03  0.10100000352E+00 0. -1.
</event>
<event>
 5   0  0.2025294E-03  0.1209398E+04  0.7818609E-02  0.9104670E-01
       -1   -1    0    0    0  501  0.00000000000E+00  0.00000000000E+00  0.84984360316E+03  0.84984360317E+03  0.50400001928E-02 0. -1.
        1   -1    0    0  501    0  0.00000000000E+00  0.00000000000E+00 -0.43026862171E+03  0.43026862174E+03  0.50400001928E-02 0.  1.
    10030    2    1    2    0    0  0.00000000000E+00  0.00000000000E+00  0.41957498144E+03  0.12801122249E+04  0.12093982567E+04 0.  0.
        5    1    3    3  502    0  0.77690568308E+02 -0.43539931153E+03 -0.22667025036E+03  0.49700088257E+03  0.46999998093E+01 0.  1.
       -5    1    3    3    0  502 -0.77690568308E+02  0.43539931153E+03  0.64624523180E+03  0.78311134234E+03  0.46999998093E+01 0. -1.
</event>
<event>
 5   0  0.3725376E-03  0.1199535E+04  0.7818609E-02  0.9113263E-01
       -2   -1    0    0    0  501  0.00000000000E+00  0.00000000000E+00  0.25969191198E+03  0.25969191200E+03  0.25500000920E-02 0. -1.
        2   -1    0    0  501    0  0.00000000000E+00  0.00000000000E+00 -0.13851849855E+04  0.13851849855E+04  0.25500000920E-02 0.  1.
    10030    2    1    2    0    0  0.00000000000E+00  0.00000000000E+00 -0.11254930736E+04  0.16448768975E+04  0.11995354724E+04 0.  0.
        4    1    3    3  502    0  0.48608050522E+03 -0.34410100654E+03 -0.66009610540E+03  0.88904906587E+03  0.12699999809E+01 0. -1.
       -4    1    3    3    0  502 -0.48608050522E+03  0.34410100654E+03 -0.46539696816E+03  0.75582783167E+03  0.12699999809E+01 0.  1.
</event>
<event>
 5   0  0.3706035E-03  0.1189762E+04  0.7818609E-02  0.9121865E-01
        2   -1    0    0  501    0  0.00000000000E+00  0.00000000000E+00  0.60890737348E+03  0.60890737348E+03  0.25500000920E-02 0.  1.
       -2   -1    0    0    0  501  0.00000000000E+00  0.00000000000E+00 -0.58117757113E+03  0.58117757114E+03  0.25500000920E-02 0. -1.
    10030    2    1    2    0    0  0.00000000000E+00  0.00000000000E+00  0.27729802346E+02  0.11900849446E+04  0.11897618390E+04 0.  0.
        2    1    3    3  502    0  0.41168764933E+02  0.20068254130E+03  0.57251004465E+03  0.60805929055E+03  0.25500000920E-02 0.  1.
       -2    1    3    3    0  502 -0.41168764933E+02 -0.20068254130E+03 -0.54478024231E+03  0.58202565407E+03  0.25500000920E-02 0. -1.
</event>
<event>
 5   0  0.2134992E-03  0.1121678E+04  0.7818609E-02  0.9184317E-01
       -1   -1    0    0    0  501  0.00000000000E+00  0.00000000000E+00  0.95982970844E+03  0.95982970845E+03  0.50400001928E-02 0.  1.
        1   -1    0    0  501    0  0.00000000000E+00  0.00000000000E+00 -0.32770413416E+03  0.32770413420E+03  0.50400001928E-02 0. -1.
    10030    2    1    2    0    0  0.00000000000E+00  0.00000000000E+00  0.63212557428E+03  0.12875338427E+04  0.11216776071E+04 0.  0.
        4    1    3    3  502    0  0.36461440163E+03 -0.11144007966E+03  0.78819102504E+03  0.87556225255E+03  0.12699999809E+01 0.  1.
       -4    1    3    3    0  502 -0.36461440163E+03  0.11144007966E+03 -0.15606545076E+03  0.41197159010E+03  0.12699999809E+01 0. -1.
</event>
<event>
 5   0  0.3751091E-03  0.1159432E+04  0.7818609E-02  0.9149126E-01
        2   -1    0    0  501    0  0.00000000000E+00  0.00000000000E+00  0.64231569197E+03  0.64231569198E+03  0.25500000920E-02 0.  1.
       -2   -1    0    0    0  501  0.00000000000E+00  0.00000000000E+00 -0.52321689903E+03  0.52321689904E+03  0.25500000920E-02 0. -1.
    10030    2    1    2    0    0  0.00000000000E+00  0.00000000000E+00  0.11909879294E+03  0.11655325910E+04  0.11594316272E+04 0.  0.
        5    1    3    3  502    0 -0.42862205736E+03 -0.39020832401E+03  0.51203276370E+02  0.58191345550E+03  0.46999998093E+01 0. -1.
       -5    1    3    3    0  502  0.42862205736E+03  0.39020832401E+03  0.67895516574E+02  0.58361913552E+03  0.46999998093E+01 0.  1.
</event>
<event>
 5   0  0.2047109E-03  0.1195255E+04  0.7818609E-02  0.9117020E-01
        1   -1    0    0  501    0  0.00000000000E+00  0.00000000000E+00  0.43421117245E+03  0.43421117248E+03  0.50400001928E-02 0.  1.
       -1   -1    0    0    0  501  0.00000000000E+00  0.00000000000E+00 -0.82254594311E+03  0.82254594313E+03  0.50400001928E-02 0. -1.
    10030    2    1    2    0    0  0.00000000000E+00  0.00000000000E+00 -0.38833477066E+03  0.12567571156E+04  0.11952550161E+04 0.  0.
        1    1    3    3  502    0  0.20697293862E+03 -0.19202843088E+03  0.35966704531E+03  0.45724511926E+03  0.50400001928E-02 0.  1.
       -1    1    3    3    0  502 -0.20697293862E+03  0.19202843088E+03 -0.74800181597E+03  0.79951199634E+03  0.50400001928E-02 0. -1.
</event>
<event>
 5   0  0.3725376E-03  0.1211792E+04  0.7818609E-02  0.9102597E-01
        2   -1    0    0  501    0  0.00000000000E+00  0.00000000000E+00  0.72589673193E+03  0.72589673193E+03  0.25500000920E-02 0. -1.
       -2   -1    0    0    0  501  0.00000000000E+00  0.00000000000E+00 -0.50573343652E+03  0.50573343653E+03  0.25500000920E-02 0.  1.
    10030    2    1    2    0    0  0.00000000000E+00  0.00000000000E+00  0.22016329540E+03  0.12316301685E+04  0.12117924720E+04 0.  0.
        4    1    3    3  502    0 -0.15886309027E+03 -0.32141892253E+03 -0.38634126603E+03  0.52707569850E+03  0.12699999809E+01 0.  1.
       -4    1    3    3    0  502  0.15886309027E+03  0.32141892253E+03  0.60650456144E+03  0.70455446997E+03  0.12699999809E+01 0. -1.
</event>
<event>
 5   0  0.2096270E-03  0.1096826E+04  0.7818609E-02  0.9208291E-01
        1   -1    0    0  501    0  0.00000000000E+00  0.00000000000E+00  0.26121233032E+04  0.26121233032E+04  0.50400001928E-02 0.  1.
       -1   -1    0    0    0  501  0.00000000000E+00  0.00000000000E+00 -0.11513892548E+03  0.11513892559E+03  0.50400001928E-02 0. -1.
    10030    2    1    2    0    0  0.00000000000E+00  0.00000000000E+00  0.24969843777E+04  0.27272622288E+04  0.10968264594E+04 0.  0.
        2    1    3    3  502    0  0.30446283593E+03  0.22882372204E+03  0.22296347347E+04  0.22619303624E+04  0.25500000920E-02 0.  1.
       -2    1    3    3    0  502 -0.30446283593E+03 -0.22882372204E+03  0.26734964301E+03  0.46533186636E+03  0.25500000920E-02 0. -1.
</event>
<event>
 5   0  0.2096270E-03  0.1158047E+04  0.7818609E-02  0.9150391E-01
       -1   -1    0    0    0  501  0.00000000000E+00  0.00000000000E+00  0.46025961769E+03  0.46025961772E+03  0.50400001928E-02 0.  1.
        1   -1    0    0  501    0  0.00000000000E+00  0.00000000000E+00 -0.72843332448E+03  0.72843332449E+03  0.50400001928E-02 0. -1.
    10030    2    1    2    0    0  0.00000000000E+00  0.00000000000E+00 -0.26817370679E+03  0.11886929422E+04  0.11580473971E+04 0.  0.
        2    1    3    3  502    0  0.44435602678E+03 -0.36067510912E+03 -0.22433176390E+03  0.61470607055E+03  0.25500000920E-02 0.  1.
       -2    1    3    3    0  502 -0.44435602678E+03  0.36067510912E+03 -0.43841942889E+02  0.57398687166E+03  0.25500000920E-02 0. -1.
</event>
<event>
 5   0  0.3706035E-03  0.1191600E+04  0.7818609E-02  0.9120241E-01
       -2   -1    0    0    0  501  0.00000000000E+00  0.00000000000E+00  0.31009591644E+03  0.31009591645E+03  0.25500000920E-02 0. -1.
        2   -1    0    0  501    0  0.00000000000E+00  0.00000000000E+00 -0.11447355325E+04  0.11447355325E+04  0.25500000920E-02 0.  1.
    10030    2    1    2    0    0  0.00000000000E+00  0.00000000000E+00 -0.83463961603E+03  0.14548314489E+04  0.11916002921E+04 0.  0.
        2    1    3    3  502    0  0.38536475922E+03 -0.27709932925E+03  0.22355022079E+02  0.47517342407E+03  0.25500000920E-02 0. -1.
       -2    1    3    3    0  502 -0.38536475922E+03  0.27709932925E+03 -0.85699463811E+03  0.97965802487E+03  0.25500000920E-02 0.  1.
</event>
<event>
 5   0  0.2025294E-03  0.1205831E+04  0.7818609E-02  0.9107768E-01
        1   -1    0    0  501    0  0.00000000000E+00  0.00000000000E+00  0.10042541995E+04  0.10042541995E+04  0.50400001928E-02 0. -1.
       -1   -1    0    0    0  501  0.00000000000E+00  0.00000000000E+00 -0.36196696042E+03  0.36196696045E+03  0.50400001928E-02 0.  1.
    10030    2    1    2    0    0  0.00000000000E+00  0.00000000000E+00  0.64228723905E+03  0.13662211599E+04  0.12058305687E+04 0.  0.
        5    1    3    3  502    0 -0.57392402837E+03  0.27229888282E+02  0.52806810761E+03  0.78038982146E+03  0.46999998093E+01 0. -1.
       -5    1    3    3    0  502  0.57392402837E+03 -0.27229888282E+02  0.11421913144E+03  0.58583133848E+03  0.46999998093E+01 0.  1.
</event>
<event>
 5   0  0.2134992E-03  0.1208315E+04  0.7818609E-02  0.9105609E-01
        1   -1    0    0  501    0  0.00000000000E+00  0.00000000000E+00  0.48814158340E+03  0.48814158343E+03  0.50400001928E-02 0.  1.
       -1   -1    0    0    0  501  0.00000000000E+00  0.00000000000E+00 -0.74774675861E+03  0.74774675863E+03  0.50400001928E-02 0. -1.
    10030    2    1    2    0    0  0.00000000000E+00  0.00000000000E+00 -0.25960517521E+03  0.12358883421E+04  0.12083150032E+04 0.  0.
        4    1    3    3  502    0 -0.38112039662E+03 -0.26894279395E+03  0.26291446662E+03  0.53545178381E+03  0.12699999809E+01 0.  1.
       -4    1    3    3    0  502  0.38112039662E+03  0.26894279395E+03 -0.52251964183E+03  0.70043655825E+03  0.12699999809E+01 0. -1.
</event>
<event>
 5   0  0.2025294E-03  0.1185492E+04  0.7818609E-02  0.9125651E-01
       -1   -1    0    0    0  501  0.00000000000E+00  0.00000000000E+00  0.10904542375E+04  0.10904542376E+04  0.50400001928E-02 0.  1.
        1   -1    0    0  501    0  0.00000000000E+00  0.00000000000E+00 -0.32220320483E+03  0.32220320487E+03  0.50400001928E-02 0. -1.
    10030    2    1    2    0    0  0.00000000000E+00  0.00000000000E+00  0.76825103271E+03  0.14126574424E+04  0.11854920499E+04 0.  0.
        5    1    3    3  502    0 -0.15256842500E+03 -0.84812544931E+02 -0.29085764455E+03  0.33924998375E+03  0.46999998093E+01 0. -1.
       -5    1    3    3    0  502  0.15256842500E+03  0.84812544931E+02  0.10591086773E+04  0.10734074587E+04  0.46999998093E+01 0.  1.
</event>
<event>
 5   0  0.3706035E-03  0.1210581E+04  0.7818609E-02  0.9103645E-01
        2   -1    0    0  501    0  0.00000000000E+00  0.00000000000E+00  0.44921311507E+03  0.44921311508E+03  0.25500000920E-02 0.  1.
       -2   -1    0    0    0  501  0.00000000000E+00  0.00000000000E+00 -0.81559611618E+03  0.81559611619E+03  0.25500000920E-02 0. -1.
    10030    2    1    2    0    0  0.00000000000E+00  0.00000000000E+00 -0.36638300111E+03  0.12648092313E+04  0.12105808061E+04 0.  0.
        2    1    3    3  502    0 -0.15723981960E+03  0.58420622509E+03 -0.16350056699E+03  0.62670065400E+03  0.25500000920E-02 0.  1.
       -2    1    3    3    0  502  0.15723981960E+03 -0.58420622509E+03 -0.20288243412E+03  0.63810857727E+03  0.25500000920E-02 0. -1.
</event>
<event>
 5   0  0.3706035E-03  0.1186138E+04  0.7818609E-02  0.9125077E-01
       -2   -1    0    0    0  501  0.00000000000E+00  0.00000000000E+00  0.91943165380E+03  0.91943165381E+03  0.25500000920E-02 0.  1.
        2   -1    0    0  501    0  0.00000000000E+00  0.00000000000E+00 -0.38255246151E+03  0.38255246152E+03  0.25500000920E-02 0. -1.
    10030    2    1    2    0    0  0.00000000000E+00  0.00000000000E+00  0.53687919229E+03  0.13019841153E+04  0.11861380061E+04 0.  0.
        2    1    3    3  502    0 -0.31862086469E+03  0.39906459644E+03 -0.62610246373E+02  0.51448211874E+03  0.25500000920E-02 0. -1.
       -2    1    3    3    0  502  0.31862086469E+03 -0.39906459644E+03  0.59948943867E+03  0.78750199658E+03  0.25500000920E-02 0.  1.
</event>
<event>
 5   0  0.2047109E-03  0.8998115E+03  0.7818609E-02  0.9425817E-01
        1   -1    0    0  501    0  0.00000000000E+00  0.00000000000E+00  0.15611743757E+04  0.15611743757E+04  0.50400001928E-02 0.  1.
       -1   -1    0    0    0  501  0.00000000000E+00  0.00000000000E+00 -0.12965571324E+03  0.12965571334E+03  0.50400001928E-02 0. -1.
    10030    2    1    2    0    0  0.00000000000E+00  0.00000000000E+00  0.14315186625E+04  0.16908300891E+04  0.89981148530E+03 0.  0.
        1    1    3    3  502    0  0.33311850644E+03 -0.11225715206E+03  0.12433985678E+04  0.12921337415E+04  0.50400001928E-02 0.  1.
       -1    1    3    3    0  502 -0.33311850644E+03  0.11225715206E+03  0.18812009470E+03  0.39869634758E+03  0.50400001928E-02 0. -1.
</event>
<event>
 5   0  0.3650180E-03  0.1192401E+04  0.7818609E-02  0.9119534E-01
        2   -1    0    0  501    0  0.00000000000E+00  0.00000000000E+00  0.70338962633E+03  0.70338962633E+03  0.25500000920E-02 0. -1.
       -2   -1    0    0    0  501  0.00000000000E+00  0.00000000000E+00 -0.50534613016E+03  0.50534613017E+03  0.25500000920E-02 0.  1.
    10030    2    1    2    0    0  0.00000000000E+00  0.00000000000E+00  0.19804349617E+03  0.12087357565E+04  0.11924013178E+04 0.  0.
        3    1    3    3  502    0 -0.92216382884E+02 -0.46798326816E+03 -0.26356941244E+03  0.54495967367E+03  0.10100000352E+00 0.  1.
       -3    1    3    3    0  502  0.92216382884E+02  0.46798326816E+03  0.46161290861E+03  0.66377608283E+03  0.10100000352E+00 0. -1.
</event>
<event>
 5   0  0.3650180E-03  0.1183888E+04  0.7818609E-02  0.9127077E-01
       -2   -1    0    0    0  501  0.00000000000E+00  0.00000000000E+00  0.45260749328E+03  0.45260749329E+03  0.25500000920E-02 0.  1.
        2   -1    0    0  501    0  0.00000000000E+00  0.00000000000E+00 -0.77417587710E+03  0.77417587711E+03  0.25500000920E-02 0. -1.
    10030    2    1    2    0    0  0.00000000000E+00  0.00000000000E+00 -0.32156838382E+03  0.12267833704E+04  0.11838881756E+04 0.  0.
        3    1    3    3  502    0 -0.14182892660E+03  0.33637596610E+03  0.32207518727E+03  0.48682303915E+03  0.10100000352E+00 0.  1.
       -3    1    3    3    0  502  0.14182892660E+03 -0.33637596610E+03 -0.64364357110E+03  0.73996033124E+03  0.10100000352E+00 0. -1.
</event>
<event>
 5   0  0.3725376E-03  0.1191371E+04  0.7818609E-02  0.9120443E-01
       -2   -1    0    0    0  501  0.00000000000E+00  0.00000000000E+00  0.26210121963E+03  0.26210121964E+03  0.25500000920E-02 0. -1.
        2   -1    0    0  501    0  0.00000000000E+00  0.00000000000E+00 -0.13538324312E+04  0.13538324312E+04  0.25500000920E-02 0.  1.
    10030    2    1    2    0    0  0.00000000000E+00  0.00000000000E+00 -0.10917312116E+04  0.16159336508E+04  0.11913708598E+04 0.  0.
        4    1    3    3  502    0 -0.14558961847E+02 -0.28364158558E+03 -0.12560816557E+04  0.12877916179E+04  0.12699999809E+01 0.  1.
       -4    1    3    3    0  502  0.14558961847E+02  0.28364158558E+03  0.16435044409E+03  0.32814203299E+03  0.12699999809E+01 0. -1.
</event>
<event>
 5   0  0.2134992E-03  0.1194069E+04  0.7818609E-02  0.9118064E-01
        1   -1    0    0  501    0  0.00000000000E+00  0.00000000000E+00  0.25395406727E+03  0.25395406732E+03  0.50400001928E-02 0.  1.
       -1   -1    0    0    0  501  0.00000000000E+00  0.00000000000E+00 -0.14036010814E+04  0.14036010814E+04  0.50400001928E-02 0. -1.
    10030    2    1    2    0    0  0.00000000000E+00  0.00000000000E+00 -0.11496470142E+04  0.16575551488E+04  0.11940690156E+04 0.  0.
        4    1    3    3  502    0 -0.51459064522E+03 -0.11265155715E+03 -0.96487999907E+03  0.10993129359E+04  0.12699999809E+01 0.  1.
       -4    1    3    3    0  502  0.51459064522E+03  0.11265155715E+03 -0.18476701509E+03  0.55824221288E+03  0.12699999809E+01 0. -1.
</event>
<event>
 5   0  0.2134992E-03  0.1206073E+04  0.7818609E-02  0.9107557E-01
        1   -1    0    0  501    0  0.00000000000E+00  0.00000000000E+00  0.91346166136E+03  0.91346166137E+03  0.50400001928E-02 0.  1.
       -1   -1    0    0    0  501  0.00000000000E+00  0.00000000000E+00 -0.39810439446E+03  0.39810439449E+03  0.50400001928E-02 0. -1.
    10030    2    1    2    0    0  0.00000000000E+00  0.00000000000E+00  0.51535726689E+03  0.13115660559E+04  0.12060731347E+04 0.  0.
        4    1    3    3  502    0  0.49106488492E+03  0.64708280213E+00  0.63830233001E+03  0.80534254657E+03  0.12699999809E+01 0.  1.
       -4    1    3    3    0  502 -0.49106488492E+03 -0.64708280213E+00 -0.12294506312E+03  0.50622350929E+03  0.12699999809E+01 0. -1.
</event>
<event>
 5   0  0.3751091E-03  0.1261437E+04  0.7818609E-02  0.9060718E-01
       -2   -1    0    0    0  501  0.00000000000E+00  0.00000000000E+00  0.32801750288E+03  0.32801750289E+03  0.25500000920E-02 0.  1.
        2   -1    0    0  501    0  0.00000000000E+00  0.00000000000E+00 -0.12127572711E+04  0.12127572711E+04  0.25500000920E-02 0. -1.
    10030    2    1    2    0    0  0.00000000000E+00  0.00000000000E+00 -0.88473976826E+03  0.15407747740E+04  0.12614366598E+04 0.  0.
        5    1    3    3  502    0  0.49007973914E+02  0.30997285939E+03 -0.11105999770E+04  0.11540967698E+04  0.46999998093E+01 0. -1.
       -5    1    3    3    0  502 -0.49007973914E+02 -0.30997285939E+03  0.22586020877E+03  0.38667800425E+03  0.46999998093E+01 0.  1.
</event>
<event>
 5   0  0.2134992E-03  0.1201454E+04  0.7818609E-02  0.9111585E-01
       -1   -1    0    0    0  501  0.00000000000E+00  0.00000000000E+00  0.24889617956E+03  0.24889617961E+03  0.50400001928E-02 0. -1.
        1   -1    0    0  501    0  0.00000000000E+00  0.00000000000E+00 -0.14498931815E+04  0.14498931815E+04  0.50400001928E-02 0.  1.
    10030    2    1    2    0    0  0.00000000000E+00  0.00000000000E+00 -0.12009970020E+04  0.16987893611E+04  0.12014539087E+04 0.  0.
        4    1    3    3  502    0  0.54749102466E+03  0.20111068634E+03 -0.80382812406E+03  0.99314308947E+03  0.12699999809E+01 0.  1.
       -4    1    3    3    0  502 -0.54749102466E+03 -0.20111068634E+03 -0.39716887789E+03  0.70564627166E+03  0.12699999809E+01 0. -1.
</event>
<event>
 5   0  0.3650180E-03  0.1238352E+04  0.7818609E-02  0.9079934E-01
        2   -1    0    0  501    0  0.00000000000E+00  0.00000000000E+00  0.89820502007E+03  0.89820502007E+03  0.25500000920E-02 0. -1.
       -2   -1    0    0    0  501  0.00000000000E+00  0.00000000000E+00 -0.42682812573E+03  0.42682812574E+03  0.25500000920E-02 0.  1.
    10030    2    1    2    0    0  0.00000000000E+00  0.00000000000E+00  0.47137689433E+03  0.13250331458E+04  0.12383523977E+04 0.  0.
        3    1    3    3  502    0 -0.58099378200E+03  0.11757576437E+03  0.44277646917E+02  0.59442270759E+03  0.10100000352E+00 0. -1.
       -3    1    3    3    0  502  0.58099378200E+03 -0.11757576437E+03  0.42709924742E+03  0.73061043822E+03  0.10100000352E+00 0.  1.
</event>
<event>
 5   0  0.3751091E-03  0.1205549E+04  0.7818609E-02  0.9108013E-01
        2   -1    0    0  501    0  0.00000000000E+00  0.00000000000E+00  0.86982016669E+03  0.86982016670E+03  0.25500000920E-02 0.  1.
       -2   -1    0    0    0  501  0.00000000000E+00  0.00000000000E+00 -0.41771511397E+03  0.41771511398E+03  0.25500000920E-02 0. -1.
    10030    2    1    2    0    0  0.00000000000E+00  0.00000000000E+00  0.45210505272E+03  0.12875352807E+04  0.12055488876E+04 0.  0.
        5    1    3    3  502    0 -0.91900076545E+02  0.75493475514E+02  0.85714471531E+03  0.86536930954E+03  0.46999998093E+01 0.  1.
       -5    1    3    3    0  502  0.91900076545E+02 -0.75493475514E+02 -0.40503966259E+03  0.42216597113E+03  0.46999998093E+01 0. -1.
</event>
<event>
 5   0  0.2134992E-03  0.1197683E+04  0.7818609E-02  0.9114887E-01
        1   -1    0    0  501    0  0.00000000000E+00  0.00000000000E+00  0.13481028852E+04  0.13481028852E+04  0.50400001928E-02 0.  1.
       -1   -1    0    0    0  501  0.00000000000E+00  0.00000000000E+00 -0.26601162753E+03  0.26601162758E+03  0.50400001928E-02 0. -1.
    10030    2    1    2    0    0  0.00000000000E+00  0.00000000000E+00  0.10820912577E+04  0.16141145128E+04  0.11976828338E+04 0.  0.
        4    1    3    3  502    0  0.56458708183E+02 -0.59115198592E+03  0.64509953774E+03  0.87681428061E+03  0.12699999809E+01 0. -1.
       -4    1    3    3    0  502 -0.56458708183E+02  0.59115198592E+03  0.43699171991E+03  0.73730023217E+03  0.12699999809E+01 0.  1.
</event>
<event>
 5   0  0.2078258E-03  0.1062804E+04  0.7818609E-02  0.9242223E-01
        1   -1    0    0  501    0  0.00000000000E+00  0.00000000000E+00  0.93680290110E+03  0.93680290111E+03  0.50400001928E-02 0. -1.
       -1   -1    0    0    0  501  0.00000000000E+00  0.00000000000E+00 -0.30143826948E+03  0.30143826952E+03  0.50400001928E-02 0.  1.
    10030    2    1    2    0    0  0.00000000000E+00  0.00000000000E+00  0.63536463162E+03  0.12382411706E+04  0.10628043007E+04 0.  0.
        3    1    3    3  502    0 -0.14875977151E+03  0.51002881763E+03  0.30443066494E+03  0.61232091617E+03  0.10100000352E+00 0.  1.
       -3    1    3    3    0  502  0.14875977151E+03 -0.51002881763E+03  0.33093396668E+03  0.62592025445E+03  0.10100000352E+00 0. -1.
</event>
<event>
 5   0  0.2134992E-03  0.1175198E+04  0.7818609E-02  0.9134847E-01
       -1   -1    0    0    0  501  0.00000000000E+00  0.00000000000E+00  0.29351335822E+03  0.29351335827E+03  0.50400001928E-02 0.  1.
        1   -1    0    0  501    0  0.00000000000E+00  0.00000000000E+00 -0.11763441267E+04  0.11763441268E+04  0.50400001928E-02 0. -1.
    10030    2    1    2    0    0  0.00000000000E+00  0.00000000000E+00 -0.88283076852E+03  0.14698574850E+04  0.11751982218E+04 0.  0.
        4    1    3    3  502    0  0.55114850800E+03 -0.20267076697E+03 -0.41544998790E+03  0.71933331842E+03  0.12699999809E+01 0.  1.
       -4    1    3    3    0  502 -0.55114850800E+03  0.20267076697E+03 -0.46738078062E+03  0.75052416659E+03  0.12699999809E+01 0. -1.
</event>
<event>
 5   0  0.3751091E-03  0.9526292E+03  0.7818609E-02  0.9362083E-01
        2   -1    0    0  501    0  0.00000000000E+00  0.00000000000E+00  0.58867541944E+03  0.58867541944E+03  0.25500000920E-02 0. -1.
       -2   -1    0    0    0  501  0.00000000000E+00  0.00000000000E+00 -0.38540018025E+03  0.38540018026E+03  0.25500000920E-02 0.  1.
    10030    2    1    2    0    0  0.00000000000E+00  0.00000000000E+00  0.20327523919E+03  0.97407559970E+03  0.95262923064E+03 0.  0.
        5    1    3    3  502    0  0.19056859511E+03  0.43590167925E+03  0.12510778261E+03  0.49193567739E+03  0.46999998093E+01 0.  1.
       -5    1    3    3    0  502 -0.19056859511E+03 -0.43590167925E+03  0.78167456577E+02  0.48213992231E+03  0.46999998093E+01 0. -1.
</event>
<event>
 5   0  0.2134992E-03  0.1199543E+04  0.7818609E-02  0.9113256E-01
        1   -1    0    0  501    0  0.00000000000E+00  0.00000000000E+00  0.88480035202E+03  0.88480035203E+03  0.50400001928E-02 0. -1.
       -1   -1    0    0    0  501  0.00000000000E+00  0.00000000000E+00 -0.40656192863E+03  0.40656192866E+03  0.50400001928E-02 0.  1.
    10030    2    1    2    0    0  0.00000000000E+00  0.00000000000E+00  0.47823842339E+03  0.12913622807E+04  0.11995434758E+04 0.  0.
        4    1    3    3  502    0 -0.17979284415E+03 -0.16435831923E+03 -0.35090728429E+03  0.42717286779E+03  0.12699999809E+01 0.  1.
       -4    1    3    3    0  502  0.17979284415E+03  0.16435831923E+03  0.82914570768E+03  0.86418941290E+03  0.12699999809E+01 0. -1.
</event>
<event>
 5   0  0.1397500E-03  0.1183823E+04  0.7818609E-02  0.9127136E-01
       -3   -1    0    0    0  501  0.00000000000E+00  0.00000000000E+00  0.32760778032E+03  0.32760779589E+03  0.10100000352E+00 0.  1.
        3   -1    0    0  501    0  0.00000000000E+00  0.00000000000E+00 -0.10694464362E+04  0.10694464409E+04  0.10100000352E+00 0. -1.
    10030    2    1    2    0    0  0.00000000000E+00  0.00000000000E+00 -0.74183865584E+03  0.13970542368E+04  0.11838226004E+04 0.  0.
        3    1    3    3  502    0  0.32776776583E+03  0.47493080039E+03 -0.52644482239E+03  0.78111147392E+03  0.10100000352E+00 0.  1.
       -3    1    3    3    0  502 -0.32776776583E+03 -0.47493080039E+03 -0.21539383345E+03  0.61594276289E+03  0.10100000352E+00 0. -1.
</event>
<event>
 5   0  0.2096270E-03  0.1215510E+04  0.7818609E-02  0.9099388E-01
       -1   -1    0    0    0  501  0.00000000000E+00  0.00000000000E+00  0.31387638582E+03  0.31387638586E+03  0.50400001928E-02 0. -1.
        1   -1    0    0  501    0  0.00000000000E+00  0.00000000000E+00 -0.11767893310E+04  0.11767893310E+04  0.50400001928E-02 0.  1.
    10030    2    1    2    0    0  0.00000000000E+00  0.00000000000E+00 -0.86291294521E+03  0.14906657169E+04  0.12155103984E+04 0.  0.
        2    1    3    3  502    0  0.23089332992E+03 -0.43813674262E+03  0.55119950238E+00  0.49525330778E+03  0.25500000920E-02 0. -1.
       -2    1    3    3    0  502 -0.23089332992E+03  0.43813674262E+03 -0.86346414471E+03  0.99541240913E+03  0.25500000920E-02 0.  1.
</event>
<event>
 5   0  0.2025294E-03  0.1193372E+04  0.7818609E-02  0.9118678E-01
       -1   -1    0    0    0  501  0.00000000000E+00  0.00000000000E+00  0.42070315583E+03  0.42070315586E+03  0.50400001928E-02 0.  1.
        1   -1    0    0  501    0  0.00000000000E+00  0.00000000000E+00 -0.84628316174E+03  0.84628316175E+03  0.50400001928E-02 0. -1.
    10030    2    1    2    0    0  0.00000000000E+00  0.00000000000E+00 -0.42558000591E+03  0.12669863176E+04  0.11933716888E+04 0.  0.
        5    1    3    3  502    0  0.29263529396E+03 -0.99060855253E+02 -0.75473215649E+03  0.81553122954E+03  0.46999998093E+01 0. -1.
       -5    1    3    3    0  502 -0.29263529396E+03  0.99060855253E+02  0.32915215058E+03  0.45145508807E+03  0.46999998093E+01 0.  1.
</event>
<event>
 5   0  0.3706035E-03  0.1194763E+04  0.7818609E-02  0.9117453E-01
        2   -1    0    0  501    0  0.00000000000E+00  0.00000000000E+00  0.58229347514E+03  0.58229347515E+03  0.25500000920E-02 0. -1.
       -2   -1    0    0    0  501  0.00000000000E+00  0.00000000000E+00 -0.61286047200E+03  0.61286047200E+03  0.25500000920E-02 0.  1.
    10030    2    1    2    0    0  0.00000000000E+00  0.00000000000E+00 -0.30566996852E+02  0.11951539472E+04  0.11947629958E+04 0.  0.
        2    1    3    3  502    0  0.59382719908E+03  0.20720028371E+02 -0.76985057265E+02  0.59915503920E+03  0.25500000920E-02 0.  1.
       -2    1    3    3    0  502 -0.59382719908E+03 -0.20720028371E+02  0.46418060413E+02  0.59599890796E+03  0.25500000920E-02 0. -1.
</event>
<event>
 5   0  0.3725376E-03  0.1189583E+04  0.7818609E-02  0.9122023E-01
       -2   -1    0    0    0  501  0.00000000000E+00  0.00000000000E+00  0.14897196020E+03  0.14897196022E+03  0.25500000920E-02 0.  1.
        2   -1    0    0  501    0  0.00000000000E+00  0.00000000000E+00 -0.23747903382E+04  0.23747903382E+04  0.25500000920E-02 0. -1.
    10030    2    1    2    0    0  0.00000000000E+00  0.00000000000E+00 -0.22258183780E+04  0.25237622985E+04  0.11895834091E+04 0.  0.
        4    1    3    3  502    0 -0.22694143799E+03  0.28991580034E+03 -0.12184271015E+03  0.38781547994E+03  0.12699999809E+01 0.  1.
       -4    1    3    3    0  502  0.22694143799E+03 -0.28991580034E+03 -0.21039756679E+04  0.21359468185E+04  0.12699999809E+01 0. -1.
</event>
<event>
 5   0  0.3650180E-03  0.9328511E+03  0.7818609E-02  0.9385423E-01
       -2   -1    0    0    0  501  0.00000000000E+00  0.00000000000E+00  0.47692270894E+03  0.47692270895E+03  0.25500000920E-02 0.  1.
        2   -1    0    0  501    0  0.00000000000E+00  0.00000000000E+00 -0.45615946940E+03  0.45615946941E+03  0.25500000920E-02 0. -1.
    10030    2    1    2    0    0  0.00000000000E+00  0.00000000000E+00  0.20763239543E+02  0.93308217836E+03  0.93285113467E+03 0.  0.
        3    1    3    3  502    0 -0.38676901127E+03  0.12919696495E+01 -0.25037598980E+03  0.46073862844E+03  0.10100000352E+00 0. -1.
       -3    1    3    3    0  502  0.38676901127E+03 -0.12919696495E+01  0.27113922934E+03  0.47234354992E+03  0.10100000352E+00 0.  1.
</event>
<event>
 5   0  0.2047109E-03  0.1216093E+04  0.7818609E-02  0.9098886E-01
       -1   -1    0    0    0  501  0.00000000000E+00  0.00000000000E+00  0.24033821726E+03  0.24033821732E+03  0.50400001928E-02 0. -1.
        1   -1    0    0  501    0  0.00000000000E+00  0.00000000000E+00 -0.15383334192E+04  0.15383334192E+04  0.50400001928E-02 0.  1.
    10030    2    1    2    0    0  0.00000000000E+00  0.00000000000E+00 -0.12979952019E+04  0.17786716365E+04  0.12160926142E+04 0.  0.
        1    1    3    3  502    0  0.19841010552E+03  0.57056853707E+03 -0.75038611379E+03  0.96332463129E+03  0.50400001928E-02 0. -1.
       -1    1    3    3    0  502 -0.19841010552E+03 -0.57056853707E+03 -0.54760908811E+03  0.81534700519E+03  0.50400001928E-02 0.  1.
</event>
<event>
 5   0  0.2078258E-03  0.1175145E+04  0.7818609E-02  0.9134895E-01
        1   -1    0    0  501    0  0.00000000000E+00  0.00000000000E+00  0.15275638293E+04  0.15275638293E+04  0.50400001928E-02 0. -1.
       -1   -1    0    0    0  501  0.00000000000E+00  0.00000000000E+00 -0.22600782350E+03  0.22600782356E+03  0.50400001928E-02 0.  1.
    10030    2    1    2    0    0  0.00000000000E+00  0.00000000000E+00  0.13015560058E+04  0.17535716529E+04  0.11751448870E+04 0.  0.
        3    1    3    3  502    0  0.18788249654E+03 -0.25935425946E+03 -0.84321826323E+02  0.33117162469E+03  0.10100000352E+00 0.  1.
       -3    1    3    3    0  502 -0.18788249654E+03  0.25935425946E+03  0.13858778322E+04  0.14224000282E+04  0.10100000352E+00 0. -1.
</event>
<event>
 5   0  0.2025294E-03  0.1156663E+04  0.7818609E-02  0.9151658E-01
       -1   -1    0    0    0  501  0.00000000000E+00  0.00000000000E+00  0.23422272541E+03  0.23422272546E+03  0.50400001928E-02 0.  1.
        1   -1    0    0  501    0  0.00000000000E+00  0.00000000000E+00 -0.14279887698E+04  0.14279887699E+04  0.50400001928E-02 0. -1.
    10030    2    1    2    0    0  0.00000000000E+00  0.00000000000E+00 -0.11937660444E+04  0.16622114953E+04  0.11566631689E+04 0.  0.
        5    1    3    3  502    0  0.27984911995E+03 -0.21351821432E+03  0.62513193899E+02  0.35754097275E+03  0.46999998093E+01 0.  1.
       -5    1    3    3    0  502 -0.27984911995E+03  0.21351821432E+03 -0.12562792383E+04  0.13046705226E+04  0.46999998093E+01 0. -1.
</event>
<event>
 5   0  0.2025294E-03  0.1141793E+04  0.7818609E-02  0.9165389E-01
        1   -1    0    0  501    0  0.00000000000E+00  0.00000000000E+00  0.84992403488E+03  0.84992403490E+03  0.50400001928E-02 0.  1.
       -1   -1    0    0    0  501  0.00000000000E+00  0.00000000000E+00 -0.38347258013E+03  0.38347258016E+03  0.50400001928E-02 0. -1.
    10030    2    1    2    0    0  0.00000000000E+00  0.00000000000E+00  0.46645145476E+03  0.12333966151E+04  0.11417925601E+04 0.  0.
        5    1    3    3  502    0 -0.56692757568E+03  0.40793433417E+02  0.29068628067E+03  0.63842899687E+03  0.46999998093E+01 0. -1.
       -5    1    3    3    0  502  0.56692757568E+03 -0.40793433417E+02  0.17576517409E+03  0.59496761819E+03  0.46999998093E+01 0.  1.
</event>
<event>
 5   0  0.3706035E-03  0.1169965E+04  0.7818609E-02  0.9139560E-01
       -2   -1    0    0    0  501  0.00000000000E+00  0.00000000000E+00  0.10460518139E+04  0.10460518139E+04  0.25500000920E-02 0.  1.
        2   -1    0    0  501    0  0.00000000000E+00  0.00000000000E+00 -0.32713901504E+03  0.32713901505E+03  0.25500000920E-02 0. -1.
    10030    2    1    2    0    0  0.00000000000E+00  0.00000000000E+00  0.71891279887E+03  0.13731908290E+04  0.11699647176E+04 0.  0.
        2    1    3    3  502    0  0.53285903942E+03  0.14892327473E+03  0.58242119759E+03  0.80332518263E+03  0.25500000920E-02 0.  1.
       -2    1    3    3    0  502 -0.53285903942E+03 -0.14892327473E+03  0.13649160128E+03  0.56986564633E+03  0.25500000920E-02 0. -1.
</event>
<event>
 5   0  0.3706035E-03  0.1194057E+04  0.7818609E-02  0.9118074E-01
       -2   -1    0    0    0  501  0.00000000000E+00  0.00000000000E+00  0.13839466684E+04  0.13839466684E+04  0.25500000920E-02 0. -1.
        2   -1    0    0  501    0  0.00000000000E+00  0.00000000000E+00 -0.25755543408E+03  0.25755543409E+03  0.25500000920E-02 0.  1.
    10030    2    1    2    0    0  0.00000000000E+00  0.00000000000E+00  0.11263912343E+04  0.16415021025E+04  0.11940569248E+04 0.  0.
        2    1    3    3  502    0  0.38882294100E+03  0.32445106779E+03  0.99790330804E+03  0.11190454803E+04  0.25500000920E-02 0.  1.
       -2    1    3    3    0  502 -0.38882294100E+03 -0.32445106779E+03  0.12848792628E+03  0.52245662216E+03  0.25500000920E-02 0. -1.
</event>
<event>
 5   0  0.2078258E-03  0.1177349E+04  0.7818609E-02  0.9132917E-01
        1   -1    0    0  501    0  0.00000000000E+00  0.00000000000E+00  0.53710941598E+03  0.53710941601E+03  0.50400001928E-02 0. -1.
       -1   -1    0    0    0  501  0.00000000000E+00  0.00000000000E+00 -0.64519011076E+03  0.64519011078E+03  0.50400001928E-02 0.  1.
    10030    2    1    2    0    0  0.00000000000E+00  0.00000000000E+00 -0.10808069478E+03  0.11822995268E+04  0.11773490283E+04 0.  0.
        3    1    3    3  502    0 -0.46236133734E+02  0.43881614916E+03  0.33726500186E+03  0.55537832557E+03  0.10100000352E+00 0. -1.
       -3    1    3    3    0  502  0.46236133734E+02 -0.43881614916E+03 -0.44534569664E+03  0.62692120122E+03  0.10100000352E+00 0.  1.
</event>
<event>
 5   0  0.2047109E-03  0.1201719E+04  0.7818609E-02  0.9111353E-01
        1   -1    0    0  501    0  0.00000000000E+00  0.00000000000E+00  0.79498564589E+03  0.79498564590E+03  0.50400001928E-02 0. -1.
       -1   -1    0    0    0  501  0.00000000000E+00  0.00000000000E+00 -0.45413674502E+03  0.45413674505E+03  0.50400001928E-02 0.  1.
    10030    2    1    2    0    0  0.00000000000E+00  0.00000000000E+00  0.34084890087E+03  0.12491223909E+04  0.12017190913E+04 0.  0.
        1    1    3    3  502    0  0.38279561578E+02  0.58504766693E+03  0.33761593690E+02  0.58726990613E+03  0.50400001928E-02 0.  1.
       -1    1    3    3    0  502 -0.38279561578E+02 -0.58504766693E+03  0.30708730718E+03  0.66185248482E+03  0.50400001928E-02 0. -1.
</event>
<event>
 5   0  0.3626049E-03  0.1220535E+04  0.7818609E-02  0.9095070E-01
       -2   -1    0    0    0  501  0.00000000000E+00  0.00000000000E+00  0.45331513815E+03  0.45331513815E+03  0.25500000920E-02 0. -1.
        2   -1    0    0  501    0  0.00000000000E+00  0.00000000000E+00 -0.82156149626E+03  0.82156149626E+03  0.25500000920E-02 0.  1.
    10030    2    1    2    0    0  0.00000000000E+00  0.00000000000E+00 -0.36824635811E+03  0.12748766344E+04  0.12205347405E+04 0.  0.
        1    1    3    3  502    0  0.72913143503E+02 -0.53428401896E+01  0.44872451266E+03  0.45464113400E+03  0.50400001928E-02 0. -1.
       -1    1    3    3    0  502 -0.72913143503E+02  0.53428401896E+01 -0.81697087077E+03  0.82023550042E+03  0.50400001928E-02 0.  1.
</event>
<event>
 5   0  0.3751091E-03  0.1203922E+04  0.7818609E-02  0.9109430E-01
        2   -1    0    0  501    0  0.00000000000E+00  0.00000000000E+00  0.24595850215E+04  0.24595850215E+04  0.25500000920E-02 0. -1.
       -2   -1    0    0    0  501  0.00000000000E+00  0.00000000000E+00 -0.14732453086E+03  0.14732453089E+03  0.25500000920E-02 0.  1.
    10030    2    1    2    0    0  0.00000000000E+00  0.00000000000E+00  0.23122604906E+04  0.26069095524E+04  0.12039222723E+04 0.  0.
        5    1    3    3  502    0 -0.32209260095E+03 -0.14931148674E+03  0.22087151302E+04  0.22370699989E+04  0.46999998093E+01 0. -1.
       -5    1    3    3    0  502  0.32209260095E+03  0.14931148674E+03  0.10354536045E+03  0.36983955349E+03  0.46999998093E+01 0.  1.
</event>
<event>
 5   0  0.2096270E-03  0.1208476E+04  0.7818609E-02  0.9105470E-01
       -1   -1    0    0    0  501  0.00000000000E+00  0.00000000000E+00  0.55182574420E+03  0.55182574422E+03  0.50400001928E-02 0.  1.
        1   -1    0    0  501    0  0.00000000000E+00  0.00000000000E+00 -0.66162846631E+03  0.66162846633E+03  0.50400001928E-02 0. -1.
    10030    2    1    2    0    0  0.00000000000E+00  0.00000000000E+00 -0.10980272211E+03  0.12134542105E+04  0.12084760996E+04 0.  0.
        2    1    3    3  502    0 -0.60005085748E+03  0.66542360064E+02 -0.79796708880E+02  0.60897982889E+03  0.25500000920E-02 0.  1.
       -2    1    3    3    0  502  0.60005085748E+03 -0.66542360064E+02 -0.30006013229E+02  0.60447438166E+03  0.25500000920E-02 0. -1.
</event>
<event>
 5   0  0.2096270E-03  0.1220796E+04  0.7818609E-02  0.9094846E-01
        1   -1    0    0  501    0  0.00000000000E+00  0.00000000000E+00  0.17572017832E+04  0.17572017832E+04  0.50400001928E-02 0.  1.
       -1   -1    0    0    0  501  0.00000000000E+00  0.00000000000E+00 -0.21203353438E+03  0.21203353444E+03  0.50400001928E-02 0. -1.
    10030    2    1    2    0    0  0.00000000000E+00  0.00000000000E+00  0.15451682488E+04  0.19692353177E+04  0.12207959777E+04 0.  0.
        2    1    3    3  502    0 -0.37346237103E+03  0.47255743278E+03  0.93227882147E+03  0.11099227319E+04  0.25500000920E-02 0.  1.
       -2    1    3    3    0  502  0.37346237103E+03 -0.47255743278E+03  0.61288942737E+03  0.85931258575E+03  0.25500000920E-02 0. -1.
</event>
<event>
 5   0  0.2078258E-03  0.1205573E+04  0.7818609E-02  0.9107992E-01
        1   -1    0    0  501    0  0.00000000000E+00  0.00000000000E+00  0.90542867165E+03  0.90542867167E+03  0.50400001928E-02 0. -1.
       -1   -1    0    0    0  501  0.00000000000E+00  0.00000000000E+00 -0.40130336779E+03  0.40130336782E+03  0.50400001928E-02 0.  1.
    10030    2    1    2    0    0  0.00000000000E+00  0.00000000000E+00  0.50412530386E+03  0.13067320395E+04  0.12055730177E+04 0.  0.
        3    1    3    3  502    0  0.55368450242E+03  0.17904678052E+03  0.81618832738E+02  0.58761034869E+03  0.10100000352E+00 0.  1.
       -3    1    3    3    0  502 -0.55368450242E+03 -0.17904678052E+03  0.42250647112E+03  0.71912169080E+03  0.10100000352E+00 0. -1.
</event>
<event>
 5   0  0.3650180E-03  0.1110805E+04  0.7818609E-02  0.9194724E-01
        2   -1    0    0  501    0  0.00000000000E+00  0.00000000000E+00  0.14918675995E+04  0.14918675995E+04  0.25500000920E-02 0. -1.
       -2   -1    0    0    0  501  0.00000000000E+00  0.00000000000E+00 -0.20676898254E+03  0.20676898256E+03  0.25500000920E-02 0.  1.
    10030    2    1    2    0    0  0.00000000000E+00  0.00000000000E+00  0.12850986170E+04  0.16986365821E+04  0.11108050156E+04 0.  0.
        3    1    3    3  502    0  0.38915557141E+03  0.38656450912E+03  0.50925692311E+03  0.74847632054E+03  0.10100000352E+00 0. -1.
       -3    1    3    3    0  502 -0.38915557141E+03 -0.38656450912E+03  0.77584169389E+03  0.95016026156E+03  0.10100000352E+00 0.  1.
</event>
<event>
 5   0  0.2025294E-03  0.1209159E+04  0.7818609E-02  0.9104877E-01
       -1   -1    0    0    0  501  0.00000000000E+00  0.00000000000E+00  0.54658089778E+03  0.54658089781E+03  0.50400001928E-02 0. -1.
        1   -1    0    0  501    0  0.00000000000E+00  0.00000000000E+00 -0.66873249927E+03  0.66873249929E+03  0.50400001928E-02 0.  1.
    10030    2    1    2    0    0  0.00000000000E+00  0.00000000000E+00 -0.12215160149E+03  0.12153133971E+04  0.12091590629E+04 0.  0.
        5    1    3    3  502    0  0.41274767771E+03  0.87593929206E+02 -0.49624714462E+03  0.65139593215E+03  0.46999998093E+01 0.  1.
       -5    1    3    3    0  502 -0.41274767771E+03 -0.87593929206E+02  0.37409554313E+03  0.56391746495E+03  0.46999998093E+01 0. -1.
</event>
<event>
 5   0  0.2096270E-03  0.1196894E+04  0.7818609E-02  0.9115579E-01
       -1   -1    0    0    0  501  0.00000000000E+00  0.00000000000E+00  0.26885519636E+03  0.26885519641E+03  0.50400001928E-02 0. -1.
        1   -1    0    0  501    0  0.00000000000E+00  0.00000000000E+00 -0.13320885942E+04  0.13320885942E+04  0.50400001928E-02 0.  1.
    10030    2    1    2    0    0  0.00000000000E+00  0.00000000000E+00 -0.10632333979E+04  0.16009437907E+04  0.11968942152E+04 0.  0.
        2    1    3    3  502    0 -0.99172909486E+02 -0.58613678743E+03 -0.62377734974E+03  0.86167846765E+03  0.25500000920E-02 0.  1.
       -2    1    3    3    0  502  0.99172909486E+02  0.58613678743E+03 -0.43945604812E+03  0.73926532300E+03  0.25500000920E-02 0. -1.
</event>
<event>
 5   0  0.3650180E-03  0.1202992E+04  0.7818609E-02  0.9110242E-01
       -2   -1    0    0    0  501  0.00000000000E+00  0.00000000000E+00  0.49664692363E+03  0.49664692364E+03  0.25500000920E-02 0. -1.
        2   -1    0    0  501    0  0.00000000000E+00  0.00000000000E+00 -0.72847963913E+03  0.72847963913E+03  0.25500000920E-02 0.  1.
    10030    2    1    2    0    0  0.00000000000E+00  0.00000000000E+00 -0.23183271550E+03  0.12251265628E+04  0.12029915573E+04 0.  0.
        3    1    3    3  502    0  0.93160471592E+02  0.29499464835E+03 -0.64125326551E+03  0.71197364891E+03  0.10100000352E+00 0.  1.
       -3    1    3    3    0  502 -0.93160471592E+02 -0.29499464835E+03  0.40942055002E+03  0.51315291385E+03  0.10100000352E+00 0. -1.
</event>
<event>
 5   0  0.3751091E-03  0.1201292E+04  0.7818609E-02  0.9111727E-01
        2   -1    0    0  501    0  0.00000000000E+00  0.00000000000E+00  0.61796048744E+03  0.61796048744E+03  0.25500000920E-02 0.  1.
       -2   -1    0    0    0  501  0.00000000000E+00  0.00000000000E+00 -0.58381645691E+03  0.58381645691E+03  0.25500000920E-02 0. -1.
    10030    2    1    2    0    0  0.00000000000E+00  0.00000000000E+00  0.34144030530E+02  0.12017769444E+04  0.12012918085E+04 0.  0.
        5    1    3    3  502    0 -0.43917769416E+03 -0.14985033821E+03  0.39856738933E+03  0.61172724701E+03  0.46999998093E+01 0.  1.
       -5    1    3    3    0  502  0.43917769416E+03  0.14985033821E+03 -0.36442335880E+03  0.59004969735E+03  0.46999998093E+01 0. -1.
</event>
<event>
 5   0  0.3751091E-03  0.1158788E+04  0.7818609E-02  0.9149715E-01
       -2   -1    0    0    0  501  0.00000000000E+00  0.00000000000E+00  0.17907340694E+03  0.17907340696E+03  0.25500000920E-02 0. -1.
        2   -1    0    0  501    0  0.00000000000E+00  0.00000000000E+00 -0.18746341623E+04  0.18746341623E+04  0.25500000920E-02 0.  1.
    10030    2    1    2    0    0  0.00000000000E+00  0.00000000000E+00 -0.16955607554E+04  0.20537075693E+04  0.11587875150E+04 0.  0.
        5    1    3    3  502    0 -0.54622240225E+02 -0.38286931618E+03 -0.16123392624E+04  0.16580809659E+04  0.46999998093E+01 0.  1.
       -5    1    3    3    0  502  0.54622240225E+02  0.38286931618E+03 -0.83221492960E+02  0.39562660336E+03  0.46999998093E+01 0. -1.
</event>
<event>
 5   0  0.3751091E-03  0.1226721E+04  0.7818609E-02  0.9089784E-01
       -2   -1    0    0    0  501  0.00000000000E+00  0.00000000000E+00  0.57982081569E+03  0.57982081570E+03  0.25500000920E-02 0.  1.
        2   -1    0    0  501    0  0.00000000000E+00  0.00000000000E+00 -0.64883986467E+03  0.64883986468E+03  0.25500000920E-02 0. -1.
    10030    2    1    2    0    0  0.00000000000E+00  0.00000000000E+00 -0.69019048978E+02  0.12286606804E+04  0.12267206032E+04 0.  0.
        5    1    3    3  502    0 -0.24964996671E+03  0.31424419804E+03 -0.49904714258E+03  0.64042537613E+03  0.46999998093E+01 0. -1.
       -5    1    3    3    0  502  0.24964996671E+03 -0.31424419804E+03  0.43002809360E+03  0.58823530425E+03  0.46999998093E+01 0.  1.
</event>
<event>
 5   0  0.3706035E-03  0.1181136E+04  0.7818609E-02  0.9129530E-01
       -2   -1    0    0    0  501  0.00000000000E+00  0.00000000000E+00  0.19296030214E+03  0.19296030216E+03  0.25500000920E-02 0.  1.
        2   -1    0    0  501    0  0.00000000000E+00  0.00000000000E+00 -0.18074744995E+04  0.18074744995E+04  0.25500000920E-02 0. -1.
    10030    2    1    2    0    0  0.00000000000E+00  0.00000000000E+00 -0.16145141973E+04  0.20004348016E+04  0.11811364452E+04 0.  0.
        2    1    3    3  502    0  0.45287160217E+03  0.98029850770E+02 -0.18712050503E+03  0.49971654276E+03  0.25500000920E-02 0.  1.
       -2    1    3    3    0  502 -0.45287160217E+03 -0.98029850770E+02 -0.14273936923E+04  0.15007182589E+04  0.25500000920E-02 0. -1.
</event>
<event>
 5   0  0.3725376E-03  0.1196036E+04  0.7818609E-02  0.9116333E-01
        2   -1    0    0  501    0  0.00000000000E+00  0.00000000000E+00  0.76160320115E+03  0.76160320116E+03  0.25500000920E-02 0. -1.
       -2   -1    0    0    0  501  0.00000000000E+00  0.00000000000E+00 -0.46956932581E+03  0.46956932582E+03  0.25500000920E-02 0.  1.
    10030    2    1    2    0    0  0.00000000000E+00  0.00000000000E+00  0.29203387534E+03  0.12311725270E+04  0.11960359555E+04 0.  0.
        4    1    3    3  502    0 -0.51100677249E+02 -0.58882021334E+03  0.23981670688E+03  0.63783554985E+03  0.12699999809E+01 0.  1.
       -4    1    3    3    0  502  0.51100677249E+02  0.58882021334E+03  0.52217168458E+02  0.59333697713E+03  0.12699999809E+01 0. -1.
</event>
<event>
 5   0  0.3650180E-03  0.1202152E+04  0.7818609E-02  0.9110975E-01
        2   -1    0    0  501    0  0.00000000000E+00  0.00000000000E+00  0.14073582912E+04  0.14073582912E+04  0.25500000920E-02 0.  1.
       -2   -1    0    0    0  501  0.00000000000E+00  0.00000000000E+00 -0.25671650555E+03  0.25671650556E+03  0.25500000920E-02 0. -1.
    10030    2    1    2    0    0  0.00000000000E+00  0.00000000000E+00  0.11506417857E+04  0.16640747968E+04  0.12021515755E+04 0.  0.
        3    1    3    3  502    0 -0.15039578921E+03  0.14835989219E-02 -0.23025048664E+03  0.27501670897E+03  0.10100000352E+00 0. -1.
       -3    1    3    3    0  502  0.15039578921E+03 -0.14835989219E-02  0.13808922723E+04  0.13890580878E+04  0.10100000352E+00 0.  1.
</event>
<event>
 5   0  0.3751091E-03  0.1213867E+04  0.7818609E-02  0.9100805E-01
       -2   -1    0    0    0  501  0.00000000000E+00  0.00000000000E+00  0.28118836680E+03  0.28118836681E+03  0.25500000920E-02 0. -1.
        2   -1    0    0  501    0  0.00000000000E+00  0.00000000000E+00 -0.13100400612E+04  0.13100400612E+04  0.25500000920E-02 0.  1.
    10030    2    1    2    0    0  0.00000000000E+00  0.00000000000E+00 -0.10288516944E+04  0.15912284281E+04  0.12138665911E+04 0.  0.
        5    1    3    3  502    0  0.47509715747E+03 -0.19420276964E+03 -0.89827687117E+02  0.52107881183E+03  0.46999998093E+01 0.  1.
       -5    1    3    3    0  502 -0.47509715747E+03  0.19420276964E+03 -0.93902400733E+03  0.10701496162E+04  0.46999998093E+01 0. -1.
</event>
<event>
 5   0  0.3626049E-03  0.1212023E+04  0.7818609E-02  0.9102398E-01
       -2   -1    0    0    0  501  0.00000000000E+00  0.00000000000E+00  0.11099459290E+04  0.11099459290E+04  0.25500000920E-02 0. -1.
        2   -1    0    0  501    0  0.00000000000E+00  0.00000000000E+00 -0.33087169238E+03  0.33087169239E+03  0.25500000920E-02 0.  1.
    10030    2    1    2    0    0  0.00000000000E+00  0.00000000000E+00  0.77907423665E+03  0.14408176214E+04  0.12120225872E+04 0.  0.
        1    1    3    3  502    0 -0.24865534229E+03 -0.14026983043E+03 -0.24592153963E+03  0.37680566378E+03  0.50400001928E-02 0.  1.
       -1    1    3    3    0  502  0.24865534229E+03  0.14026983043E+03  0.10249957763E+04  0.10640119576E+04  0.50400001928E-02 0. -1.
</event>
<event>
 5   0  0.1397500E-03  0.1206460E+04  0.7818609E-02  0.9107221E-01
       -3   -1    0    0    0  501  0.00000000000E+00  0.00000000000E+00  0.10988294272E+04  0.10988294319E+04  0.10100000352E+00 0. -1.
        3   -1    0    0  501    0  0.00000000000E+00  0.00000000000E+00 -0.33115813585E+03  0.33115815125E+03  0.10100000352E+00 0.  1.
    10030    2    1    2    0    0  0.00000000000E+00  0.00000000000E+00  0.76767129137E+03  0.14299875831E+04  0.12064598113E+04 0.  0.
        4    1    3    3  502    0 -0.60219055323E+03  0.35361143227E+02  0.38275365146E+03  0.71441293623E+03  0.12699999809E+01 0. -1.
       -4    1    3    3    0  502  0.60219055323E+03 -0.35361143227E+02  0.38491763992E+03  0.71557464689E+03  0.12699999809E+01 0.  1.
</event>
<event>
 5   0  0.3626049E-03  0.1094623E+04  0.7818609E-02  0.9210449E-01
        2   -1    0    0  501    0  0.00000000000E+00  0.00000000000E+00  0.10385045772E+04  0.10385045772E+04  0.25500000920E-02 0.  1.
       -2   -1    0    0    0  501  0.00000000000E+00  0.00000000000E+00 -0.28844332836E+03  0.28844332837E+03  0.25500000920E-02 0. -1.
    10030    2    1    2    0    0  0.00000000000E+00  0.00000000000E+00  0.75006124886E+03  0.13269479056E+04  0.10946227054E+04 0.  0.
        1    1    3    3  502    0 -0.27986019217E+03 -0.45928491575E+03  0.49797228647E+03  0.73296709279E+03  0.50400001928E-02 0.  1.
       -1    1    3    3    0  502  0.27986019217E+03  0.45928491575E+03  0.25208896239E+03  0.59398081281E+03  0.50400001928E-02 0. -1.
</event>
<event>
 5   0  0.2096270E-03  0.1230776E+04  0.7818609E-02  0.9086337E-01
        1   -1    0    0  501    0  0.00000000000E+00  0.00000000000E+00  0.79281393742E+03  0.79281393744E+03  0.50400001928E-02 0.  1.
       -1   -1    0    0    0  501  0.00000000000E+00  0.00000000000E+00 -0.47766886787E+03  0.47766886790E+03  0.50400001928E-02 0. -1.
    10030    2    1    2    0    0  0.00000000000E+00  0.00000000000E+00  0.31514506955E+03  0.12704828053E+04  0.12307762363E+04 0.  0.
        2    1    3    3  502    0  0.46343175614E+03  0.28071479230E+03  0.45876077939E+03  0.70995157576E+03  0.25500000920E-02 0.  1.
       -2    1    3    3    0  502 -0.46343175614E+03 -0.28071479230E+03 -0.14361570984E+03  0.56053122958E+03  0.25500000920E-02 0. -1.
</event>
<event>
 5   0  0.3650180E-03  0.1192690E+04  0.7818609E-02  0.9119279E-01
        2   -1    0    0  501    0  0.00000000000E+00  0.00000000000E+00  0.13844424945E+04  0.13844424945E+04  0.25500000920E-02 0.  1.
       -2   -1    0    0    0  501  0.00000000000E+00  0.00000000000E+00 -0.25687418334E+03  0.25687418335E+03  0.25500000920E-02 0. -1.
    10030    2    1    2    0    0  0.00000000000E+00  0.00000000000E+00  0.11275683112E+04  0.16413166779E+04  0.11926902954E+04 0.  0.
        3    1    3    3  502    0  0.25125951881E+03 -0.16725068765E+03  0.12715616257E+04  0.13068944550E+04  0.10100000352E+00 0.  1.
       -3    1    3    3    0  502 -0.25125951881E+03  0.16725068765E+03 -0.14399331454E+03  0.33442222287E+03  0.10100000352E+00 0. -1.
</event>
<event>
 5   0  0.2134992E-03  0.1204686E+04  0.7818609E-02  0.9108765E-01
       -1   -1    0    0    0  501  0.00000000000E+00  0.00000000000E+00  0.49683132378E+03  0.49683132381E+03  0.50400001928E-02 0.  1.
        1   -1    0    0  501    0  0.00000000000E+00  0.00000000000E+00 -0.73026157201E+03  0.73026157203E+03  0.50400001928E-02 0. -1.
    10030    2    1    2    0    0  0.00000000000E+00  0.00000000000E+00 -0.23343024823E+03  0.12270928958E+04  0.12046855582E+04 0.  0.
        4    1    3    3  502    0  0.14288825896E+03 -0.17493088893E+03  0.45205914469E+03  0.50534834881E+03  0.12699999809E+01 0.  1.
       -4    1    3    3    0  502 -0.14288825896E+03  0.17493088893E+03 -0.68548939292E+03  0.72174454702E+03  0.12699999809E+01 0. -1.
</event>
<event>
 5   0  0.2047109E-03  0.1209985E+04  0.7818609E-02  0.9104161E-01
       -1   -1    0    0    0  501  0.00000000000E+00  0.00000000000E+00  0.33684777765E+03  0.33684777769E+03  0.50400001928E-02 0. -1.
        1   -1    0    0  501    0  0.00000000000E+00  0.00000000000E+00 -0.10865915471E+04  0.10865915471E+04  0.50400001928E-02 0.  1.
    10030    2    1    2    0    0  0.00000000000E+00  0.00000000000E+00 -0.74974376943E+03  0.14234393248E+04  0.12099850377E+04 0.  0.
        1    1    3    3  502    0  0.25898404560E+03 -0.16213069205E+03  0.23940923435E+03  0.38816990957E+03  0.50400001928E-02 0. -1.
       -1    1    3    3    0  502 -0.25898404560E+03  0.16213069205E+03 -0.98915300378E+03  0.10352694152E+04  0.50400001928E-02 0.  1.
</event>
<event>
 5   0  0.2025294E-03  0.1200856E+04  0.7818609E-02  0.9112108E-01
        1   -1    0    0  501    0  0.00000000000E+00  0.00000000000E+00  0.10629245990E+04  0.10629245990E+04  0.50400001928E-02 0. -1.
       -1   -1    0    0    0  501  0.00000000000E+00  0.00000000000E+00 -0.33917135286E+03  0.33917135289E+03  0.50400001928E-02 0.  1.
    10030    2    1    2    0    0  0.00000000000E+00  0.00000000000E+00  0.72375324611E+03  0.14020959519E+04  0.12008556520E+04 0.  0.
        5    1    3    3  502    0 -0.48075639696E+03 -0.29409690806E+03  0.12012317047E+03  0.57625634107E+03  0.46999998093E+01 0.  1.
       -5    1    3    3    0  502  0.48075639696E+03  0.29409690806E+03  0.60363007563E+03  0.82583961079E+03  0.46999998093E+01 0. -1.
</event>
<event>
 5   0  0.3725376E-03  0.1206169E+04  0.7818609E-02  0.9107474E-01
        2   -1    0    0  501    0  0.00000000000E+00  0.00000000000E+00  0.50729879969E+03  0.50729879970E+03  0.25500000920E-02 0. -1.
       -2   -1    0    0    0  501  0.00000000000E+00  0.00000000000E+00 -0.71695592794E+03  0.71695592795E+03  0.25500000920E-02 0.  1.
    10030    2    1    2    0    0  0.00000000000E+00  0.00000000000E+00 -0.20965712825E+03  0.12242547276E+04  0.12061689462E+04 0.  0.
        4    1    3    3  502    0  0.35586468601E+03  0.20943437073E+03  0.34131526841E+03  0.53572395479E+03  0.12699999809E+01 0. -1.
       -4    1    3    3    0  502 -0.35586468601E+03 -0.20943437073E+03 -0.55097239666E+03  0.68853077286E+03  0.12699999809E+01 0.  1.
</event>
<event>
 5   0  0.2096270E-03  0.1185651E+04  0.7818609E-02  0.9125509E-01
        1   -1    0    0  501    0  0.00000000000E+00  0.00000000000E+00  0.33859401960E+03  0.33859401963E+03  0.50400001928E-02 0.  1.
       -1   -1    0    0    0  501  0.00000000000E+00  0.00000000000E+00 -0.10379458202E+04  0.10379458202E+04  0.50400001928E-02 0. -1.
    10030    2    1    2    0    0  0.00000000000E+00  0.00000000000E+00 -0.69935180058E+03  0.13765398398E+04  0.11856512934E+04 0.  0.
        2    1    3    3  502    0  0.54285621880E+03 -0.66629843331E+02 -0.61521194969E+03  0.82317565159E+03  0.25500000920E-02 0. -1.
       -2    1    3    3    0  502 -0.54285621880E+03  0.66629843331E+02 -0.84139850890E+02  0.55336418824E+03  0.25500000920E-02 0.  1.
</event>
<event>
 5   0  0.3706035E-03  0.1202747E+04  0.7818609E-02  0.9110456E-01
       -2   -1    0    0    0  501  0.00000000000E+00  0.00000000000E+00  0.39940892383E+03  0.39940892383E+03  0.25500000920E-02 0.  1.
        2   -1    0    0  501    0  0.00000000000E+00  0.00000000000E+00 -0.90546259617E+03  0.90546259618E+03  0.25500000920E-02 0. -1.
    10030    2    1    2    0    0  0.00000000000E+00  0.00000000000E+00 -0.50605367235E+03  0.13048715200E+04  0.12027465919E+04 0.  0.
        2    1    3    3  502    0 -0.43558700064E+03  0.41596726438E+02 -0.70058797097E+03  0.82600837033E+03  0.25500000920E-02 0. -1.
       -2    1    3    3    0  502  0.43558700064E+03 -0.41596726438E+02  0.19453429862E+03  0.47886314969E+03  0.25500000920E-02 0.  1.
</event>
<event>
 5   0  0.3626049E-03  0.1194528E+04  0.7818609E-02  0.9117660E-01
        2   -1    0    0  501    0  0.00000000000E+00  0.00000000000E+00  0.54087213712E+03  0.54087213713E+03  0.25500000920E-02 0.  1.
       -2   -1    0    0    0  501  0.00000000000E+00  0.00000000000E+00 -0.65953505064E+03  0.65953505065E+03  0.25500000920E-02 0. -1.
    10030    2    1    2    0    0  0.00000000000E+00  0.00000000000E+00 -0.11866291353E+03  0.12004071878E+04  0.11945277433E+04 0.  0.
        1    1    3    3  502    0  0.25530214166E+03  0.24371272130E+03 -0.54352144989E+03  0.64806684885E+03  0.50400001928E-02 0. -1.
       -1    1    3    3    0  502 -0.25530214166E+03 -0.24371272130E+03  0.42485853636E+03  0.55234033893E+03  0.50400001928E-02 0.  1.
</event>
<event>
 5   0  0.3751091E-03  0.1197757E+04  0.7818609E-02  0.9114822E-01
       -2   -1    0    0    0  501  0.00000000000E+00  0.00000000000E+00  0.27201257015E+03  0.27201257016E+03  0.25500000920E-02 0. -1.
        2   -1    0    0  501    0  0.00000000000E+00  0.00000000000E+00 -0.13185254056E+04  0.13185254056E+04  0.25500000920E-02 0.  1.
    10030    2    1    2    0    0  0.00000000000E+00  0.00000000000E+00 -0.10465128355E+04  0.15905379758E+04  0.11977570445E+04 0.  0.
        5    1    3    3  502    0 -0.41288728655E+03  0.43310913529E+03 -0.55507025816E+03  0.81620127172E+03  0.46999998093E+01 0.  1.
       -5    1    3    3    0  502  0.41288728655E+03 -0.43310913529E+03 -0.49144257732E+03  0.77433670407E+03  0.46999998093E+01 0. -1.
</event>
<event>
 5   0  0.2096270E-03  0.1200327E+04  0.7818609E-02  0.9112571E-01
       -1   -1    0    0    0  501  0.00000000000E+00  0.00000000000E+00  0.47669890376E+03  0.47669890379E+03  0.50400001928E-02 0.  1.
        1   -1    0    0  501    0  0.00000000000E+00  0.00000000000E+00 -0.75560477189E+03  0.75560477190E+03  0.50400001928E-02 0. -1.
    10030    2    1    2    0    0  0.00000000000E+00  0.00000000000E+00 -0.27890586813E+03  0.12323036757E+04  0.12003265663E+04 0.  0.
        2    1    3    3  502    0  0.15299680500E+03 -0.47678681580E+02 -0.73323342042E+03  0.75054148976E+03  0.25500000920E-02 0. -1.
       -2    1    3    3    0  502 -0.15299680500E+03  0.47678681580E+02  0.45432755229E+03  0.48176218594E+03  0.25500000920E-02 0.  1.
</event>
<event>
 5   0  0.2134992E-03  0.1185559E+04  0.7818609E-02  0.9125592E-01
       -1   -1    0    0    0  501  0.00000000000E+00  0.00000000000E+00  0.24987238363E+03  0.24987238368E+03  0.50400001928E-02 0.  1.
        1   -1    0    0  501    0  0.00000000000E+00  0.00000000000E+00 -0.14062673244E+04  0.14062673244E+04  0.50400001928E-02 0. -1.
    10030    2    1    2    0    0  0.00000000000E+00  0.00000000000E+00 -0.11563949407E+04  0.16561397080E+04  0.11855587179E+04 0.  0.
        4    1    3    3  502    0  0.51464600868E+03  0.37806425872E+01 -0.98907220554E+03  0.11149619941E+04  0.12699999809E+01 0. -1.
       -4    1    3    3    0  502 -0.51464600868E+03 -0.37806425872E+01 -0.16732273518E+03  0.54117771398E+03  0.12699999809E+01 0.  1.
</event>
<event>
 5   0  0.3725376E-03  0.1213930E+04  0.7818609E-02  0.9100750E-01
        2   -1    0    0  501    0  0.00000000000E+00  0.00000000000E+00  0.96833154833E+03  0.96833154833E+03  0.25500000920E-02 0.  1.
       -2   -1    0    0    0  501  0.00000000000E+00  0.00000000000E+00 -0.38045517406E+03  0.38045517407E+03  0.25500000920E-02 0. -1.
    10030    2    1    2    0    0  0.00000000000E+00  0.00000000000E+00  0.58787637426E+03  0.13487867224E+04  0.12139303897E+04 0.  0.
        4    1    3    3  502    0 -0.10275129290E+03  0.54253643324E+03  0.13948795546E+02  0.55235839035E+03  0.12699999809E+01 0. -1.
       -4    1    3    3    0  502  0.10275129290E+03 -0.54253643324E+03  0.57392757872E+03  0.79642833206E+03  0.12699999809E+01 0.  1.
</event>
<event>
 5   0  0.3650180E-03  0.1151327E+04  0.7818609E-02  0.9156560E-01
        2   -1    0    0  501    0  0.00000000000E+00  0.00000000000E+00  0.11303011864E+04  0.11303011864E+04  0.25500000920E-02 0. -1.
       -2   -1    0    0    0  501  0.00000000000E+00  0.00000000000E+00 -0.29318598096E+03  0.29318598097E+03  0.25500000920E-02 0.  1.
    10030    2    1    2    0    0  0.00000000000E+00  0.00000000000E+00  0.83711520548E+03  0.14234871674E+04  0.11513269946E+04 0.  0.
        3    1    3    3  502    0 -0.91068539370E+02  0.24226761067E+03 -0.21719292000E+03  0.33787549296E+03  0.10100000352E+00 0.  1.
       -3    1    3    3    0  502  0.91068539370E+02 -0.24226761067E+03  0.10543081255E+04  0.10856116744E+04  0.10100000352E+00 0. -1.
</event>
<event>
 5   0  0.2047109E-03  0.1200564E+04  0.7818609E-02  0.9112363E-01
       -1   -1    0    0    0  501  0.00000000000E+00  0.00000000000E+00  0.45230239059E+03  0.45230239062E+03  0.50400001928E-02 0.  1.
        1   -1    0    0  501    0  0.00000000000E+00  0.00000000000E+00 -0.79667634750E+03  0.79667634751E+03  0.50400001928E-02 0. -1.
    10030    2    1    2    0    0  0.00000000000E+00  0.00000000000E+00 -0.34437395690E+03  0.12489787381E+04  0.12005642282E+04 0.  0.
        1    1    3    3  502    0  0.12635663889E+02  0.51513783858E+03 -0.49251963629E+03  0.71281291016E+03  0.50400001928E-02 0. -1.
       -1    1    3    3    0  502 -0.12635663889E+02 -0.51513783858E+03  0.14814567939E+03  0.53616582797E+03  0.50400001928E-02 0.  1.
</event>
<event>
 5   0  0.2078258E-03  0.1204514E+04  0.7818609E-02  0.9108914E-01
       -1   -1    0    0    0  501  0.00000000000E+00  0.00000000000E+00  0.94683188847E+03  0.94683188849E+03  0.50400001928E-02 0. -1.
        1   -1    0    0  501    0  0.00000000000E+00  0.00000000000E+00 -0.38308149870E+03  0.38308149874E+03  0.50400001928E-02 0.  1.
    10030    2    1    2    0    0  0.00000000000E+00  0.00000000000E+00  0.56375038977E+03  0.13299133872E+04  0.12045144730E+04 0.  0.
        3    1    3    3  502    0 -0.44828833929E+03 -0.37135402949E+03  0.11137183923E+03  0.59268030770E+03  0.10100000352E+00 0.  1.
       -3    1    3    3    0  502  0.44828833929E+03  0.37135402949E+03  0.45237855054E+03  0.73723307953E+03  0.10100000352E+00 0. -1.
</event>
<event>
 5   0  0.2096270E-03  0.1131576E+04  0.7818609E-02  0.9174951E-01
       -1   -1    0    0    0  501  0.00000000000E+00  0.00000000000E+00  0.41164032025E+03  0.41164032028E+03  0.50400001928E-02 0. -1.
        1   -1    0    0  501    0  0.00000000000E+00  0.00000000000E+00 -0.77765984917E+03  0.77765984919E+03  0.50400001928E-02 0.  1.
    10030    2    1    2    0    0  0.00000000000E+00  0.00000000000E+00 -0.36601952893E+03  0.11893001695E+04  0.11315761563E+04 0.  0.
        2    1    3    3  502    0 -0.36141909169E+03  0.62779326908E+02  0.26972048495E+03  0.45531762950E+03  0.25500000920E-02 0. -1.
       -2    1    3    3    0  502  0.36141909169E+03 -0.62779326908E+02 -0.63574001387E+03  0.73398253997E+03  0.25500000920E-02 0.  1.
</event>
<event>
 5   0  0.2096270E-03  0.1208950E+04  0.7818609E-02  0.9105058E-01
        1   -1    0    0  501    0  0.00000000000E+00  0.00000000000E+00  0.65273530198E+03  0.65273530200E+03  0.50400001928E-02 0. -1.
       -1   -1    0    0    0  501  0.00000000000E+00  0.00000000000E+00 -0.55978314261E+03  0.55978314264E+03  0.50400001928E-02 0.  1.
    10030    2    1    2    0    0  0.00000000000E+00  0.00000000000E+00  0.92952159367E+02  0.12125184446E+04  0.12089503193E+04 0.  0.
        2    1    3    3  502    0  0.42227308785E+03  0.27955751537E+03 -0.28453322504E+03  0.58088391378E+03  0.25500000920E-02 0.  1.
       -2    1    3    3    0  502 -0.42227308785E+03 -0.27955751537E+03  0.37748538440E+03  0.63163453086E+03  0.25500000920E-02 0. -1.
</event>
<event>
 5   0  0.3751091E-03  0.1198331E+04  0.7818609E-02  0.9114319E-01
       -2   -1    0    0    0  501  0.00000000000E+00  0.00000000000E+00  0.30279083856E+03  0.30279083858E+03  0.25500000920E-02 0.  1.
        2   -1    0    0  501    0  0.00000000000E+00  0.00000000000E+00 -0.11856336252E+04  0.11856336252E+04  0.25500000920E-02 0. -1.
    10030    2    1    2    0    0  0.00000000000E+00  0.00000000000E+00 -0.88284278661E+03  0.14884244638E+04  0.11983305047E+04 0.  0.
        5    1    3    3  502    0  0.75898770015E+02 -0.22294310728E+03 -0.11257088640E+04  0.11500899046E+04  0.46999998093E+01 0. -1.
       -5    1    3    3    0  502 -0.75898770015E+02  0.22294310728E+03  0.24286607734E+03  0.33833455912E+03  0.46999998093E+01 0.  1.
</event>
<event>
 5   0  0.2025294E-03  0.1201618E+04  0.7818609E-02  0.9111441E-01
       -1   -1    0    0    0  501  0.00000000000E+00  0.00000000000E+00  0.23539656269E+03  0.23539656275E+03  0.50400001928E-02 0. -1.
        1   -1    0    0  501    0  0.00000000000E+00  0.00000000000E+00 -0.15334618331E+04  0.15334618331E+04  0.50400001928E-02 0.  1.
    10030    2    1    2    0    0  0.00000000000E+00  0.00000000000E+00 -0.12980652704E+04  0.17688583958E+04  0.12016183164E+04 0.  0.
        5    1    3    3  502    0  0.13855912618E+03  0.57393817520E+03 -0.81259666527E+03  0.10044596014E+04  0.46999998093E+01 0.  1.
       -5    1    3    3    0  502 -0.13855912618E+03 -0.57393817520E+03 -0.48546860509E+03  0.76439879443E+03  0.46999998093E+01 0. -1.
</event>
<event>
 5   0  0.2078258E-03  0.1185199E+04  0.7818609E-02  0.9125912E-01
       -1   -1    0    0    0  501  0.00000000000E+00  0.00000000000E+00  0.51309650226E+03  0.51309650229E+03  0.50400001928E-02 0.  1.
        1   -1    0    0  501    0  0.00000000000E+00  0.00000000000E+00 -0.68442089384E+03  0.68442089386E+03  0.50400001928E-02 0. -1.
    10030    2    1    2    0    0  0.00000000000E+00  0.00000000000E+00 -0.17132439158E+03  0.11975173961E+04  0.11851986614E+04 0.  0.
        3    1    3    3  502    0 -0.26994267879E+03 -0.47048492787E+03 -0.32678213053E+03  0.63325483671E+03  0.10100000352E+00 0. -1.
       -3    1    3    3    0  502  0.26994267879E+03  0.47048492787E+03  0.15545773894E+03  0.56426255944E+03  0.10100000352E+00 0.  1.
</event>
<event>
 5   0  0.2025294E-03  0.1219445E+04  0.7818609E-02  0.9096004E-01
       -1   -1    0    0    0  501  0.00000000000E+00  0.00000000000E+00  0.39673045740E+03  0.39673045743E+03  0.50400001928E-02 0.  1.
        1   -1    0    0  501    0  0.00000000000E+00  0.00000000000E+00 -0.93706348741E+03  0.93706348742E+03  0.50400001928E-02 0. -1.
    10030    2    1    2    0    0  0.00000000000E+00  0.00000000000E+00 -0.54033303001E+03  0.13337939449E+04  0.12194451624E+04 0.  0.
        5    1    3    3  502    0 -0.50937329465E+03 -0.11356177310E+03 -0.61497708067E+03  0.80658311993E+03  0.46999998093E+01 0. -1.
       -5    1    3    3    0  502  0.50937329465E+03  0.11356177310E+03  0.74644050656E+02  0.52721082492E+03  0.46999998093E+01 0.  1.
</event>
<event>
 5   0  0.2047109E-03  0.1233212E+04  0.7818609E-02  0.9084273E-01
       -1   -1    0    0    0  501  0.00000000000E+00  0.00000000000E+00  0.36324991256E+03  0.36324991259E+03  0.50400001928E-02 0.  1.
        1   -1    0    0  501    0  0.00000000000E+00  0.00000000000E+00 -0.10466708715E+04  0.10466708715E+04  0.50400001928E-02 0. -1.
    10030    2    1    2    0    0  0.00000000000E+00  0.00000000000E+00 -0.68342095891E+03  0.14099207841E+04  0.12332122325E+04 0.  0.
        1    1    3    3  502    0 -0.15101166764E+03  0.39305066236E+03  0.17329085292E+03  0.45532742798E+03  0.50400001928E-02 0.  1.
       -1    1    3    3    0  502  0.15101166764E+03 -0.39305066236E+03 -0.85671181182E+03  0.95459335609E+03  0.50400001928E-02 0. -1.
</event>
<event>
 5   0  0.3706035E-03  0.1224737E+04  0.7818609E-02  0.9091475E-01
        2   -1    0    0  501    0  0.00000000000E+00  0.00000000000E+00  0.50896767823E+03  0.50896767823E+03  0.25500000920E-02 0. -1.
       -2   -1    0    0    0  501  0.00000000000E+00  0.00000000000E+00 -0.73677643797E+03  0.73677643797E+03  0.25500000920E-02 0.  1.
    10030    2    1    2    0    0  0.00000000000E+00  0.00000000000E+00 -0.22780875974E+03  0.12457441162E+04  0.12247373482E+04 0.  0.
        2    1    3    3  502    0 -0.38563744399E+03  0.22386583784E+03  0.31301269909E+03  0.54480189184E+03  0.25500000920E-02 0. -1.
       -2    1    3    3    0  502  0.38563744399E+03 -0.22386583784E+03 -0.54082145883E+03  0.70094222436E+03  0.25500000920E-02 0.  1.
</event>
<event>
 5   0  0.3626049E-03  0.1202466E+04  0.7818609E-02  0.9110701E-01
       -2   -1    0    0    0  501  0.00000000000E+00  0.00000000000E+00  0.56856772672E+03  0.56856772672E+03  0.25500000920E-02 0. -1.
        2   -1    0    0  501    0  0.00000000000E+00  0.00000000000E+00 -0.63577460151E+03  0.63577460151E+03  0.25500000920E-02 0.  1.
    10030    2    1    2    0    0  0.00000000000E+00  0.00000000000E+00 -0.67206874788E+02  0.12043423282E+04  0.12024656667E+04 0.  0.
        1    1    3    3  502    0 -0.59744490141E+03  0.63531120691E+02 -0.11111623520E+02  0.60091603550E+03  0.50400001928E-02 0.  1.
       -1    1    3    3    0  502  0.59744490141E+03 -0.63531120691E+02 -0.56095251268E+02  0.60342629273E+03  0.50400001928E-02 0. -1.
</event>
<event>
 5   0  0.2025294E-03  0.1223813E+04  0.7818609E-02  0.9092265E-01
       -1   -1    0    0    0  501  0.00000000000E+00  0.00000000000E+00  0.56919782324E+03  0.56919782327E+03  0.50400001928E-02 0. -1.
        1   -1    0    0  501    0  0.00000000000E+00  0.00000000000E+00 -0.65781986229E+03  0.65781986231E+03  0.50400001928E-02 0.  1.
    10030    2    1    2    0    0  0.00000000000E+00  0.00000000000E+00 -0.88622039050E+02  0.12270176856E+04  0.12238131127E+04 0.  0.
        5    1    3    3  502    0  0.35266661706E+03 -0.16345271911E+03 -0.51811272761E+03  0.64772943632E+03  0.46999998093E+01 0.  1.
       -5    1    3    3    0  502 -0.35266661706E+03  0.16345271911E+03  0.42949068856E+03  0.57928824926E+03  0.46999998093E+01 0. -1.
</event>
<event>
 5   0  0.2096270E-03  0.1216131E+04  0.7818609E-02  0.9098853E-01
       -1   -1    0    0    0  501  0.00000000000E+00  0.00000000000E+00  0.34348424038E+03  0.34348424042E+03  0.50400001928E-02 0.  1.
        1   -1    0    0  501    0  0.00000000000E+00  0.00000000000E+00 -0.10764508425E+04  0.10764508426E+04  0.50400001928E-02 0. -1.
    10030    2    1    2    0    0  0.00000000000E+00  0.00000000000E+00 -0.73296660216E+03  0.14199350830E+04  0.12161314074E+04 0.  0.
        2    1    3    3  502    0 -0.45447624721E+03  0.22779716576E+03 -0.75601496878E+03  0.91104272185E+03  0.25500000920E-02 0. -1.
       -2    1    3    3    0  502  0.45447624721E+03 -0.22779716576E+03  0.23048366619E+02  0.50889236113E+03  0.25500000920E-02 0.  1.
</event>
<event>
 5   0  0.2078258E-03  0.1194835E+04  0.7818609E-02  0.9117389E-01
       -1   -1    0    0    0  501  0.00000000000E+00  0.00000000000E+00  0.65229080961E+03  0.65229080963E+03  0.50400001928E-02 0. -1.
        1   -1    0    0  501    0  0.00000000000E+00  0.00000000000E+00 -0.54716071504E+03  0.54716071507E+03  0.50400001928E-02 0.  1.
    10030    2    1    2    0    0  0.00000000000E+00  0.00000000000E+00  0.10513009457E+03  0.11994515247E+04  0.11948353959E+04 0.  0.
        3    1    3    3  502    0  0.32357127300E+02  0.44557300607E+03 -0.34561026634E+03  0.56482630413E+03  0.10100000352E+00 0.  1.
       -3    1    3    3    0  502 -0.32357127300E+02 -0.44557300607E+03  0.45074036091E+03  0.63462522057E+03  0.10100000352E+00 0. -1.
</event>
<event>
 5   0  0.3706035E-03  0.1203765E+04  0.7818609E-02  0.9109568E-01
       -2   -1    0    0    0  501  0.00000000000E+00  0.00000000000E+00  0.10542960419E+04  0.10542960419E+04  0.25500000920E-02 0.  1.
        2   -1    0    0  501    0  0.00000000000E+00  0.00000000000E+00 -0.34360595177E+03  0.34360595178E+03  0.25500000920E-02 0. -1.
    10030    2    1    2    0    0  0.00000000000E+00  0.00000000000E+00  0.71069009015E+03  0.13979019937E+04  0.12037647527E+04 0.  0.
        2    1    3    3  502    0  0.27391111288E+03  0.23867152588E+03 -0.20191091875E+03  0.41564337375E+03  0.25500000920E-02 0. -1.
       -2    1    3    3    0  502 -0.27391111288E+03 -0.23867152588E+03  0.91260100890E+03  0.98225861995E+03  0.25500000920E-02 0.  1.
</event>
<event>
 5   0  0.3626049E-03  0.1221976E+04  0.7818609E-02  0.9093836E-01
        2   -1    0    0  501    0  0.00000000000E+00  0.00000000000E+00  0.69139708679E+03  0.69139708680E+03  0.25500000920E-02 0. -1.
       -2   -1    0    0    0  501  0.00000000000E+00  0.00000000000E+00 -0.53993007468E+03  0.53993007468E+03  0.25500000920E-02 0.  1.
    10030    2    1    2    0    0  0.00000000000E+00  0.00000000000E+00  0.15146701212E+03  0.12313271615E+04  0.12219755819E+04 0.  0.
        1    1    3    3  502    0  0.22006093643E+03  0.39722692236E+03 -0.33616119942E+03  0.56499592530E+03  0.50400001928E-02 0.  1.
       -1    1    3    3    0  502 -0.22006093643E+03 -0.39722692236E+03  0.48762821154E+03  0.66633123618E+03  0.50400001928E-02 0. -1.
</event>
<event>
 5   0  0.2047109E-03  0.1197121E+04  0.7818609E-02  0.9115381E-01
       -1   -1    0    0    0  501  0.00000000000E+00  0.00000000000E+00  0.84641307589E+03  0.84641307591E+03  0.50400001928E-02 0.  1.
        1   -1    0    0  501    0  0.00000000000E+00  0.00000000000E+00 -0.42328557525E+03  0.42328557528E+03  0.50400001928E-02 0. -1.
    10030    2    1    2    0    0  0.00000000000E+00  0.00000000000E+00  0.42312750065E+03  0.12696986512E+04  0.11971206217E+04 0.  0.
        1    1    3    3  502    0  0.49439191799E+03 -0.30850007448E+03  0.35652002309E+03  0.68315605203E+03  0.50400001928E-02 0.  1.
       -1    1    3    3    0  502 -0.49439191799E+03  0.30850007448E+03  0.66607477554E+02  0.58654259916E+03  0.50400001928E-02 0. -1.
</event>
<event>
 5   0  0.3706035E-03  0.1038947E+04  0.7818609E-02  0.9266831E-01
        2   -1    0    0  501    0  0.00000000000E+00  0.00000000000E+00  0.48558084790E+03  0.48558084791E+03  0.25500000920E-02 0.  1.
       -2   -1    0    0    0  501  0.00000000000E+00  0.00000000000E+00 -0.55573165468E+03  0.55573165469E+03  0.25500000920E-02 0. -1.
    10030    2    1    2    0    0  0.00000000000E+00  0.00000000000E+00 -0.70150806777E+02  0.10413125026E+04  0.10389468670E+04 0.  0.
        2    1    3    3  502    0 -0.42271638212E+03 -0.22333245011E+03 -0.23872793216E+03  0.53437584956E+03  0.25500000920E-02 0. -1.
       -2    1    3    3    0  502  0.42271638212E+03  0.22333245011E+03  0.16857712538E+03  0.50693665304E+03  0.25500000920E-02 0.  1.
</event>
<event>
 5   0  0.2134992E-03  0.1193937E+04  0.7818609E-02  0.9118180E-01
       -1   -1    0    0    0  501  0.00000000000E+00  0.00000000000E+00  0.85630973400E+03  0.85630973401E+03  0.50400001928E-02 0. -1.
        1   -1    0    0  501    0  0.00000000000E+00  0.00000000000E+00 -0.41617140395E+03  0.41617140398E+03  0.50400001928E-02 0.  1.
    10030    2    1    2    0    0  0.00000000000E+00  0.00000000000E+00  0.44013833005E+03  0.12724811380E+04  0.11939373924E+04 0.  0.
        4    1    3    3  502    0  0.17073393491E+03  0.26081464802E+03  0.76267399768E+03  0.82392208174E+03  0.12699999809E+01 0. -1.
       -4    1    3    3    0  502 -0.17073393491E+03 -0.26081464802E+03 -0.32253566762E+03  0.44855905625E+03  0.12699999809E+01 0.  1.
</event>
<event>
 5   0  0.1397500E-03  0.1195127E+04  0.7818609E-02  0.9117132E-01
        3   -1    0    0  501    0  0.00000000000E+00  0.00000000000E+00  0.64117704254E+03  0.64117705049E+03  0.10100000352E+00 0. -1.
       -3   -1    0    0    0  501  0.00000000000E+00  0.00000000000E+00 -0.55691702436E+03  0.55691703352E+03  0.10100000352E+00 0.  1.
    10030    2    1    2    0    0  0.00000000000E+00  0.00000000000E+00  0.84260018175E+02  0.11980940840E+04  0.11951274758E+04 0.  0.
        5    1    3    3  502    0 -0.23314632082E+03  0.50988746792E+03  0.24932612495E+03  0.61361880955E+03  0.46999998093E+01 0. -1.
       -5    1    3    3    0  502  0.23314632082E+03 -0.50988746792E+03 -0.16506610678E+03  0.58447527446E+03  0.46999998093E+01 0.  1.
</event>
<event>
 5   0  0.2078258E-03  0.1258922E+04  0.7818609E-02  0.9062790E-01
       -1   -1    0    0    0  501  0.00000000000E+00  0.00000000000E+00  0.95594473594E+03  0.95594473595E+03  0.50400001928E-02 0. -1.
        1   -1    0    0  501    0  0.00000000000E+00  0.00000000000E+00 -0.41448144628E+03  0.41448144631E+03  0.50400001928E-02 0.  1.
    10030    2    1    2    0    0  0.00000000000E+00  0.00000000000E+00  0.54146328966E+03  0.13704261823E+04  0.12589223276E+04 0.  0.
        3    1    3    3  502    0  0.39160754929E+02  0.62039853479E+03  0.16300470051E+03  0.64264955402E+03  0.10100000352E+00 0.  1.
       -3    1    3    3    0  502 -0.39160754929E+02 -0.62039853479E+03  0.37845858915E+03  0.72777662823E+03  0.10100000352E+00 0. -1.
</event>
<event>
 5   0  0.3751091E-03  0.1171933E+04  0.7818609E-02  0.9137784E-01
        2   -1    0    0  501    0  0.00000000000E+00  0.00000000000E+00  0.12808077450E+04  0.12808077450E+04  0.25500000920E-02 0.  1.
       -2   -1    0    0    0  501  0.00000000000E+00  0.00000000000E+00 -0.26807834963E+03  0.26807834964E+03  0.25500000920E-02 0. -1.
    10030    2    1    2    0    0  0.00000000000E+00  0.00000000000E+00  0.10127293953E+04  0.15488860946E+04  0.11719331491E+04 0.  0.
        5    1    3    3  502    0  0.34301540467E+03 -0.10728351465E+03  0.11179982659E+04  0.11743557948E+04  0.46999998093E+01 0.  1.
       -5    1    3    3    0  502 -0.34301540467E+03  0.10728351465E+03 -0.10526887054E+03  0.37453029978E+03  0.46999998093E+01 0. -1.
</event>
<event>
 5   0  0.3706035E-03  0.1188845E+04  0.7818609E-02  0.9122677E-01
       -2   -1    0    0    0  501  0.00000000000E+00  0.00000000000E+00  0.30238400991E+03  0.30238400992E+03  0.25500000920E-02 0.  1.
        2   -1    0    0  501    0  0.00000000000E+00  0.00000000000E+00 -0.11685085451E+04  0.11685085451E+04  0.25500000920E-02 0. -1.
    10030    2    1    2    0    0  0.00000000000E+00  0.00000000000E+00 -0.86612453524E+03  0.14708925551E+04  0.11888453213E+04 0.  0.
        2    1    3    3  502    0 -0.21339350124E+02  0.10224907759E+03 -0.11570651048E+04  0.11617701574E+04  0.25500000920E-02 0. -1.
       -2    1    3    3    0  502  0.21339350124E+02 -0.10224907759E+03  0.29094056958E+03  0.30912239771E+03  0.25500000920E-02 0.  1.
</event>
<event>
 5   0  0.1397500E-03  0.1212668E+04  0.7818609E-02  0.9101840E-01
        3   -1    0    0  501    0  0.00000000000E+00  0.00000000000E+00  0.59368119970E+03  0.59368120829E+03  0.10100000352E+00 0. -1.
       -3   -1    0    0    0  501  0.00000000000E+00  0.00000000000E+00 -0.61925669411E+03  0.61925670235E+03  0.10100000352E+00 0.  1.
    10030    2    1    2    0    0  0.00000000000E+00  0.00000000000E+00 -0.25575494413E+02  0.12129379106E+04  0.12126682436E+04 0.  0.
        4    1    3    3  502    0 -0.53057977408E+03 -0.21512605006E+03 -0.21244511242E+03  0.61067884585E+03  0.12699999809E+01 0.  1.
       -4    1    3    3    0  502  0.53057977408E+03  0.21512605006E+03  0.18686961800E+03  0.60225906478E+03  0.12699999809E+01 0. -1.
</event>
<event>
 5   0  0.2025294E-03  0.1208782E+04  0.7818609E-02  0.9105204E-01
        1   -1    0    0  501    0  0.00000000000E+00  0.00000000000E+00  0.12276326371E+04  0.12276326371E+04  0.50400001928E-02 0. -1.
       -1   -1    0    0    0  501  0.00000000000E+00  0.00000000000E+00 -0.29755523926E+03  0.29755523930E+03  0.50400001928E-02 0.  1.
    10030    2    1    2    0    0  0.00000000000E+00  0.00000000000E+00  0.93007739780E+03  0.15251878764E+04  0.12087820698E+04 0.  0.
        5    1    3    3  502    0 -0.21089897699E+03 -0.38864663829E+03 -0.54801421320E+02  0.44558935549E+03  0.46999998093E+01 0.  1.
       -5    1    3    3    0  502  0.21089897699E+03  0.38864663829E+03  0.98487881912E+03  0.10795985209E+04  0.46999998093E+01 0. -1.
</event>
<event>
 5   0  0.2096270E-03  0.1209539E+04  0.7818609E-02  0.9104548E-01
       -1   -1    0    0    0  501  0.00000000000E+00  0.00000000000E+00  0.49593827717E+03  0.49593827720E+03  0.50400001928E-02 0.  1.
        1   -1    0    0  501    0  0.00000000000E+00  0.00000000000E+00 -0.73748281613E+03  0.73748281614E+03  0.50400001928E-02 0. -1.
    10030    2    1    2    0    0  0.00000000000E+00  0.00000000000E+00 -0.24154453895E+03  0.12334210933E+04  0.12095386845E+04 0.  0.
        2    1    3    3  502    0  0.95100806228E+02 -0.59044948401E+03 -0.21238602445E+03  0.63465154211E+03  0.25500000920E-02 0.  1.
       -2    1    3    3    0  502 -0.95100806228E+02  0.59044948401E+03 -0.29158514502E+02  0.59876955124E+03  0.25500000920E-02 0. -1.
</event>
<event>
 5   0  0.2047109E-03  0.1200078E+04  0.7818609E-02  0.9112788E-01
       -1   -1    0    0    0  501  0.00000000000E+00  0.00000000000E+00  0.42832567400E+03  0.42832567403E+03  0.50400001928E-02 0.  1.
        1   -1    0    0  501    0  0.00000000000E+00  0.00000000000E+00 -0.84059183390E+03  0.84059183392E+03  0.50400001928E-02 0. -1.
    10030    2    1    2    0    0  0.00000000000E+00  0.00000000000E+00 -0.41226615990E+03  0.12689175079E+04  0.12000784372E+04 0.  0.
        1    1    3    3  502    0  0.52450191349E+03  0.44000562134E+01  0.10200308672E+03  0.53434656120E+03  0.50400001928E-02 0.  1.
       -1    1    3    3    0  502 -0.52450191349E+03 -0.44000562134E+01 -0.51426924662E+03  0.73457094674E+03  0.50400001928E-02 0. -1.
</event>
<event>
 5   0  0.3706035E-03  0.1217353E+04  0.7818609E-02  0.9097801E-01
       -2   -1    0    0    0  501  0.00000000000E+00  0.00000000000E+00  0.19191072779E+03  0.19191072781E+03  0.25500000920E-02 0.  1.
        2   -1    0    0  501    0  0.00000000000E+00  0.00000000000E+00 -0.19305186337E+04  0.19305186337E+04  0.25500000920E-02 0. -1.
    10030    2    1    2    0    0  0.00000000000E+00  0.00000000000E+00 -0.17386079059E+04  0.21224293615E+04  0.12173532536E+04 0.  0.
        2    1    3    3  502    0  0.38806996996E+02  0.23111354778E+03 -0.18487103859E+04  0.18635046407E+04  0.25500000920E-02 0. -1.
       -2    1    3    3    0  502 -0.38806996996E+02 -0.23111354778E+03  0.11010247993E+03  0.25892472087E+03  0.25500000920E-02 0.  1.
</event>
<event>
 5   0  0.2047109E-03  0.1194472E+04  0.7818609E-02  0.9117709E-01
       -1   -1    0    0    0  501  0.00000000000E+00  0.00000000000E+00  0.42281113139E+03  0.42281113142E+03  0.50400001928E-02 0.  1.
        1   -1    0    0  501    0  0.00000000000E+00  0.00000000000E+00 -0.84361709055E+03  0.84361709057E+03  0.50400001928E-02 0. -1.
    10030    2    1    2    0    0  0.00000000000E+00  0.00000000000E+00 -0.42080595916E+03  0.12664282220E+04  0.11944717603E+04 0.  0.
        1    1    3    3  502    0  0.11425455950E+03 -0.12465922452E+02 -0.83178141143E+03  0.83968435738E+03  0.50400001928E-02 0. -1.
       -1    1    3    3    0  502 -0.11425455950E+03  0.12465922452E+02  0.41097545228E+03  0.42674386462E+03  0.50400001928E-02 0.  1.
</event>
<event>
 5   0  0.1397500E-03  0.1184342E+04  0.7818609E-02  0.9126673E-01
        4   -1    0    0  501    0  0.00000000000E+00  0.00000000000E+00  0.81597817799E+03  0.81597916631E+03  0.12699999809E+01 0.  1.
       -4   -1    0    0    0  501  0.00000000000E+00  0.00000000000E+00 -0.42974779122E+03  0.42974966778E+03  0.12699999809E+01 0. -1.
    10030    2    1    2    0    0  0.00000000000E+00  0.00000000000E+00  0.38623038677E+03  0.12457288341E+04  0.11843421872E+04 0.  0.
        2    1    3    3  502    0 -0.24514115137E+03 -0.52893277137E+03  0.83792750720E+02  0.58896968156E+03  0.25500000920E-02 0. -1.
       -2    1    3    3    0  502  0.24514115137E+03  0.52893277137E+03  0.30243763605E+03  0.65675915253E+03  0.25500000920E-02 0.  1.
</event>
<event>
 5   0  0.2078258E-03  0.1234960E+04  0.7818609E-02  0.9082794E-01
        1   -1    0    0  501    0  0.00000000000E+00  0.00000000000E+00  0.34650061953E+03  0.34650061957E+03  0.50400001928E-02 0. -1.
       -1   -1    0    0    0  501  0.00000000000E+00  0.00000000000E+00 -0.11003784766E+04  0.11003784766E+04  0.50400001928E-02 0.  1.
    10030    2    1    2    0    0  0.00000000000E+00  0.00000000000E+00 -0.75387785703E+03  0.14468790961E+04  0.12349604429E+04 0.  0.
        3    1    3    3  502    0  0.56699632241E+03  0.24437369552E+03 -0.36655978614E+03  0.71803162862E+03  0.10100000352E+00 0.  1.
       -3    1    3    3    0  502 -0.56699632241E+03 -0.24437369552E+03 -0.38731807089E+03  0.72884746753E+03  0.10100000352E+00 0. -1.
</event>
<event>
 5   0  0.1397500E-03  0.1178199E+04  0.7818609E-02  0.9132156E-01
       -3   -1    0    0    0  501  0.00000000000E+00  0.00000000000E+00  0.23527522089E+03  0.23527524257E+03  0.10100000352E+00 0. -1.
        3   -1    0    0  501    0  0.00000000000E+00  0.00000000000E+00 -0.14750313804E+04  0.14750313838E+04  0.10100000352E+00 0.  1.
    10030    2    1    2    0    0  0.00000000000E+00  0.00000000000E+00 -0.12397561595E+04  0.17103066264E+04  0.11781992282E+04 0.  0.
        2    1    3    3  502    0 -0.40768418352E+03 -0.63892787481E-01 -0.25829699154E+01  0.40769237093E+03  0.25500000920E-02 0. -1.
       -2    1    3    3    0  502  0.40768418352E+03  0.63892787481E-01 -0.12371731896E+04  0.13026142555E+04  0.25500000920E-02 0.  1.
</event>
<event>
 5   0  0.2025294E-03  0.1171325E+04  0.7818609E-02  0.9138333E-01
       -1   -1    0    0    0  501  0.00000000000E+00  0.00000000000E+00  0.42053186215E+03  0.42053186218E+03  0.50400001928E-02 0.  1.
        1   -1    0    0  501    0  0.00000000000E+00  0.00000000000E+00 -0.81563502270E+03  0.81563502271E+03  0.50400001928E-02 0. -1.
    10030    2    1    2    0    0  0.00000000000E+00  0.00000000000E+00 -0.39510316054E+03  0.12361668849E+04  0.11713249164E+04 0.  0.
        5    1    3    3  502    0 -0.42820322237E+02 -0.56348819301E+03 -0.35976766549E+03  0.66993088209E+03  0.46999998093E+01 0. -1.
       -5    1    3    3    0  502  0.42820322237E+02  0.56348819301E+03 -0.35335495056E+02  0.56623600280E+03  0.46999998093E+01 0.  1.
</event>
<event>
 5   0  0.3706035E-03  0.1234696E+04  0.7818609E-02  0.9083018E-01
        2   -1    0    0  501    0  0.00000000000E+00  0.00000000000E+00  0.17433394025E+04  0.17433394025E+04  0.25500000920E-02 0. -1.
       -2   -1    0    0    0  501  0.00000000000E+00  0.00000000000E+00 -0.21861401601E+03  0.21861401602E+03  0.25500000920E-02 0.  1.
    10030    2    1    2    0    0  0.00000000000E+00  0.00000000000E+00  0.15247253865E+04  0.19619534185E+04  0.12346957974E+04 0.  0.
        2    1    3    3  502    0  0.69338305380E+01 -0.58425953721E+03  0.44570873802E+03  0.73489017137E+03  0.25500000920E-02 0. -1.
       -2    1    3    3    0  502 -0.69338305380E+01  0.58425953721E+03  0.10790166485E+04  0.12270632471E+04  0.25500000920E-02 0.  1.
</event>
<event>
 5   0  0.1397500E-03  0.1189094E+04  0.7818609E-02  0.9122456E-01
        3   -1    0    0  501    0  0.00000000000E+00  0.00000000000E+00  0.55102592354E+03  0.55102593280E+03  0.10100000352E+00 0. -1.
       -3   -1    0    0    0  501  0.00000000000E+00  0.00000000000E+00 -0.64150550012E+03  0.64150550807E+03  0.10100000352E+00 0.  1.
    10030    2    1    2    0    0  0.00000000000E+00  0.00000000000E+00 -0.90479576580E+02  0.11925314409E+04  0.11890940601E+04 0.  0.
        2    1    3    3  502    0 -0.40850583684E+02  0.46842943534E+03  0.31966813550E+03  0.56857947812E+03  0.25500000920E-02 0. -1.
       -2    1    3    3    0  502  0.40850583684E+02 -0.46842943534E+03 -0.41014771208E+03  0.62395196274E+03  0.25500000920E-02 0.  1.
</event>
<event>
 5   0  0.2047109E-03  0.1184378E+04  0.7818609E-02  0.9126641E-01
       -1   -1    0    0    0  501  0.00000000000E+00  0.00000000000E+00  0.16912481647E+03  0.16912481654E+03  0.50400001928E-02 0.  1.
        1   -1    0    0  501    0  0.00000000000E+00  0.00000000000E+00 -0.20735440621E+04  0.20735440621E+04  0.50400001928E-02 0. -1.
    10030    2    1    2    0    0  0.00000000000E+00  0.00000000000E+00 -0.19044192456E+04  0.22426688787E+04  0.11843779110E+04 0.  0.
        1    1    3    3  502    0  0.43003199631E+03 -0.40258235192E+03 -0.83722172770E+03  0.10236895473E+04  0.50400001928E-02 0.  1.
       -1    1    3    3    0  502 -0.43003199631E+03  0.40258235192E+03 -0.10671975179E+04  0.12189793313E+04  0.50400001928E-02 0. -1.
</event>
<event>
 5   0  0.3706035E-03  0.1186198E+04  0.7818609E-02  0.9125024E-01
        2   -1    0    0  501    0  0.00000000000E+00  0.00000000000E+00  0.11069963402E+04  0.11069963402E+04  0.25500000920E-02 0.  1.
       -2   -1    0    0    0  501  0.00000000000E+00  0.00000000000E+00 -0.31776649152E+03  0.31776649153E+03  0.25500000920E-02 0. -1.
    10030    2    1    2    0    0  0.00000000000E+00  0.00000000000E+00  0.78922984871E+03  0.14247628318E+04  0.11861978640E+04 0.  0.
        2    1    3    3  502    0  0.56770409140E+03  0.11955276773E+03  0.24660166939E+03  0.63039129358E+03  0.25500000920E-02 0.  1.
       -2    1    3    3    0  502 -0.56770409140E+03 -0.11955276773E+03  0.54262817932E+03  0.79437153818E+03  0.25500000920E-02 0. -1.
</event>
<event>
 5   0  0.2096270E-03  0.1165192E+04  0.7818609E-02  0.9143881E-01
       -1   -1    0    0    0  501  0.00000000000E+00  0.00000000000E+00  0.20690655991E+03  0.20690655997E+03  0.50400001928E-02 0.  1.
        1   -1    0    0  501    0  0.00000000000E+00  0.00000000000E+00 -0.16404427132E+04  0.16404427132E+04  0.50400001928E-02 0. -1.
    10030    2    1    2    0    0  0.00000000000E+00  0.00000000000E+00 -0.14335361532E+04  0.18473492731E+04  0.11651924452E+04 0.  0.
        2    1    3    3  502    0  0.34266906780E+03  0.45427815508E+03 -0.51857071752E+03  0.76987422433E+03  0.25500000920E-02 0.  1.
       -2    1    3    3    0  502 -0.34266906780E+03 -0.45427815508E+03 -0.91496543573E+03  0.10774750488E+04  0.25500000920E-02 0. -1.
</event>
<event>
 5   0  0.2096270E-03  0.1196430E+04  0.7818609E-02  0.9115987E-01
       -1   -1    0    0    0  501  0.00000000000E+00  0.00000000000E+00  0.70022875088E+03  0.70022875089E+03  0.50400001928E-02 0.  1.
        1   -1    0    0  501    0  0.00000000000E+00  0.00000000000E+00 -0.51106311443E+03  0.51106311446E+03  0.50400001928E-02 0. -1.
    10030    2    1    2    0    0  0.00000000000E+00  0.00000000000E+00  0.18916563644E+03  0.12112918654E+04  0.11964298329E+04 0.  0.
        2    1    3    3  502    0  0.97448775973E+01  0.51533137263E+03 -0.21283307819E+03  0.55763725255E+03  0.25500000920E-02 0. -1.
       -2    1    3    3    0  502 -0.97448775973E+01 -0.51533137263E+03  0.40199871464E+03  0.65365461280E+03  0.25500000920E-02 0.  1.
</event>
<event>
 5   0  0.2134992E-03  0.1217215E+04  0.7818609E-02  0.9097921E-01
       -1   -1    0    0    0  501  0.00000000000E+00  0.00000000000E+00  0.21468742822E+03  0.21468742828E+03  0.50400001928E-02 0. -1.
        1   -1    0    0  501    0  0.00000000000E+00  0.00000000000E+00 -0.17253119707E+04  0.17253119708E+04  0.50400001928E-02 0.  1.
    10030    2    1    2    0    0  0.00000000000E+00  0.00000000000E+00 -0.15106245425E+04  0.19399993990E+04  0.12172145085E+04 0.  0.
        4    1    3    3  502    0 -0.51802709543E+03  0.28686776324E+03 -0.53129376646E+03  0.79556260871E+03  0.12699999809E+01 0. -1.
       -4    1    3    3    0  502  0.51802709543E+03 -0.28686776324E+03 -0.97933077607E+03  0.11444367903E+04  0.12699999809E+01 0.  1.
</event>
<event>
 5   0  0.2134992E-03  0.1169200E+04  0.7818609E-02  0.9140251E-01
       -1   -1    0    0    0  501  0.00000000000E+00  0.00000000000E+00  0.17597770790E+03  0.17597770797E+03  0.50400001928E-02 0. -1.
        1   -1    0    0  501    0  0.00000000000E+00  0.00000000000E+00 -0.19420486089E+04  0.19420486089E+04  0.50400001928E-02 0.  1.
    10030    2    1    2    0    0  0.00000000000E+00  0.00000000000E+00 -0.17660709010E+04  0.21180263169E+04  0.11692001760E+04 0.  0.
        4    1    3    3  502    0  0.87960606246E+02 -0.31837151466E+03 -0.92564062551E+01  0.33043120851E+03  0.12699999809E+01 0. -1.
       -4    1    3    3    0  502 -0.87960606246E+02  0.31837151466E+03 -0.17568144947E+04  0.17875951084E+04  0.12699999809E+01 0.  1.
</event>
<event>
 5   0  0.2025294E-03  0.1189686E+04  0.7818609E-02  0.9121932E-01
        1   -1    0    0  501    0  0.00000000000E+00  0.00000000000E+00  0.57518588623E+03  0.57518588625E+03  0.50400001928E-02 0. -1.
       -1   -1    0    0    0  501  0.00000000000E+00  0.00000000000E+00 -0.61517237132E+03  0.61517237134E+03  0.50400001928E-02 0.  1.
    10030    2    1    2    0    0  0.00000000000E+00  0.00000000000E+00 -0.39986485091E+02  0.11903582576E+04  0.11896864555E+04 0.  0.
        5    1    3    3  502    0  0.35109683851E+03  0.15211964771E+03  0.43568351256E+03  0.57987204653E+03  0.46999998093E+01 0. -1.
       -5    1    3    3    0  502 -0.35109683851E+03 -0.15211964771E+03 -0.47566999765E+03  0.61048621106E+03  0.46999998093E+01 0.  1.
</event>
<event>
 5   0  0.2078258E-03  0.1192217E+04  0.7818609E-02  0.9119696E-01
       -1   -1    0    0    0  501  0.00000000000E+00  0.00000000000E+00  0.35614020889E+03  0.35614020893E+03  0.50400001928E-02 0.  1.
        1   -1    0    0  501    0  0.00000000000E+00  0.00000000000E+00 -0.99776863197E+03  0.99776863199E+03  0.50400001928E-02 0. -1.
    10030    2    1    2    0    0  0.00000000000E+00  0.00000000000E+00 -0.64162842308E+03  0.13539088409E+04  0.11922173108E+04 0.  0.
        3    1    3    3  502    0  0.11124183028E+03 -0.56067344481E+03 -0.12870909268E+03  0.58591424053E+03  0.10100000352E+00 0.  1.
       -3    1    3    3    0  502 -0.11124183028E+03  0.56067344481E+03 -0.51291933040E+03  0.76799460038E+03  0.10100000352E+00 0. -1.
</event>
<event>
 5   0  0.3751091E-03  0.1232511E+04  0.7818609E-02  0.9084866E-01
        2   -1    0    0  501    0  0.00000000000E+00  0.00000000000E+00  0.30143858631E+03  0.30143858632E+03  0.25500000920E-02 0. -1.
       -2   -1    0    0    0  501  0.00000000000E+00  0.00000000000E+00 -0.12598611247E+04  0.12598611247E+04  0.25500000920E-02 0.  1.
    10030    2    1    2    0    0  0.00000000000E+00  0.00000000000E+00 -0.95842253843E+03  0.15612997111E+04  0.12325108623E+04 0.  0.
        5    1    3    3  502    0  0.41165036534E+03 -0.24690574378E+03 -0.96873003206E+03  0.10811468146E+04  0.46999998093E+01 0.  1.
       -5    1    3    3    0  502 -0.41165036534E+03  0.24690574378E+03  0.10307493627E+02  0.48015289651E+03  0.46999998093E+01 0. -1.
</event>
<event>
 5   0  0.2025294E-03  0.1112908E+04  0.7818609E-02  0.9192702E-01
       -1   -1    0    0    0  501  0.00000000000E+00  0.00000000000E+00  0.25558667688E+03  0.25558667693E+03  0.50400001928E-02 0. -1.
        1   -1    0    0  501    0  0.00000000000E+00  0.00000000000E+00 -0.12114905532E+04  0.12114905532E+04  0.50400001928E-02 0.  1.
    10030    2    1    2    0    0  0.00000000000E+00  0.00000000000E+00 -0.95590387634E+03  0.14670772301E+04  0.11129076235E+04 0.  0.
        5    1    3    3  502    0  0.41864439877E+03 -0.36526017115E+03 -0.43752199567E+03  0.70719566737E+03  0.46999998093E+01 0. -1.
       -5    1    3    3    0  502 -0.41864439877E+03  0.36526017115E+03 -0.51838188066E+03  0.75988156278E+03  0.46999998093E+01 0.  1.
</event>
<event>
 5   0  0.3626049E-03  0.1214933E+04  0.7818609E-02  0.9099885E-01
        2   -1    0    0  501    0  0.00000000000E+00  0.00000000000E+00  0.16343171994E+04  0.16343171994E+04  0.25500000920E-02 0. -1.
       -2   -1    0    0    0  501  0.00000000000E+00  0.00000000000E+00 -0.22579205938E+03  0.22579205940E+03  0.25500000920E-02 0.  1.
    10030    2    1    2    0    0  0.00000000000E+00  0.00000000000E+00  0.14085251400E+04  0.18601092588E+04  0.12149334898E+04 0.  0.
        1    1    3    3  502    0 -0.16124033243E+03  0.19263478038E+03  0.15510653017E+04  0.15712766064E+04  0.50400001928E-02 0. -1.
       -1    1    3    3    0  502  0.16124033243E+03 -0.19263478038E+03 -0.14254016169E+03  0.28883265247E+03  0.50400001928E-02 0.  1.
</event>
<event>
 5   0  0.2078258E-03  0.1198946E+04  0.7818609E-02  0.9113779E-01
        1   -1    0    0  501    0  0.00000000000E+00  0.00000000000E+00  0.11367566976E+04  0.11367566976E+04  0.50400001928E-02 0. -1.
       -1   -1    0    0    0  501  0.00000000000E+00  0.00000000000E+00 -0.31613460230E+03  0.31613460234E+03  0.50400001928E-02 0.  1.
    10030    2    1    2    0    0  0.00000000000E+00  0.00000000000E+00  0.82062209528E+03  0.14528912999E+04  0.11989464150E+04 0.  0.
        3    1    3    3  502    0 -0.65884020877E+02  0.53526237958E+03  0.93100888136E+02  0.54727900085E+03  0.10100000352E+00 0.  1.
       -3    1    3    3    0  502  0.65884020877E+02 -0.53526237958E+03  0.72752120714E+03  0.90561229908E+03  0.10100000352E+00 0. -1.
</event>
<event>
 5   0  0.2096270E-03  0.1206222E+04  0.7818609E-02  0.9107428E-01
       -1   -1    0    0    0  501  0.00000000000E+00  0.00000000000E+00  0.28213833583E+03  0.28213833588E+03  0.50400001928E-02 0.  1.
        1   -1    0    0  501    0  0.00000000000E+00  0.00000000000E+00 -0.12892356561E+04  0.12892356561E+04  0.50400001928E-02 0. -1.
    10030    2    1    2    0    0  0.00000000000E+00  0.00000000000E+00 -0.10070973203E+04  0.15713739920E+04  0.12062218744E+04 0.  0.
        2    1    3    3  502    0 -0.76047157685E+01 -0.48281933473E+03 -0.97428186003E+03  0.10873810208E+04  0.25500000920E-02 0. -1.
       -2    1    3    3    0  502  0.76047157685E+01  0.48281933473E+03 -0.32815460247E+02  0.48399297116E+03  0.25500000920E-02 0.  1.
</event>
<event>
 5   0  0.1397500E-03  0.1201552E+04  0.7818609E-02  0.9111499E-01
        3   -1    0    0  501    0  0.00000000000E+00  0.00000000000E+00  0.55476799388E+03  0.55476800307E+03  0.10100000352E+00 0.  1.
       -3   -1    0    0    0  501  0.00000000000E+00  0.00000000000E+00 -0.65059945235E+03  0.65059946019E+03  0.10100000352E+00 0. -1.
    10030    2    1    2    0    0  0.00000000000E+00  0.00000000000E+00 -0.95831458472E+02  0.12053674633E+04  0.12015519352E+04 0.  0.
        5    1    3    3  502    0 -0.49944234500E+03 -0.53033203314E+02 -0.37859027765E+03  0.62897365999E+03  0.46999998093E+01 0. -1.
       -5    1    3    3    0  502  0.49944234500E+03  0.53033203314E+02  0.28275881917E+03  0.57639380328E+03  0.46999998093E+01 0.  1.
</event>
<event>
 5   0  0.3626049E-03  0.1229553E+04  0.7818609E-02  0.9087375E-01
        2   -1    0    0  501    0  0.00000000000E+00  0.00000000000E+00  0.26967055700E+03  0.26967055701E+03  0.25500000920E-02 0.  1.
       -2   -1    0    0    0  501  0.00000000000E+00  0.00000000000E+00 -0.14015256082E+04  0.14015256082E+04  0.25500000920E-02 0. -1.
    10030    2    1    2    0    0  0.00000000000E+00  0.00000000000E+00 -0.11318550512E+04  0.16711961652E+04  0.12295530756E+04 0.  0.
        1    1    3    3  502    0 -0.44756008515E+03  0.30115584400E+03 -0.16515009831E+03  0.56416258932E+03  0.50400001928E-02 0.  1.
       -1    1    3    3    0  502  0.44756008515E+03 -0.30115584400E+03 -0.96670495292E+03  0.11070335759E+04  0.50400001928E-02 0. -1.
</event>
<event>
 5   0  0.3650180E-03  0.1061166E+04  0.7818609E-02  0.9243891E-01
       -2   -1    0    0    0  501  0.00000000000E+00  0.00000000000E+00  0.28548141615E+03  0.28548141616E+03  0.25500000920E-02 0. -1.
        2   -1    0    0  501    0  0.00000000000E+00  0.00000000000E+00 -0.98611824953E+03  0.98611824954E+03  0.25500000920E-02 0.  1.
    10030    2    1    2    0    0  0.00000000000E+00  0.00000000000E+00 -0.70063683338E+03  0.12715996657E+04  0.10611662158E+04 0.  0.
        3    1    3    3  502    0  0.25949728457E+03 -0.71438773681E+02 -0.89824096095E+03  0.93769887128E+03  0.10100000352E+00 0.  1.
       -3    1    3    3    0  502 -0.25949728457E+03  0.71438773681E+02  0.19760412756E+03  0.33390079442E+03  0.10100000352E+00 0. -1.
</event>
<event>
 5   0  0.3626049E-03  0.1228945E+04  0.7818609E-02  0.9087892E-01
       -2   -1    0    0    0  501  0.00000000000E+00  0.00000000000E+00  0.34472574804E+03  0.34472574805E+03  0.25500000920E-02 0. -1.
        2   -1    0    0  501    0  0.00000000000E+00  0.00000000000E+00 -0.10952944123E+04  0.10952944123E+04  0.25500000920E-02 0.  1.
    10030    2    1    2    0    0  0.00000000000E+00  0.00000000000E+00 -0.75056866425E+03  0.14400201603E+04  0.12289445644E+04 0.  0.
        1    1    3    3  502    0 -0.57997025774E+03  0.11879739926E+03 -0.18239695581E+03  0.61947314022E+03  0.50400001928E-02 0. -1.
       -1    1    3    3    0  502  0.57997025774E+03 -0.11879739926E+03 -0.56817170843E+03  0.82054702012E+03  0.50400001928E-02 0.  1.
</event>
<event>
 5   0  0.3650180E-03  0.1193484E+04  0.7818609E-02  0.9118579E-01
       -2   -1    0    0    0  501  0.00000000000E+00  0.00000000000E+00  0.49324149939E+03  0.49324149940E+03  0.25500000920E-02 0. -1.
        2   -1    0    0  501    0  0.00000000000E+00  0.00000000000E+00 -0.72196042832E+03  0.72196042833E+03  0.25500000920E-02 0.  1.
    10030    2    1    2    0    0  0.00000000000E+00  0.00000000000E+00 -0.22871892893E+03  0.12152019277E+04  0.11934837145E+04 0.  0.
        3    1    3    3  502    0  0.39123964339E+03  0.45027518664E+03 -0.97181425270E+02  0.60436780348E+03  0.10100000352E+00 0. -1.
       -3    1    3    3    0  502 -0.39123964339E+03 -0.45027518664E+03 -0.13153750366E+03  0.61083412424E+03  0.10100000352E+00 0.  1.
</event>
<event>
 5   0  0.3706035E-03  0.1254217E+04  0.7818609E-02  0.9066680E-01
        2   -1    0    0  501    0  0.00000000000E+00  0.00000000000E+00  0.10042656081E+04  0.10042656081E+04  0.25500000920E-02 0. -1.
       -2   -1    0    0    0  501  0.00000000000E+00  0.00000000000E+00 -0.39159493188E+03  0.39159493188E+03  0.25500000920E-02 0.  1.
    10030    2    1    2    0    0  0.00000000000E+00  0.00000000000E+00  0.61267067625E+03  0.13958605400E+04  0.12542174013E+04 0.  0.
        2    1    3    3  502    0 -0.21607638469E+03 -0.46637756430E+03 -0.93497978522E+02  0.52243555440E+03  0.25500000920E-02 0.  1.
       -2    1    3    3    0  502  0.21607638469E+03  0.46637756430E+03  0.70616865477E+03  0.87342498561E+03  0.25500000920E-02 0. -1.
</event>
<event>
 5   0  0.3626049E-03  0.1253100E+04  0.7818609E-02  0.9067607E-01
        2   -1    0    0  501    0  0.00000000000E+00  0.00000000000E+00  0.55329009994E+03  0.55329009994E+03  0.25500000920E-02 0. -1.
       -2   -1    0    0    0  501  0.00000000000E+00  0.00000000000E+00 -0.70950976321E+03  0.70950976321E+03  0.25500000920E-02 0.  1.
    10030    2    1    2    0    0  0.00000000000E+00  0.00000000000E+00 -0.15621966327E+03  0.12627998632E+04  0.12530997212E+04 0.  0.
        1    1    3    3  502    0 -0.38629588818E+03  0.24041251410E+03  0.35597044545E+03  0.57770031005E+03  0.50400001928E-02 0. -1.
       -1    1    3    3    0  502  0.38629588818E+03 -0.24041251410E+03 -0.51219010872E+03  0.68509955311E+03  0.50400001928E-02 0.  1.
</event>
<event>
 5   0  0.2025294E-03  0.1203089E+04  0.7818609E-02  0.9110157E-01
        1   -1    0    0  501    0  0.00000000000E+00  0.00000000000E+00  0.13162066073E+04  0.13162066073E+04  0.50400001928E-02 0.  1.
       -1   -1    0    0    0  501  0.00000000000E+00  0.00000000000E+00 -0.27492302018E+03  0.27492302022E+03  0.50400001928E-02 0. -1.
    10030    2    1    2    0    0  0.00000000000E+00  0.00000000000E+00  0.10412835871E+04  0.15911296275E+04  0.12030885183E+04 0.  0.
        5    1    3    3  502    0  0.84789764162E+02  0.11072322218E+03 -0.25322285718E+03  0.28912426642E+03  0.46999998093E+01 0. -1.
       -5    1    3    3    0  502 -0.84789764162E+02 -0.11072322218E+03  0.12945064443E+04  0.13020053611E+04  0.46999998093E+01 0.  1.
</event>
<event>
 5   0  0.2025294E-03  0.1202726E+04  0.7818609E-02  0.9110474E-01
       -1   -1    0    0    0  501  0.00000000000E+00  0.00000000000E+00  0.89525986241E+03  0.89525986242E+03  0.50400001928E-02 0. -1.
        1   -1    0    0  501    0  0.00000000000E+00  0.00000000000E+00 -0.40394711993E+03  0.40394711996E+03  0.50400001928E-02 0.  1.
    10030    2    1    2    0    0  0.00000000000E+00  0.00000000000E+00  0.49131274248E+03  0.12992069824E+04  0.12027263081E+04 0.  0.
        5    1    3    3  502    0 -0.24395966210E+03  0.13775988540E+03  0.82043144043E+03  0.86696247970E+03  0.46999998093E+01 0. -1.
       -5    1    3    3    0  502  0.24395966210E+03 -0.13775988540E+03 -0.32911869796E+03  0.43224450268E+03  0.46999998093E+01 0.  1.
</event>
<event>
 5   0  0.3706035E-03  0.1200458E+04  0.7818609E-02  0.9112456E-01
       -2   -1    0    0    0  501  0.00000000000E+00  0.00000000000E+00  0.19095320924E+03  0.19095320926E+03  0.25500000920E-02 0. -1.
        2   -1    0    0  501    0  0.00000000000E+00  0.00000000000E+00 -0.18867176214E+04  0.18867176214E+04  0.25500000920E-02 0.  1.
    10030    2    1    2    0    0  0.00000000000E+00  0.00000000000E+00 -0.16957644121E+04  0.20776708306E+04  0.12004578872E+04 0.  0.
        2    1    3    3  502    0  0.54678077836E+03 -0.19609439184E+03 -0.11095180196E+04  0.12523787231E+04  0.25500000920E-02 0. -1.
       -2    1    3    3    0  502 -0.54678077836E+03  0.19609439184E+03 -0.58624639249E+03  0.82529210756E+03  0.25500000920E-02 0.  1.
</event>
<event>
 5   0  0.2078258E-03  0.1198233E+04  0.7818609E-02  0.9114405E-01
        1   -1    0    0  501    0  0.00000000000E+00  0.00000000000E+00  0.45551591904E+03  0.45551591907E+03  0.50400001928E-02 0. -1.
       -1   -1    0    0    0  501  0.00000000000E+00  0.00000000000E+00 -0.78798647853E+03  0.78798647855E+03  0.50400001928E-02 0.  1.
    10030    2    1    2    0    0  0.00000000000E+00  0.00000000000E+00 -0.33247055949E+03  0.12435023976E+04  0.11982326736E+04 0.  0.
        3    1    3    3  502    0  0.10629061019E+03 -0.27423175823E+03  0.37544198164E+03  0.47692498657E+03  0.10100000352E+00 0. -1.
       -3    1    3    3    0  502 -0.10629061019E+03  0.27423175823E+03 -0.70791254113E+03  0.76657741105E+03  0.10100000352E+00 0.  1.
</event>
<event>
 5   0  0.2025294E-03  0.1209342E+04  0.7818609E-02  0.9104718E-01
        1   -1    0    0  501    0  0.00000000000E+00  0.00000000000E+00  0.10027845353E+04  0.10027845353E+04  0.50400001928E-02 0. -1.
       -1   -1    0    0    0  501  0.00000000000E+00  0.00000000000E+00 -0.36461201876E+03  0.36461201879E+03  0.50400001928E-02 0.  1.
    10030    2    1    2    0    0  0.00000000000E+00  0.00000000000E+00  0.63817251656E+03  0.13673965541E+04  0.12093424558E+04 0.  0.
        5    1    3    3  502    0  0.17167074345E+03  0.33996551716E+03  0.85010078096E+03  0.93152607306E+03  0.46999998093E+01 0. -1.
       -5    1    3    3    0  502 -0.17167074345E+03 -0.33996551716E+03 -0.21192826440E+03  0.43587048106E+03  0.46999998093E+01 0.  1.
</event>
<event>
 5   0  0.1397500E-03  0.1204022E+04  0.7818609E-02  0.9109343E-01
       -4   -1    0    0    0  501  0.00000000000E+00  0.00000000000E+00  0.47063094616E+03  0.47063265971E+03  0.12699999809E+01 0.  1.
        4   -1    0    0  501    0  0.00000000000E+00  0.00000000000E+00 -0.77006328435E+03  0.77006433160E+03  0.12699999809E+01 0. -1.
    10030    2    1    2    0    0  0.00000000000E+00  0.00000000000E+00 -0.29943233819E+03  0.12406969913E+04  0.12040221340E+04 0.  0.
        4    1    3    3  502    0 -0.49820289390E+03  0.51954451857E+02 -0.49381943598E+03  0.70339507875E+03  0.12699999809E+01 0. -1.
       -4    1    3    3    0  502  0.49820289390E+03 -0.51954451857E+02  0.19438709778E+03  0.53730191256E+03  0.12699999809E+01 0.  1.
</event>
<event>
 5   0  0.3650180E-03  0.1232557E+04  0.7818609E-02  0.9084828E-01
        2   -1    0    0  501    0  0.00000000000E+00  0.00000000000E+00  0.41552442241E+03  0.41552442242E+03  0.25500000920E-02 0.  1.
       -2   -1    0    0    0  501  0.00000000000E+00  0.00000000000E+00 -0.91402310818E+03  0.91402310818E+03  0.25500000920E-02 0. -1.
    10030    2    1    2    0    0  0.00000000000E+00  0.00000000000E+00 -0.49849868576E+03  0.13295475306E+04  0.12325565693E+04 0.  0.
        3    1    3    3  502    0 -0.40735137908E+03 -0.23847147330E+03 -0.67665482613E+03  0.82502457754E+03  0.10100000352E+00 0. -1.
       -3    1    3    3    0  502  0.40735137908E+03  0.23847147330E+03  0.17815614037E+03  0.50452295306E+03  0.10100000352E+00 0.  1.
</event>
<event>
 5   0  0.2025294E-03  0.1199994E+04  0.7818609E-02  0.9112861E-01
       -1   -1    0    0    0  501  0.00000000000E+00  0.00000000000E+00  0.89533517344E+03  0.89533517346E+03  0.50400001928E-02 0. -1.
        1   -1    0    0  501    0  0.00000000000E+00  0.00000000000E+00 -0.40208029340E+03  0.40208029343E+03  0.50400001928E-02 0.  1.
    10030    2    1    2    0    0  0.00000000000E+00  0.00000000000E+00  0.49325488004E+03  0.12974154669E+04  0.11999943821E+04 0.  0.
        5    1    3    3  502    0 -0.24622910430E+03  0.43647365252E+03 -0.11005947517E+03  0.51310154865E+03  0.46999998093E+01 0.  1.
       -5    1    3    3    0  502  0.24622910430E+03 -0.43647365252E+03  0.60331435521E+03  0.78431391824E+03  0.46999998093E+01 0. -1.
</event>
<event>
 5   0  0.3706035E-03  0.1204424E+04  0.7818609E-02  0.9108993E-01
       -2   -1    0    0    0  501  0.00000000000E+00  0.00000000000E+00  0.49282696276E+03  0.49282696276E+03  0.25500000920E-02 0. -1.
        2   -1    0    0  501    0  0.00000000000E+00  0.00000000000E+00 -0.73587504588E+03  0.73587504588E+03  0.25500000920E-02 0.  1.
    10030    2    1    2    0    0  0.00000000000E+00  0.00000000000E+00 -0.24304808312E+03  0.12287020086E+04  0.12044236196E+04 0.  0.
        2    1    3    3  502    0 -0.48519926894E+03  0.32159498776E+03 -0.27896381397E+03  0.64549397847E+03  0.25500000920E-02 0. -1.
       -2    1    3    3    0  502  0.48519926894E+03 -0.32159498776E+03  0.35915730847E+02  0.58320803017E+03  0.25500000920E-02 0.  1.
</event>
<event>
 5   0  0.2047109E-03  0.1193813E+04  0.7818609E-02  0.9118290E-01
       -1   -1    0    0    0  501  0.00000000000E+00  0.00000000000E+00  0.16880463337E+03  0.16880463344E+03  0.50400001928E-02 0. -1.
        1   -1    0    0  501    0  0.00000000000E+00  0.00000000000E+00 -0.21107068784E+04  0.21107068785E+04  0.50400001928E-02 0.  1.
    10030    2    1    2    0    0  0.00000000000E+00  0.00000000000E+00 -0.19419022451E+04  0.22795115119E+04  0.11938125495E+04 0.  0.
        1    1    3    3  502    0 -0.43946205119E+03  0.32707086474E+03 -0.14235921652E+04  0.15253579573E+04  0.50400001928E-02 0.  1.
       -1    1    3    3    0  502  0.43946205119E+03 -0.32707086474E+03 -0.51831007983E+03  0.75415355458E+03  0.50400001928E-02 0. -1.
</event>
<event>
 5   0  0.1397500E-03  0.1196313E+04  0.7818609E-02  0.9116090E-01
       -3   -1    0    0    0  501  0.00000000000E+00  0.00000000000E+00  0.46617817996E+03  0.46617819090E+03  0.10100000352E+00 0.  1.
        3   -1    0    0  501    0  0.00000000000E+00  0.00000000000E+00 -0.76749890646E+03  0.76749891311E+03  0.10100000352E+00 0. -1.
    10030    2    1    2    0    0  0.00000000000E+00  0.00000000000E+00 -0.30132072651E+03  0.12336771040E+04  0.11963130931E+04 0.  0.
        1    1    3    3  502    0  0.37130359722E+03 -0.44554224097E+03 -0.30157661534E+03  0.65369924640E+03  0.50400001928E-02 0. -1.
       -1    1    3    3    0  502 -0.37130359722E+03  0.44554224097E+03  0.25588883211E+00  0.57997785760E+03  0.50400001928E-02 0.  1.
</event>
<event>
 5   0  0.3650180E-03  0.1184123E+04  0.7818609E-02  0.9126868E-01
       -2   -1    0    0    0  501  0.00000000000E+00  0.00000000000E+00  0.40200332767E+03  0.40200332768E+03  0.25500000920E-02 0.  1.
        2   -1    0    0  501    0  0.00000000000E+00  0.00000000000E+00 -0.87197463297E+03  0.87197463298E+03  0.25500000920E-02 0. -1.
    10030    2    1    2    0    0  0.00000000000E+00  0.00000000000E+00 -0.46997130531E+03  0.12739779607E+04  0.11841228046E+04 0.  0.
        3    1    3    3  502    0  0.54646186863E+03  0.45928798186E+01 -0.48007703122E+03  0.72740335064E+03  0.10100000352E+00 0. -1.
       -3    1    3    3    0  502 -0.54646186863E+03 -0.45928798186E+01  0.10105725912E+02  0.54657461002E+03  0.10100000352E+00 0.  1.
</event>
<event>
 5   0  0.2096270E-03  0.1200846E+04  0.7818609E-02  0.9112117E-01
       -1   -1    0    0    0  501  0.00000000000E+00  0.00000000000E+00  0.88190319023E+03  0.88190319024E+03  0.50400001928E-02 0.  1.
        1   -1    0    0  501    0  0.00000000000E+00  0.00000000000E+00 -0.40878368766E+03  0.40878368769E+03  0.50400001928E-02 0. -1.
    10030    2    1    2    0    0  0.00000000000E+00  0.00000000000E+00  0.47311950257E+03  0.12906868779E+04  0.12008457658E+04 0.  0.
        2    1    3    3  502    0  0.31506584612E+03  0.57567510772E+02 -0.30930138975E+03  0.44525032891E+03  0.25500000920E-02 0. -1.
       -2    1    3    3    0  502 -0.31506584612E+03 -0.57567510772E+02  0.78242089232E+03  0.84543654902E+03  0.25500000920E-02 0.  1.
</event>
<event>
 5   0  0.2078258E-03  0.1206208E+04  0.7818609E-02  0.9107440E-01
       -1   -1    0    0    0  501  0.00000000000E+00  0.00000000000E+00  0.14895364285E+04  0.14895364285E+04  0.50400001928E-02 0.  1.
        1   -1    0    0  501    0  0.00000000000E+00  0.00000000000E+00 -0.24419286513E+03  0.24419286518E+03  0.50400001928E-02 0. -1.
    10030    2    1    2    0    0  0.00000000000E+00  0.00000000000E+00  0.12453435633E+04  0.17337292936E+04  0.12062075580E+04 0.  0.
        3    1    3    3  502    0 -0.45356297616E+03 -0.32104682471E+03  0.95958517513E+03  0.11088706667E+04  0.10100000352E+00 0.  1.
       -3    1    3    3    0  502  0.45356297616E+03  0.32104682471E+03  0.28575838820E+03  0.62485862691E+03  0.10100000352E+00 0. -1.
</event>
<event>
 5   0  0.2025294E-03  0.1197084E+04  0.7818609E-02  0.9115413E-01
       -1   -1    0    0    0  501  0.00000000000E+00  0.00000000000E+00  0.47488194527E+03  0.47488194530E+03  0.50400001928E-02 0. -1.
        1   -1    0    0  501    0  0.00000000000E+00  0.00000000000E+00 -0.75440315595E+03  0.75440315597E+03  0.50400001928E-02 0.  1.
    10030    2    1    2    0    0  0.00000000000E+00  0.00000000000E+00 -0.27952121068E+03  0.12292851013E+04  0.11970838538E+04 0.  0.
        5    1    3    3  502    0 -0.19368153576E+03  0.11733984510E+03  0.42917259491E+03  0.48527557404E+03  0.46999998093E+01 0. -1.
       -5    1    3    3    0  502  0.19368153576E+03 -0.11733984510E+03 -0.70869380558E+03  0.74400952723E+03  0.46999998093E+01 0.  1.
</event>
<event>
 5   0  0.2096270E-03  0.1198084E+04  0.7818609E-02  0.9114535E-01
       -1   -1    0    0    0  501  0.00000000000E+00  0.00000000000E+00  0.76347257182E+03  0.76347257184E+03  0.50400001928E-02 0.  1.
        1   -1    0    0  501    0  0.00000000000E+00  0.00000000000E+00 -0.47002531828E+03  0.47002531830E+03  0.50400001928E-02 0. -1.
    10030    2    1    2    0    0  0.00000000000E+00  0.00000000000E+00  0.29344725354E+03  0.12334978901E+04  0.11980842017E+04 0.  0.
        2    1    3    3  502    0  0.48706665894E+03  0.34747691030E+03  0.17721847024E+03  0.62400362150E+03  0.25500000920E-02 0. -1.
       -2    1    3    3    0  502 -0.48706665894E+03 -0.34747691030E+03  0.11622878330E+03  0.60949426865E+03  0.25500000920E-02 0.  1.
</event>
<event>
 5   0  0.3725376E-03  0.1106434E+04  0.7818609E-02  0.9198943E-01
       -2   -1    0    0    0  501  0.00000000000E+00  0.00000000000E+00  0.24286053378E+03  0.24286053379E+03  0.25500000920E-02 0. -1.
        2   -1    0    0  501    0  0.00000000000E+00  0.00000000000E+00 -0.12601845626E+04  0.12601845626E+04  0.25500000920E-02 0.  1.
    10030    2    1    2    0    0  0.00000000000E+00  0.00000000000E+00 -0.10173240288E+04  0.15030450964E+04  0.11064340840E+04 0.  0.
        4    1    3    3  502    0 -0.53015005560E+03  0.14697299065E+03 -0.42959853217E+03  0.69800906382E+03  0.12699999809E+01 0. -1.
       -4    1    3    3    0  502  0.53015005560E+03 -0.14697299065E+03 -0.58772549668E+03  0.80503603260E+03  0.12699999809E+01 0.  1.
</event>
<event>
 5   0  0.2134992E-03  0.1233540E+04  0.7818609E-02  0.9083995E-01
       -1   -1    0    0    0  501  0.00000000000E+00  0.00000000000E+00  0.27752472953E+03  0.27752472957E+03  0.50400001928E-02 0. -1.
        1   -1    0    0  501    0  0.00000000000E+00  0.00000000000E+00 -0.13707069516E+04  0.13707069517E+04  0.50400001928E-02 0.  1.
    10030    2    1    2    0    0  0.00000000000E+00  0.00000000000E+00 -0.10931822221E+04  0.16482316812E+04  0.12335397457E+04 0.  0.
        4    1    3    3  502    0 -0.35851365676E+03  0.19650510873E+03  0.70454012169E+02  0.41486344810E+03  0.12699999809E+01 0. -1.
       -4    1    3    3    0  502  0.35851365676E+03 -0.19650510873E+03 -0.11636362343E+04  0.12333682331E+04  0.12699999809E+01 0.  1.
</event>
<event>
 5   0  0.2025294E-03  0.1083408E+04  0.7818609E-02  0.9221516E-01
       -1   -1    0    0    0  501  0.00000000000E+00  0.00000000000E+00  0.40556251743E+03  0.40556251746E+03  0.50400001928E-02 0. -1.
        1   -1    0    0  501    0  0.00000000000E+00  0.00000000000E+00 -0.72354617707E+03  0.72354617709E+03  0.50400001928E-02 0.  1.
    10030    2    1    2    0    0  0.00000000000E+00  0.00000000000E+00 -0.31798365964E+03  0.11291086945E+04  0.10834079732E+04 0.  0.
        5    1    3    3  502    0 -0.90061873897E+02 -0.38455662089E+03 -0.54533965048E+03  0.67335901285E+03  0.46999998093E+01 0.  1.
       -5    1    3    3    0  502  0.90061873897E+02  0.38455662089E+03  0.22735599084E+03  0.45574968170E+03  0.46999998093E+01 0. -1.
</event>
<event>
 5   0  0.1397500E-03  0.1208989E+04  0.7818609E-02  0.9105024E-01
       -4   -1    0    0    0  501  0.00000000000E+00  0.00000000000E+00  0.38892897515E+03  0.38893104866E+03  0.12699999809E+01 0.  1.
        4   -1    0    0  501    0  0.00000000000E+00  0.00000000000E+00 -0.93953352954E+03  0.93953438789E+03  0.12699999809E+01 0. -1.
    10030    2    1    2    0    0  0.00000000000E+00  0.00000000000E+00 -0.55060455439E+03  0.13284654365E+04  0.12089892641E+04 0.  0.
        3    1    3    3  502    0  0.22464056851E+03  0.31969300987E+03  0.23152417889E+03  0.45417007959E+03  0.10100000352E+00 0.  1.
       -3    1    3    3    0  502 -0.22464056851E+03 -0.31969300987E+03 -0.78212873328E+03  0.87429535696E+03  0.10100000352E+00 0. -1.
</event>
<event>
 5   0  0.3626049E-03  0.1203377E+04  0.7818609E-02  0.9109906E-01
       -2   -1    0    0    0  501  0.00000000000E+00  0.00000000000E+00  0.28720322574E+03  0.28720322576E+03  0.25500000920E-02 0.  1.
        2   -1    0    0  501    0  0.00000000000E+00  0.00000000000E+00 -0.12605316758E+04  0.12605316758E+04  0.25500000920E-02 0. -1.
    10030    2    1    2    0    0  0.00000000000E+00  0.00000000000E+00 -0.97332845001E+03  0.15477349015E+04  0.12033765220E+04 0.  0.
        1    1    3    3  502    0 -0.40490969311E+03 -0.20832409116E+02  0.85124604589E+02  0.41428498305E+03  0.50400001928E-02 0. -1.
       -1    1    3    3    0  502  0.40490969311E+03  0.20832409116E+02 -0.10584530546E+04  0.11334499185E+04  0.50400001928E-02 0.  1.
</event>
<event>
 5   0  0.3650180E-03  0.1201121E+04  0.7818609E-02  0.9111876E-01
       -2   -1    0    0    0  501  0.00000000000E+00  0.00000000000E+00  0.42562904641E+03  0.42562904641E+03  0.25500000920E-02 0. -1.
        2   -1    0    0  501    0  0.00000000000E+00  0.00000000000E+00 -0.84738748925E+03  0.84738748925E+03  0.25500000920E-02 0.  1.
    10030    2    1    2    0    0  0.00000000000E+00  0.00000000000E+00 -0.42175844284E+03  0.12730165357E+04  0.12011206917E+04 0.  0.
        3    1    3    3  502    0  0.36381774748E+03 -0.47095216222E+03 -0.29641585390E+03  0.66484709605E+03  0.10100000352E+00 0.  1.
       -3    1    3    3    0  502 -0.36381774748E+03  0.47095216222E+03 -0.12534258895E+03  0.60816943962E+03  0.10100000352E+00 0. -1.
</event>
<event>
 5   0  0.3650180E-03  0.1198792E+04  0.7818609E-02  0.9113915E-01
       -2   -1    0    0    0  501  0.00000000000E+00  0.00000000000E+00  0.38667746291E+03  0.38667746292E+03  0.25500000920E-02 0. -1.
        2   -1    0    0  501    0  0.00000000000E+00  0.00000000000E+00 -0.92913474742E+03  0.92913474743E+03  0.25500000920E-02 0.  1.
    10030    2    1    2    0    0  0.00000000000E+00  0.00000000000E+00 -0.54245728451E+03  0.13158122104E+04  0.11987918366E+04 0.  0.
        3    1    3    3  502    0 -0.36395448064E+03  0.15348048041E+03 -0.76607705357E+03  0.86191251531E+03  0.10100000352E+00 0.  1.
       -3    1    3    3    0  502  0.36395448064E+03 -0.15348048041E+03  0.22361976906E+03  0.45389969504E+03  0.10100000352E+00 0. -1.
</event>
<event>
 5   0  0.2134992E-03  0.1208080E+04  0.7818609E-02  0.9105813E-01
        1   -1    0    0  501    0  0.00000000000E+00  0.00000000000E+00  0.12864643079E+04  0.12864643079E+04  0.50400001928E-02 0.  1.
       -1   -1    0    0    0  501  0.00000000000E+00  0.00000000000E+00 -0.28361813278E+03  0.28361813282E+03  0.50400001928E-02 0. -1.
    10030    2    1    2    0    0  0.00000000000E+00  0.00000000000E+00  0.10028461751E+04  0.15700824407E+04  0.12080804691E+04 0.  0.
        4    1    3    3  502    0 -0.48213140251E+03 -0.18628439290E+03  0.90767652677E+03  0.10445242240E+04  0.12699999809E+01 0. -1.
       -4    1    3    3    0  502  0.48213140251E+03  0.18628439290E+03  0.95169648336E+02  0.52555821674E+03  0.12699999809E+01 0.  1.
</event>
<event>
 5   0  0.3626049E-03  0.1271900E+04  0.7818609E-02  0.9052150E-01
       -2   -1    0    0    0  501  0.00000000000E+00  0.00000000000E+00  0.37284616242E+03  0.37284616242E+03  0.25500000920E-02 0. -1.
        2   -1    0    0  501    0  0.00000000000E+00  0.00000000000E+00 -0.10847169969E+04  0.10847169969E+04  0.25500000920E-02 0.  1.
    10030    2    1    2    0    0  0.00000000000E+00  0.00000000000E+00 -0.71187083448E+03  0.14575631593E+04  0.12719002628E+04 0.  0.
        1    1    3    3  502    0 -0.33687061873E+03 -0.32242106857E+03 -0.85148806319E+03  0.97080846772E+03  0.50400001928E-02 0.  1.
       -1    1    3    3    0  502  0.33687061873E+03  0.32242106857E+03  0.13961722871E+03  0.48675469160E+03  0.50400001928E-02 0. -1.
</event>
<event>
 5   0  0.2096270E-03  0.1207492E+04  0.7818609E-02  0.9106324E-01
        1   -1    0    0  501    0  0.00000000000E+00  0.00000000000E+00  0.50237485082E+03  0.50237485085E+03  0.50400001928E-02 0.  1.
       -1   -1    0    0    0  501  0.00000000000E+00  0.00000000000E+00 -0.72557269515E+03  0.72557269517E+03  0.50400001928E-02 0. -1.
    10030    2    1    2    0    0  0.00000000000E+00  0.00000000000E+00 -0.22319784433E+03  0.12279475460E+04  0.12074924008E+04 0.  0.
        2    1    3    3  502    0 -0.44966785663E+03 -0.40177298276E+03 -0.81315892320E+02  0.60846937911E+03  0.25500000920E-02 0.  1.
       -2    1    3    3    0  502  0.44966785663E+03  0.40177298276E+03 -0.14188195201E+03  0.61947816691E+03  0.25500000920E-02 0. -1.
</event>
<event>
 5   0  0.2047109E-03  0.1213608E+04  0.7818609E-02  0.9101028E-01
        1   -1    0    0  501    0  0.00000000000E+00  0.00000000000E+00  0.38286158130E+03  0.38286158133E+03  0.50400001928E-02 0.  1.
       -1   -1    0    0    0  501  0.00000000000E+00  0.00000000000E+00 -0.96173413221E+03  0.96173413223E+03  0.50400001928E-02 0. -1.
    10030    2    1    2    0    0  0.00000000000E+00  0.00000000000E+00 -0.57887255091E+03  0.13445957136E+04  0.12136079279E+04 0.  0.
        1    1    3    3  502    0 -0.32385184394E+03  0.50921888315E+03 -0.21912695262E+03  0.64202843330E+03  0.50400001928E-02 0.  1.
       -1    1    3    3    0  502  0.32385184394E+03 -0.50921888315E+03 -0.35974559830E+03  0.70256728026E+03  0.50400001928E-02 0. -1.
</event>
<event>
 5   0  0.2025294E-03  0.1211212E+04  0.7818609E-02  0.9103099E-01
        1   -1    0    0  501    0  0.00000000000E+00  0.00000000000E+00  0.69086862013E+03  0.69086862014E+03  0.50400001928E-02 0.  1.
       -1   -1    0    0    0  501  0.00000000000E+00  0.00000000000E+00 -0.53086596854E+03  0.53086596856E+03  0.50400001928E-02 0. -1.
    10030    2    1    2    0    0  0.00000000000E+00  0.00000000000E+00  0.16000265159E+03  0.12217345887E+04  0.12112120197E+04 0.  0.
        5    1    3    3  502    0 -0.10268873990E+03  0.53543770185E+03 -0.18591375839E+03  0.57604212123E+03  0.46999998093E+01 0. -1.
       -5    1    3    3    0  502  0.10268873990E+03 -0.53543770185E+03  0.34591640998E+03  0.64569246748E+03  0.46999998093E+01 0.  1.
</event>
<event>
 5   0  0.3706035E-03  0.1113141E+04  0.7818609E-02  0.9192478E-01
        2   -1    0    0  501    0  0.00000000000E+00  0.00000000000E+00  0.33522356290E+03  0.33522356291E+03  0.25500000920E-02 0.  1.
       -2   -1    0    0    0  501  0.00000000000E+00  0.00000000000E+00 -0.92407151429E+03  0.92407151429E+03  0.25500000920E-02 0. -1.
    10030    2    1    2    0    0  0.00000000000E+00  0.00000000000E+00 -0.58884795139E+03  0.12592950772E+04  0.11131406837E+04 0.  0.
        2    1    3    3  502    0  0.98834607639E+02 -0.22538325744E+03 -0.85917304416E+03  0.89372490858E+03  0.25500000920E-02 0. -1.
       -2    1    3    3    0  502 -0.98834607639E+02  0.22538325744E+03  0.27032509277E+03  0.36557016863E+03  0.25500000920E-02 0.  1.
</event>
<event>
 5   0  0.3626049E-03  0.1176556E+04  0.7818609E-02  0.9133628E-01
        2   -1    0    0  501    0  0.00000000000E+00  0.00000000000E+00  0.29968426725E+04  0.29968426725E+04  0.25500000920E-02 0. -1.
       -2   -1    0    0    0  501  0.00000000000E+00  0.00000000000E+00 -0.11547860925E+03  0.11547860928E+03  0.25500000920E-02 0.  1.
    10030    2    1    2    0    0  0.00000000000E+00  0.00000000000E+00  0.28813640632E+04  0.31123212818E+04  0.11765563718E+04 0.  0.
        1    1    3    3  502    0  0.47028293835E+03  0.71079207211E+01  0.50597812190E+03  0.69081866254E+03  0.50400001928E-02 0.  1.
       -1    1    3    3    0  502 -0.47028293835E+03 -0.71079207211E+01  0.23753859413E+04  0.24215026192E+04  0.50400001928E-02 0. -1.
</event>
<event>
 5   0  0.3751091E-03  0.1203407E+04  0.7818609E-02  0.9109880E-01
       -2   -1    0    0    0  501  0.00000000000E+00  0.00000000000E+00  0.44012945455E+03  0.44012945456E+03  0.25500000920E-02 0. -1.
        2   -1    0    0  501    0  0.00000000000E+00  0.00000000000E+00 -0.82259248032E+03  0.82259248032E+03  0.25500000920E-02 0.  1.
    10030    2    1    2    0    0  0.00000000000E+00  0.00000000000E+00 -0.38246302577E+03  0.12627219349E+04  0.12034071293E+04 0.  0.
        5    1    3    3  502    0 -0.99889573750E+02 -0.45676393606E+03  0.20613450258E+03  0.51100366278E+03  0.46999998093E+01 0. -1.
       -5    1    3    3    0  502  0.99889573750E+02  0.45676393606E+03 -0.58859752835E+03  0.75171827209E+03  0.46999998093E+01 0.  1.
</event>
<event>
 5   0  0.1397500E-03  0.1205471E+04  0.7818609E-02  0.9108082E-01
        3   -1    0    0  501    0  0.00000000000E+00  0.00000000000E+00  0.36966649026E+03  0.36966650405E+03  0.10100000352E+00 0. -1.
       -3   -1    0    0    0  501  0.00000000000E+00  0.00000000000E+00 -0.98275034943E+03  0.98275035462E+03  0.10100000352E+00 0.  1.
    10030    2    1    2    0    0  0.00000000000E+00  0.00000000000E+00 -0.61308385918E+03  0.13524168587E+04  0.12054706721E+04 0.  0.
        4    1    3    3  502    0  0.55644373999E+03 -0.21767103408E+03 -0.39543401901E+03  0.71650540204E+03  0.12699999809E+01 0.  1.
       -4    1    3    3    0  502 -0.55644373999E+03  0.21767103408E+03 -0.21764984016E+03  0.63591145664E+03  0.12699999809E+01 0. -1.
</event>
<event>
 5   0  0.1397500E-03  0.1178269E+04  0.7818609E-02  0.9132093E-01
       -4   -1    0    0    0  501  0.00000000000E+00  0.00000000000E+00  0.70978653107E+03  0.70978766726E+03  0.12699999809E+01 0.  1.
        4   -1    0    0  501    0  0.00000000000E+00  0.00000000000E+00 -0.48898878247E+03  0.48899043169E+03  0.12699999809E+01 0. -1.
    10030    2    1    2    0    0  0.00000000000E+00  0.00000000000E+00  0.22079774860E+03  0.11987780989E+04  0.11782687659E+04 0.  0.
        3    1    3    3  502    0 -0.20210459454E+03  0.31070861003E+03  0.57629233198E+03  0.68519994861E+03  0.10100000352E+00 0.  1.
       -3    1    3    3    0  502  0.20210459454E+03 -0.31070861003E+03 -0.35549458338E+03  0.51357815033E+03  0.10100000352E+00 0. -1.
</event>
<event>
 5   0  0.3725376E-03  0.1197234E+04  0.7818609E-02  0.9115281E-01
       -2   -1    0    0    0  501  0.00000000000E+00  0.00000000000E+00  0.33664296866E+03  0.33664296867E+03  0.25500000920E-02 0.  1.
        2   -1    0    0  501    0  0.00000000000E+00  0.00000000000E+00 -0.10644584738E+04  0.10644584738E+04  0.25500000920E-02 0. -1.
    10030    2    1    2    0    0  0.00000000000E+00  0.00000000000E+00 -0.72781550510E+03  0.14011014424E+04  0.11972342471E+04 0.  0.
        4    1    3    3  502    0 -0.56348615291E+03 -0.87031296799E+02 -0.15051253410E+03  0.58970054007E+03  0.12699999809E+01 0.  1.
       -4    1    3    3    0  502  0.56348615291E+03  0.87031296799E+02 -0.57730297100E+03  0.81140090237E+03  0.12699999809E+01 0. -1.
</event>
<event>
 5   0  0.3626049E-03  0.1193250E+04  0.7818609E-02  0.9118785E-01
        2   -1    0    0  501    0  0.00000000000E+00  0.00000000000E+00  0.18585579214E+04  0.18585579214E+04  0.25500000920E-02 0.  1.
       -2   -1    0    0    0  501  0.00000000000E+00  0.00000000000E+00 -0.19152574324E+03  0.19152574326E+03  0.25500000920E-02 0. -1.
    10030    2    1    2    0    0  0.00000000000E+00  0.00000000000E+00  0.16670321781E+04  0.20500836646E+04  0.11932504972E+04 0.  0.
        1    1    3    3  502    0  0.58468244060E+03 -0.10660626065E+03  0.92350138579E+03  0.10982136681E+04  0.50400001928E-02 0.  1.
       -1    1    3    3    0  502 -0.58468244060E+03  0.10660626065E+03  0.74353079235E+03  0.95186999657E+03  0.50400001928E-02 0. -1.
</event>
<event>
 5   0  0.2047109E-03  0.1211345E+04  0.7818609E-02  0.9102984E-01
       -1   -1    0    0    0  501  0.00000000000E+00  0.00000000000E+00  0.77562486592E+03  0.77562486593E+03  0.50400001928E-02 0.  1.
        1   -1    0    0  501    0  0.00000000000E+00  0.00000000000E+00 -0.47295983632E+03  0.47295983635E+03  0.50400001928E-02 0. -1.
    10030    2    1    2    0    0  0.00000000000E+00  0.00000000000E+00  0.30266502960E+03  0.12485847023E+04  0.12113453837E+04 0.  0.
        1    1    3    3  502    0  0.35621219715E+03 -0.39320638115E+03  0.45244512313E+03  0.69728400028E+03  0.50400001928E-02 0.  1.
       -1    1    3    3    0  502 -0.35621219715E+03  0.39320638115E+03 -0.14978009354E+03  0.55130070200E+03  0.50400001928E-02 0. -1.
</event>
<event>
 5   0  0.2025294E-03  0.1228359E+04  0.7818609E-02  0.9088389E-01
       -1   -1    0    0    0  501  0.00000000000E+00  0.00000000000E+00  0.36111167026E+03  0.36111167029E+03  0.50400001928E-02 0. -1.
        1   -1    0    0  501    0  0.00000000000E+00  0.00000000000E+00 -0.10445985875E+04  0.10445985875E+04  0.50400001928E-02 0.  1.
    10030    2    1    2    0    0  0.00000000000E+00  0.00000000000E+00 -0.68348691721E+03  0.14057102578E+04  0.12283594599E+04 0.  0.
        5    1    3    3  502    0  0.60517044991E+03 -0.59348078625E+02 -0.44046031718E+03  0.75085341371E+03  0.46999998093E+01 0. -1.
       -5    1    3    3    0  502 -0.60517044991E+03  0.59348078625E+02 -0.24302660003E+03  0.65485684405E+03  0.46999998093E+01 0.  1.
</event>
<event>
 5   0  0.3751091E-03  0.1197382E+04  0.7818609E-02  0.9115151E-01
       -2   -1    0    0    0  501  0.00000000000E+00  0.00000000000E+00  0.12510028457E+03  0.12510028459E+03  0.25500000920E-02 0. -1.
        2   -1    0    0  501    0  0.00000000000E+00  0.00000000000E+00 -0.28651496588E+04  0.28651496588E+04  0.25500000920E-02 0.  1.
    10030    2    1    2    0    0  0.00000000000E+00  0.00000000000E+00 -0.27400493742E+04  0.29902499434E+04  0.11973822074E+04 0.  0.
        5    1    3    3  502    0  0.19924636971E+03 -0.25397867187E+03 -0.26291427360E+04  0.26488899369E+04  0.46999998093E+01 0.  1.
       -5    1    3    3    0  502 -0.19924636971E+03  0.25397867187E+03 -0.11090663821E+03  0.34136000646E+03  0.46999998093E+01 0. -1.
</event>
<event>
 5   0  0.3751091E-03  0.1240298E+04  0.7818609E-02  0.9078297E-01
       -2   -1    0    0    0  501  0.00000000000E+00  0.00000000000E+00  0.23289830054E+04  0.23289830054E+04  0.25500000920E-02 0. -1.
        2   -1    0    0  501    0  0.00000000000E+00  0.00000000000E+00 -0.16513001740E+03  0.16513001742E+03  0.25500000920E-02 0.  1.
    10030    2    1    2    0    0  0.00000000000E+00  0.00000000000E+00  0.21638529880E+04  0.24941130228E+04  0.12402983581E+04 0.  0.
        5    1    3    3  502    0 -0.44656945910E+03 -0.27316909622E+03  0.41342089373E+03  0.66707163206E+03  0.46999998093E+01 0.  1.
       -5    1    3    3    0  502  0.44656945910E+03  0.27316909622E+03  0.17504320943E+04  0.18270413908E+04  0.46999998093E+01 0. -1.
</event>
<event>
 5   0  0.3751091E-03  0.1182854E+04  0.7818609E-02  0.9127998E-01
       -2   -1    0    0    0  501  0.00000000000E+00  0.00000000000E+00  0.84986775988E+03  0.84986775989E+03  0.25500000920E-02 0.  1.
        2   -1    0    0  501    0  0.00000000000E+00  0.00000000000E+00 -0.41157679890E+03  0.41157679890E+03  0.25500000920E-02 0. -1.
    10030    2    1    2    0    0  0.00000000000E+00  0.00000000000E+00  0.43829096099E+03  0.12614445588E+04  0.11828539252E+04 0.  0.
        5    1    3    3  502    0  0.14582971104E+03 -0.19294865012E+03  0.79469625800E+03  0.83069833194E+03  0.46999998093E+01 0.  1.
       -5    1    3    3    0  502 -0.14582971104E+03  0.19294865012E+03 -0.35640529702E+03  0.43074622685E+03  0.46999998093E+01 0. -1.
</event>
<event>
 5   0  0.3725376E-03  0.1229703E+04  0.7818609E-02  0.9087247E-01
       -2   -1    0    0    0  501  0.00000000000E+00  0.00000000000E+00  0.44063502995E+03  0.44063502995E+03  0.25500000920E-02 0.  1.
        2   -1    0    0  501    0  0.00000000000E+00  0.00000000000E+00 -0.85794915980E+03  0.85794915981E+03  0.25500000920E-02 0. -1.
    10030    2    1    2    0    0  0.00000000000E+00  0.00000000000E+00 -0.41731412986E+03  0.12985841898E+04  0.12297031410E+04 0.  0.
        4    1    3    3  502    0 -0.26137758667E+03  0.32593443011E+03  0.26770883550E+03  0.49620674023E+03  0.12699999809E+01 0.  1.
       -4    1    3    3    0  502  0.26137758667E+03 -0.32593443011E+03 -0.68502296536E+03  0.80237744953E+03  0.12699999809E+01 0. -1.
</event>
<event>
 5   0  0.3725376E-03  0.1205823E+04  0.7818609E-02  0.9107775E-01
        2   -1    0    0  501    0  0.00000000000E+00  0.00000000000E+00  0.15637967886E+04  0.15637967886E+04  0.25500000920E-02 0. -1.
       -2   -1    0    0    0  501  0.00000000000E+00  0.00000000000E+00 -0.23244865916E+03  0.23244865917E+03  0.25500000920E-02 0.  1.
    10030    2    1    2    0    0  0.00000000000E+00  0.00000000000E+00  0.13313481294E+04  0.17962454478E+04  0.12058233150E+04 0.  0.
        4    1    3    3  502    0  0.52771123580E+03 -0.25503641760E+03  0.87622609493E+03  0.10541804898E+04  0.12699999809E+01 0.  1.
       -4    1    3    3    0  502 -0.52771123580E+03  0.25503641760E+03  0.45512203451E+03  0.74206495800E+03  0.12699999809E+01 0. -1.
</event>
<event>
 5   0  0.2025294E-03  0.1150766E+04  0.7818609E-02  0.9157077E-01
        1   -1    0    0  501    0  0.00000000000E+00  0.00000000000E+00  0.60765953363E+03  0.60765953365E+03  0.50400001928E-02 0.  1.
       -1   -1    0    0    0  501  0.00000000000E+00  0.00000000000E+00 -0.54482122976E+03  0.54482122979E+03  0.50400001928E-02 0. -1.
    10030    2    1    2    0    0  0.00000000000E+00  0.00000000000E+00  0.62838303866E+02  0.11524807634E+04  0.11507663784E+04 0.  0.
        5    1    3    3  502    0 -0.50909146229E+03  0.22963674027E+03 -0.10712194625E+03  0.56868651366E+03  0.46999998093E+01 0. -1.
       -5    1    3    3    0  502  0.50909146229E+03 -0.22963674027E+03  0.16996025012E+03  0.58379424978E+03  0.46999998093E+01 0.  1.
</event>
<event>
 5   0  0.3650180E-03  0.1168864E+04  0.7818609E-02  0.9140555E-01
       -2   -1    0    0    0  501  0.00000000000E+00  0.00000000000E+00  0.20055916525E+03  0.20055916527E+03  0.25500000920E-02 0. -1.
        2   -1    0    0  501    0  0.00000000000E+00  0.00000000000E+00 -0.17030419463E+04  0.17030419463E+04  0.25500000920E-02 0.  1.
    10030    2    1    2    0    0  0.00000000000E+00  0.00000000000E+00 -0.15024827811E+04  0.19036011116E+04  0.11688638435E+04 0.  0.
        3    1    3    3  502    0  0.31526141983E+03 -0.15667072507E+03 -0.15109842004E+04  0.15514537515E+04  0.10100000352E+00 0.  1.
       -3    1    3    3    0  502 -0.31526141983E+03  0.15667072507E+03  0.85014193000E+01  0.35214736015E+03  0.10100000352E+00 0. -1.
</event>
<event>
 5   0  0.3706035E-03  0.1215884E+04  0.7818609E-02  0.9099066E-01
        2   -1    0    0  501    0  0.00000000000E+00  0.00000000000E+00  0.96411815120E+03  0.96411815121E+03  0.25500000920E-02 0. -1.
       -2   -1    0    0    0  501  0.00000000000E+00  0.00000000000E+00 -0.38334891666E+03  0.38334891667E+03  0.25500000920E-02 0.  1.
    10030    2    1    2    0    0  0.00000000000E+00  0.00000000000E+00  0.58076923454E+03  0.13474670679E+04  0.12158842853E+04 0.  0.
        2    1    3    3  502    0  0.56570561333E+03 -0.21889384878E+03  0.24528278240E+03  0.65429427732E+03  0.25500000920E-02 0. -1.
       -2    1    3    3    0  502 -0.56570561333E+03  0.21889384878E+03  0.33548645214E+03  0.69317279056E+03  0.25500000920E-02 0.  1.
</event>
<event>
 5   0  0.2078258E-03  0.1192042E+04  0.7818609E-02  0.9119851E-01
       -1   -1    0    0    0  501  0.00000000000E+00  0.00000000000E+00  0.28004435183E+03  0.28004435187E+03  0.50400001928E-02 0. -1.
        1   -1    0    0  501    0  0.00000000000E+00  0.00000000000E+00 -0.12685173134E+04  0.12685173134E+04  0.50400001928E-02 0.  1.
    10030    2    1    2    0    0  0.00000000000E+00  0.00000000000E+00 -0.98847296153E+03  0.15485616652E+04  0.11920421282E+04 0.  0.
        3    1    3    3  502    0  0.10180113305E+02 -0.59391279987E+03 -0.43052774866E+03  0.73361447718E+03  0.10100000352E+00 0. -1.
       -3    1    3    3    0  502 -0.10180113305E+02  0.59391279987E+03 -0.55794521287E+03  0.81494718806E+03  0.10100000352E+00 0.  1.
</event>
<event>
 5   0  0.3751091E-03  0.1205147E+04  0.7818609E-02  0.9108363E-01
       -2   -1    0    0    0  501  0.00000000000E+00  0.00000000000E+00  0.31893559291E+03  0.31893559292E+03  0.25500000920E-02 0. -1.
        2   -1    0    0  501    0  0.00000000000E+00  0.00000000000E+00 -0.11384583596E+04  0.11384583596E+04  0.25500000920E-02 0.  1.
    10030    2    1    2    0    0  0.00000000000E+00  0.00000000000E+00 -0.81952276671E+03  0.14573939525E+04  0.12051471146E+04 0.  0.
        5    1    3    3  502    0 -0.27382292166E+03  0.27939208739E+03 -0.96398058210E+03  0.10403458961E+04  0.46999998093E+01 0.  1.
       -5    1    3    3    0  502  0.27382292166E+03 -0.27939208739E+03  0.14445781540E+03  0.41704805641E+03  0.46999998093E+01 0. -1.
</event>
<event>
 5   0  0.3706035E-03  0.1205094E+04  0.7818609E-02  0.9108409E-01
        2   -1    0    0  501    0  0.00000000000E+00  0.00000000000E+00  0.19677712596E+04  0.19677712596E+04  0.25500000920E-02 0.  1.
       -2   -1    0    0    0  501  0.00000000000E+00  0.00000000000E+00 -0.18450467391E+03  0.18450467393E+03  0.25500000920E-02 0. -1.
    10030    2    1    2    0    0  0.00000000000E+00  0.00000000000E+00  0.17832665857E+04  0.21522759336E+04  0.12050941782E+04 0.  0.
        2    1    3    3  502    0 -0.10891625359E+03 -0.45661992586E+03  0.15662959093E+04  0.16351291639E+04  0.25500000920E-02 0.  1.
       -2    1    3    3    0  502  0.10891625359E+03  0.45661992586E+03  0.21697067643E+03  0.51714676972E+03  0.25500000920E-02 0. -1.
</event>
<event>
 5   0  0.2047109E-03  0.1157965E+04  0.7818609E-02  0.9150467E-01
        1   -1    0    0  501    0  0.00000000000E+00  0.00000000000E+00  0.12833038336E+04  0.12833038336E+04  0.50400001928E-02 0. -1.
       -1   -1    0    0    0  501  0.00000000000E+00  0.00000000000E+00 -0.26121690490E+03  0.26121690495E+03  0.50400001928E-02 0.  1.
    10030    2    1    2    0    0  0.00000000000E+00  0.00000000000E+00  0.10220869287E+04  0.15445207385E+04  0.11579648622E+04 0.  0.
        1    1    3    3  502    0 -0.26751572754E+03 -0.47489839536E+03  0.25059754539E+03  0.59991022676E+03  0.50400001928E-02 0.  1.
       -1    1    3    3    0  502  0.26751572754E+03  0.47489839536E+03  0.77148938327E+03  0.94461051175E+03  0.50400001928E-02 0. -1.
</event>
<event>
 5   0  0.3751091E-03  0.1242587E+04  0.7818609E-02  0.9076375E-01
       -2   -1    0    0    0  501  0.00000000000E+00  0.00000000000E+00  0.81480342276E+03  0.81480342276E+03  0.25500000920E-02 0.  1.
        2   -1    0    0  501    0  0.00000000000E+00  0.00000000000E+00 -0.47374102518E+03  0.47374102519E+03  0.25500000920E-02 0. -1.
    10030    2    1    2    0    0  0.00000000000E+00  0.00000000000E+00  0.34106239757E+03  0.12885444479E+04  0.12425873150E+04 0.  0.
        5    1    3    3  502    0  0.57155528868E+03 -0.51072894245E+02 -0.76392837638E+02  0.57891436689E+03  0.46999998093E+01 0. -1.
       -5    1    3    3    0  502 -0.57155528868E+03  0.51072894245E+02  0.41745523521E+03  0.70963008106E+03  0.46999998093E+01 0.  1.
</event>
<event>
 5   0  0.1397500E-03  0.1172570E+04  0.7818609E-02  0.9137210E-01
       -4   -1    0    0    0  501  0.00000000000E+00  0.00000000000E+00  0.43782878789E+03  0.43783062981E+03  0.12699999809E+01 0.  1.
        4   -1    0    0  501    0  0.00000000000E+00  0.00000000000E+00 -0.78507525435E+03  0.78507628158E+03  0.12699999809E+01 0. -1.
    10030    2    1    2    0    0  0.00000000000E+00  0.00000000000E+00 -0.34724646647E+03  0.12229069114E+04  0.11725703414E+04 0.  0.
        4    1    3    3  502    0  0.44598155147E+03  0.22808433804E+03 -0.49134290875E+03  0.70167048990E+03  0.12699999809E+01 0. -1.
       -4    1    3    3    0  502 -0.44598155147E+03 -0.22808433804E+03  0.14409644228E+03  0.52123642149E+03  0.12699999809E+01 0.  1.
</event>
<event>
 5   0  0.3650180E-03  0.8907478E+03  0.7818609E-02  0.9437222E-01
       -2   -1    0    0    0  501  0.00000000000E+00  0.00000000000E+00  0.17813952376E+03  0.17813952378E+03  0.25500000920E-02 0.  1.
        2   -1    0    0  501    0  0.00000000000E+00  0.00000000000E+00 -0.11134974464E+04  0.11134974464E+04  0.25500000920E-02 0. -1.
    10030    2    1    2    0    0  0.00000000000E+00  0.00000000000E+00 -0.93535792259E+03  0.12916369701E+04  0.89074778656E+03 0.  0.
        3    1    3    3  502    0  0.32183533378E+03 -0.23872524256E+03 -0.18579189840E+03  0.44168581958E+03  0.10100000352E+00 0. -1.
       -3    1    3    3    0  502 -0.32183533378E+03  0.23872524256E+03 -0.74956602419E+03  0.84995115055E+03  0.10100000352E+00 0.  1.
</event>
<event>
 5   0  0.2096270E-03  0.1216172E+04  0.7818609E-02  0.9098818E-01
        1   -1    0    0  501    0  0.00000000000E+00  0.00000000000E+00  0.62179722830E+03  0.62179722832E+03  0.50400001928E-02 0. -1.
       -1   -1    0    0    0  501  0.00000000000E+00  0.00000000000E+00 -0.59467721617E+03  0.59467721620E+03  0.50400001928E-02 0.  1.
    10030    2    1    2    0    0  0.00000000000E+00  0.00000000000E+00  0.27120012130E+02  0.12164744445E+04  0.12161721009E+04 0.  0.
        2    1    3    3  502    0  0.34346460020E+03 -0.14119913155E+03  0.49520179881E+03  0.61897491701E+03  0.25500000920E-02 0. -1.
       -2    1    3    3    0  502 -0.34346460020E+03  0.14119913155E+03 -0.46808178668E+03  0.59749952751E+03  0.25500000920E-02 0.  1.
</event>
<event>
 5   0  0.2025294E-03  0.1221677E+04  0.7818609E-02  0.9094092E-01
       -1   -1    0    0    0  501  0.00000000000E+00  0.00000000000E+00  0.40247058770E+03  0.40247058774E+03  0.50400001928E-02 0.  1.
        1   -1    0    0  501    0  0.00000000000E+00  0.00000000000E+00 -0.92708295149E+03  0.92708295150E+03  0.50400001928E-02 0. -1.
    10030    2    1    2    0    0  0.00000000000E+00  0.00000000000E+00 -0.52461236378E+03  0.13295535392E+04  0.12216769137E+04 0.  0.
        5    1    3    3  502    0  0.46253037743E+03 -0.86171856501E+02  0.16163126574E+03  0.49750044720E+03  0.46999998093E+01 0.  1.
       -5    1    3    3    0  502 -0.46253037743E+03  0.86171856501E+02 -0.68624362953E+03  0.83205309204E+03  0.46999998093E+01 0. -1.
</event>
<event>
 5   0  0.3706035E-03  0.1138288E+04  0.7818609E-02  0.9168657E-01
        2   -1    0    0  501    0  0.00000000000E+00  0.00000000000E+00  0.11278277849E+04  0.11278277849E+04  0.25500000920E-02 0.  1.
       -2   -1    0    0    0  501  0.00000000000E+00  0.00000000000E+00 -0.28721139807E+03  0.28721139808E+03  0.25500000920E-02 0. -1.
    10030    2    1    2    0    0  0.00000000000E+00  0.00000000000E+00  0.84061638679E+03  0.14150391829E+04  0.11382881795E+04 0.  0.
        2    1    3    3  502    0  0.49253473450E+03  0.75490850637E+02  0.78423588370E+02  0.50442005555E+03  0.25500000920E-02 0. -1.
       -2    1    3    3    0  502 -0.49253473450E+03 -0.75490850637E+02  0.76219279842E+03  0.91061912740E+03  0.25500000920E-02 0.  1.
</event>
<event>
 5   0  0.3626049E-03  0.1199777E+04  0.7818609E-02  0.9113052E-01
        2   -1    0    0  501    0  0.00000000000E+00  0.00000000000E+00  0.15417835425E+04  0.15417835425E+04  0.25500000920E-02 0. -1.
       -2   -1    0    0    0  501  0.00000000000E+00  0.00000000000E+00 -0.23340885445E+03  0.23340885446E+03  0.25500000920E-02 0.  1.
    10030    2    1    2    0    0  0.00000000000E+00  0.00000000000E+00  0.13083746880E+04  0.17751923969E+04  0.11997765300E+04 0.  0.
        1    1    3    3  502    0  0.48180269990E+03 -0.25787397561E+03  0.28805491585E+03  0.61774465882E+03  0.50400001928E-02 0.  1.
       -1    1    3    3    0  502 -0.48180269990E+03  0.25787397561E+03  0.10203197722E+04  0.11574477381E+04  0.50400001928E-02 0. -1.
</event>
<event>
 5   0  0.2096270E-03  0.1187873E+04  0.7818609E-02  0.9123538E-01
        1   -1    0    0  501    0  0.00000000000E+00  0.00000000000E+00  0.38555188010E+03  0.38555188013E+03  0.50400001928E-02 0. -1.
       -1   -1    0    0    0  501  0.00000000000E+00  0.00000000000E+00 -0.91495000981E+03  0.91495000983E+03  0.50400001928E-02 0.  1.
    10030    2    1    2    0    0  0.00000000000E+00  0.00000000000E+00 -0.52939812972E+03  0.13005018900E+04  0.11878732197E+04 0.  0.
        2    1    3    3  502    0 -0.30998478434E+02 -0.55131282978E+03 -0.25202210993E+02  0.55275844036E+03  0.25500000920E-02 0. -1.
       -2    1    3    3    0  502  0.30998478434E+02  0.55131282978E+03 -0.50419591872E+03  0.74774344959E+03  0.25500000920E-02 0.  1.
</event>
<event>
 5   0  0.2078258E-03  0.1202007E+04  0.7818609E-02  0.9111101E-01
        1   -1    0    0  501    0  0.00000000000E+00  0.00000000000E+00  0.70320263113E+03  0.70320263115E+03  0.50400001928E-02 0. -1.
       -1   -1    0    0    0  501  0.00000000000E+00  0.00000000000E+00 -0.51365770190E+03  0.51365770192E+03  0.50400001928E-02 0.  1.
    10030    2    1    2    0    0  0.00000000000E+00  0.00000000000E+00  0.18954492923E+03  0.12168603331E+04  0.12020074001E+04 0.  0.
        3    1    3    3  502    0 -0.13725998076E+03  0.83203182983E+02  0.68110304925E+03  0.69976027744E+03  0.10100000352E+00 0. -1.
       -3    1    3    3    0  502  0.13725998076E+03 -0.83203182983E+02 -0.49155812002E+03  0.51710005563E+03  0.10100000352E+00 0.  1.
</event>
<event>
 5   0  0.3706035E-03  0.1183590E+04  0.7818609E-02  0.9127343E-01
        2   -1    0    0  501    0  0.00000000000E+00  0.00000000000E+00  0.11618301346E+04  0.11618301346E+04  0.25500000920E-02 0.  1.
       -2   -1    0    0    0  501  0.00000000000E+00  0.00000000000E+00 -0.30143940235E+03  0.30143940237E+03  0.25500000920E-02 0. -1.
    10030    2    1    2    0    0  0.00000000000E+00  0.00000000000E+00  0.86039073226E+03  0.14632695370E+04  0.11835901004E+04 0.  0.
        2    1    3    3  502    0 -0.21809264469E+03  0.32246907819E+03  0.98124394816E+03  0.10556469078E+04  0.25500000920E-02 0.  1.
       -2    1    3    3    0  502  0.21809264469E+03 -0.32246907819E+03 -0.12085321590E+03  0.40762262922E+03  0.25500000920E-02 0. -1.
</event>
<event>
 5   0  0.2047109E-03  0.1194637E+04  0.7818609E-02  0.9117564E-01
       -1   -1    0    0    0  501  0.00000000000E+00  0.00000000000E+00  0.61042928438E+03  0.61042928440E+03  0.50400001928E-02 0.  1.
        1   -1    0    0  501    0  0.00000000000E+00  0.00000000000E+00 -0.58448883826E+03  0.58448883829E+03  0.50400001928E-02 0. -1.
    10030    2    1    2    0    0  0.00000000000E+00  0.00000000000E+00  0.25940446113E+02  0.11949181227E+04  0.11946365193E+04 0.  0.
        1    1    3    3  502    0  0.14776554746E+03  0.57867594851E+03  0.22384820314E+02  0.59766344259E+03  0.50400001928E-02 0.  1.
       -1    1    3    3    0  502 -0.14776554746E+03 -0.57867594851E+03  0.35556257986E+01  0.59725468010E+03  0.50400001928E-02 0. -1.
</event>
<event>
 5   0  0.2047109E-03  0.1203308E+04  0.7818609E-02  0.9109966E-01
        1   -1    0    0  501    0  0.00000000000E+00  0.00000000000E+00  0.23050389597E+04  0.23050389597E+04  0.50400001928E-02 0.  1.
       -1   -1    0    0    0  501  0.00000000000E+00  0.00000000000E+00 -0.15704194372E+03  0.15704194381E+03  0.50400001928E-02 0. -1.
    10030    2    1    2    0    0  0.00000000000E+00  0.00000000000E+00  0.21479970159E+04  0.24620809035E+04  0.12033084371E+04 0.  0.
        1    1    3    3  502    0 -0.39897725442E+03  0.19162618579E+03  0.19078519364E+04  0.19585204762E+04  0.50400001928E-02 0.  1.
       -1    1    3    3    0  502  0.39897725442E+03 -0.19162618579E+03  0.24014507956E+03  0.50356042725E+03  0.50400001928E-02 0. -1.
</event>
<event>
 5   0  0.2096270E-03  0.1264677E+04  0.7818609E-02  0.9058055E-01
       -1   -1    0    0    0  501  0.00000000000E+00  0.00000000000E+00  0.69634071785E+03  0.69634071787E+03  0.50400001928E-02 0.  1.
        1   -1    0    0  501    0  0.00000000000E+00  0.00000000000E+00 -0.57421899359E+03  0.57421899362E+03  0.50400001928E-02 0. -1.
    10030    2    1    2    0    0  0.00000000000E+00  0.00000000000E+00  0.12212172425E+03  0.12705597115E+04  0.12646771386E+04 0.  0.
        2    1    3    3  502    0 -0.33914096053E+03  0.14052078777E+03 -0.45620233468E+03  0.58556233919E+03  0.25500000920E-02 0. -1.
       -2    1    3    3    0  502  0.33914096053E+03 -0.14052078777E+03  0.57832405893E+03  0.68499737229E+03  0.25500000920E-02 0.  1.
</event>
<event>
 5   0  0.3725376E-03  0.1205271E+04  0.7818609E-02  0.9108255E-01
       -2   -1    0    0    0  501  0.00000000000E+00  0.00000000000E+00  0.22362739300E+03  0.22362739302E+03  0.25500000920E-02 0. -1.
        2   -1    0    0  501    0  0.00000000000E+00  0.00000000000E+00 -0.16239948215E+04  0.16239948215E+04  0.25500000920E-02 0.  1.
    10030    2    1    2    0    0  0.00000000000E+00  0.00000000000E+00 -0.14003674285E+04  0.18476222145E+04  0.12052713026E+04 0.  0.
        4    1    3    3  502    0 -0.42092981439E+03  0.12729365111E+03 -0.13318313333E+04  0.14025554875E+04  0.12699999809E+01 0.  1.
       -4    1    3    3    0  502  0.42092981439E+03 -0.12729365111E+03 -0.68536095200E+02  0.44506672702E+03  0.12699999809E+01 0. -1.
</event>
<event>
 5   0  0.1397500E-03  0.1387953E+04  0.7818609E-02  0.8962585E-01
       -4   -1    0    0    0  501  0.00000000000E+00  0.00000000000E+00  0.12356596712E+04  0.12356603239E+04  0.12699999809E+01 0. -1.
        4   -1    0    0  501    0  0.00000000000E+00  0.00000000000E+00 -0.38975216518E+03  0.38975423431E+03  0.12699999809E+01 0.  1.
    10030    2    1    2    0    0  0.00000000000E+00  0.00000000000E+00  0.84590750603E+03  0.16254145582E+04  0.13879528008E+04 0.  0.
        4    1    3    3  502    0  0.19979138544E+02  0.52910238284E+03 -0.10241080787E+03  0.53929406076E+03  0.12699999809E+01 0.  1.
       -4    1    3    3    0  502 -0.19979138544E+02 -0.52910238284E+03  0.94831831390E+03  0.10861204974E+04  0.12699999809E+01 0. -1.
</event>
<event>
 5   0  0.3725376E-03  0.1242001E+04  0.7818609E-02  0.9076868E-01
        2   -1    0    0  501    0  0.00000000000E+00  0.00000000000E+00  0.25413570842E+04  0.25413570842E+04  0.25500000920E-02 0.  1.
       -2   -1    0    0    0  501  0.00000000000E+00  0.00000000000E+00 -0.15174621484E+03  0.15174621486E+03  0.25500000920E-02 0. -1.
    10030    2    1    2    0    0  0.00000000000E+00  0.00000000000E+00  0.23896108694E+04  0.26931032991E+04  0.12420005123E+04 0.  0.
        4    1    3    3  502    0 -0.40687732635E+03 -0.46888066020E+03  0.11611104281E+04  0.13166538161E+04  0.12699999809E+01 0. -1.
       -4    1    3    3    0  502  0.40687732635E+03  0.46888066020E+03  0.12285004412E+04  0.13764494830E+04  0.12699999809E+01 0.  1.
</event>
<event>
 5   0  0.3626049E-03  0.1193926E+04  0.7818609E-02  0.9118189E-01
       -2   -1    0    0    0  501  0.00000000000E+00  0.00000000000E+00  0.26341523034E+03  0.26341523035E+03  0.25500000920E-02 0.  1.
        2   -1    0    0  501    0  0.00000000000E+00  0.00000000000E+00 -0.13528642621E+04  0.13528642621E+04  0.25500000920E-02 0. -1.
    10030    2    1    2    0    0  0.00000000000E+00  0.00000000000E+00 -0.10894490318E+04  0.16162794925E+04  0.11939263817E+04 0.  0.
        1    1    3    3  502    0  0.13557922926E+03  0.22540819566E+03  0.18073273752E+03  0.31914715182E+03  0.50400001928E-02 0.  1.
       -1    1    3    3    0  502 -0.13557922926E+03 -0.22540819566E+03 -0.12701817693E+04  0.12971323406E+04  0.50400001928E-02 0. -1.
</event>
<event>
 5   0  0.1397500E-03  0.1187714E+04  0.7818609E-02  0.9123679E-01
       -4   -1    0    0    0  501  0.00000000000E+00  0.00000000000E+00  0.10555841795E+04  0.10555849435E+04  0.12699999809E+01 0.  1.
        4   -1    0    0  501    0  0.00000000000E+00  0.00000000000E+00 -0.33409348487E+03  0.33409589870E+03  0.12699999809E+01 0. -1.
    10030    2    1    2    0    0  0.00000000000E+00  0.00000000000E+00  0.72149069467E+03  0.13896808422E+04  0.11877137790E+04 0.  0.
        2    1    3    3  502    0 -0.23146548107E+03 -0.23709487978E+03 -0.21588216096E+03  0.39546853018E+03  0.25500000920E-02 0. -1.
       -2    1    3    3    0  502  0.23146548107E+03  0.23709487978E+03  0.93737285562E+03  0.99421231204E+03  0.25500000920E-02 0.  1.
</event>
<event>
 5   0  0.3650180E-03  0.1118918E+04  0.7818609E-02  0.9186947E-01
       -2   -1    0    0    0  501  0.00000000000E+00  0.00000000000E+00  0.34466475593E+03  0.34466475594E+03  0.25500000920E-02 0.  1.
        2   -1    0    0  501    0  0.00000000000E+00  0.00000000000E+00 -0.90811202144E+03  0.90811202144E+03  0.25500000920E-02 0. -1.
    10030    2    1    2    0    0  0.00000000000E+00  0.00000000000E+00 -0.56344726551E+03  0.12527767774E+04  0.11189177061E+04 0.  0.
        3    1    3    3  502    0  0.23878945135E+03 -0.77968177766E+02 -0.84142210584E+03  0.87811765113E+03  0.10100000352E+00 0. -1.
       -3    1    3    3    0  502 -0.23878945135E+03  0.77968177766E+02  0.27797484033E+03  0.37465912625E+03  0.10100000352E+00 0.  1.
</event>
<event>
 5   0  0.3725376E-03  0.1004952E+04  0.7818609E-02  0.9303130E-01
        2   -1    0    0  501    0  0.00000000000E+00  0.00000000000E+00  0.83851604079E+03  0.83851604080E+03  0.25500000920E-02 0. -1.
       -2   -1    0    0    0  501  0.00000000000E+00  0.00000000000E+00 -0.30110605711E+03  0.30110605712E+03  0.25500000920E-02 0.  1.
    10030    2    1    2    0    0  0.00000000000E+00  0.00000000000E+00  0.53740998368E+03  0.11396220979E+04  0.10049522553E+04 0.  0.
        4    1    3    3  502    0 -0.49828485537E+03 -0.64429878981E+02  0.26138739291E+03  0.56636029916E+03  0.12699999809E+01 0.  1.
       -4    1    3    3    0  502  0.49828485537E+03  0.64429878981E+02  0.27602259077E+03  0.57326179876E+03  0.12699999809E+01 0. -1.
</event>
<event>
 5   0  0.2078258E-03  0.1192979E+04  0.7818609E-02  0.9119025E-01
       -1   -1    0    0    0  501  0.00000000000E+00  0.00000000000E+00  0.17932958900E+03  0.17932958907E+03  0.50400001928E-02 0. -1.
        1   -1    0    0  501    0  0.00000000000E+00  0.00000000000E+00 -0.19840534087E+04  0.19840534087E+04  0.50400001928E-02 0.  1.
    10030    2    1    2    0    0  0.00000000000E+00  0.00000000000E+00 -0.18047238197E+04  0.21633829977E+04  0.11929785956E+04 0.  0.
        3    1    3    3  502    0  0.45626475295E+03 -0.27517747949E+03 -0.41610800902E+03  0.67605181411E+03  0.10100000352E+00 0.  1.
       -3    1    3    3    0  502 -0.45626475295E+03  0.27517747949E+03 -0.13886158107E+04  0.14873311836E+04  0.10100000352E+00 0. -1.
</event>
<event>
 5   0  0.2096270E-03  0.1187211E+04  0.7818609E-02  0.9124125E-01
       -1   -1    0    0    0  501  0.00000000000E+00  0.00000000000E+00  0.23030390914E+03  0.23030390919E+03  0.50400001928E-02 0.  1.
        1   -1    0    0  501    0  0.00000000000E+00  0.00000000000E+00 -0.15300096558E+04  0.15300096558E+04  0.50400001928E-02 0. -1.
    10030    2    1    2    0    0  0.00000000000E+00  0.00000000000E+00 -0.12997057467E+04  0.17603135650E+04  0.11872105202E+04 0.  0.
        2    1    3    3  502    0  0.39467694831E+03  0.11381189074E+03 -0.12852582217E+04  0.13493004619E+04  0.25500000920E-02 0. -1.
       -2    1    3    3    0  502 -0.39467694831E+03 -0.11381189074E+03 -0.14447525037E+02  0.41101310319E+03  0.25500000920E-02 0.  1.
</event>
<event>
 5   0  0.2025294E-03  0.1210264E+04  0.7818609E-02  0.9103919E-01
        1   -1    0    0  501    0  0.00000000000E+00  0.00000000000E+00  0.30913895714E+03  0.30913895718E+03  0.50400001928E-02 0. -1.
       -1   -1    0    0    0  501  0.00000000000E+00  0.00000000000E+00 -0.11845317464E+04  0.11845317464E+04  0.50400001928E-02 0.  1.
    10030    2    1    2    0    0  0.00000000000E+00  0.00000000000E+00 -0.87539278929E+03  0.14936707036E+04  0.12102642832E+04 0.  0.
        5    1    3    3  502    0 -0.18456582099E+03  0.56937973392E+03 -0.32796637672E+03  0.68252608590E+03  0.46999998093E+01 0.  1.
       -5    1    3    3    0  502  0.18456582099E+03 -0.56937973392E+03 -0.54742641257E+03  0.81114461772E+03  0.46999998093E+01 0. -1.
</event>
<event>
 5   0  0.3725376E-03  0.1198563E+04  0.7818609E-02  0.9114115E-01
       -2   -1    0    0    0  501  0.00000000000E+00  0.00000000000E+00  0.32178355359E+03  0.32178355360E+03  0.25500000920E-02 0.  1.
        2   -1    0    0  501    0  0.00000000000E+00  0.00000000000E+00 -0.11160863761E+04  0.11160863761E+04  0.25500000920E-02 0. -1.
    10030    2    1    2    0    0  0.00000000000E+00  0.00000000000E+00 -0.79430282249E+03  0.14378699297E+04  0.11985628731E+04 0.  0.
        4    1    3    3  502    0  0.35614975957E+03  0.40320371406E+03 -0.71391829910E+03  0.89392216494E+03  0.12699999809E+01 0.  1.
       -4    1    3    3    0  502 -0.35614975957E+03 -0.40320371406E+03 -0.80384523384E+02  0.54394776475E+03  0.12699999809E+01 0. -1.
</event>
<event>
 5   0  0.2047109E-03  0.1238529E+04  0.7818609E-02  0.9079785E-01
       -1   -1    0    0    0  501  0.00000000000E+00  0.00000000000E+00  0.61346651353E+03  0.61346651355E+03  0.50400001928E-02 0.  1.
        1   -1    0    0  501    0  0.00000000000E+00  0.00000000000E+00 -0.62511748041E+03  0.62511748043E+03  0.50400001928E-02 0. -1.
    10030    2    1    2    0    0  0.00000000000E+00  0.00000000000E+00 -0.11650966883E+02  0.12385839940E+04  0.12385291943E+04 0.  0.
        1    1    3    3  502    0  0.15498111905E+03 -0.11809418843E+03  0.58201278787E+03  0.61376238878E+03  0.50400001928E-02 0.  1.
       -1    1    3    3    0  502 -0.15498111905E+03  0.11809418843E+03 -0.59366375475E+03  0.62482160521E+03  0.50400001928E-02 0. -1.
</event>
<event>
 5   0  0.2025294E-03  0.1189487E+04  0.7818609E-02  0.9122109E-01
        1   -1    0    0  501    0  0.00000000000E+00  0.00000000000E+00  0.89299328324E+03  0.89299328326E+03  0.50400001928E-02 0.  1.
       -1   -1    0    0    0  501  0.00000000000E+00  0.00000000000E+00 -0.39610550381E+03  0.39610550384E+03  0.50400001928E-02 0. -1.
    10030    2    1    2    0    0  0.00000000000E+00  0.00000000000E+00  0.49688777943E+03  0.12890987871E+04  0.11894865353E+04 0.  0.
        5    1    3    3  502    0  0.10599672268E+03 -0.47920432126E+03  0.61246793158E+03  0.78486377413E+03  0.46999998093E+01 0.  1.
       -5    1    3    3    0  502 -0.10599672268E+03  0.47920432126E+03 -0.11558015215E+03  0.50423501297E+03  0.46999998093E+01 0. -1.
</event>
<event>
 5   0  0.2047109E-03  0.1214410E+04  0.7818609E-02  0.9100336E-01
       -1   -1    0    0    0  501  0.00000000000E+00  0.00000000000E+00  0.70583261463E+03  0.70583261464E+03  0.50400001928E-02 0. -1.
        1   -1    0    0  501    0  0.00000000000E+00  0.00000000000E+00 -0.52235892844E+03  0.52235892847E+03  0.50400001928E-02 0.  1.
    10030    2    1    2    0    0  0.00000000000E+00  0.00000000000E+00  0.18347368619E+03  0.12281915431E+04  0.12144100926E+04 0.  0.
        1    1    3    3  502    0  0.24688501579E+03 -0.20903912939E+03 -0.42795093653E+03  0.53646208882E+03  0.50400001928E-02 0.  1.
       -1    1    3    3    0  502 -0.24688501579E+03  0.20903912939E+03  0.61142462272E+03  0.69172945429E+03  0.50400001928E-02 0. -1.
</event>
<event>
 5   0  0.2096270E-03  0.1201485E+04  0.7818609E-02  0.9111558E-01
       -1   -1    0    0    0  501  0.00000000000E+00  0.00000000000E+00  0.30449387717E+03  0.30449387722E+03  0.50400001928E-02 0.  1.
        1   -1    0    0  501    0  0.00000000000E+00  0.00000000000E+00 -0.11852175889E+04  0.11852175889E+04  0.50400001928E-02 0. -1.
    10030    2    1    2    0    0  0.00000000000E+00  0.00000000000E+00 -0.88072371169E+03  0.14897114661E+04  0.12014849129E+04 0.  0.
        2    1    3    3  502    0 -0.34499502611E+03  0.86038332491E+02 -0.10407401928E+04  0.10998019420E+04  0.25500000920E-02 0. -1.
       -2    1    3    3    0  502  0.34499502611E+03 -0.86038332491E+02  0.16001648116E+03  0.38990952405E+03  0.25500000920E-02 0.  1.
</event>
<event>
 5   0  0.3751091E-03  0.1216722E+04  0.7818609E-02  0.9098345E-01
        2   -1    0    0  501    0  0.00000000000E+00  0.00000000000E+00  0.42237073432E+03  0.42237073433E+03  0.25500000920E-02 0. -1.
       -2   -1    0    0    0  501  0.00000000000E+00  0.00000000000E+00 -0.87625132413E+03  0.87625132413E+03  0.25500000920E-02 0.  1.
    10030    2    1    2    0    0  0.00000000000E+00  0.00000000000E+00 -0.45388058981E+03  0.12986220585E+04  0.12167216859E+04 0.  0.
        5    1    3    3  502    0 -0.49546881267E+03 -0.24632418577E+03  0.42893226485E+02  0.55500168261E+03  0.46999998093E+01 0. -1.
       -5    1    3    3    0  502  0.49546881267E+03  0.24632418577E+03 -0.49677381630E+03  0.74362037585E+03  0.46999998093E+01 0.  1.
</event>
<event>
 5   0  0.3725376E-03  0.1149489E+04  0.7818609E-02  0.9158255E-01
       -2   -1    0    0    0  501  0.00000000000E+00  0.00000000000E+00  0.25923792162E+03  0.25923792163E+03  0.25500000920E-02 0. -1.
        2   -1    0    0  501    0  0.00000000000E+00  0.00000000000E+00 -0.12742398846E+04  0.12742398846E+04  0.25500000920E-02 0.  1.
    10030    2    1    2    0    0  0.00000000000E+00  0.00000000000E+00 -0.10150019630E+04  0.15334778062E+04  0.11494891028E+04 0.  0.
        4    1    3    3  502    0 -0.67895541998E+02  0.50793120193E+03 -0.85467693032E+03  0.99653307955E+03  0.12699999809E+01 0.  1.
       -4    1    3    3    0  502  0.67895541998E+02 -0.50793120193E+03 -0.16032503267E+03  0.53694472669E+03  0.12699999809E+01 0. -1.
</event>
<event>
 5   0  0.2078258E-03  0.1192844E+04  0.7818609E-02  0.9119143E-01
        1   -1    0    0  501    0  0.00000000000E+00  0.00000000000E+00  0.18101930978E+04  0.18101930978E+04  0.50400001928E-02 0.  1.
       -1   -1    0    0    0  501  0.00000000000E+00  0.00000000000E+00 -0.19650914341E+03  0.19650914347E+03  0.50400001928E-02 0. -1.
    10030    2    1    2    0    0  0.00000000000E+00  0.00000000000E+00  0.16136839544E+04  0.20067022413E+04  0.11928444913E+04 0.  0.
        3    1    3    3  502    0 -0.26981371080E+03 -0.53184360439E+03  0.79355014470E+03  0.99266253098E+03  0.10100000352E+00 0.  1.
       -3    1    3    3    0  502  0.26981371080E+03  0.53184360439E+03  0.82013380974E+03  0.10140397103E+04  0.10100000352E+00 0. -1.
</event>
<event>
 5   0  0.2096270E-03  0.1197843E+04  0.7818609E-02  0.9114747E-01
       -1   -1    0    0    0  501  0.00000000000E+00  0.00000000000E+00  0.29249395374E+03  0.29249395378E+03  0.50400001928E-02 0. -1.
        1   -1    0    0  501    0  0.00000000000E+00  0.00000000000E+00 -0.12263738832E+04  0.12263738832E+04  0.50400001928E-02 0.  1.
    10030    2    1    2    0    0  0.00000000000E+00  0.00000000000E+00 -0.93387992947E+03  0.15188678370E+04  0.11978429712E+04 0.  0.
        2    1    3    3  502    0 -0.32576976701E+03  0.39759074192E+03 -0.77139824521E+02  0.51976426550E+03  0.25500000920E-02 0. -1.
       -2    1    3    3    0  502  0.32576976701E+03 -0.39759074192E+03 -0.85674010495E+03  0.99910357150E+03  0.25500000920E-02 0.  1.
</event>
<event>
 5   0  0.3725376E-03  0.1231671E+04  0.7818609E-02  0.9085577E-01
       -2   -1    0    0    0  501  0.00000000000E+00  0.00000000000E+00  0.18464620064E+03  0.18464620066E+03  0.25500000920E-02 0.  1.
        2   -1    0    0  501    0  0.00000000000E+00  0.00000000000E+00 -0.20539478712E+04  0.20539478712E+04  0.25500000920E-02 0. -1.
    10030    2    1    2    0    0  0.00000000000E+00  0.00000000000E+00 -0.18693016706E+04  0.22385940719E+04  0.12316714996E+04 0.  0.
        4    1    3    3  502    0  0.52692866040E+03  0.29869853171E+03 -0.73244404792E+03  0.95044753786E+03  0.12699999809E+01 0. -1.
       -4    1    3    3    0  502 -0.52692866040E+03 -0.29869853171E+03 -0.11368576227E+04  0.12881465340E+04  0.12699999809E+01 0.  1.
</event>
<event>
 5   0  0.2047109E-03  0.1201144E+04  0.7818609E-02  0.9111856E-01
        1   -1    0    0  501    0  0.00000000000E+00  0.00000000000E+00  0.45886969628E+03  0.45886969631E+03  0.50400001928E-02 0. -1.
       -1   -1    0    0    0  501  0.00000000000E+00  0.00000000000E+00 -0.78603308134E+03  0.78603308135E+03  0.50400001928E-02 0.  1.
    10030    2    1    2    0    0  0.00000000000E+00  0.00000000000E+00 -0.32716338506E+03  0.12449027777E+04  0.12011440569E+04 0.  0.
        1    1    3    3  502    0 -0.56674079830E+03  0.17702116355E+03 -0.69985979659E+02  0.59785421482E+03  0.50400001928E-02 0. -1.
       -1    1    3    3    0  502  0.56674079830E+03 -0.17702116355E+03 -0.25717740540E+03  0.64704856284E+03  0.50400001928E-02 0.  1.
</event>
<event>
 5   0  0.3626049E-03  0.1230215E+04  0.7818609E-02  0.9086813E-01
       -2   -1    0    0    0  501  0.00000000000E+00  0.00000000000E+00  0.52449497826E+03  0.52449497827E+03  0.25500000920E-02 0. -1.
        2   -1    0    0  501    0  0.00000000000E+00  0.00000000000E+00 -0.72137475745E+03  0.72137475746E+03  0.25500000920E-02 0.  1.
    10030    2    1    2    0    0  0.00000000000E+00  0.00000000000E+00 -0.19687977919E+03  0.12458697357E+04  0.12302153271E+04 0.  0.
        1    1    3    3  502    0  0.19499007048E+03  0.11759075502E+03  0.48024067676E+03  0.53148830739E+03  0.50400001928E-02 0. -1.
       -1    1    3    3    0  502 -0.19499007048E+03 -0.11759075502E+03 -0.67712045595E+03  0.71438142833E+03  0.50400001928E-02 0.  1.
</event>
<event>
 5   0  0.2047109E-03  0.1214401E+04  0.7818609E-02  0.9100344E-01
        1   -1    0    0  501    0  0.00000000000E+00  0.00000000000E+00  0.16011693767E+04  0.16011693767E+04  0.50400001928E-02 0.  1.
       -1   -1    0    0    0  501  0.00000000000E+00  0.00000000000E+00 -0.23026452000E+03  0.23026452005E+03  0.50400001928E-02 0. -1.
    10030    2    1    2    0    0  0.00000000000E+00  0.00000000000E+00  0.13709048567E+04  0.18314338967E+04  0.12144010837E+04 0.  0.
        1    1    3    3  502    0  0.92274072688E+02 -0.94398077769E+02 -0.20836285314E+03  0.24665883356E+03  0.50400001928E-02 0. -1.
       -1    1    3    3    0  502 -0.92274072688E+02  0.94398077769E+02  0.15792677098E+04  0.15847750632E+04  0.50400001928E-02 0.  1.
</event>
<event>
 5   0  0.2047109E-03  0.1056324E+04  0.7818609E-02  0.9248839E-01
       -1   -1    0    0    0  501  0.00000000000E+00  0.00000000000E+00  0.39499051166E+03  0.39499051169E+03  0.50400001928E-02 0.  1.
        1   -1    0    0  501    0  0.00000000000E+00  0.00000000000E+00 -0.70623201960E+03  0.70623201962E+03  0.50400001928E-02 0. -1.
    10030    2    1    2    0    0  0.00000000000E+00  0.00000000000E+00 -0.31124150794E+03  0.11012225313E+04  0.10563237133E+04 0.  0.
        1    1    3    3  502    0  0.27201294445E+03  0.19265356288E+03  0.27148635871E+03  0.42989682510E+03  0.50400001928E-02 0.  1.
       -1    1    3    3    0  502 -0.27201294445E+03 -0.19265356288E+03 -0.58272786664E+03  0.67132570621E+03  0.50400001928E-02 0. -1.
</event>
<event>
 5   0  0.3650180E-03  0.1196662E+04  0.7818609E-02  0.9115783E-01
        2   -1    0    0  501    0  0.00000000000E+00  0.00000000000E+00  0.80240250721E+03  0.80240250721E+03  0.25500000920E-02 0.  1.
       -2   -1    0    0    0  501  0.00000000000E+00  0.00000000000E+00 -0.44616003659E+03  0.44616003660E+03  0.25500000920E-02 0. -1.
    10030    2    1    2    0    0  0.00000000000E+00  0.00000000000E+00  0.35624247061E+03  0.12485625438E+04  0.11966619105E+04 0.  0.
        3    1    3    3  502    0 -0.40682021221E+03 -0.41452761906E+03  0.28136529969E+02  0.58148732278E+03  0.10100000352E+00 0. -1.
       -3    1    3    3    0  502  0.40682021221E+03  0.41452761906E+03  0.32810594064E+03  0.66707522103E+03  0.10100000352E+00 0.  1.
</event>
<event>
 5   0  0.2025294E-03  0.1185472E+04  0.7818609E-02  0.9125669E-01
        1   -1    0    0  501    0  0.00000000000E+00  0.00000000000E+00  0.69595268573E+03  0.69595268575E+03  0.50400001928E-02 0. -1.
       -1   -1    0    0    0  501  0.00000000000E+00  0.00000000000E+00 -0.50482753602E+03  0.50482753605E+03  0.50400001928E-02 0.  1.
    10030    2    1    2    0    0  0.00000000000E+00  0.00000000000E+00  0.19112514971E+03  0.12007802218E+04  0.11854721921E+04 0.  0.
        5    1    3    3  502    0  0.55541639111E+03  0.18197109475E+02 -0.11324370764E+03  0.56715494323E+03  0.46999998093E+01 0.  1.
       -5    1    3    3    0  502 -0.55541639111E+03 -0.18197109475E+02  0.30436885735E+03  0.63362527856E+03  0.46999998093E+01 0. -1.
</event>
<event>
 5   0  0.3650180E-03  0.1192765E+04  0.7818609E-02  0.9119213E-01
        2   -1    0    0  501    0  0.00000000000E+00  0.00000000000E+00  0.75840103525E+03  0.75840103525E+03  0.25500000920E-02 0. -1.
       -2   -1    0    0    0  501  0.00000000000E+00  0.00000000000E+00 -0.46897613019E+03  0.46897613020E+03  0.25500000920E-02 0.  1.
    10030    2    1    2    0    0  0.00000000000E+00  0.00000000000E+00  0.28942490506E+03  0.12273771655E+04  0.11927648262E+04 0.  0.
        3    1    3    3  502    0 -0.12643798244E+03  0.33527646282E+03  0.63528037492E+03  0.72936824368E+03  0.10100000352E+00 0. -1.
       -3    1    3    3    0  502  0.12643798244E+03 -0.33527646282E+03 -0.34585546987E+03  0.49800892177E+03  0.10100000352E+00 0.  1.
</event>
<event>
 5   0  0.3725376E-03  0.1196034E+04  0.7818609E-02  0.9116335E-01
       -2   -1    0    0    0  501  0.00000000000E+00  0.00000000000E+00  0.57167851632E+03  0.57167851632E+03  0.25500000920E-02 0. -1.
        2   -1    0    0  501    0  0.00000000000E+00  0.00000000000E+00 -0.62556901154E+03  0.62556901154E+03  0.25500000920E-02 0.  1.
    10030    2    1    2    0    0  0.00000000000E+00  0.00000000000E+00 -0.53890495224E+02  0.11972475279E+04  0.11960340537E+04 0.  0.
        4    1    3    3  502    0  0.44528593157E+02 -0.36602720943E+03 -0.49823502952E+03  0.61983745546E+03  0.12699999809E+01 0.  1.
       -4    1    3    3    0  502 -0.44528593157E+02  0.36602720943E+03  0.44434453430E+03  0.57741007240E+03  0.12699999809E+01 0. -1.
</event>
<event>
 5   0  0.3650180E-03  0.1122887E+04  0.7818609E-02  0.9183167E-01
       -2   -1    0    0    0  501  0.00000000000E+00  0.00000000000E+00  0.12416741877E+04  0.12416741877E+04  0.25500000920E-02 0. -1.
        2   -1    0    0  501    0  0.00000000000E+00  0.00000000000E+00 -0.25386602307E+03  0.25386602308E+03  0.25500000920E-02 0.  1.
    10030    2    1    2    0    0  0.00000000000E+00  0.00000000000E+00  0.98780816463E+03  0.14955402108E+04  0.11228871502E+04 0.  0.
        3    1    3    3  502    0 -0.47321802552E+03  0.28755788928E+03  0.37043431548E+03  0.66621800610E+03  0.10100000352E+00 0.  1.
       -3    1    3    3    0  502  0.47321802552E+03 -0.28755788928E+03  0.61737384916E+03  0.82932220469E+03  0.10100000352E+00 0. -1.
</event>
<event>
 5   0  0.3626049E-03  0.1201044E+04  0.7818609E-02  0.9111943E-01
        2   -1    0    0  501    0  0.00000000000E+00  0.00000000000E+00  0.70516098018E+03  0.70516098019E+03  0.25500000920E-02 0. -1.
       -2   -1    0    0    0  501  0.00000000000E+00  0.00000000000E+00 -0.51141057358E+03  0.51141057359E+03  0.25500000920E-02 0.  1.
    10030    2    1    2    0    0  0.00000000000E+00  0.00000000000E+00  0.19375040660E+03  0.12165715538E+04  0.12010441813E+04 0.  0.
        1    1    3    3  502    0  0.75254918605E+02 -0.12262288298E+03 -0.49369505688E+03  0.51423193544E+03  0.50400001928E-02 0.  1.
       -1    1    3    3    0  502 -0.75254918605E+02  0.12262288298E+03  0.68744546348E+03  0.70233961834E+03  0.50400001928E-02 0. -1.
</event>
<event>
 5   0  0.2096270E-03  0.1078641E+04  0.7818609E-02  0.9226263E-01
       -1   -1    0    0    0  501  0.00000000000E+00  0.00000000000E+00  0.16063626970E+03  0.16063626978E+03  0.50400001928E-02 0. -1.
        1   -1    0    0  501    0  0.00000000000E+00  0.00000000000E+00 -0.18107158042E+04  0.18107158042E+04  0.50400001928E-02 0.  1.
    10030    2    1    2    0    0  0.00000000000E+00  0.00000000000E+00 -0.16500795345E+04  0.19713520740E+04  0.10786410568E+04 0.  0.
        2    1    3    3  502    0 -0.83680356562E+02 -0.34365658597E+03 -0.15691424245E+04  0.16085117965E+04  0.25500000920E-02 0.  1.
       -2    1    3    3    0  502  0.83680356562E+02  0.34365658597E+03 -0.80937109961E+02  0.36284027744E+03  0.25500000920E-02 0. -1.
</event>
<event>
 5   0  0.2134992E-03  0.1193079E+04  0.7818609E-02  0.9118936E-01
        1   -1    0    0  501    0  0.00000000000E+00  0.00000000000E+00  0.18034475464E+04  0.18034475464E+04  0.50400001928E-02 0.  1.
       -1   -1    0    0    0  501  0.00000000000E+00  0.00000000000E+00 -0.19732158795E+03  0.19732158801E+03  0.50400001928E-02 0. -1.
    10030    2    1    2    0    0  0.00000000000E+00  0.00000000000E+00  0.16061259584E+04  0.20007691344E+04  0.11930785954E+04 0.  0.
        4    1    3    3  502    0  0.56109793180E+03 -0.14026379883E+03  0.10481127544E+04  0.11970993197E+04  0.12699999809E+01 0.  1.
       -4    1    3    3    0  502 -0.56109793180E+03  0.14026379883E+03  0.55801320402E+03  0.80366981472E+03  0.12699999809E+01 0. -1.
</event>
<event>
 5   0  0.3751091E-03  0.1182643E+04  0.7818609E-02  0.9128186E-01
        2   -1    0    0  501    0  0.00000000000E+00  0.00000000000E+00  0.58028166082E+03  0.58028166083E+03  0.25500000920E-02 0. -1.
       -2   -1    0    0    0  501  0.00000000000E+00  0.00000000000E+00 -0.60257174781E+03  0.60257174782E+03  0.25500000920E-02 0.  1.
    10030    2    1    2    0    0  0.00000000000E+00  0.00000000000E+00 -0.22290086987E+02  0.11828534086E+04  0.11826433691E+04 0.  0.
        5    1    3    3  502    0 -0.13324833383E+03 -0.20870647116E+03 -0.54820012303E+03  0.60154715065E+03  0.46999998093E+01 0.  1.
       -5    1    3    3    0  502  0.13324833383E+03  0.20870647116E+03  0.52591003604E+03  0.58130625799E+03  0.46999998093E+01 0. -1.
</event>
<event>
 5   0  0.2047109E-03  0.1200182E+04  0.7818609E-02  0.9112697E-01
       -1   -1    0    0    0  501  0.00000000000E+00  0.00000000000E+00  0.59781674619E+03  0.59781674621E+03  0.50400001928E-02 0. -1.
        1   -1    0    0  501    0  0.00000000000E+00  0.00000000000E+00 -0.60237363950E+03  0.60237363952E+03  0.50400001928E-02 0.  1.
    10030    2    1    2    0    0  0.00000000000E+00  0.00000000000E+00 -0.45568933046E+01  0.12001903857E+04  0.12001817349E+04 0.  0.
        1    1    3    3  502    0 -0.18392857665E+03 -0.18032550847E+03  0.53972365086E+03  0.59803731458E+03  0.50400001928E-02 0. -1.
       -1    1    3    3    0  502  0.18392857665E+03  0.18032550847E+03 -0.54428054416E+03  0.60215307115E+03  0.50400001928E-02 0.  1.
</event>
<event>
 5   0  0.2134992E-03  0.1201304E+04  0.7818609E-02  0.9111716E-01
       -1   -1    0    0    0  501  0.00000000000E+00  0.00000000000E+00  0.53223862803E+03  0.53223862805E+03  0.50400001928E-02 0. -1.
        1   -1    0    0  501    0  0.00000000000E+00  0.00000000000E+00 -0.67785906223E+03  0.67785906225E+03  0.50400001928E-02 0.  1.
    10030    2    1    2    0    0  0.00000000000E+00  0.00000000000E+00 -0.14562043420E+03  0.12100976903E+04  0.12013039204E+04 0.  0.
        4    1    3    3  502    0 -0.51210982286E+03 -0.22545932910E+03  0.14717519270E+03  0.57857629574E+03  0.12699999809E+01 0. -1.
       -4    1    3    3    0  502  0.51210982286E+03  0.22545932910E+03 -0.29279562690E+03  0.63152139456E+03  0.12699999809E+01 0.  1.
</event>
<event>
 5   0  0.2025294E-03  0.1189099E+04  0.7818609E-02  0.9122452E-01
        1   -1    0    0  501    0  0.00000000000E+00  0.00000000000E+00  0.13934764911E+04  0.13934764911E+04  0.50400001928E-02 0.  1.
       -1   -1    0    0    0  501  0.00000000000E+00  0.00000000000E+00 -0.25367423945E+03  0.25367423950E+03  0.50400001928E-02 0. -1.
    10030    2    1    2    0    0  0.00000000000E+00  0.00000000000E+00  0.11398022516E+04  0.16471507306E+04  0.11890989683E+04 0.  0.
        5    1    3    3  502    0 -0.44611270023E+03 -0.60601810335E+02  0.11077795885E+04  0.11957787536E+04  0.46999998093E+01 0.  1.
       -5    1    3    3    0  502  0.44611270023E+03  0.60601810335E+02  0.32022663134E+02  0.45137197706E+03  0.46999998093E+01 0. -1.
</event>
<event>
 5   0  0.3725376E-03  0.1196556E+04  0.7818609E-02  0.9115876E-01
        2   -1    0    0  501    0  0.00000000000E+00  0.00000000000E+00  0.31998770566E+04  0.31998770566E+04  0.25500000920E-02 0.  1.
       -2   -1    0    0    0  501  0.00000000000E+00  0.00000000000E+00 -0.11185952147E+03  0.11185952149E+03  0.25500000920E-02 0. -1.
    10030    2    1    2    0    0  0.00000000000E+00  0.00000000000E+00  0.30880175352E+04  0.33117365781E+04  0.11965562525E+04 0.  0.
        4    1    3    3  502    0 -0.12369359902E+03 -0.58442554481E+03  0.14529771929E+04  0.15709862062E+04  0.12699999809E+01 0.  1.
       -4    1    3    3    0  502  0.12369359902E+03  0.58442554481E+03  0.16350403422E+04  0.17407503720E+04  0.12699999809E+01 0. -1.
</event>
<event>
 5   0  0.2047109E-03  0.1155173E+04  0.7818609E-02  0.9153024E-01
       -1   -1    0    0    0  501  0.00000000000E+00  0.00000000000E+00  0.31994972324E+03  0.31994972328E+03  0.50400001928E-02 0. -1.
        1   -1    0    0  501    0  0.00000000000E+00  0.00000000000E+00 -0.10426837995E+04  0.10426837995E+04  0.50400001928E-02 0.  1.
    10030    2    1    2    0    0  0.00000000000E+00  0.00000000000E+00 -0.72273407627E+03  0.13626335228E+04  0.11551733950E+04 0.  0.
        1    1    3    3  502    0 -0.21976305869E+03  0.12682154108E+03 -0.97342296314E+03  0.10059481947E+04  0.50400001928E-02 0.  1.
       -1    1    3    3    0  502  0.21976305869E+03 -0.12682154108E+03  0.25068888687E+03  0.35668532809E+03  0.50400001928E-02 0. -1.
</event>
<event>
 5   0  0.3706035E-03  0.1147339E+04  0.7818609E-02  0.9160242E-01
       -2   -1    0    0    0  501  0.00000000000E+00  0.00000000000E+00  0.22973692559E+03  0.22973692560E+03  0.25500000920E-02 0.  1.
        2   -1    0    0  501    0  0.00000000000E+00  0.00000000000E+00 -0.14324934522E+04  0.14324934522E+04  0.25500000920E-02 0. -1.
    10030    2    1    2    0    0  0.00000000000E+00  0.00000000000E+00 -0.12027565266E+04  0.16622303778E+04  0.11473389066E+04 0.  0.
        2    1    3    3  502    0 -0.35262162662E+03  0.37252055523E+03 -0.97352630666E+03  0.11003940410E+04  0.25500000920E-02 0. -1.
       -2    1    3    3    0  502  0.35262162662E+03 -0.37252055523E+03 -0.22923021991E+03  0.56183633680E+03  0.25500000920E-02 0.  1.
</event>
<event>
 5   0  0.3751091E-03  0.1105262E+04  0.7818609E-02  0.9200078E-01
       -2   -1    0    0    0  501  0.00000000000E+00  0.00000000000E+00  0.42769991342E+03  0.42769991343E+03  0.25500000920E-02 0. -1.
        2   -1    0    0  501    0  0.00000000000E+00  0.00000000000E+00 -0.71405508057E+03  0.71405508058E+03  0.25500000920E-02 0.  1.
    10030    2    1    2    0    0  0.00000000000E+00  0.00000000000E+00 -0.28635516715E+03  0.11417549940E+04  0.11052624958E+04 0.  0.
        5    1    3    3  502    0  0.52238301502E+03 -0.17921430993E+03 -0.12310877462E+03  0.56584418673E+03  0.46999998093E+01 0.  1.
       -5    1    3    3    0  502 -0.52238301502E+03  0.17921430993E+03 -0.16324639254E+03  0.57591080728E+03  0.46999998093E+01 0. -1.
</event>
<event>
 5   0  0.2078258E-03  0.1191452E+04  0.7818609E-02  0.9120372E-01
        1   -1    0    0  501    0  0.00000000000E+00  0.00000000000E+00  0.25779327377E+03  0.25779327382E+03  0.50400001928E-02 0. -1.
       -1   -1    0    0    0  501  0.00000000000E+00  0.00000000000E+00 -0.13766435200E+04  0.13766435200E+04  0.50400001928E-02 0.  1.
    10030    2    1    2    0    0  0.00000000000E+00  0.00000000000E+00 -0.11188502462E+04  0.16344367938E+04  0.11914519544E+04 0.  0.
        3    1    3    3  502    0 -0.32754998416E+03 -0.23410172611E+03  0.42914633204E+02  0.40488799221E+03  0.10100000352E+00 0. -1.
       -3    1    3    3    0  502  0.32754998416E+03  0.23410172611E+03 -0.11617648794E+04  0.12295488016E+04  0.10100000352E+00 0.  1.
</event>
<event>
 5   0  0.1397500E-03  0.1200874E+04  0.7818609E-02  0.9112092E-01
       -3   -1    0    0    0  501  0.00000000000E+00  0.00000000000E+00  0.19625092336E+03  0.19625094935E+03  0.10100000352E+00 0. -1.
        3   -1    0    0  501    0  0.00000000000E+00  0.00000000000E+00 -0.18370576604E+04  0.18370576632E+04  0.10100000352E+00 0.  1.
    10030    2    1    2    0    0  0.00000000000E+00  0.00000000000E+00 -0.16408067371E+04  0.20333086125E+04  0.12008735010E+04 0.  0.
        5    1    3    3  502    0  0.19030067755E+03  0.29139328793E+03  0.80116791498E+01  0.34815323225E+03  0.46999998093E+01 0. -1.
       -5    1    3    3    0  502 -0.19030067755E+03 -0.29139328793E+03 -0.16488184162E+04  0.16851553803E+04  0.46999998093E+01 0.  1.
</event>
<event>
 5   0  0.2025294E-03  0.1197795E+04  0.7818609E-02  0.9114789E-01
       -1   -1    0    0    0  501  0.00000000000E+00  0.00000000000E+00  0.57643571377E+03  0.57643571379E+03  0.50400001928E-02 0.  1.
        1   -1    0    0  501    0  0.00000000000E+00  0.00000000000E+00 -0.62223437368E+03  0.62223437370E+03  0.50400001928E-02 0. -1.
    10030    2    1    2    0    0  0.00000000000E+00  0.00000000000E+00 -0.45798659914E+02  0.11986700875E+04  0.11977948328E+04 0.  0.
        5    1    3    3  502    0  0.39086607452E+03  0.12274041161E+03 -0.46004174958E+03  0.61603733508E+03  0.46999998093E+01 0. -1.
       -5    1    3    3    0  502 -0.39086607452E+03 -0.12274041161E+03  0.41424308967E+03  0.58263275242E+03  0.46999998093E+01 0.  1.
</event>
<event>
 5   0  0.3706035E-03  0.1201857E+04  0.7818609E-02  0.9111233E-01
        2   -1    0    0  501    0  0.00000000000E+00  0.00000000000E+00  0.71008950207E+03  0.71008950208E+03  0.25500000920E-02 0.  1.
       -2   -1    0    0    0  501  0.00000000000E+00  0.00000000000E+00 -0.50854872442E+03  0.50854872443E+03  0.25500000920E-02 0. -1.
    10030    2    1    2    0    0  0.00000000000E+00  0.00000000000E+00  0.20154077765E+03  0.12186382265E+04  0.12018570805E+04 0.  0.
        2    1    3    3  502    0  0.32157971909E+03 -0.20982087470E+03 -0.36793576055E+03  0.53180357190E+03  0.25500000920E-02 0. -1.
       -2    1    3    3    0  502 -0.32157971909E+03  0.20982087470E+03  0.56947653820E+03  0.68683465460E+03  0.25500000920E-02 0.  1.
</event>
<event>
 5   0  0.2134992E-03  0.1012061E+04  0.7818609E-02  0.9295414E-01
        1   -1    0    0  501    0  0.00000000000E+00  0.00000000000E+00  0.16489518665E+04  0.16489518666E+04  0.50400001928E-02 0. -1.
       -1   -1    0    0    0  501  0.00000000000E+00  0.00000000000E+00 -0.15529082625E+03  0.15529082633E+03  0.50400001928E-02 0.  1.
    10030    2    1    2    0    0  0.00000000000E+00  0.00000000000E+00  0.14936610403E+04  0.18042426929E+04  0.10120614564E+04 0.  0.
        4    1    3    3  502    0  0.24986631953E+03 -0.27275826350E+03  0.13124218832E+03  0.39250015649E+03  0.12699999809E+01 0.  1.
       -4    1    3    3    0  502 -0.24986631953E+03  0.27275826350E+03  0.13624188520E+04  0.14117425364E+04  0.12699999809E+01 0. -1.
</event>
<event>
 5   0  0.3650180E-03  0.1212564E+04  0.7818609E-02  0.9101930E-01
       -2   -1    0    0    0  501  0.00000000000E+00  0.00000000000E+00  0.27598210928E+03  0.27598210929E+03  0.25500000920E-02 0.  1.
        2   -1    0    0  501    0  0.00000000000E+00  0.00000000000E+00 -0.13318902130E+04  0.13318902130E+04  0.25500000920E-02 0. -1.
    10030    2    1    2    0    0  0.00000000000E+00  0.00000000000E+00 -0.10559081037E+04  0.16078723223E+04  0.12125640112E+04 0.  0.
        3    1    3    3  502    0 -0.35441156097E+03  0.40922006025E+03 -0.16600122335E+03  0.56623760791E+03  0.10100000352E+00 0.  1.
       -3    1    3    3    0  502  0.35441156097E+03 -0.40922006025E+03 -0.88990688037E+03  0.10416347144E+04  0.10100000352E+00 0. -1.
</event>
<event>
 5   0  0.3751091E-03  0.1179768E+04  0.7818609E-02  0.9130752E-01
       -2   -1    0    0    0  501  0.00000000000E+00  0.00000000000E+00  0.11731685546E+04  0.11731685546E+04  0.25500000920E-02 0.  1.
        2   -1    0    0  501    0  0.00000000000E+00  0.00000000000E+00 -0.29660115104E+03  0.29660115105E+03  0.25500000920E-02 0. -1.
    10030    2    1    2    0    0  0.00000000000E+00  0.00000000000E+00  0.87656740358E+03  0.14697697057E+04  0.11797680173E+04 0.  0.
        5    1    3    3  502    0  0.49748263820E+03  0.29709400934E+03  0.30075126412E+03  0.65286081102E+03  0.46999998093E+01 0. -1.
       -5    1    3    3    0  502 -0.49748263820E+03 -0.29709400934E+03  0.57581613947E+03  0.81690889466E+03  0.46999998093E+01 0.  1.
</event>
<event>
 5   0  0.3626049E-03  0.1201097E+04  0.7818609E-02  0.9111897E-01
       -2   -1    0    0    0  501  0.00000000000E+00  0.00000000000E+00  0.60329140163E+03  0.60329140164E+03  0.25500000920E-02 0. -1.
        2   -1    0    0  501    0  0.00000000000E+00  0.00000000000E+00 -0.59781830744E+03  0.59781830744E+03  0.25500000920E-02 0.  1.
    10030    2    1    2    0    0  0.00000000000E+00  0.00000000000E+00  0.54730941995E+01  0.12011097091E+04  0.12010972394E+04 0.  0.
        1    1    3    3  502    0  0.12356602918E+03 -0.17337595191E+03 -0.55881256726E+03  0.59799604482E+03  0.50400001928E-02 0.  1.
       -1    1    3    3    0  502 -0.12356602918E+03  0.17337595191E+03  0.56428566146E+03  0.60311366426E+03  0.50400001928E-02 0. -1.
</event>
<event>
 5   0  0.2134992E-03  0.1194106E+04  0.7818609E-02  0.9118031E-01
        1   -1    0    0  501    0  0.00000000000E+00  0.00000000000E+00  0.17319173432E+04  0.17319173432E+04  0.50400001928E-02 0. -1.
       -1   -1    0    0    0  501  0.00000000000E+00  0.00000000000E+00 -0.20582531833E+03  0.20582531839E+03  0.50400001928E-02 0.  1.
    10030    2    1    2    0    0  0.00000000000E+00  0.00000000000E+00  0.15260920249E+04  0.19377426616E+04  0.11941062575E+04 0.  0.
        4    1    3    3  502    0 -0.86809098145E+02  0.12114739229E+03 -0.17515141281E+03  0.22998291347E+03  0.12699999809E+01 0.  1.
       -4    1    3    3    0  502  0.86809098145E+02 -0.12114739229E+03  0.17012434377E+04  0.17077597481E+04  0.12699999809E+01 0. -1.
</event>
<event>
 5   0  0.3626049E-03  0.1094272E+04  0.7818609E-02  0.9210793E-01
       -2   -1    0    0    0  501  0.00000000000E+00  0.00000000000E+00  0.24849356908E+03  0.24849356910E+03  0.25500000920E-02 0.  1.
        2   -1    0    0  501    0  0.00000000000E+00  0.00000000000E+00 -0.12046896417E+04  0.12046896417E+04  0.25500000920E-02 0. -1.
    10030    2    1    2    0    0  0.00000000000E+00  0.00000000000E+00 -0.95619607260E+03  0.14531832108E+04  0.10942716824E+04 0.  0.
        1    1    3    3  502    0 -0.11425657943E+03 -0.31328356798E+03  0.97944810370E+02  0.34755480979E+03  0.50400001928E-02 0.  1.
       -1    1    3    3    0  502  0.11425657943E+03  0.31328356798E+03 -0.10541408830E+04  0.11056284010E+04  0.50400001928E-02 0. -1.
</event>
<event>
 5   0  0.2047109E-03  0.1205225E+04  0.7818609E-02  0.9108296E-01
       -1   -1    0    0    0  501  0.00000000000E+00  0.00000000000E+00  0.26980491962E+03  0.26980491967E+03  0.50400001928E-02 0. -1.
        1   -1    0    0  501    0  0.00000000000E+00  0.00000000000E+00 -0.13459415819E+04  0.13459415819E+04  0.50400001928E-02 0.  1.
    10030    2    1    2    0    0  0.00000000000E+00  0.00000000000E+00 -0.10761366623E+04  0.16157465016E+04  0.12052247265E+04 0.  0.
        1    1    3    3  502    0  0.20327326097E+03 -0.30069622144E+03 -0.11829649228E+04  0.12373941348E+04  0.50400001928E-02 0.  1.
       -1    1    3    3    0  502 -0.20327326097E+03  0.30069622144E+03  0.10682826048E+03  0.37835236682E+03  0.50400001928E-02 0. -1.
</event>
<event>
 5   0  0.3725376E-03  0.1182142E+04  0.7818609E-02  0.9128632E-01
        2   -1    0    0  501    0  0.00000000000E+00  0.00000000000E+00  0.10070366373E+04  0.10070366373E+04  0.25500000920E-02 0.  1.
       -2   -1    0    0    0  501  0.00000000000E+00  0.00000000000E+00 -0.34692394881E+03  0.34692394882E+03  0.25500000920E-02 0. -1.
    10030    2    1    2    0    0  0.00000000000E+00  0.00000000000E+00  0.66011268853E+03  0.13539605862E+04  0.11821423380E+04 0.  0.
        4    1    3    3  502    0 -0.46179293573E+03  0.34509128902E+03  0.18062154053E+03  0.60412454598E+03  0.12699999809E+01 0. -1.
       -4    1    3    3    0  502  0.46179293573E+03 -0.34509128902E+03  0.47949114801E+03  0.74983604019E+03  0.12699999809E+01 0.  1.
</event>
<event>
 5   0  0.2047109E-03  0.1199935E+04  0.7818609E-02  0.9112913E-01
        1   -1    0    0  501    0  0.00000000000E+00  0.00000000000E+00  0.19709589315E+04  0.19709589315E+04  0.50400001928E-02 0. -1.
       -1   -1    0    0    0  501  0.00000000000E+00  0.00000000000E+00 -0.18263252684E+03  0.18263252690E+03  0.50400001928E-02 0.  1.
    10030    2    1    2    0    0  0.00000000000E+00  0.00000000000E+00  0.17883264046E+04  0.21535914584E+04  0.11999353483E+04 0.  0.
        1    1    3    3  502    0 -0.29945804927E+02 -0.52611352968E+03  0.37938089105E+03  0.64932430870E+03  0.50400001928E-02 0.  1.
       -1    1    3    3    0  502  0.29945804927E+02  0.52611352968E+03  0.14089455136E+04  0.15042671497E+04  0.50400001928E-02 0. -1.
</event>
<event>
 5   0  0.3751091E-03  0.1037873E+04  0.7818609E-02  0.9267955E-01
        2   -1    0    0  501    0  0.00000000000E+00  0.00000000000E+00  0.85690250888E+03  0.85690250889E+03  0.25500000920E-02 0.  1.
       -2   -1    0    0    0  501  0.00000000000E+00  0.00000000000E+00 -0.31426579023E+03  0.31426579024E+03  0.25500000920E-02 0. -1.
    10030    2    1    2    0    0  0.00000000000E+00  0.00000000000E+00  0.54263671865E+03  0.11711682991E+04  0.10378731023E+04 0.  0.
        5    1    3    3  502    0  0.35392687291E+03 -0.92633628762E+02  0.68658688618E+03  0.77799027167E+03  0.46999998093E+01 0.  1.
       -5    1    3    3    0  502 -0.35392687291E+03  0.92633628762E+02 -0.14395016753E+03  0.39317802745E+03  0.46999998093E+01 0. -1.
</event>
<event>
 5   0  0.3751091E-03  0.1207213E+04  0.7818609E-02  0.9106566E-01
        2   -1    0    0  501    0  0.00000000000E+00  0.00000000000E+00  0.76374064495E+03  0.76374064495E+03  0.25500000920E-02 0. -1.
       -2   -1    0    0    0  501  0.00000000000E+00  0.00000000000E+00 -0.47704779782E+03  0.47704779783E+03  0.25500000920E-02 0.  1.
    10030    2    1    2    0    0  0.00000000000E+00  0.00000000000E+00  0.28669284713E+03  0.12407884428E+04  0.12072129767E+04 0.  0.
        5    1    3    3  502    0 -0.16209305418E+03 -0.28264477286E+03  0.66556865635E+03  0.74105732043E+03  0.46999998093E+01 0. -1.
       -5    1    3    3    0  502  0.16209305418E+03  0.28264477286E+03 -0.37887580923E+03  0.49973112236E+03  0.46999998093E+01 0.  1.
</event>
<event>
 5   0  0.3706035E-03  0.1194832E+04  0.7818609E-02  0.9117392E-01
       -2   -1    0    0    0  501  0.00000000000E+00  0.00000000000E+00  0.18780215776E+03  0.18780215778E+03  0.25500000920E-02 0.  1.
        2   -1    0    0  501    0  0.00000000000E+00  0.00000000000E+00 -0.19004349202E+04  0.19004349202E+04  0.25500000920E-02 0. -1.
    10030    2    1    2    0    0  0.00000000000E+00  0.00000000000E+00 -0.17126327624E+04  0.20882370779E+04  0.11948318354E+04 0.  0.
        2    1    3    3  502    0  0.10384282874E+03  0.53228989448E+03 -0.12942597560E+04  0.14032904835E+04  0.25500000920E-02 0. -1.
       -2    1    3    3    0  502 -0.10384282874E+03 -0.53228989448E+03 -0.41837300637E+03  0.68494659449E+03  0.25500000920E-02 0.  1.
</event>
<event>
 5   0  0.3706035E-03  0.1111088E+04  0.7818609E-02  0.9194452E-01
        2   -1    0    0  501    0  0.00000000000E+00  0.00000000000E+00  0.73722681193E+03  0.73722681193E+03  0.25500000920E-02 0.  1.
       -2   -1    0    0    0  501  0.00000000000E+00  0.00000000000E+00 -0.41863517462E+03  0.41863517463E+03  0.25500000920E-02 0. -1.
    10030    2    1    2    0    0  0.00000000000E+00  0.00000000000E+00  0.31859163731E+03  0.11558619866E+04  0.11110878906E+04 0.  0.
        2    1    3    3  502    0 -0.45026356495E+02 -0.20134176870E+03  0.69589495252E+03  0.72583446154E+03  0.25500000920E-02 0.  1.
       -2    1    3    3    0  502  0.45026356495E+02  0.20134176870E+03 -0.37730331522E+03  0.43002752503E+03  0.25500000920E-02 0. -1.
</event>
<event>
 5   0  0.3626049E-03  0.1199863E+04  0.7818609E-02  0.9112977E-01
       -2   -1    0    0    0  501  0.00000000000E+00  0.00000000000E+00  0.83254552797E+03  0.83254552797E+03  0.25500000920E-02 0. -1.
        2   -1    0    0  501    0  0.00000000000E+00  0.00000000000E+00 -0.43230970114E+03  0.43230970115E+03  0.25500000920E-02 0.  1.
    10030    2    1    2    0    0  0.00000000000E+00  0.00000000000E+00  0.40023582683E+03  0.12648552291E+04  0.11998625061E+04 0.  0.
        1    1    3    3  502    0 -0.37386648233E+03 -0.46161391614E+03  0.11158073956E+03  0.60441195856E+03  0.50400001928E-02 0. -1.
       -1    1    3    3    0  502  0.37386648233E+03  0.46161391614E+03  0.28865508727E+03  0.66044327055E+03  0.50400001928E-02 0.  1.
</event>
<event>
 5   0  0.2078258E-03  0.1200639E+04  0.7818609E-02  0.9112297E-01
       -1   -1    0    0    0  501  0.00000000000E+00  0.00000000000E+00  0.95745454596E+03  0.95745454598E+03  0.50400001928E-02 0.  1.
        1   -1    0    0  501    0  0.00000000000E+00  0.00000000000E+00 -0.37639746661E+03  0.37639746665E+03  0.50400001928E-02 0. -1.
    10030    2    1    2    0    0  0.00000000000E+00  0.00000000000E+00  0.58105707935E+03  0.13338520126E+04  0.12006389391E+04 0.  0.
        3    1    3    3  502    0 -0.10989607390E+02  0.15157087277E+03 -0.35467432008E+03  0.38586057647E+03  0.10100000352E+00 0. -1.
       -3    1    3    3    0  502  0.10989607390E+02 -0.15157087277E+03  0.93573139943E+03  0.94799143616E+03  0.10100000352E+00 0.  1.
</event>
<event>
 5   0  0.2078258E-03  0.1230469E+04  0.7818609E-02  0.9086598E-01
        1   -1    0    0  501    0  0.00000000000E+00  0.00000000000E+00  0.90802319821E+03  0.90802319823E+03  0.50400001928E-02 0.  1.
       -1   -1    0    0    0  501  0.00000000000E+00  0.00000000000E+00 -0.41685416591E+03  0.41685416594E+03  0.50400001928E-02 0. -1.
    10030    2    1    2    0    0  0.00000000000E+00  0.00000000000E+00  0.49116903230E+03  0.13248773642E+04  0.12304686147E+04 0.  0.
        3    1    3    3  502    0 -0.96413464891E+02  0.26634788101E+03  0.83363505651E+03  0.88044543702E+03  0.10100000352E+00 0.  1.
       -3    1    3    3    0  502  0.96413464891E+02 -0.26634788101E+03 -0.34246602421E+03  0.44443192715E+03  0.10100000352E+00 0. -1.
</event>
<event>
 5   0  0.1397500E-03  0.1192624E+04  0.7818609E-02  0.9119337E-01
       -3   -1    0    0    0  501  0.00000000000E+00  0.00000000000E+00  0.12722301276E+04  0.12722301316E+04  0.10100000352E+00 0. -1.
        3   -1    0    0  501    0  0.00000000000E+00  0.00000000000E+00 -0.27949975865E+03  0.27949977690E+03  0.10100000352E+00 0.  1.
    10030    2    1    2    0    0  0.00000000000E+00  0.00000000000E+00  0.99273036891E+03  0.15517299085E+04  0.11926240495E+04 0.  0.
        3    1    3    3  502    0 -0.61901908764E+02 -0.46956747351E+03  0.96775805168E+03  0.10774419313E+04  0.10100000352E+00 0. -1.
       -3    1    3    3    0  502  0.61901908764E+02  0.46956747351E+03  0.24972317230E+02  0.47428797720E+03  0.10100000352E+00 0.  1.
</event>
<event>
 5   0  0.3650180E-03  0.1231648E+04  0.7818609E-02  0.9085597E-01
        2   -1    0    0  501    0  0.00000000000E+00  0.00000000000E+00  0.11230107632E+04  0.11230107632E+04  0.25500000920E-02 0. -1.
       -2   -1    0    0    0  501  0.00000000000E+00  0.00000000000E+00 -0.33769872770E+03  0.33769872771E+03  0.25500000920E-02 0.  1.
    10030    2    1    2    0    0  0.00000000000E+00  0.00000000000E+00  0.78531203549E+03  0.14607094909E+04  0.12316481737E+04 0.  0.
        3    1    3    3  502    0  0.46710770490E+03 -0.45248180791E+02 -0.80254391442E+02  0.47610690332E+03  0.10100000352E+00 0.  1.
       -3    1    3    3    0  502 -0.46710770490E+03  0.45248180791E+02  0.86556642693E+03  0.98460258758E+03  0.10100000352E+00 0. -1.
</event>
<event>
 5   0  0.2047109E-03  0.1138442E+04  0.7818609E-02  0.9168513E-01
       -1   -1    0    0    0  501  0.00000000000E+00  0.00000000000E+00  0.31205675258E+03  0.31205675263E+03  0.50400001928E-02 0.  1.
        1   -1    0    0  501    0  0.00000000000E+00  0.00000000000E+00 -0.10383125435E+04  0.10383125436E+04  0.50400001928E-02 0. -1.
    10030    2    1    2    0    0  0.00000000000E+00  0.00000000000E+00 -0.72625579096E+03  0.13503692962E+04  0.11384418133E+04 0.  0.
        1    1    3    3  502    0 -0.22484776841E+03  0.52117426582E+03 -0.41391567433E+03  0.70249933793E+03  0.50400001928E-02 0. -1.
       -1    1    3    3    0  502  0.22484776841E+03 -0.52117426582E+03 -0.31234011663E+03  0.64786995825E+03  0.50400001928E-02 0.  1.
</event>
<event>
 5   0  0.3706035E-03  0.1234380E+04  0.7818609E-02  0.9083285E-01
        2   -1    0    0  501    0  0.00000000000E+00  0.00000000000E+00  0.77038116752E+03  0.77038116753E+03  0.25500000920E-02 0. -1.
       -2   -1    0    0    0  501  0.00000000000E+00  0.00000000000E+00 -0.49446076711E+03  0.49446076712E+03  0.25500000920E-02 0.  1.
    10030    2    1    2    0    0  0.00000000000E+00  0.00000000000E+00  0.27592040041E+03  0.12648419346E+04  0.12343796224E+04 0.  0.
        2    1    3    3  502    0  0.26031038447E+03 -0.50817668067E+03  0.37808984042E+03  0.68480432422E+03  0.25500000920E-02 0. -1.
       -2    1    3    3    0  502 -0.26031038447E+03  0.50817668067E+03 -0.10216944001E+03  0.58003761043E+03  0.25500000920E-02 0.  1.
</event>
<event>
 5   0  0.2134992E-03  0.1220388E+04  0.7818609E-02  0.9095196E-01
        1   -1    0    0  501    0  0.00000000000E+00  0.00000000000E+00  0.24950893171E+04  0.24950893171E+04  0.50400001928E-02 0.  1.
       -1   -1    0    0    0  501  0.00000000000E+00  0.00000000000E+00 -0.14922786921E+03  0.14922786929E+03  0.50400001928E-02 0. -1.
    10030    2    1    2    0    0  0.00000000000E+00  0.00000000000E+00  0.23458614479E+04  0.26443171864E+04  0.12203882372E+04 0.  0.
        4    1    3    3  502    0 -0.95123324064E+02  0.56378384033E+03  0.71107235973E+03  0.91242872548E+03  0.12699999809E+01 0.  1.
       -4    1    3    3    0  502  0.95123324064E+02 -0.56378384033E+03  0.16347890882E+04  0.17318884610E+04  0.12699999809E+01 0. -1.
</event>
<event>
 5   0  0.2047109E-03  0.1175761E+04  0.7818609E-02  0.9134341E-01
        1   -1    0    0  501    0  0.00000000000E+00  0.00000000000E+00  0.77875386129E+03  0.77875386131E+03  0.50400001928E-02 0.  1.
       -1   -1    0    0    0  501  0.00000000000E+00  0.00000000000E+00 -0.44379076344E+03  0.44379076346E+03  0.50400001928E-02 0. -1.
    10030    2    1    2    0    0  0.00000000000E+00  0.00000000000E+00  0.33496309786E+03  0.12225446248E+04  0.11757614905E+04 0.  0.
        1    1    3    3  502    0  0.17898058595E+03  0.23980820196E+02  0.74920147395E+03  0.77065684872E+03  0.50400001928E-02 0.  1.
       -1    1    3    3    0  502 -0.17898058595E+03 -0.23980820196E+02 -0.41423837610E+03  0.45188777605E+03  0.50400001928E-02 0. -1.
</event>
<event>
 5   0  0.2096270E-03  0.1228802E+04  0.7818609E-02  0.9088013E-01
        1   -1    0    0  501    0  0.00000000000E+00  0.00000000000E+00  0.16417076334E+04  0.16417076334E+04  0.50400001928E-02 0.  1.
       -1   -1    0    0    0  501  0.00000000000E+00  0.00000000000E+00 -0.22993658106E+03  0.22993658111E+03  0.50400001928E-02 0. -1.
    10030    2    1    2    0    0  0.00000000000E+00  0.00000000000E+00  0.14117710523E+04  0.18716442145E+04  0.12288020839E+04 0.  0.
        2    1    3    3  502    0  0.35306187560E+02 -0.58854632533E+03  0.44270585398E+03  0.73730711179E+03  0.25500000920E-02 0. -1.
       -2    1    3    3    0  502 -0.35306187560E+02  0.58854632533E+03  0.96906519835E+03  0.11343371027E+04  0.25500000920E-02 0.  1.
</event>
<event>
 5   0  0.2078258E-03  0.1210429E+04  0.7818609E-02  0.9103777E-01
       -1   -1    0    0    0  501  0.00000000000E+00  0.00000000000E+00  0.34345068436E+03  0.34345068440E+03  0.50400001928E-02 0.  1.
        1   -1    0    0  501    0  0.00000000000E+00  0.00000000000E+00 -0.10664834551E+04  0.10664834552E+04  0.50400001928E-02 0. -1.
    10030    2    1    2    0    0  0.00000000000E+00  0.00000000000E+00 -0.72303277078E+03  0.14099341396E+04  0.12104288043E+04 0.  0.
        3    1    3    3  502    0  0.48592057248E+03 -0.11727019827E+03  0.35913927904E+02  0.50115957796E+03  0.10100000352E+00 0.  1.
       -3    1    3    3    0  502 -0.48592057248E+03  0.11727019827E+03 -0.75894669868E+03  0.90877456159E+03  0.10100000352E+00 0. -1.
</event>
<event>
 5   0  0.3725376E-03  0.1203540E+04  0.7818609E-02  0.9109764E-01
        2   -1    0    0  501    0  0.00000000000E+00  0.00000000000E+00  0.76066907842E+03  0.76066907843E+03  0.25500000920E-02 0.  1.
       -2   -1    0    0    0  501  0.00000000000E+00  0.00000000000E+00 -0.47606383291E+03  0.47606383291E+03  0.25500000920E-02 0. -1.
    10030    2    1    2    0    0  0.00000000000E+00  0.00000000000E+00  0.28460524552E+03  0.12367329113E+04  0.12035398407E+04 0.  0.
        4    1    3    3  502    0  0.23299031964E+03 -0.52483403176E+03 -0.42633645036E+02  0.57580768537E+03  0.12699999809E+01 0. -1.
       -4    1    3    3    0  502 -0.23299031964E+03  0.52483403176E+03  0.32723889055E+03  0.66092522597E+03  0.12699999809E+01 0.  1.
</event>
<event>
 5   0  0.3725376E-03  0.1188739E+04  0.7818609E-02  0.9122771E-01
        2   -1    0    0  501    0  0.00000000000E+00  0.00000000000E+00  0.14083981911E+04  0.14083981911E+04  0.25500000920E-02 0.  1.
       -2   -1    0    0    0  501  0.00000000000E+00  0.00000000000E+00 -0.25083468055E+03  0.25083468056E+03  0.25500000920E-02 0. -1.
    10030    2    1    2    0    0  0.00000000000E+00  0.00000000000E+00  0.11575635105E+04  0.16592328716E+04  0.11887390132E+04 0.  0.
        4    1    3    3  502    0 -0.49790252397E+03  0.14636741308E+03  0.98318391823E+03  0.11117475311E+04  0.12699999809E+01 0.  1.
       -4    1    3    3    0  502  0.49790252397E+03 -0.14636741308E+03  0.17437959230E+03  0.54748534053E+03  0.12699999809E+01 0. -1.
</event>
<event>
 5   0  0.2096270E-03  0.1181328E+04  0.7818609E-02  0.9129359E-01
       -1   -1    0    0    0  501  0.00000000000E+00  0.00000000000E+00  0.28577404618E+03  0.28577404623E+03  0.50400001928E-02 0.  1.
        1   -1    0    0  501    0  0.00000000000E+00  0.00000000000E+00 -0.12208392761E+04  0.12208392761E+04  0.50400001928E-02 0. -1.
    10030    2    1    2    0    0  0.00000000000E+00  0.00000000000E+00 -0.93506522988E+03  0.15066133223E+04  0.11813283704E+04 0.  0.
        2    1    3    3  502    0 -0.39245953980E+02  0.25308863152E+02 -0.12184812243E+04  0.12193757737E+04  0.25500000920E-02 0. -1.
       -2    1    3    3    0  502  0.39245953980E+02 -0.25308863152E+02  0.28341599440E+03  0.28723754864E+03  0.25500000920E-02 0.  1.
</event>
<event>
 5   0  0.3725376E-03  0.1219159E+04  0.7818609E-02  0.9096250E-01
        2   -1    0    0  501    0  0.00000000000E+00  0.00000000000E+00  0.17807891067E+04  0.17807891067E+04  0.25500000920E-02 0.  1.
       -2   -1    0    0    0  501  0.00000000000E+00  0.00000000000E+00 -0.20866445136E+03  0.20866445138E+03  0.25500000920E-02 0. -1.
    10030    2    1    2    0    0  0.00000000000E+00  0.00000000000E+00  0.15721246554E+04  0.19894535581E+04  0.12191593529E+04 0.  0.
        4    1    3    3  502    0  0.36036106296E+03  0.30667061112E+03  0.15896865010E+03  0.49917892988E+03  0.12699999809E+01 0. -1.
       -4    1    3    3    0  502 -0.36036106296E+03 -0.30667061112E+03  0.14131560053E+04  0.14902746282E+04  0.12699999809E+01 0.  1.
</event>
<event>
 5   0  0.3626049E-03  0.1201075E+04  0.7818609E-02  0.9111916E-01
       -2   -1    0    0    0  501  0.00000000000E+00  0.00000000000E+00  0.31185586846E+03  0.31185586847E+03  0.25500000920E-02 0. -1.
        2   -1    0    0  501    0  0.00000000000E+00  0.00000000000E+00 -0.11564482290E+04  0.11564482290E+04  0.25500000920E-02 0.  1.
    10030    2    1    2    0    0  0.00000000000E+00  0.00000000000E+00 -0.84459236057E+03  0.14683040975E+04  0.12010747967E+04 0.  0.
        1    1    3    3  502    0  0.57944559497E+03 -0.15747083072E+03 -0.41064033046E+03  0.72744741465E+03  0.50400001928E-02 0. -1.
       -1    1    3    3    0  502 -0.57944559497E+03  0.15747083072E+03 -0.43395203011E+03  0.74085668284E+03  0.50400001928E-02 0.  1.
</event>
<event>
 5   0  0.3725376E-03  0.1204462E+04  0.7818609E-02  0.9108960E-01
       -2   -1    0    0    0  501  0.00000000000E+00  0.00000000000E+00  0.55603139139E+03  0.55603139140E+03  0.25500000920E-02 0.  1.
        2   -1    0    0  501    0  0.00000000000E+00  0.00000000000E+00 -0.65226967496E+03  0.65226967496E+03  0.25500000920E-02 0. -1.
    10030    2    1    2    0    0  0.00000000000E+00  0.00000000000E+00 -0.96238283562E+02  0.12083010664E+04  0.12044623945E+04 0.  0.
        4    1    3    3  502    0 -0.60175708692E+03 -0.23850040849E+02 -0.48742359034E+02  0.60420017094E+03  0.12699999809E+01 0. -1.
       -4    1    3    3    0  502  0.60175708692E+03  0.23850040849E+02 -0.47495924528E+02  0.60410089542E+03  0.12699999809E+01 0.  1.
</event>
<event>
 5   0  0.2078258E-03  0.1195749E+04  0.7818609E-02  0.9116585E-01
        1   -1    0    0  501    0  0.00000000000E+00  0.00000000000E+00  0.80663192877E+03  0.80663192879E+03  0.50400001928E-02 0.  1.
       -1   -1    0    0    0  501  0.00000000000E+00  0.00000000000E+00 -0.44314404391E+03  0.44314404394E+03  0.50400001928E-02 0. -1.
    10030    2    1    2    0    0  0.00000000000E+00  0.00000000000E+00  0.36348788486E+03  0.12497759727E+04  0.11957493632E+04 0.  0.
        3    1    3    3  502    0  0.28215811184E+03 -0.51333496001E+03  0.30685248739E+03  0.66127485999E+03  0.10100000352E+00 0.  1.
       -3    1    3    3    0  502 -0.28215811184E+03  0.51333496001E+03  0.56635397473E+02  0.58850111273E+03  0.10100000352E+00 0. -1.
</event>
<event>
 5   0  0.3751091E-03  0.1172810E+04  0.7818609E-02  0.9136995E-01
       -2   -1    0    0    0  501  0.00000000000E+00  0.00000000000E+00  0.31883350753E+03  0.31883350754E+03  0.25500000920E-02 0.  1.
        2   -1    0    0  501    0  0.00000000000E+00  0.00000000000E+00 -0.10785271498E+04  0.10785271498E+04  0.25500000920E-02 0. -1.
    10030    2    1    2    0    0  0.00000000000E+00  0.00000000000E+00 -0.75969364224E+03  0.13973606573E+04  0.11728096080E+04 0.  0.
        5    1    3    3  502    0 -0.19788785231E+03 -0.20719883025E+03  0.22973302821E+03  0.36727416408E+03  0.46999998093E+01 0.  1.
       -5    1    3    3    0  502  0.19788785231E+03  0.20719883025E+03 -0.98942667045E+03  0.10300864932E+04  0.46999998093E+01 0. -1.
</event>
<event>
 5   0  0.2025294E-03  0.1144273E+04  0.7818609E-02  0.9163084E-01
        1   -1    0    0  501    0  0.00000000000E+00  0.00000000000E+00  0.53428797273E+03  0.53428797275E+03  0.50400001928E-02 0.  1.
       -1   -1    0    0    0  501  0.00000000000E+00  0.00000000000E+00 -0.61266574170E+03  0.61266574172E+03  0.50400001928E-02 0. -1.
    10030    2    1    2    0    0  0.00000000000E+00  0.00000000000E+00 -0.78377768970E+02  0.11469537145E+04  0.11442725849E+04 0.  0.
        5    1    3    3  502    0 -0.18520462522E+03 -0.52561392948E+03  0.90524887944E+02  0.56461278891E+03  0.46999998093E+01 0.  1.
       -5    1    3    3    0  502  0.18520462522E+03  0.52561392948E+03 -0.16890265691E+03  0.58234092556E+03  0.46999998093E+01 0. -1.
</event>
<event>
 5   0  0.2078258E-03  0.1203764E+04  0.7818609E-02  0.9109568E-01
        1   -1    0    0  501    0  0.00000000000E+00  0.00000000000E+00  0.18305779933E+04  0.18305779933E+04  0.50400001928E-02 0.  1.
       -1   -1    0    0    0  501  0.00000000000E+00  0.00000000000E+00 -0.19789489115E+03  0.19789489122E+03  0.50400001928E-02 0. -1.
    10030    2    1    2    0    0  0.00000000000E+00  0.00000000000E+00  0.16326831021E+04  0.20284728845E+04  0.12037641510E+04 0.  0.
        3    1    3    3  502    0  0.20758542834E+03  0.90819966767E+02 -0.12328127763E+03  0.25795011153E+03  0.10100000352E+00 0. -1.
       -3    1    3    3    0  502 -0.20758542834E+03 -0.90819966767E+02  0.17559643798E+04  0.17705227730E+04  0.10100000352E+00 0.  1.
</event>
<event>
 5   0  0.3650180E-03  0.1185166E+04  0.7818609E-02  0.9125941E-01
        2   -1    0    0  501    0  0.00000000000E+00  0.00000000000E+00  0.34235399361E+03  0.34235399362E+03  0.25500000920E-02 0. -1.
       -2   -1    0    0    0  501  0.00000000000E+00  0.00000000000E+00 -0.10257058436E+04  0.10257058436E+04  0.25500000920E-02 0.  1.
    10030    2    1    2    0    0  0.00000000000E+00  0.00000000000E+00 -0.68335184999E+03  0.13680598372E+04  0.11851657974E+04 0.  0.
        3    1    3    3  502    0  0.28932496217E+03 -0.12179025818E+03  0.23849178986E+03  0.39423361697E+03  0.10100000352E+00 0. -1.
       -3    1    3    3    0  502 -0.28932496217E+03  0.12179025818E+03 -0.92184363985E+03  0.97382622026E+03  0.10100000352E+00 0.  1.
</event>
<event>
 5   0  0.2047109E-03  0.1208778E+04  0.7818609E-02  0.9105208E-01
       -1   -1    0    0    0  501  0.00000000000E+00  0.00000000000E+00  0.10454486796E+04  0.10454486796E+04  0.50400001928E-02 0. -1.
        1   -1    0    0  501    0  0.00000000000E+00  0.00000000000E+00 -0.34940605325E+03  0.34940605329E+03  0.50400001928E-02 0.  1.
    10030    2    1    2    0    0  0.00000000000E+00  0.00000000000E+00  0.69604262635E+03  0.13948547329E+04  0.12087780558E+04 0.  0.
        1    1    3    3  502    0  0.39674136900E+03 -0.19567152004E+03  0.82323504955E+03  0.93456246686E+03  0.50400001928E-02 0. -1.
       -1    1    3    3    0  502 -0.39674136900E+03  0.19567152004E+03 -0.12719242321E+03  0.46029226604E+03  0.50400001928E-02 0.  1.
</event>
<event>
 5   0  0.2134992E-03  0.1195696E+04  0.7818609E-02  0.9116632E-01
        1   -1    0    0  501    0  0.00000000000E+00  0.00000000000E+00  0.11168923095E+04  0.11168923095E+04  0.50400001928E-02 0. -1.
       -1   -1    0    0    0  501  0.00000000000E+00  0.00000000000E+00 -0.32001493346E+03  0.32001493350E+03  0.50400001928E-02 0.  1.
    10030    2    1    2    0    0  0.00000000000E+00  0.00000000000E+00  0.79687737607E+03  0.14369072430E+04  0.11956959783E+04 0.  0.
        4    1    3    3  502    0 -0.34921584804E+03  0.83530389730E+02  0.97287654986E+03  0.10370243144E+04  0.12699999809E+01 0. -1.
       -4    1    3    3    0  502  0.34921584804E+03 -0.83530389730E+02 -0.17599917379E+03  0.39988292863E+03  0.12699999809E+01 0.  1.
</event>
<event>
 5   0  0.2025294E-03  0.1195885E+04  0.7818609E-02  0.9116466E-01
       -1   -1    0    0    0  501  0.00000000000E+00  0.00000000000E+00  0.17265232128E+03  0.17265232135E+03  0.50400001928E-02 0. -1.
        1   -1    0    0  501    0  0.00000000000E+00  0.00000000000E+00 -0.20708378924E+04  0.20708378924E+04  0.50400001928E-02 0.  1.
    10030    2    1    2    0    0  0.00000000000E+00  0.00000000000E+00 -0.18981855711E+04  0.22434902137E+04  0.11958845583E+04 0.  0.
        5    1    3    3  502    0  0.23845768162E+03  0.38384974199E+03 -0.16836412084E+04  0.17432362143E+04  0.46999998093E+01 0.  1.
       -5    1    3    3    0  502 -0.23845768162E+03 -0.38384974199E+03 -0.21454436270E+03  0.50025399940E+03  0.46999998093E+01 0. -1.
</event>
<event>
 5   0  0.2134992E-03  0.1180458E+04  0.7818609E-02  0.9130136E-01
       -1   -1    0    0    0  501  0.00000000000E+00  0.00000000000E+00  0.57559391357E+03  0.57559391359E+03  0.50400001928E-02 0. -1.
        1   -1    0    0  501    0  0.00000000000E+00  0.00000000000E+00 -0.60523631132E+03  0.60523631135E+03  0.50400001928E-02 0.  1.
    10030    2    1    2    0    0  0.00000000000E+00  0.00000000000E+00 -0.29642397756E+02  0.11808302249E+04  0.11804581095E+04 0.  0.
        4    1    3    3  502    0 -0.55740517708E+03  0.13772233496E+02  0.17883352157E+03  0.58555379529E+03  0.12699999809E+01 0.  1.
       -4    1    3    3    0  502  0.55740517708E+03 -0.13772233496E+02 -0.20847591933E+03  0.59527642964E+03  0.12699999809E+01 0. -1.
</event>
<event>
 5   0  0.2047109E-03  0.1203274E+04  0.7818609E-02  0.9109996E-01
       -1   -1    0    0    0  501  0.00000000000E+00  0.00000000000E+00  0.39834758863E+03  0.39834758866E+03  0.50400001928E-02 0. -1.
        1   -1    0    0  501    0  0.00000000000E+00  0.00000000000E+00 -0.90867129463E+03  0.90867129464E+03  0.50400001928E-02 0.  1.
    10030    2    1    2    0    0  0.00000000000E+00  0.00000000000E+00 -0.51032370600E+03  0.13070188833E+04  0.12032738992E+04 0.  0.
        1    1    3    3  502    0 -0.14879782004E+03 -0.53188730954E+03  0.39921315714E+01  0.55232312865E+03  0.50400001928E-02 0. -1.
       -1    1    3    3    0  502  0.14879782004E+03  0.53188730954E+03 -0.51431583757E+03  0.75469575466E+03  0.50400001928E-02 0.  1.
</event>
<event>
 5   0  0.3725376E-03  0.1200865E+04  0.7818609E-02  0.9112100E-01
       -2   -1    0    0    0  501  0.00000000000E+00  0.00000000000E+00  0.30645933408E+03  0.30645933409E+03  0.25500000920E-02 0. -1.
        2   -1    0    0  501    0  0.00000000000E+00  0.00000000000E+00 -0.11764010596E+04  0.11764010596E+04  0.25500000920E-02 0.  1.
    10030    2    1    2    0    0  0.00000000000E+00  0.00000000000E+00 -0.86994172555E+03  0.14828603937E+04  0.12008648306E+04 0.  0.
        4    1    3    3  502    0  0.19242644235E+03 -0.41550509773E+03  0.44620852254E+02  0.46007070686E+03  0.12699999809E+01 0.  1.
       -4    1    3    3    0  502 -0.19242644235E+03  0.41550509773E+03 -0.91456257780E+03  0.10227896869E+04  0.12699999809E+01 0. -1.
</event>
<event>
 5   0  0.2134992E-03  0.1199374E+04  0.7818609E-02  0.9113404E-01
       -1   -1    0    0    0  501  0.00000000000E+00  0.00000000000E+00  0.48800575611E+03  0.48800575614E+03  0.50400001928E-02 0. -1.
        1   -1    0    0  501    0  0.00000000000E+00  0.00000000000E+00 -0.73692721442E+03  0.73692721444E+03  0.50400001928E-02 0.  1.
    10030    2    1    2    0    0  0.00000000000E+00  0.00000000000E+00 -0.24892145831E+03  0.12249329706E+04  0.11993743744E+04 0.  0.
        4    1    3    3  502    0 -0.43303051311E+03 -0.32079156722E+03  0.14420485235E+03  0.55787033191E+03  0.12699999809E+01 0. -1.
       -4    1    3    3    0  502  0.43303051311E+03  0.32079156722E+03 -0.39312631066E+03  0.66706263867E+03  0.12699999809E+01 0.  1.
</event>
<event>
 5   0  0.2047109E-03  0.1207320E+04  0.7818609E-02  0.9106473E-01
        1   -1    0    0  501    0  0.00000000000E+00  0.00000000000E+00  0.17634322284E+04  0.17634322284E+04  0.50400001928E-02 0.  1.
       -1   -1    0    0    0  501  0.00000000000E+00  0.00000000000E+00 -0.20664565598E+03  0.20664565604E+03  0.50400001928E-02 0. -1.
    10030    2    1    2    0    0  0.00000000000E+00  0.00000000000E+00  0.15567865724E+04  0.19700778845E+04  0.12073203546E+04 0.  0.
        1    1    3    3  502    0  0.36898567497E+01 -0.55140541203E+03  0.11792398442E+04  0.13017942055E+04  0.50400001928E-02 0.  1.
       -1    1    3    3    0  502 -0.36898567497E+01  0.55140541203E+03  0.37754672824E+03  0.66828367891E+03  0.50400001928E-02 0. -1.
</event>
<event>
 5   0  0.2078258E-03  0.1213577E+04  0.7818609E-02  0.9101055E-01
        1   -1    0    0  501    0  0.00000000000E+00  0.00000000000E+00  0.87239239515E+03  0.87239239516E+03  0.50400001928E-02 0.  1.
       -1   -1    0    0    0  501  0.00000000000E+00  0.00000000000E+00 -0.42204897692E+03  0.42204897695E+03  0.50400001928E-02 0. -1.
    10030    2    1    2    0    0  0.00000000000E+00  0.00000000000E+00  0.45034341823E+03  0.12944413721E+04  0.12135770563E+04 0.  0.
        3    1    3    3  502    0 -0.20106591468E+03 -0.14579205104E+03  0.81569493851E+03  0.85266703179E+03  0.10100000352E+00 0.  1.
       -3    1    3    3    0  502  0.20106591468E+03  0.14579205104E+03 -0.36535152028E+03  0.44177434032E+03  0.10100000352E+00 0. -1.
</event>
<event>
 5   0  0.2078258E-03  0.1263208E+04  0.7818609E-02  0.9059261E-01
       -1   -1    0    0    0  501  0.00000000000E+00  0.00000000000E+00  0.34651450798E+03  0.34651450802E+03  0.50400001928E-02 0.  1.
        1   -1    0    0  501    0  0.00000000000E+00  0.00000000000E+00 -0.11512465476E+04  0.11512465476E+04  0.50400001928E-02 0. -1.
    10030    2    1    2    0    0  0.00000000000E+00  0.00000000000E+00 -0.80473203963E+03  0.14977610556E+04  0.12632080289E+04 0.  0.
        3    1    3    3  502    0 -0.39809709814E+03 -0.48087111563E+03 -0.28860684626E+03  0.68775886131E+03  0.10100000352E+00 0.  1.
       -3    1    3    3    0  502  0.39809709814E+03  0.48087111563E+03 -0.51612519337E+03  0.81000219433E+03  0.10100000352E+00 0. -1.
</event>
<event>
 5   0  0.3725376E-03  0.1199984E+04  0.7818609E-02  0.9112871E-01
        2   -1    0    0  501    0  0.00000000000E+00  0.00000000000E+00  0.21010953305E+04  0.21010953305E+04  0.25500000920E-02 0. -1.
       -2   -1    0    0    0  501  0.00000000000E+00  0.00000000000E+00 -0.17133462035E+03  0.17133462037E+03  0.25500000920E-02 0.  1.
    10030    2    1    2    0    0  0.00000000000E+00  0.00000000000E+00  0.19297607101E+04  0.22724299508E+04  0.11999839512E+04 0.  0.
        4    1    3    3  502    0 -0.15498713954E+03 -0.25947161676E+03  0.19464072505E+04  0.19697333147E+04  0.12699999809E+01 0. -1.
       -4    1    3    3    0  502  0.15498713954E+03  0.25947161676E+03 -0.16646540379E+02  0.30269663614E+03  0.12699999809E+01 0.  1.
</event>
<event>
 5   0  0.2096270E-03  0.1249725E+04  0.7818609E-02  0.9070412E-01
       -1   -1    0    0    0  501  0.00000000000E+00  0.00000000000E+00  0.32409890105E+03  0.32409890109E+03  0.50400001928E-02 0.  1.
        1   -1    0    0  501    0  0.00000000000E+00  0.00000000000E+00 -0.12047348787E+04  0.12047348788E+04  0.50400001928E-02 0. -1.
    10030    2    1    2    0    0  0.00000000000E+00  0.00000000000E+00 -0.88063597769E+03  0.15288337798E+04  0.12497251703E+04 0.  0.
        2    1    3    3  502    0 -0.39289788125E+03 -0.38459905850E+03 -0.77071505336E+02  0.55518032911E+03  0.25500000920E-02 0.  1.
       -2    1    3    3    0  502  0.39289788125E+03  0.38459905850E+03 -0.80356447235E+03  0.97365345073E+03  0.25500000920E-02 0. -1.
</event>
<event>
 5   0  0.2134992E-03  0.1189412E+04  0.7818609E-02  0.9122175E-01
        1   -1    0    0  501    0  0.00000000000E+00  0.00000000000E+00  0.10691189458E+04  0.10691189459E+04  0.50400001928E-02 0.  1.
       -1   -1    0    0    0  501  0.00000000000E+00  0.00000000000E+00 -0.33080979168E+03  0.33080979172E+03  0.50400001928E-02 0. -1.
    10030    2    1    2    0    0  0.00000000000E+00  0.00000000000E+00  0.73830915416E+03  0.13999287376E+04  0.11894116458E+04 0.  0.
        4    1    3    3  502    0  0.84019255781E+02 -0.26545184932E+03 -0.24935418974E+03  0.37376870453E+03  0.12699999809E+01 0. -1.
       -4    1    3    3    0  502 -0.84019255781E+02  0.26545184932E+03  0.98766334389E+03  0.10261600330E+04  0.12699999809E+01 0.  1.
</event>
<event>
 5   0  0.3725376E-03  0.1206112E+04  0.7818609E-02  0.9107523E-01
       -2   -1    0    0    0  501  0.00000000000E+00  0.00000000000E+00  0.47203199601E+03  0.47203199602E+03  0.25500000920E-02 0. -1.
        2   -1    0    0  501    0  0.00000000000E+00  0.00000000000E+00 -0.77044902437E+03  0.77044902438E+03  0.25500000920E-02 0.  1.
    10030    2    1    2    0    0  0.00000000000E+00  0.00000000000E+00 -0.29841702836E+03  0.12424810204E+04  0.12061120857E+04 0.  0.
        4    1    3    3  502    0 -0.96474582056E+02  0.59354756074E+03 -0.19606552496E+03  0.63249454924E+03  0.12699999809E+01 0.  1.
       -4    1    3    3    0  502  0.96474582056E+02 -0.59354756074E+03 -0.10235150340E+03  0.60998647115E+03  0.12699999809E+01 0. -1.
</event>
<event>
 5   0  0.3751091E-03  0.1198015E+04  0.7818609E-02  0.9114596E-01
        2   -1    0    0  501    0  0.00000000000E+00  0.00000000000E+00  0.37731769200E+03  0.37731769201E+03  0.25500000920E-02 0. -1.
       -2   -1    0    0    0  501  0.00000000000E+00  0.00000000000E+00 -0.95094857686E+03  0.95094857686E+03  0.25500000920E-02 0.  1.
    10030    2    1    2    0    0  0.00000000000E+00  0.00000000000E+00 -0.57363088486E+03  0.13282662689E+04  0.11980145613E+04 0.  0.
        5    1    3    3  502    0  0.64586014083E+02  0.58247810690E+03 -0.42411606263E+03  0.72342838126E+03  0.46999998093E+01 0.  1.
       -5    1    3    3    0  502 -0.64586014083E+02 -0.58247810690E+03 -0.14951482223E+03  0.60483788762E+03  0.46999998093E+01 0. -1.
</event>
<event>
 5   0  0.2134992E-03  0.1201579E+04  0.7818609E-02  0.9111476E-01
       -1   -1    0    0    0  501  0.00000000000E+00  0.00000000000E+00  0.54417324266E+03  0.54417324269E+03  0.50400001928E-02 0.  1.
        1   -1    0    0  501    0  0.00000000000E+00  0.00000000000E+00 -0.66329586222E+03  0.66329586224E+03  0.50400001928E-02 0. -1.
    10030    2    1    2    0    0  0.00000000000E+00  0.00000000000E+00 -0.11912261956E+03  0.12074691049E+04  0.12015787285E+04 0.  0.
        4    1    3    3  502    0 -0.43380376346E+03  0.35284059637E+03 -0.28032909597E+03  0.62551435362E+03  0.12699999809E+01 0.  1.
       -4    1    3    3    0  502  0.43380376346E+03 -0.35284059637E+03  0.16120647641E+03  0.58195475131E+03  0.12699999809E+01 0. -1.
</event>
<event>
 5   0  0.3725376E-03  0.1161613E+04  0.7818609E-02  0.9147136E-01
        2   -1    0    0  501    0  0.00000000000E+00  0.00000000000E+00  0.44051061032E+03  0.44051061033E+03  0.25500000920E-02 0.  1.
       -2   -1    0    0    0  501  0.00000000000E+00  0.00000000000E+00 -0.76578454293E+03  0.76578454294E+03  0.25500000920E-02 0. -1.
    10030    2    1    2    0    0  0.00000000000E+00  0.00000000000E+00 -0.32527393261E+03  0.12062951533E+04  0.11616130447E+04 0.  0.
        4    1    3    3  502    0  0.66530707306E+02  0.10722647673E+03  0.42610135115E+03  0.44439602460E+03  0.12699999809E+01 0.  1.
       -4    1    3    3    0  502 -0.66530707306E+02 -0.10722647673E+03 -0.75137528376E+03  0.76189912867E+03  0.12699999809E+01 0. -1.
</event>
<event>
 5   0  0.3650180E-03  0.1204633E+04  0.7818609E-02  0.9108811E-01
        2   -1    0    0  501    0  0.00000000000E+00  0.00000000000E+00  0.72444035780E+03  0.72444035780E+03  0.25500000920E-02 0. -1.
       -2   -1    0    0    0  501  0.00000000000E+00  0.00000000000E+00 -0.50077984330E+03  0.50077984331E+03  0.25500000920E-02 0.  1.
    10030    2    1    2    0    0  0.00000000000E+00  0.00000000000E+00  0.22366051450E+03  0.12252202011E+04  0.12046329381E+04 0.  0.
        3    1    3    3  502    0 -0.16510498403E+03 -0.49953025735E+03  0.41009091907E+03  0.66705674861E+03  0.10100000352E+00 0. -1.
       -3    1    3    3    0  502  0.16510498403E+03  0.49953025735E+03 -0.18643040458E+03  0.55816345250E+03  0.10100000352E+00 0.  1.
</event>
<event>
 5   0  0.2025294E-03  0.1181736E+04  0.7818609E-02  0.9128994E-01
        1   -1    0    0  501    0  0.00000000000E+00  0.00000000000E+00  0.72470731266E+03  0.72470731268E+03  0.50400001928E-02 0. -1.
       -1   -1    0    0    0  501  0.00000000000E+00  0.00000000000E+00 -0.48174656264E+03  0.48174656267E+03  0.50400001928E-02 0.  1.
    10030    2    1    2    0    0  0.00000000000E+00  0.00000000000E+00  0.24296075002E+03  0.12064538753E+04  0.11817364458E+04 0.  0.
        5    1    3    3  502    0 -0.13637237483E+03  0.34950018239E+03 -0.34452662093E+03  0.50938049102E+03  0.46999998093E+01 0.  1.
       -5    1    3    3    0  502  0.13637237483E+03 -0.34950018239E+03  0.58748737095E+03  0.69707338432E+03  0.46999998093E+01 0. -1.
</event>
<event>
 5   0  0.3706035E-03  0.1206413E+04  0.7818609E-02  0.9107262E-01
        2   -1    0    0  501    0  0.00000000000E+00  0.00000000000E+00  0.10236434445E+04  0.10236434445E+04  0.25500000920E-02 0.  1.
       -2   -1    0    0    0  501  0.00000000000E+00  0.00000000000E+00 -0.35545376187E+03  0.35545376188E+03  0.25500000920E-02 0. -1.
    10030    2    1    2    0    0  0.00000000000E+00  0.00000000000E+00  0.66818968267E+03  0.13790972064E+04  0.12064127207E+04 0.  0.
        2    1    3    3  502    0  0.40175150282E+03  0.44964283516E+03  0.31513927123E+03  0.68036439465E+03  0.25500000920E-02 0.  1.
       -2    1    3    3    0  502 -0.40175150282E+03 -0.44964283516E+03  0.35305041144E+03  0.69873281178E+03  0.25500000920E-02 0. -1.
</event>
<event>
 5   0  0.2025294E-03  0.1219786E+04  0.7818609E-02  0.9095712E-01
        1   -1    0    0  501    0  0.00000000000E+00  0.00000000000E+00  0.72879935023E+03  0.72879935025E+03  0.50400001928E-02 0. -1.
       -1   -1    0    0    0  501  0.00000000000E+00  0.00000000000E+00 -0.51038693965E+03  0.51038693968E+03  0.50400001928E-02 0.  1.
    10030    2    1    2    0    0  0.00000000000E+00  0.00000000000E+00  0.21841241058E+03  0.12391862899E+04  0.12197863256E+04 0.  0.
        5    1    3    3  502    0  0.59282812488E+03 -0.14304716941E+03  0.10278896270E+03  0.61846207578E+03  0.46999998093E+01 0.  1.
       -5    1    3    3    0  502 -0.59282812488E+03  0.14304716941E+03  0.11562344787E+03  0.62072421414E+03  0.46999998093E+01 0. -1.
</event>
<event>
 5   0  0.3706035E-03  0.1197189E+04  0.7818609E-02  0.9115320E-01
       -2   -1    0    0    0  501  0.00000000000E+00  0.00000000000E+00  0.32174386203E+03  0.32174386204E+03  0.25500000920E-02 0.  1.
        2   -1    0    0  501    0  0.00000000000E+00  0.00000000000E+00 -0.11136672272E+04  0.11136672273E+04  0.25500000920E-02 0. -1.
    10030    2    1    2    0    0  0.00000000000E+00  0.00000000000E+00 -0.79192336521E+03  0.14354110893E+04  0.11971893664E+04 0.  0.
        2    1    3    3  502    0  0.43937225503E+03  0.83577523018E+02  0.81050838256E+02  0.45453538832E+03  0.25500000920E-02 0. -1.
       -2    1    3    3    0  502 -0.43937225503E+03 -0.83577523018E+02 -0.87297420347E+03  0.98087570098E+03  0.25500000920E-02 0.  1.
</event>
<event>
 5   0  0.2078258E-03  0.1190797E+04  0.7818609E-02  0.9120950E-01
       -1   -1    0    0    0  501  0.00000000000E+00  0.00000000000E+00  0.50285489843E+03  0.50285489846E+03  0.50400001928E-02 0. -1.
        1   -1    0    0  501    0  0.00000000000E+00  0.00000000000E+00 -0.70497383895E+03  0.70497383897E+03  0.50400001928E-02 0.  1.
    10030    2    1    2    0    0  0.00000000000E+00  0.00000000000E+00 -0.20211894052E+03  0.12078287374E+04  0.11907972929E+04 0.  0.
        3    1    3    3  502    0  0.43192322272E+03  0.28881350669E+03 -0.39595583886E+03  0.65326254179E+03  0.10100000352E+00 0.  1.
       -3    1    3    3    0  502 -0.43192322272E+03 -0.28881350669E+03  0.19383689834E+03  0.55456619563E+03  0.10100000352E+00 0. -1.
</event>
<event>
 5   0  0.3650180E-03  0.1196432E+04  0.7818609E-02  0.9115985E-01
        2   -1    0    0  501    0  0.00000000000E+00  0.00000000000E+00  0.30665042395E+03  0.30665042396E+03  0.25500000920E-02 0.  1.
       -2   -1    0    0    0  501  0.00000000000E+00  0.00000000000E+00 -0.11670052447E+04  0.11670052447E+04  0.25500000920E-02 0. -1.
    10030    2    1    2    0    0  0.00000000000E+00  0.00000000000E+00 -0.86035482071E+03  0.14736556686E+04  0.11964324520E+04 0.  0.
        3    1    3    3  502    0  0.37665706119E+03  0.29545829847E+03  0.11689209057E+02  0.47885571489E+03  0.10100000352E+00 0.  1.
       -3    1    3    3    0  502 -0.37665706119E+03 -0.29545829847E+03 -0.87204402977E+03  0.99479995373E+03  0.10100000352E+00 0. -1.
</event>
<event>
 5   0  0.2096270E-03  0.1177763E+04  0.7818609E-02  0.9132547E-01
        1   -1    0    0  501    0  0.00000000000E+00  0.00000000000E+00  0.88992154542E+03  0.88992154544E+03  0.50400001928E-02 0. -1.
       -1   -1    0    0    0  501  0.00000000000E+00  0.00000000000E+00 -0.38967617688E+03  0.38967617691E+03  0.50400001928E-02 0.  1.
    10030    2    1    2    0    0  0.00000000000E+00  0.00000000000E+00  0.50024536855E+03  0.12795977223E+04  0.11777626681E+04 0.  0.
        2    1    3    3  502    0  0.36338710777E+03 -0.13161160288E+03 -0.23260211655E+03  0.45108264070E+03  0.25500000920E-02 0.  1.
       -2    1    3    3    0  502 -0.36338710777E+03  0.13161160288E+03  0.73284748510E+03  0.82851508165E+03  0.25500000920E-02 0. -1.
</event>
<event>
 5   0  0.2047109E-03  0.1190119E+04  0.7818609E-02  0.9121549E-01
        1   -1    0    0  501    0  0.00000000000E+00  0.00000000000E+00  0.96325705146E+03  0.96325705147E+03  0.50400001928E-02 0. -1.
       -1   -1    0    0    0  501  0.00000000000E+00  0.00000000000E+00 -0.36760283134E+03  0.36760283138E+03  0.50400001928E-02 0.  1.
    10030    2    1    2    0    0  0.00000000000E+00  0.00000000000E+00  0.59565422012E+03  0.13308598829E+04  0.11901193545E+04 0.  0.
        1    1    3    3  502    0 -0.24906575753E+03 -0.71443560124E+02  0.89686052567E+03  0.93353989545E+03  0.50400001928E-02 0. -1.
       -1    1    3    3    0  502  0.24906575753E+03  0.71443560124E+02 -0.30120630556E+03  0.39731998740E+03  0.50400001928E-02 0.  1.
</event>
<event>
 5   0  0.3706035E-03  0.1195091E+04  0.7818609E-02  0.9117164E-01
       -2   -1    0    0    0  501  0.00000000000E+00  0.00000000000E+00  0.27379732454E+03  0.27379732455E+03  0.25500000920E-02 0. -1.
        2   -1    0    0  501    0  0.00000000000E+00  0.00000000000E+00 -0.13041051935E+04  0.13041051935E+04  0.25500000920E-02 0.  1.
    10030    2    1    2    0    0  0.00000000000E+00  0.00000000000E+00 -0.10303078690E+04  0.15779025181E+04  0.11950908131E+04 0.  0.
        2    1    3    3  502    0  0.57673430511E+03  0.12552121653E+03 -0.63818112813E+03  0.86928314535E+03  0.25500000920E-02 0.  1.
       -2    1    3    3    0  502 -0.57673430511E+03 -0.12552121653E+03 -0.39212674084E+03  0.70861937271E+03  0.25500000920E-02 0. -1.
</event>
<event>
 5   0  0.2078258E-03  0.1202280E+04  0.7818609E-02  0.9110863E-01
        1   -1    0    0  501    0  0.00000000000E+00  0.00000000000E+00  0.23838011418E+03  0.23838011423E+03  0.50400001928E-02 0.  1.
       -1   -1    0    0    0  501  0.00000000000E+00  0.00000000000E+00 -0.15159378678E+04  0.15159378678E+04  0.50400001928E-02 0. -1.
    10030    2    1    2    0    0  0.00000000000E+00  0.00000000000E+00 -0.12775577537E+04  0.17543179821E+04  0.12022802370E+04 0.  0.
        3    1    3    3  502    0  0.52797428673E+03  0.41999760930E+02 -0.22388323702E+03  0.57501699226E+03  0.10100000352E+00 0. -1.
       -3    1    3    3    0  502 -0.52797428673E+03 -0.41999760930E+02 -0.10536745166E+04  0.11793009898E+04  0.10100000352E+00 0.  1.
</event>
<event>
 5   0  0.3725376E-03  0.1190562E+04  0.7818609E-02  0.9121158E-01
       -2   -1    0    0    0  501  0.00000000000E+00  0.00000000000E+00  0.34425329325E+03  0.34425329326E+03  0.25500000920E-02 0. -1.
        2   -1    0    0  501    0  0.00000000000E+00  0.00000000000E+00 -0.10293561013E+04  0.10293561013E+04  0.25500000920E-02 0.  1.
    10030    2    1    2    0    0  0.00000000000E+00  0.00000000000E+00 -0.68510280804E+03  0.13736093946E+04  0.11905615949E+04 0.  0.
        4    1    3    3  502    0  0.12683362803E+03 -0.54192787315E+02 -0.10106647853E+04  0.10200336017E+04  0.12699999809E+01 0.  1.
       -4    1    3    3    0  502 -0.12683362803E+03  0.54192787315E+02  0.32556197724E+03  0.35357579290E+03  0.12699999809E+01 0. -1.
</event>
<event>
 5   0  0.3650180E-03  0.1198610E+04  0.7818609E-02  0.9114074E-01
       -2   -1    0    0    0  501  0.00000000000E+00  0.00000000000E+00  0.20404670279E+03  0.20404670280E+03  0.25500000920E-02 0.  1.
        2   -1    0    0  501    0  0.00000000000E+00  0.00000000000E+00 -0.17602181667E+04  0.17602181667E+04  0.25500000920E-02 0. -1.
    10030    2    1    2    0    0  0.00000000000E+00  0.00000000000E+00 -0.15561714639E+04  0.19642648695E+04  0.11986103839E+04 0.  0.
        3    1    3    3  502    0  0.28124761011E+03  0.47272930403E+03 -0.38822880837E+03  0.67327173632E+03  0.10100000352E+00 0.  1.
       -3    1    3    3    0  502 -0.28124761011E+03 -0.47272930403E+03 -0.11679426555E+04  0.12909931332E+04  0.10100000352E+00 0. -1.
</event>
<event>
 5   0  0.3751091E-03  0.1165407E+04  0.7818609E-02  0.9143686E-01
       -2   -1    0    0    0  501  0.00000000000E+00  0.00000000000E+00  0.64127209874E+03  0.64127209874E+03  0.25500000920E-02 0. -1.
        2   -1    0    0  501    0  0.00000000000E+00  0.00000000000E+00 -0.52948450781E+03  0.52948450782E+03  0.25500000920E-02 0.  1.
    10030    2    1    2    0    0  0.00000000000E+00  0.00000000000E+00  0.11178759093E+03  0.11707566066E+04  0.11654074679E+04 0.  0.
        5    1    3    3  502    0  0.47620525799E+03 -0.30810343985E+03 -0.78219427486E+02  0.57257274316E+03  0.46999998093E+01 0.  1.
       -5    1    3    3    0  502 -0.47620525799E+03  0.30810343985E+03  0.19000701841E+03  0.59818386339E+03  0.46999998093E+01 0. -1.
</event>
<event>
 5   0  0.2134992E-03  0.1200859E+04  0.7818609E-02  0.9112105E-01
        1   -1    0    0  501    0  0.00000000000E+00  0.00000000000E+00  0.82543431856E+03  0.82543431858E+03  0.50400001928E-02 0. -1.
       -1   -1    0    0    0  501  0.00000000000E+00  0.00000000000E+00 -0.43675894028E+03  0.43675894030E+03  0.50400001928E-02 0.  1.
    10030    2    1    2    0    0  0.00000000000E+00  0.00000000000E+00  0.38867537829E+03  0.12621932589E+04  0.12008593894E+04 0.  0.
        4    1    3    3  502    0  0.49364383957E+02  0.12771386129E+03 -0.42012916988E+03  0.44187985365E+03  0.12699999809E+01 0.  1.
       -4    1    3    3    0  502 -0.49364383957E+02 -0.12771386129E+03  0.80880454817E+03  0.82031340524E+03  0.12699999809E+01 0. -1.
</event>
<event>
 5   0  0.2078258E-03  0.1213910E+04  0.7818609E-02  0.9100767E-01
        1   -1    0    0  501    0  0.00000000000E+00  0.00000000000E+00  0.93790103232E+03  0.93790103234E+03  0.50400001928E-02 0. -1.
       -1   -1    0    0    0  501  0.00000000000E+00  0.00000000000E+00 -0.39278600176E+03  0.39278600179E+03  0.50400001928E-02 0.  1.
    10030    2    1    2    0    0  0.00000000000E+00  0.00000000000E+00  0.54511503056E+03  0.13306870341E+04  0.12139100404E+04 0.  0.
        3    1    3    3  502    0  0.24139610961E+03 -0.23318391748E+03  0.82692171427E+03  0.89243843084E+03  0.10100000352E+00 0. -1.
       -3    1    3    3    0  502 -0.24139610961E+03  0.23318391748E+03 -0.28180668371E+03  0.43824860329E+03  0.10100000352E+00 0.  1.
</event>
<event>
 5   0  0.2025294E-03  0.1205877E+04  0.7818609E-02  0.9107728E-01
        1   -1    0    0  501    0  0.00000000000E+00  0.00000000000E+00  0.13455580751E+04  0.13455580751E+04  0.50400001928E-02 0. -1.
       -1   -1    0    0    0  501  0.00000000000E+00  0.00000000000E+00 -0.27017422927E+03  0.27017422932E+03  0.50400001928E-02 0.  1.
    10030    2    1    2    0    0  0.00000000000E+00  0.00000000000E+00  0.10753838458E+04  0.16157323044E+04  0.12058774663E+04 0.  0.
        5    1    3    3  502    0 -0.33607939833E+03 -0.28358814971E+03 -0.14984911945E+02  0.44002072476E+03  0.46999998093E+01 0.  1.
       -5    1    3    3    0  502  0.33607939833E+03  0.28358814971E+03  0.10903687578E+04  0.11757115797E+04  0.46999998093E+01 0. -1.
</event>
<event>
 5   0  0.3725376E-03  0.1200996E+04  0.7818609E-02  0.9111986E-01
        2   -1    0    0  501    0  0.00000000000E+00  0.00000000000E+00  0.65617553991E+03  0.65617553992E+03  0.25500000920E-02 0. -1.
       -2   -1    0    0    0  501  0.00000000000E+00  0.00000000000E+00 -0.54954444525E+03  0.54954444526E+03  0.25500000920E-02 0.  1.
    10030    2    1    2    0    0  0.00000000000E+00  0.00000000000E+00  0.10663109466E+03  0.12057199852E+04  0.12009956254E+04 0.  0.
        4    1    3    3  502    0  0.59481249159E+03  0.21205641746E+02 -0.26649714908E+02  0.59578804922E+03  0.12699999809E+01 0.  1.
       -4    1    3    3    0  502 -0.59481249159E+03 -0.21205641746E+02  0.13328080957E+03  0.60993193595E+03  0.12699999809E+01 0. -1.
</event>
<event>
 5   0  0.3626049E-03  0.1224117E+04  0.7818609E-02  0.9092005E-01
        2   -1    0    0  501    0  0.00000000000E+00  0.00000000000E+00  0.11925969085E+04  0.11925969085E+04  0.25500000920E-02 0.  1.
       -2   -1    0    0    0  501  0.00000000000E+00  0.00000000000E+00 -0.31411755630E+03  0.31411755631E+03  0.25500000920E-02 0. -1.
    10030    2    1    2    0    0  0.00000000000E+00  0.00000000000E+00  0.87847935221E+03  0.15067144648E+04  0.12241170313E+04 0.  0.
        1    1    3    3  502    0  0.19535856714E+03  0.27785685951E+03  0.10659462289E+04  0.11187541137E+04  0.50400001928E-02 0.  1.
       -1    1    3    3    0  502 -0.19535856714E+03 -0.27785685951E+03 -0.18746687667E+03  0.38796035107E+03  0.50400001928E-02 0. -1.
</event>
<event>
 5   0  0.3751091E-03  0.1214283E+04  0.7818609E-02  0.9100445E-01
        2   -1    0    0  501    0  0.00000000000E+00  0.00000000000E+00  0.91502046589E+03  0.91502046589E+03  0.25500000920E-02 0.  1.
       -2   -1    0    0    0  501  0.00000000000E+00  0.00000000000E+00 -0.40285553529E+03  0.40285553530E+03  0.25500000920E-02 0. -1.
    10030    2    1    2    0    0  0.00000000000E+00  0.00000000000E+00  0.51216493060E+03  0.13178760012E+04  0.12142834259E+04 0.  0.
        5    1    3    3  502    0  0.49221786520E+03  0.28904091272E+03  0.48055025356E+03  0.74617270940E+03  0.46999998093E+01 0.  1.
       -5    1    3    3    0  502 -0.49221786520E+03 -0.28904091272E+03  0.31614677038E+02  0.57170329180E+03  0.46999998093E+01 0. -1.
</event>
<event>
 5   0  0.3725376E-03  0.1212559E+04  0.7818609E-02  0.9101934E-01
        2   -1    0    0  501    0  0.00000000000E+00  0.00000000000E+00  0.53519773642E+03  0.53519773643E+03  0.25500000920E-02 0. -1.
       -2   -1    0    0    0  501  0.00000000000E+00  0.00000000000E+00 -0.68680203691E+03  0.68680203692E+03  0.25500000920E-02 0.  1.
    10030    2    1    2    0    0  0.00000000000E+00  0.00000000000E+00 -0.15160430049E+03  0.12219997733E+04  0.12125591046E+04 0.  0.
        4    1    3    3  502    0 -0.30104539111E+03 -0.51787783872E+03 -0.17005840222E+03  0.62269354936E+03  0.12699999809E+01 0. -1.
       -4    1    3    3    0  502  0.30104539111E+03  0.51787783872E+03  0.18454101730E+02  0.59930622399E+03  0.12699999809E+01 0.  1.
</event>
<event>
 5   0  0.3706035E-03  0.1196012E+04  0.7818609E-02  0.9116355E-01
       -2   -1    0    0    0  501  0.00000000000E+00  0.00000000000E+00  0.65910222390E+03  0.65910222390E+03  0.25500000920E-02 0.  1.
        2   -1    0    0  501    0  0.00000000000E+00  0.00000000000E+00 -0.54257273738E+03  0.54257273738E+03  0.25500000920E-02 0. -1.
    10030    2    1    2    0    0  0.00000000000E+00  0.00000000000E+00  0.11652948652E+03  0.12016749613E+04  0.11960115348E+04 0.  0.
        2    1    3    3  502    0  0.77784796591E+02 -0.59874240579E+02  0.65095252833E+03  0.65831192713E+03  0.25500000920E-02 0.  1.
       -2    1    3    3    0  502 -0.77784796591E+02  0.59874240579E+02 -0.53442304180E+03  0.54336303415E+03  0.25500000920E-02 0. -1.
</event>
<event>
 5   0  0.3751091E-03  0.1199597E+04  0.7818609E-02  0.9113209E-01
       -2   -1    0    0    0  501  0.00000000000E+00  0.00000000000E+00  0.42498495964E+03  0.42498495964E+03  0.25500000920E-02 0.  1.
        2   -1    0    0  501    0  0.00000000000E+00  0.00000000000E+00 -0.84651974202E+03  0.84651974202E+03  0.25500000920E-02 0. -1.
    10030    2    1    2    0    0  0.00000000000E+00  0.00000000000E+00 -0.42153478238E+03  0.12715047017E+04  0.11995968629E+04 0.  0.
        5    1    3    3  502    0  0.54721600348E+02 -0.59433253330E+03 -0.14796671253E+03  0.61493239604E+03  0.46999998093E+01 0.  1.
       -5    1    3    3    0  502 -0.54721600348E+02  0.59433253330E+03 -0.27356806985E+03  0.65657230563E+03  0.46999998093E+01 0. -1.
</event>
<event>
 5   0  0.3751091E-03  0.1195481E+04  0.7818609E-02  0.9116821E-01
        2   -1    0    0  501    0  0.00000000000E+00  0.00000000000E+00  0.21607712640E+04  0.21607712640E+04  0.25500000920E-02 0. -1.
       -2   -1    0    0    0  501  0.00000000000E+00  0.00000000000E+00 -0.16535478267E+03  0.16535478269E+03  0.25500000920E-02 0.  1.
    10030    2    1    2    0    0  0.00000000000E+00  0.00000000000E+00  0.19954164813E+04  0.23261260467E+04  0.11954812634E+04 0.  0.
        5    1    3    3  502    0 -0.37562267519E+02 -0.19276679182E+03 -0.10074794128E+03  0.22077635209E+03  0.46999998093E+01 0.  1.
       -5    1    3    3    0  502  0.37562267519E+02  0.19276679182E+03  0.20961644226E+04  0.21053496946E+04  0.46999998093E+01 0. -1.
</event>
<event>
 5   0  0.2096270E-03  0.1186571E+04  0.7818609E-02  0.9124692E-01
       -1   -1    0    0    0  501  0.00000000000E+00  0.00000000000E+00  0.24392347253E+03  0.24392347259E+03  0.50400001928E-02 0. -1.
        1   -1    0    0  501    0  0.00000000000E+00  0.00000000000E+00 -0.14430259779E+04  0.14430259779E+04  0.50400001928E-02 0.  1.
    10030    2    1    2    0    0  0.00000000000E+00  0.00000000000E+00 -0.11991025053E+04  0.16869494504E+04  0.11865713759E+04 0.  0.
        2    1    3    3  502    0 -0.55107636126E+03 -0.14352174939E+02 -0.28775840939E+03  0.62184889085E+03  0.25500000920E-02 0. -1.
       -2    1    3    3    0  502  0.55107636126E+03  0.14352174939E+02 -0.91134409593E+03  0.10651005596E+04  0.25500000920E-02 0.  1.
</event>
<event>
 5   0  0.2096270E-03  0.1184244E+04  0.7818609E-02  0.9126760E-01
       -1   -1    0    0    0  501  0.00000000000E+00  0.00000000000E+00  0.35016973049E+03  0.35016973053E+03  0.50400001928E-02 0.  1.
        1   -1    0    0  501    0  0.00000000000E+00  0.00000000000E+00 -0.10012534681E+04  0.10012534681E+04  0.50400001928E-02 0. -1.
    10030    2    1    2    0    0  0.00000000000E+00  0.00000000000E+00 -0.65108373760E+03  0.13514231986E+04  0.11842443280E+04 0.  0.
        2    1    3    3  502    0  0.18564071515E+03  0.42826017213E+03  0.90225109302E+02  0.47540490164E+03  0.25500000920E-02 0.  1.
       -2    1    3    3    0  502 -0.18564071515E+03 -0.42826017213E+03 -0.74130884690E+03  0.87601829699E+03  0.25500000920E-02 0. -1.
</event>
<event>
 5   0  0.1397500E-03  0.1201216E+04  0.7818609E-02  0.9111793E-01
        4   -1    0    0  501    0  0.00000000000E+00  0.00000000000E+00  0.90345123260E+03  0.90345212524E+03  0.12699999809E+01 0.  1.
       -4   -1    0    0    0  501  0.00000000000E+00  0.00000000000E+00 -0.39927774712E+03  0.39927976689E+03  0.12699999809E+01 0. -1.
    10030    2    1    2    0    0  0.00000000000E+00  0.00000000000E+00  0.50417348548E+03  0.13027318921E+04  0.12012158338E+04 0.  0.
        5    1    3    3  502    0 -0.53096081664E+03 -0.63762645887E+02  0.54854279537E+03  0.76609813482E+03  0.46999998093E+01 0.  1.
       -5    1    3    3    0  502  0.53096081664E+03  0.63762645887E+02 -0.44369309891E+02  0.53663375730E+03  0.46999998093E+01 0. -1.
</event>
<event>
 5   0  0.2025294E-03  0.1203832E+04  0.7818609E-02  0.9109509E-01
       -1   -1    0    0    0  501  0.00000000000E+00  0.00000000000E+00  0.46123422551E+03  0.46123422553E+03  0.50400001928E-02 0. -1.
        1   -1    0    0  501    0  0.00000000000E+00  0.00000000000E+00 -0.78550756414E+03  0.78550756416E+03  0.50400001928E-02 0.  1.
    10030    2    1    2    0    0  0.00000000000E+00  0.00000000000E+00 -0.32427333864E+03  0.12467417897E+04  0.12038321694E+04 0.  0.
        5    1    3    3  502    0  0.77824877363E+02 -0.56597755178E+03 -0.35834569215E+03  0.67440420056E+03  0.46999998093E+01 0.  1.
       -5    1    3    3    0  502 -0.77824877363E+02  0.56597755178E+03  0.34072353514E+02  0.57233758913E+03  0.46999998093E+01 0. -1.
</event>
<event>
 5   0  0.3650180E-03  0.1195506E+04  0.7818609E-02  0.9116799E-01
        2   -1    0    0  501    0  0.00000000000E+00  0.00000000000E+00  0.10818012138E+04  0.10818012138E+04  0.25500000920E-02 0.  1.
       -2   -1    0    0    0  501  0.00000000000E+00  0.00000000000E+00 -0.33029049879E+03  0.33029049880E+03  0.25500000920E-02 0. -1.
    10030    2    1    2    0    0  0.00000000000E+00  0.00000000000E+00  0.75151071500E+03  0.14120917126E+04  0.11955060226E+04 0.  0.
        3    1    3    3  502    0 -0.57715505108E+02 -0.91615571343E+02  0.10701207223E+04  0.10755848934E+04  0.10100000352E+00 0.  1.
       -3    1    3    3    0  502  0.57715505108E+02  0.91615571343E+02 -0.31861000727E+03  0.33650681921E+03  0.10100000352E+00 0. -1.
</event>
<event>
 5   0  0.2047109E-03  0.1207189E+04  0.7818609E-02  0.9106587E-01
       -1   -1    0    0    0  501  0.00000000000E+00  0.00000000000E+00  0.30363404323E+03  0.30363404327E+03  0.50400001928E-02 0.  1.
        1   -1    0    0  501    0  0.00000000000E+00  0.00000000000E+00 -0.11998870122E+04  0.11998870123E+04  0.50400001928E-02 0. -1.
    10030    2    1    2    0    0  0.00000000000E+00  0.00000000000E+00 -0.89625296901E+03  0.15035210555E+04  0.12071893720E+04 0.  0.
        1    1    3    3  502    0  0.51288965486E+03  0.12944456101E+03 -0.81020322759E+03  0.96759545392E+03  0.50400001928E-02 0. -1.
       -1    1    3    3    0  502 -0.51288965486E+03 -0.12944456101E+03 -0.86049741427E+02  0.53592560161E+03  0.50400001928E-02 0.  1.
</event>
<event>
 5   0  0.2096270E-03  0.1215838E+04  0.7818609E-02  0.9099105E-01
        1   -1    0    0  501    0  0.00000000000E+00  0.00000000000E+00  0.40805708799E+03  0.40805708802E+03  0.50400001928E-02 0. -1.
       -1   -1    0    0    0  501  0.00000000000E+00  0.00000000000E+00 -0.90567112860E+03  0.90567112861E+03  0.50400001928E-02 0.  1.
    10030    2    1    2    0    0  0.00000000000E+00  0.00000000000E+00 -0.49761404061E+03  0.13137282166E+04  0.12158380212E+04 0.  0.
        2    1    3    3  502    0 -0.20200140388E+03  0.31517972880E+03  0.26873783515E+03  0.46082844168E+03  0.25500000920E-02 0. -1.
       -2    1    3    3    0  502  0.20200140388E+03 -0.31517972880E+03 -0.76635187576E+03  0.85289977495E+03  0.25500000920E-02 0.  1.
</event>
<event>
 5   0  0.2025294E-03  0.1209885E+04  0.7818609E-02  0.9104248E-01
        1   -1    0    0  501    0  0.00000000000E+00  0.00000000000E+00  0.97135204728E+03  0.97135204729E+03  0.50400001928E-02 0.  1.
       -1   -1    0    0    0  501  0.00000000000E+00  0.00000000000E+00 -0.37674862228E+03  0.37674862232E+03  0.50400001928E-02 0. -1.
    10030    2    1    2    0    0  0.00000000000E+00  0.00000000000E+00  0.59460342499E+03  0.13481006696E+04  0.12098851939E+04 0.  0.
        5    1    3    3  502    0 -0.10530429627E+03 -0.49230563258E+03  0.67099482380E+03  0.83887423030E+03  0.46999998093E+01 0.  1.
       -5    1    3    3    0  502  0.10530429627E+03  0.49230563258E+03 -0.76391398810E+02  0.50922643931E+03  0.46999998093E+01 0. -1.
</event>
<event>
 5   0  0.3706035E-03  0.1209661E+04  0.7818609E-02  0.9104442E-01
       -2   -1    0    0    0  501  0.00000000000E+00  0.00000000000E+00  0.14820381679E+03  0.14820381681E+03  0.25500000920E-02 0. -1.
        2   -1    0    0  501    0  0.00000000000E+00  0.00000000000E+00 -0.24683566606E+04  0.24683566606E+04  0.25500000920E-02 0.  1.
    10030    2    1    2    0    0  0.00000000000E+00  0.00000000000E+00 -0.23201528438E+04  0.26165604774E+04  0.12096609084E+04 0.  0.
        2    1    3    3  502    0 -0.24868703847E+03  0.49492855288E+03 -0.16855707929E+04  0.17742458717E+04  0.25500000920E-02 0.  1.
       -2    1    3    3    0  502  0.24868703847E+03 -0.49492855288E+03 -0.63458205091E+03  0.84231460566E+03  0.25500000920E-02 0. -1.
</event>
<event>
 5   0  0.3725376E-03  0.1202539E+04  0.7818609E-02  0.9110637E-01
       -2   -1    0    0    0  501  0.00000000000E+00  0.00000000000E+00  0.36235698755E+03  0.36235698756E+03  0.25500000920E-02 0. -1.
        2   -1    0    0  501    0  0.00000000000E+00  0.00000000000E+00 -0.99770466225E+03  0.99770466225E+03  0.25500000920E-02 0.  1.
    10030    2    1    2    0    0  0.00000000000E+00  0.00000000000E+00 -0.63534767470E+03  0.13600616498E+04  0.12025394062E+04 0.  0.
        4    1    3    3  502    0 -0.58392172967E+03 -0.13617058225E+01 -0.15551475294E+03  0.60427881968E+03  0.12699999809E+01 0. -1.
       -4    1    3    3    0  502  0.58392172967E+03  0.13617058225E+01 -0.47983292176E+03  0.75578283014E+03  0.12699999809E+01 0.  1.
</event>
<event>
 5   0  0.2078258E-03  0.1215859E+04  0.7818609E-02  0.9099088E-01
        1   -1    0    0  501    0  0.00000000000E+00  0.00000000000E+00  0.19182844318E+04  0.19182844318E+04  0.50400001928E-02 0.  1.
       -1   -1    0    0    0  501  0.00000000000E+00  0.00000000000E+00 -0.19266076258E+03  0.19266076265E+03  0.50400001928E-02 0. -1.
    10030    2    1    2    0    0  0.00000000000E+00  0.00000000000E+00  0.17256236692E+04  0.21109451945E+04  0.12158587773E+04 0.  0.
        3    1    3    3  502    0 -0.44093908076E+03  0.23217442965E+03  0.14673550358E+04  0.15496654639E+04  0.10100000352E+00 0.  1.
       -3    1    3    3    0  502  0.44093908076E+03 -0.23217442965E+03  0.25826863343E+03  0.56127973056E+03  0.10100000352E+00 0. -1.
</event>
<event>
 5   0  0.3706035E-03  0.1121641E+04  0.7818609E-02  0.9184352E-01
        2   -1    0    0  501    0  0.00000000000E+00  0.00000000000E+00  0.19959887875E+04  0.19959887875E+04  0.25500000920E-02 0. -1.
       -2   -1    0    0    0  501  0.00000000000E+00  0.00000000000E+00 -0.15757591200E+03  0.15757591202E+03  0.25500000920E-02 0.  1.
    10030    2    1    2    0    0  0.00000000000E+00  0.00000000000E+00  0.18384128755E+04  0.21535646995E+04  0.11216412146E+04 0.  0.
        2    1    3    3  502    0 -0.31796214436E+03 -0.31433538559E+03  0.26919487462E+03  0.52189322702E+03  0.25500000920E-02 0.  1.
       -2    1    3    3    0  502  0.31796214436E+03  0.31433538559E+03  0.15692180009E+04  0.16316714725E+04  0.25500000920E-02 0. -1.
</event>
<event>
 5   0  0.2025294E-03  0.1143643E+04  0.7818609E-02  0.9163668E-01
        1   -1    0    0  501    0  0.00000000000E+00  0.00000000000E+00  0.12711778698E+04  0.12711778698E+04  0.50400001928E-02 0.  1.
       -1   -1    0    0    0  501  0.00000000000E+00  0.00000000000E+00 -0.25722574451E+03  0.25722574456E+03  0.50400001928E-02 0. -1.
    10030    2    1    2    0    0  0.00000000000E+00  0.00000000000E+00  0.10139521252E+04  0.15284036143E+04  0.11436427309E+04 0.  0.
        5    1    3    3  502    0 -0.14872477665E+01  0.43449321484E+03  0.10205146982E+02  0.43464100205E+03  0.46999998093E+01 0. -1.
       -5    1    3    3    0  502  0.14872477665E+01 -0.43449321484E+03  0.10037469783E+04  0.10937626123E+04  0.46999998093E+01 0.  1.
</event>
<event>
 5   0  0.1397500E-03  0.1209262E+04  0.7818609E-02  0.9104788E-01
       -3   -1    0    0    0  501  0.00000000000E+00  0.00000000000E+00  0.12274307998E+04  0.12274308039E+04  0.10100000352E+00 0.  1.
        3   -1    0    0  501    0  0.00000000000E+00  0.00000000000E+00 -0.29784067254E+03  0.29784068967E+03  0.10100000352E+00 0. -1.
    10030    2    1    2    0    0  0.00000000000E+00  0.00000000000E+00  0.92959012725E+03  0.15252714936E+04  0.12092623059E+04 0.  0.
        3    1    3    3  502    0  0.57786043740E+03 -0.14986689674E+03  0.58575102516E+03  0.83635342143E+03  0.10100000352E+00 0.  1.
       -3    1    3    3    0  502 -0.57786043740E+03  0.14986689674E+03  0.34383910209E+03  0.68891807218E+03  0.10100000352E+00 0. -1.
</event>
<event>
 5   0  0.2134992E-03  0.1181209E+04  0.7818609E-02  0.9129465E-01
        1   -1    0    0  501    0  0.00000000000E+00  0.00000000000E+00  0.52039995778E+03  0.52039995780E+03  0.50400001928E-02 0.  1.
       -1   -1    0    0    0  501  0.00000000000E+00  0.00000000000E+00 -0.67028043358E+03  0.67028043360E+03  0.50400001928E-02 0. -1.
    10030    2    1    2    0    0  0.00000000000E+00  0.00000000000E+00 -0.14988047581E+03  0.11906803914E+04  0.11812093961E+04 0.  0.
        4    1    3    3  502    0  0.20006426283E+03 -0.40702993901E+03  0.30639608904E+03  0.54733833850E+03  0.12699999809E+01 0.  1.
       -4    1    3    3    0  502 -0.20006426283E+03  0.40702993901E+03 -0.45627656484E+03  0.64334205291E+03  0.12699999809E+01 0. -1.
</event>
<event>
 5   0  0.2096270E-03  0.1093427E+04  0.7818609E-02  0.9211622E-01
        1   -1    0    0  501    0  0.00000000000E+00  0.00000000000E+00  0.33052621901E+03  0.33052621905E+03  0.50400001928E-02 0. -1.
       -1   -1    0    0    0  501  0.00000000000E+00  0.00000000000E+00 -0.90430190532E+03  0.90430190533E+03  0.50400001928E-02 0.  1.
    10030    2    1    2    0    0  0.00000000000E+00  0.00000000000E+00 -0.57377568631E+03  0.12348281244E+04  0.10934267047E+04 0.  0.
        2    1    3    3  502    0  0.46230354625E+02 -0.35038511052E+03 -0.75794882260E+03  0.83629742858E+03  0.25500000920E-02 0.  1.
       -2    1    3    3    0  502 -0.46230354625E+02  0.35038511052E+03  0.18417313630E+03  0.39853069581E+03  0.25500000920E-02 0. -1.
</event>
<event>
 5   0  0.2025294E-03  0.1186183E+04  0.7818609E-02  0.9125037E-01
       -1   -1    0    0    0  501  0.00000000000E+00  0.00000000000E+00  0.51828706980E+03  0.51828706982E+03  0.50400001928E-02 0.  1.
        1   -1    0    0  501    0  0.00000000000E+00  0.00000000000E+00 -0.67869263471E+03  0.67869263473E+03  0.50400001928E-02 0. -1.
    10030    2    1    2    0    0  0.00000000000E+00  0.00000000000E+00 -0.16040556491E+03  0.11969797046E+04  0.11861831511E+04 0.  0.
        5    1    3    3  502    0  0.34876314795E+03  0.41489743274E+03 -0.32314271229E+03  0.63104589022E+03  0.46999998093E+01 0. -1.
       -5    1    3    3    0  502 -0.34876314795E+03 -0.41489743274E+03  0.16273714738E+03  0.56593381433E+03  0.46999998093E+01 0.  1.
</event>
<event>
 5   0  0.2047109E-03  0.1159051E+04  0.7818609E-02  0.9149474E-01
        1   -1    0    0  501    0  0.00000000000E+00  0.00000000000E+00  0.83597646369E+03  0.83597646371E+03  0.50400001928E-02 0. -1.
       -1   -1    0    0    0  501  0.00000000000E+00  0.00000000000E+00 -0.40174536118E+03  0.40174536121E+03  0.50400001928E-02 0.  1.
    10030    2    1    2    0    0  0.00000000000E+00  0.00000000000E+00  0.43423110251E+03  0.12377218249E+04  0.11590507605E+04 0.  0.
        1    1    3    3  502    0 -0.29932719290E+03 -0.18181844921E+03  0.71018608413E+03  0.79184530749E+03  0.50400001928E-02 0. -1.
       -1    1    3    3    0  502  0.29932719290E+03  0.18181844921E+03 -0.27595498162E+03  0.44587651742E+03  0.50400001928E-02 0.  1.
</event>
<event>
 5   0  0.3650180E-03  0.1206588E+04  0.7818609E-02  0.9107110E-01
        2   -1    0    0  501    0  0.00000000000E+00  0.00000000000E+00  0.63321658630E+03  0.63321658630E+03  0.25500000920E-02 0.  1.
       -2   -1    0    0    0  501  0.00000000000E+00  0.00000000000E+00 -0.57478535318E+03  0.57478535318E+03  0.25500000920E-02 0. -1.
    10030    2    1    2    0    0  0.00000000000E+00  0.00000000000E+00  0.58431233119E+02  0.12080019395E+04  0.12065879482E+04 0.  0.
        3    1    3    3  502    0 -0.43956623990E+03 -0.28739546703E+03  0.32646248124E+03  0.61837884471E+03  0.10100000352E+00 0.  1.
       -3    1    3    3    0  502  0.43956623990E+03  0.28739546703E+03 -0.26803124812E+03  0.58962309478E+03  0.10100000352E+00 0. -1.
</event>
<event>
 5   0  0.3650180E-03  0.1200297E+04  0.7818609E-02  0.9112597E-01
        2   -1    0    0  501    0  0.00000000000E+00  0.00000000000E+00  0.18020389942E+04  0.18020389942E+04  0.25500000920E-02 0. -1.
       -2   -1    0    0    0  501  0.00000000000E+00  0.00000000000E+00 -0.19987249462E+03  0.19987249464E+03  0.25500000920E-02 0.  1.
    10030    2    1    2    0    0  0.00000000000E+00  0.00000000000E+00  0.16021664996E+04  0.20019114889E+04  0.12002966787E+04 0.  0.
        3    1    3    3  502    0 -0.16956574821E+03  0.35667350039E+03  0.15547758097E+04  0.16041497304E+04  0.10100000352E+00 0. -1.
       -3    1    3    3    0  502  0.16956574821E+03 -0.35667350039E+03  0.47390689928E+02  0.39776175851E+03  0.10100000352E+00 0.  1.
</event>
<event>
 5   0  0.2025294E-03  0.1197105E+04  0.7818609E-02  0.9115395E-01
        1   -1    0    0  501    0  0.00000000000E+00  0.00000000000E+00  0.10274189550E+04  0.10274189550E+04  0.50400001928E-02 0. -1.
       -1   -1    0    0    0  501  0.00000000000E+00  0.00000000000E+00 -0.34870375704E+03  0.34870375707E+03  0.50400001928E-02 0.  1.
    10030    2    1    2    0    0  0.00000000000E+00  0.00000000000E+00  0.67871519795E+03  0.13761227121E+04  0.11971045897E+04 0.  0.
        5    1    3    3  502    0  0.55170411793E+03  0.19942409198E+03  0.20287945294E+03  0.62074919623E+03  0.46999998093E+01 0.  1.
       -5    1    3    3    0  502 -0.55170411793E+03 -0.19942409198E+03  0.47583574501E+03  0.75537351584E+03  0.46999998093E+01 0. -1.
</event>
<event>
 5   0  0.2078258E-03  0.1166115E+04  0.7818609E-02  0.9143044E-01
       -1   -1    0    0    0  501  0.00000000000E+00  0.00000000000E+00  0.28509849240E+03  0.28509849245E+03  0.50400001928E-02 0.  1.
        1   -1    0    0  501    0  0.00000000000E+00  0.00000000000E+00 -0.11924169527E+04  0.11924169527E+04  0.50400001928E-02 0. -1.
    10030    2    1    2    0    0  0.00000000000E+00  0.00000000000E+00 -0.90731846028E+03  0.14775154451E+04  0.11661153898E+04 0.  0.
        3    1    3    3  502    0 -0.14215605140E+03  0.19031359480E+03  0.22100701741E+03  0.32445603595E+03  0.10100000352E+00 0.  1.
       -3    1    3    3    0  502  0.14215605140E+03 -0.19031359480E+03 -0.11283254777E+04  0.11530594092E+04  0.10100000352E+00 0. -1.
</event>
<event>
 5   0  0.2078258E-03  0.1188647E+04  0.7818609E-02  0.9122852E-01
        1   -1    0    0  501    0  0.00000000000E+00  0.00000000000E+00  0.11061976293E+04  0.11061976293E+04  0.50400001928E-02 0. -1.
       -1   -1    0    0    0  501  0.00000000000E+00  0.00000000000E+00 -0.31931039407E+03  0.31931039411E+03  0.50400001928E-02 0.  1.
    10030    2    1    2    0    0  0.00000000000E+00  0.00000000000E+00  0.78688723524E+03  0.14255080234E+04  0.11886469635E+04 0.  0.
        3    1    3    3  502    0 -0.36877670681E+03  0.32003724101E+03  0.79978240859E+03  0.93705496446E+03  0.10100000352E+00 0. -1.
       -3    1    3    3    0  502  0.36877670681E+03 -0.32003724101E+03 -0.12895173353E+02  0.48845305897E+03  0.10100000352E+00 0.  1.
</event>
<event>
 5   0  0.3706035E-03  0.1187816E+04  0.7818609E-02  0.9123589E-01
        2   -1    0    0  501    0  0.00000000000E+00  0.00000000000E+00  0.91441629038E+03  0.91441629039E+03  0.25500000920E-02 0.  1.
       -2   -1    0    0    0  501  0.00000000000E+00  0.00000000000E+00 -0.38573960256E+03  0.38573960257E+03  0.25500000920E-02 0. -1.
    10030    2    1    2    0    0  0.00000000000E+00  0.00000000000E+00  0.52867668782E+03  0.13001558930E+04  0.11878157710E+04 0.  0.
        2    1    3    3  502    0  0.14905760126E+03  0.11912335734E+03  0.87995210277E+03  0.90040226895E+03  0.25500000920E-02 0.  1.
       -2    1    3    3    0  502 -0.14905760126E+03 -0.11912335734E+03 -0.35127541495E+03  0.39975362401E+03  0.25500000920E-02 0. -1.
</event>
<event>
 5   0  0.3706035E-03  0.1058372E+04  0.7818609E-02  0.9246743E-01
       -2   -1    0    0    0  501  0.00000000000E+00  0.00000000000E+00  0.38034336051E+03  0.38034336052E+03  0.25500000920E-02 0. -1.
        2   -1    0    0  501    0  0.00000000000E+00  0.00000000000E+00 -0.73627645018E+03  0.73627645018E+03  0.25500000920E-02 0.  1.
    10030    2    1    2    0    0  0.00000000000E+00  0.00000000000E+00 -0.35593308966E+03  0.11166198107E+04  0.10583720694E+04 0.  0.
        2    1    3    3  502    0 -0.16013281834E+02  0.11429813797E+03 -0.72283618298E+03  0.73199223833E+03  0.25500000920E-02 0.  1.
       -2    1    3    3    0  502  0.16013281834E+02 -0.11429813797E+03  0.36690309332E+03  0.38462757238E+03  0.25500000920E-02 0. -1.
</event>
<event>
 5   0  0.2134992E-03  0.1192795E+04  0.7818609E-02  0.9119187E-01
       -1   -1    0    0    0  501  0.00000000000E+00  0.00000000000E+00  0.52554703036E+03  0.52554703038E+03  0.50400001928E-02 0. -1.
        1   -1    0    0  501    0  0.00000000000E+00  0.00000000000E+00 -0.67679906020E+03  0.67679906022E+03  0.50400001928E-02 0.  1.
    10030    2    1    2    0    0  0.00000000000E+00  0.00000000000E+00 -0.15125202984E+03  0.12023460906E+04  0.11927945947E+04 0.  0.
        4    1    3    3  502    0  0.27868492388E+03 -0.27437171681E+03 -0.52950154058E+03  0.65826941305E+03  0.12699999809E+01 0.  1.
       -4    1    3    3    0  502 -0.27868492388E+03  0.27437171681E+03  0.37824951073E+03  0.54407667755E+03  0.12699999809E+01 0. -1.
</event>
<event>
 5   0  0.3626049E-03  0.1201926E+04  0.7818609E-02  0.9111173E-01
       -2   -1    0    0    0  501  0.00000000000E+00  0.00000000000E+00  0.23977105531E+03  0.23977105532E+03  0.25500000920E-02 0.  1.
        2   -1    0    0  501    0  0.00000000000E+00  0.00000000000E+00 -0.15062553328E+04  0.15062553328E+04  0.25500000920E-02 0. -1.
    10030    2    1    2    0    0  0.00000000000E+00  0.00000000000E+00 -0.12664842775E+04  0.17460263881E+04  0.12019258392E+04 0.  0.
        1    1    3    3  502    0 -0.26978613591E+03 -0.50172910658E+03 -0.91130918990E+03  0.10747097725E+04  0.50400001928E-02 0. -1.
       -1    1    3    3    0  502  0.26978613591E+03  0.50172910658E+03 -0.35517508758E+03  0.67131661560E+03  0.50400001928E-02 0.  1.
</event>
<event>
 5   0  0.1397500E-03  0.1188398E+04  0.7818609E-02  0.9123072E-01
       -3   -1    0    0    0  501  0.00000000000E+00  0.00000000000E+00  0.32192191051E+03  0.32192192636E+03  0.10100000352E+00 0.  1.
        3   -1    0    0  501    0  0.00000000000E+00  0.00000000000E+00 -0.10967650089E+04  0.10967650135E+04  0.10100000352E+00 0. -1.
    10030    2    1    2    0    0  0.00000000000E+00  0.00000000000E+00 -0.77484309837E+03  0.14186869399E+04  0.11883984207E+04 0.  0.
        1    1    3    3  502    0  0.25542683204E+03  0.22977363737E+03  0.19132680375E+03  0.39324895018E+03  0.50400001928E-02 0.  1.
       -1    1    3    3    0  502 -0.25542683204E+03 -0.22977363737E+03 -0.96616990212E+03  0.10254379897E+04  0.50400001928E-02 0. -1.
</event>
<event>
 5   0  0.3751091E-03  0.1196762E+04  0.7818609E-02  0.9115696E-01
        2   -1    0    0  501    0  0.00000000000E+00  0.00000000000E+00  0.12100512255E+04  0.12100512255E+04  0.25500000920E-02 0. -1.
       -2   -1    0    0    0  501  0.00000000000E+00  0.00000000000E+00 -0.29590447764E+03  0.29590447765E+03  0.25500000920E-02 0.  1.
    10030    2    1    2    0    0  0.00000000000E+00  0.00000000000E+00  0.91414674785E+03  0.15059557031E+04  0.11967615900E+04 0.  0.
        5    1    3    3  502    0  0.40135778899E+03 -0.39715355963E+03  0.20787234588E+03  0.60170759251E+03  0.46999998093E+01 0.  1.
       -5    1    3    3    0  502 -0.40135778899E+03  0.39715355963E+03  0.70627440197E+03  0.90424811063E+03  0.46999998093E+01 0. -1.
</event>
<event>
 5   0  0.3751091E-03  0.1204729E+04  0.7818609E-02  0.9108727E-01
       -2   -1    0    0    0  501  0.00000000000E+00  0.00000000000E+00  0.78088715490E+03  0.78088715491E+03  0.25500000920E-02 0.  1.
        2   -1    0    0  501    0  0.00000000000E+00  0.00000000000E+00 -0.46465483721E+03  0.46465483722E+03  0.25500000920E-02 0. -1.
    10030    2    1    2    0    0  0.00000000000E+00  0.00000000000E+00  0.31623231769E+03  0.12455419921E+04  0.12047290050E+04 0.  0.
        5    1    3    3  502    0 -0.33883412278E+03  0.19893678714E+03 -0.31389893776E+03  0.50293045361E+03  0.46999998093E+01 0. -1.
       -5    1    3    3    0  502  0.33883412278E+03 -0.19893678714E+03  0.63013125545E+03  0.74261153852E+03  0.46999998093E+01 0.  1.
</event>
<event>
 5   0  0.3706035E-03  0.1194761E+04  0.7818609E-02  0.9117455E-01
        2   -1    0    0  501    0  0.00000000000E+00  0.00000000000E+00  0.47192403640E+03  0.47192403641E+03  0.25500000920E-02 0. -1.
       -2   -1    0    0    0  501  0.00000000000E+00  0.00000000000E+00 -0.75618813177E+03  0.75618813178E+03  0.25500000920E-02 0.  1.
    10030    2    1    2    0    0  0.00000000000E+00  0.00000000000E+00 -0.28426409537E+03  0.12281121682E+04  0.11947608220E+04 0.  0.
        2    1    3    3  502    0  0.12081886048E+03  0.56505532947E+03 -0.29795059673E+03  0.65012251193E+03  0.25500000920E-02 0. -1.
       -2    1    3    3    0  502 -0.12081886048E+03 -0.56505532947E+03  0.13686501362E+02  0.57798965626E+03  0.25500000920E-02 0.  1.
</event>
<event>
 5   0  0.2025294E-03  0.1192598E+04  0.7818609E-02  0.9119360E-01
        1   -1    0    0  501    0  0.00000000000E+00  0.00000000000E+00  0.15884830511E+04  0.15884830511E+04  0.50400001928E-02 0.  1.
       -1   -1    0    0    0  501  0.00000000000E+00  0.00000000000E+00 -0.22384406454E+03  0.22384406460E+03  0.50400001928E-02 0. -1.
    10030    2    1    2    0    0  0.00000000000E+00  0.00000000000E+00  0.13646389866E+04  0.18123271157E+04  0.11925980089E+04 0.  0.
        5    1    3    3  502    0  0.39158711557E+03  0.14822190145E+03  0.37158127522E+02  0.42037247483E+03  0.46999998093E+01 0. -1.
       -5    1    3    3    0  502 -0.39158711557E+03 -0.14822190145E+03  0.13274808591E+04  0.13919546409E+04  0.46999998093E+01 0.  1.
</event>
<event>
 5   0  0.3650180E-03  0.1198111E+04  0.7818609E-02  0.9114512E-01
       -2   -1    0    0    0  501  0.00000000000E+00  0.00000000000E+00  0.17297087600E+03  0.17297087602E+03  0.25500000920E-02 0. -1.
        2   -1    0    0  501    0  0.00000000000E+00  0.00000000000E+00 -0.20747267477E+04  0.20747267478E+04  0.25500000920E-02 0.  1.
    10030    2    1    2    0    0  0.00000000000E+00  0.00000000000E+00 -0.19017558717E+04  0.22476976238E+04  0.11981106844E+04 0.  0.
        3    1    3    3  502    0  0.27358744810E+03 -0.23601617472E+03 -0.18472881663E+04  0.18822930978E+04  0.10100000352E+00 0. -1.
       -3    1    3    3    0  502 -0.27358744810E+03  0.23601617472E+03 -0.54467705493E+02  0.36540452601E+03  0.10100000352E+00 0.  1.
</event>
<event>
 5   0  0.2078258E-03  0.1186589E+04  0.7818609E-02  0.9124677E-01
       -1   -1    0    0    0  501  0.00000000000E+00  0.00000000000E+00  0.35291364344E+03  0.35291364348E+03  0.50400001928E-02 0.  1.
        1   -1    0    0  501    0  0.00000000000E+00  0.00000000000E+00 -0.99740693083E+03  0.99740693084E+03  0.50400001928E-02 0. -1.
    10030    2    1    2    0    0  0.00000000000E+00  0.00000000000E+00 -0.64449328739E+03  0.13503205743E+04  0.11865892533E+04 0.  0.
        3    1    3    3  502    0  0.22051206423E+03  0.49441996017E+03 -0.46014247484E+02  0.54331757625E+03  0.10100000352E+00 0. -1.
       -3    1    3    3    0  502 -0.22051206423E+03 -0.49441996017E+03 -0.59847903990E+03  0.80700299807E+03  0.10100000352E+00 0.  1.
</event>
<event>
 5   0  0.3725376E-03  0.1195732E+04  0.7818609E-02  0.9116600E-01
        2   -1    0    0  501    0  0.00000000000E+00  0.00000000000E+00  0.16923808802E+04  0.16923808802E+04  0.25500000920E-02 0.  1.
       -2   -1    0    0    0  501  0.00000000000E+00  0.00000000000E+00 -0.21120772052E+03  0.21120772054E+03  0.25500000920E-02 0. -1.
    10030    2    1    2    0    0  0.00000000000E+00  0.00000000000E+00  0.14811731596E+04  0.19035886007E+04  0.11957322576E+04 0.  0.
        4    1    3    3  502    0  0.82857336086E+02 -0.98527031999E+02 -0.18887864548E+03  0.22858186673E+03  0.12699999809E+01 0. -1.
       -4    1    3    3    0  502 -0.82857336086E+02  0.98527031999E+02  0.16700518051E+04  0.16750067340E+04  0.12699999809E+01 0.  1.
</event>
<event>
 5   0  0.2096270E-03  0.1158096E+04  0.7818609E-02  0.9150347E-01
       -1   -1    0    0    0  501  0.00000000000E+00  0.00000000000E+00  0.22278591908E+03  0.22278591914E+03  0.50400001928E-02 0.  1.
        1   -1    0    0  501    0  0.00000000000E+00  0.00000000000E+00 -0.15050177448E+04  0.15050177449E+04  0.50400001928E-02 0. -1.
    10030    2    1    2    0    0  0.00000000000E+00  0.00000000000E+00 -0.12822318258E+04  0.17278036640E+04  0.11580963027E+04 0.  0.
        2    1    3    3  502    0 -0.36607521418E+03 -0.42998394417E+02 -0.13073892049E+04  0.13583543196E+04  0.25500000920E-02 0. -1.
       -2    1    3    3    0  502  0.36607521418E+03  0.42998394417E+02  0.25157379148E+02  0.36944934442E+03  0.25500000920E-02 0.  1.
</event>
<event>
 5   0  0.2047109E-03  0.1206106E+04  0.7818609E-02  0.9107529E-01
       -1   -1    0    0    0  501  0.00000000000E+00  0.00000000000E+00  0.72080906082E+03  0.72080906084E+03  0.50400001928E-02 0.  1.
        1   -1    0    0  501    0  0.00000000000E+00  0.00000000000E+00 -0.50453399285E+03  0.50453399287E+03  0.50400001928E-02 0. -1.
    10030    2    1    2    0    0  0.00000000000E+00  0.00000000000E+00  0.21627506797E+03  0.12253430537E+04  0.12061055900E+04 0.  0.
        1    1    3    3  502    0 -0.45456695819E+02 -0.17116246811E+03  0.69379531677E+03  0.71604109050E+03  0.50400001928E-02 0.  1.
       -1    1    3    3    0  502  0.45456695819E+02  0.17116246811E+03 -0.47752024881E+03  0.50930196321E+03  0.50400001928E-02 0. -1.
</event>
<event>
 5   0  0.3751091E-03  0.1192940E+04  0.7818609E-02  0.9119058E-01
        2   -1    0    0  501    0  0.00000000000E+00  0.00000000000E+00  0.10835457609E+04  0.10835457609E+04  0.25500000920E-02 0. -1.
       -2   -1    0    0    0  501  0.00000000000E+00  0.00000000000E+00 -0.32834476741E+03  0.32834476742E+03  0.25500000920E-02 0.  1.
    10030    2    1    2    0    0  0.00000000000E+00  0.00000000000E+00  0.75520099351E+03  0.14118905284E+04  0.11929402011E+04 0.  0.
        5    1    3    3  502    0  0.42805034870E+03  0.30298624400E+03  0.71387273895E+03  0.88581270170E+03  0.46999998093E+01 0.  1.
       -5    1    3    3    0  502 -0.42805034870E+03 -0.30298624400E+03  0.41328254563E+02  0.52607782666E+03  0.46999998093E+01 0. -1.
</event>
<event>
 5   0  0.2025294E-03  0.1209235E+04  0.7818609E-02  0.9104811E-01
        1   -1    0    0  501    0  0.00000000000E+00  0.00000000000E+00  0.11240010079E+04  0.11240010079E+04  0.50400001928E-02 0.  1.
       -1   -1    0    0    0  501  0.00000000000E+00  0.00000000000E+00 -0.32523300072E+03  0.32523300075E+03  0.50400001928E-02 0. -1.
    10030    2    1    2    0    0  0.00000000000E+00  0.00000000000E+00  0.79876800716E+03  0.14492340086E+04  0.12092348335E+04 0.  0.
        5    1    3    3  502    0 -0.74119427876E+02 -0.77553462926E+02  0.11124817544E+04  0.11176519910E+04  0.46999998093E+01 0.  1.
       -5    1    3    3    0  502  0.74119427876E+02  0.77553462926E+02 -0.31371374723E+03  0.33158201761E+03  0.46999998093E+01 0. -1.
</event>
<event>
 5   0  0.3650180E-03  0.1145685E+04  0.7818609E-02  0.9161773E-01
       -2   -1    0    0    0  501  0.00000000000E+00  0.00000000000E+00  0.23002482445E+03  0.23002482446E+03  0.25500000920E-02 0. -1.
        2   -1    0    0  501    0  0.00000000000E+00  0.00000000000E+00 -0.14265792193E+04  0.14265792193E+04  0.25500000920E-02 0.  1.
    10030    2    1    2    0    0  0.00000000000E+00  0.00000000000E+00 -0.11965543949E+04  0.16566040438E+04  0.11456851828E+04 0.  0.
        3    1    3    3  502    0 -0.53680980401E+03 -0.18360184923E+03 -0.71281089391E+03  0.91102897067E+03  0.10100000352E+00 0.  1.
       -3    1    3    3    0  502  0.53680980401E+03  0.18360184923E+03 -0.48374350096E+03  0.74557507311E+03  0.10100000352E+00 0. -1.
</event>
<event>
 5   0  0.3626049E-03  0.1443437E+04  0.7818609E-02  0.8922963E-01
       -2   -1    0    0    0  501  0.00000000000E+00  0.00000000000E+00  0.52488216580E+03  0.52488216580E+03  0.25500000920E-02 0.  1.
        2   -1    0    0  501    0  0.00000000000E+00  0.00000000000E+00 -0.99237036177E+03  0.99237036177E+03  0.25500000920E-02 0. -1.
    10030    2    1    2    0    0  0.00000000000E+00  0.00000000000E+00 -0.46748819597E+03  0.15172525276E+04  0.14434368774E+04 0.  0.
        1    1    3    3  502    0  0.55110399079E+03 -0.52757137687E+02 -0.72043224400E+03  0.90858216054E+03  0.50400001928E-02 0. -1.
       -1    1    3    3    0  502 -0.55110399079E+03  0.52757137687E+02  0.25294404803E+03  0.60867036703E+03  0.50400001928E-02 0.  1.
</event>
<event>
 5   0  0.2096270E-03  0.1179594E+04  0.7818609E-02  0.9130908E-01
        1   -1    0    0  501    0  0.00000000000E+00  0.00000000000E+00  0.31007791479E+03  0.31007791483E+03  0.50400001928E-02 0. -1.
       -1   -1    0    0    0  501  0.00000000000E+00  0.00000000000E+00 -0.11218490381E+04  0.11218490381E+04  0.50400001928E-02 0.  1.
    10030    2    1    2    0    0  0.00000000000E+00  0.00000000000E+00 -0.81177112330E+03  0.14319269529E+04  0.11795941853E+04 0.  0.
        2    1    3    3  502    0 -0.17835823443E+03  0.14134149091E+03 -0.10664064669E+04  0.10904181902E+04  0.25500000920E-02 0.  1.
       -2    1    3    3    0  502  0.17835823443E+03 -0.14134149091E+03  0.25463534358E+03  0.34150876277E+03  0.25500000920E-02 0. -1.
</event>
<event>
 5   0  0.2096270E-03  0.1186909E+04  0.7818609E-02  0.9124393E-01
        1   -1    0    0  501    0  0.00000000000E+00  0.00000000000E+00  0.68808909229E+03  0.68808909231E+03  0.50400001928E-02 0. -1.
       -1   -1    0    0    0  501  0.00000000000E+00  0.00000000000E+00 -0.51183506023E+03  0.51183506025E+03  0.50400001928E-02 0.  1.
    10030    2    1    2    0    0  0.00000000000E+00  0.00000000000E+00  0.17625403206E+03  0.11999241526E+04  0.11869087952E+04 0.  0.
        2    1    3    3  502    0 -0.69489840777E+02 -0.55158738338E+03 -0.12178084103E+03  0.56912920565E+03  0.25500000920E-02 0.  1.
       -2    1    3    3    0  502  0.69489840777E+02  0.55158738338E+03  0.29803487309E+03  0.63079494692E+03  0.25500000920E-02 0. -1.
</event>
<event>
 5   0  0.3650180E-03  0.1265587E+04  0.7818609E-02  0.9057309E-01
        2   -1    0    0  501    0  0.00000000000E+00  0.00000000000E+00  0.96569600406E+03  0.96569600407E+03  0.25500000920E-02 0. -1.
       -2   -1    0    0    0  501  0.00000000000E+00  0.00000000000E+00 -0.41465163168E+03  0.41465163168E+03  0.25500000920E-02 0.  1.
    10030    2    1    2    0    0  0.00000000000E+00  0.00000000000E+00  0.55104437239E+03  0.13803476357E+04  0.12655867000E+04 0.  0.
        3    1    3    3  502    0  0.88595983694E+02  0.44726760547E+03 -0.20304797258E+03  0.49912528347E+03  0.10100000352E+00 0.  1.
       -3    1    3    3    0  502 -0.88595983694E+02 -0.44726760547E+03  0.75409234497E+03  0.88122235228E+03  0.10100000352E+00 0. -1.
</event>
<event>
 5   0  0.3751091E-03  0.1190639E+04  0.7818609E-02  0.9121090E-01
        2   -1    0    0  501    0  0.00000000000E+00  0.00000000000E+00  0.12851739818E+04  0.12851739818E+04  0.25500000920E-02 0.  1.
       -2   -1    0    0    0  501  0.00000000000E+00  0.00000000000E+00 -0.27576446059E+03  0.27576446060E+03  0.25500000920E-02 0. -1.
    10030    2    1    2    0    0  0.00000000000E+00  0.00000000000E+00  0.10094095212E+04  0.15609384424E+04  0.11906390047E+04 0.  0.
        5    1    3    3  502    0  0.13819901499E+03 -0.20441990516E+03  0.12149483497E+04  0.12397612866E+04  0.46999998093E+01 0.  1.
       -5    1    3    3    0  502 -0.13819901499E+03  0.20441990516E+03 -0.20553882850E+03  0.32117715577E+03  0.46999998093E+01 0. -1.
</event>
<event>
 5   0  0.2134992E-03  0.1277686E+04  0.7818609E-02  0.9047450E-01
        1   -1    0    0  501    0  0.00000000000E+00  0.00000000000E+00  0.93144997186E+03  0.93144997187E+03  0.50400001928E-02 0.  1.
       -1   -1    0    0    0  501  0.00000000000E+00  0.00000000000E+00 -0.43815623005E+03  0.43815623008E+03  0.50400001928E-02 0. -1.
    10030    2    1    2    0    0  0.00000000000E+00  0.00000000000E+00  0.49329374181E+03  0.13696062019E+04  0.12776863593E+04 0.  0.
        4    1    3    3  502    0 -0.24942612821E+03 -0.17737917353E+03 -0.35444643289E+03  0.46830615128E+03  0.12699999809E+01 0. -1.
       -4    1    3    3    0  502  0.24942612821E+03  0.17737917353E+03  0.84774017470E+03  0.90130005067E+03  0.12699999809E+01 0.  1.
</event>
<event>
 5   0  0.2134992E-03  0.1125060E+04  0.7818609E-02  0.9181105E-01
       -1   -1    0    0    0  501  0.00000000000E+00  0.00000000000E+00  0.29516527190E+03  0.29516527194E+03  0.50400001928E-02 0.  1.
        1   -1    0    0  501    0  0.00000000000E+00  0.00000000000E+00 -0.10720776042E+04  0.10720776042E+04  0.50400001928E-02 0. -1.
    10030    2    1    2    0    0  0.00000000000E+00  0.00000000000E+00 -0.77691233226E+03  0.13672428761E+04  0.11250601363E+04 0.  0.
        4    1    3    3  502    0  0.35186842859E+03 -0.34402401536E+03 -0.57256455685E+02  0.49542287876E+03  0.12699999809E+01 0.  1.
       -4    1    3    3    0  502 -0.35186842859E+03  0.34402401536E+03 -0.71965587657E+03  0.87181999734E+03  0.12699999809E+01 0. -1.
</event>
<event>
 5   0  0.2047109E-03  0.1199964E+04  0.7818609E-02  0.9112888E-01
        1   -1    0    0  501    0  0.00000000000E+00  0.00000000000E+00  0.87295686769E+03  0.87295686770E+03  0.50400001928E-02 0. -1.
       -1   -1    0    0    0  501  0.00000000000E+00  0.00000000000E+00 -0.41236663073E+03  0.41236663076E+03  0.50400001928E-02 0.  1.
    10030    2    1    2    0    0  0.00000000000E+00  0.00000000000E+00  0.46059023696E+03  0.12853234985E+04  0.11999638033E+04 0.  0.
        1    1    3    3  502    0  0.23709833170E+03 -0.11555055077E+03  0.80752743016E+03  0.84951050562E+03  0.50400001928E-02 0. -1.
       -1    1    3    3    0  502 -0.23709833170E+03  0.11555055077E+03 -0.34693719320E+03  0.43581299284E+03  0.50400001928E-02 0.  1.
</event>
<event>
 5   0  0.2047109E-03  0.1197494E+04  0.7818609E-02  0.9115053E-01
       -1   -1    0    0    0  501  0.00000000000E+00  0.00000000000E+00  0.40841433838E+03  0.40841433841E+03  0.50400001928E-02 0.  1.
        1   -1    0    0  501    0  0.00000000000E+00  0.00000000000E+00 -0.87777959518E+03  0.87777959519E+03  0.50400001928E-02 0. -1.
    10030    2    1    2    0    0  0.00000000000E+00  0.00000000000E+00 -0.46936525680E+03  0.12861939336E+04  0.11974936704E+04 0.  0.
        1    1    3    3  502    0 -0.36928630231E+03  0.21356738010E+03 -0.68593891826E+03  0.80777199663E+03  0.50400001928E-02 0. -1.
       -1    1    3    3    0  502  0.36928630231E+03 -0.21356738010E+03  0.21657366147E+03  0.47842193698E+03  0.50400001928E-02 0.  1.
</event>
<event>
 5   0  0.2096270E-03  0.1197383E+04  0.7818609E-02  0.9115150E-01
        1   -1    0    0  501    0  0.00000000000E+00  0.00000000000E+00  0.18583434855E+04  0.18583434855E+04  0.50400001928E-02 0.  1.
       -1   -1    0    0    0  501  0.00000000000E+00  0.00000000000E+00 -0.19287694202E+03  0.19287694209E+03  0.50400001928E-02 0. -1.
    10030    2    1    2    0    0  0.00000000000E+00  0.00000000000E+00  0.16654665434E+04  0.20512204276E+04  0.11973831614E+04 0.  0.
        2    1    3    3  502    0 -0.35203903537E+03  0.43112478746E+03  0.45495392132E+03  0.71887630043E+03  0.25500000920E-02 0. -1.
       -2    1    3    3    0  502  0.35203903537E+03 -0.43112478746E+03  0.12105126221E+04  0.13323441271E+04  0.25500000920E-02 0.  1.
</event>
<event>
 5   0  0.2025294E-03  0.1201336E+04  0.7818609E-02  0.9111688E-01
        1   -1    0    0  501    0  0.00000000000E+00  0.00000000000E+00  0.14158427079E+04  0.14158427079E+04  0.50400001928E-02 0. -1.
       -1   -1    0    0    0  501  0.00000000000E+00  0.00000000000E+00 -0.25483197514E+03  0.25483197519E+03  0.50400001928E-02 0.  1.
    10030    2    1    2    0    0  0.00000000000E+00  0.00000000000E+00  0.11610107327E+04  0.16706746831E+04  0.12013359127E+04 0.  0.
        5    1    3    3  502    0  0.28297754379E+03  0.13588760983E+03 -0.13165103935E+03  0.34043474992E+03  0.46999998093E+01 0.  1.
       -5    1    3    3    0  502 -0.28297754379E+03 -0.13588760983E+03  0.12926617721E+04  0.13302399332E+04  0.46999998093E+01 0. -1.
</event>
<event>
 5   0  0.2096270E-03  0.1206985E+04  0.7818609E-02  0.9106764E-01
       -1   -1    0    0    0  501  0.00000000000E+00  0.00000000000E+00  0.25004778791E+03  0.25004778796E+03  0.50400001928E-02 0.  1.
        1   -1    0    0  501    0  0.00000000000E+00  0.00000000000E+00 -0.14565349190E+04  0.14565349190E+04  0.50400001928E-02 0. -1.
    10030    2    1    2    0    0  0.00000000000E+00  0.00000000000E+00 -0.12064871311E+04  0.17065827070E+04  0.12069852270E+04 0.  0.
        2    1    3    3  502    0  0.27729466984E+03  0.34545994762E+03 -0.23762551717E+02  0.44362097358E+03  0.25500000920E-02 0.  1.
       -2    1    3    3    0  502 -0.27729466984E+03 -0.34545994762E+03 -0.11827245794E+04  0.12629617334E+04  0.25500000920E-02 0. -1.
</event>
<event>
 5   0  0.3626049E-03  0.1223781E+04  0.7818609E-02  0.9092292E-01
       -2   -1    0    0    0  501  0.00000000000E+00  0.00000000000E+00  0.57117380420E+03  0.57117380421E+03  0.25500000920E-02 0. -1.
        2   -1    0    0  501    0  0.00000000000E+00  0.00000000000E+00 -0.65551007137E+03  0.65551007138E+03  0.25500000920E-02 0.  1.
    10030    2    1    2    0    0  0.00000000000E+00  0.00000000000E+00 -0.84336267166E+02  0.12266838756E+04  0.12237813222E+04 0.  0.
        1    1    3    3  502    0  0.49755269296E+03  0.33545918979E+03 -0.16211242482E+03  0.62158827900E+03  0.50400001928E-02 0. -1.
       -1    1    3    3    0  502 -0.49755269296E+03 -0.33545918979E+03  0.77776157653E+02  0.60509559659E+03  0.50400001928E-02 0.  1.
</event>
<event>
 5   0  0.3626049E-03  0.1205257E+04  0.7818609E-02  0.9108267E-01
        2   -1    0    0  501    0  0.00000000000E+00  0.00000000000E+00  0.31672178231E+03  0.31672178232E+03  0.25500000920E-02 0.  1.
       -2   -1    0    0    0  501  0.00000000000E+00  0.00000000000E+00 -0.11466250534E+04  0.11466250534E+04  0.25500000920E-02 0. -1.
    10030    2    1    2    0    0  0.00000000000E+00  0.00000000000E+00 -0.82990327111E+03  0.14633468357E+04  0.12052570358E+04 0.  0.
        1    1    3    3  502    0  0.31880859994E+03 -0.13962710141E+02  0.20571720991E+03  0.37967545503E+03  0.50400001928E-02 0.  1.
       -1    1    3    3    0  502 -0.31880859994E+03  0.13962710141E+02 -0.10356204810E+04  0.10836713807E+04  0.50400001928E-02 0. -1.
</event>
<event>
 5   0  0.3706035E-03  0.1118888E+04  0.7818609E-02  0.9186975E-01
        2   -1    0    0  501    0  0.00000000000E+00  0.00000000000E+00  0.11153016208E+04  0.11153016208E+04  0.25500000920E-02 0.  1.
       -2   -1    0    0    0  501  0.00000000000E+00  0.00000000000E+00 -0.28062171266E+03  0.28062171267E+03  0.25500000920E-02 0. -1.
    10030    2    1    2    0    0  0.00000000000E+00  0.00000000000E+00  0.83467990809E+03  0.13959233334E+04  0.11188884680E+04 0.  0.
        2    1    3    3  502    0  0.90600103323E+02 -0.54855628508E+03  0.49480640813E+03  0.74428204208E+03  0.25500000920E-02 0.  1.
       -2    1    3    3    0  502 -0.90600103323E+02  0.54855628508E+03  0.33987349996E+03  0.65164129136E+03  0.25500000920E-02 0. -1.
</event>
<event>
 5   0  0.2134992E-03  0.1232786E+04  0.7818609E-02  0.9084633E-01
       -1   -1    0    0    0  501  0.00000000000E+00  0.00000000000E+00  0.36687126039E+03  0.36687126043E+03  0.50400001928E-02 0. -1.
        1   -1    0    0  501    0  0.00000000000E+00  0.00000000000E+00 -0.10356230269E+04  0.10356230269E+04  0.50400001928E-02 0.  1.
    10030    2    1    2    0    0  0.00000000000E+00  0.00000000000E+00 -0.66875176648E+03  0.14024942873E+04  0.12327859915E+04 0.  0.
        4    1    3    3  502    0  0.11944143620E+03 -0.50831518965E+03  0.38263914196E+02  0.52356119866E+03  0.12699999809E+01 0. -1.
       -4    1    3    3    0  502 -0.11944143620E+03  0.50831518965E+03 -0.70701568067E+03  0.87893308865E+03  0.12699999809E+01 0.  1.
</event>
<event>
 5   0  0.2134992E-03  0.1224339E+04  0.7818609E-02  0.9091815E-01
       -1   -1    0    0    0  501  0.00000000000E+00  0.00000000000E+00  0.60225958769E+03  0.60225958771E+03  0.50400001928E-02 0. -1.
        1   -1    0    0  501    0  0.00000000000E+00  0.00000000000E+00 -0.62224241926E+03  0.62224241928E+03  0.50400001928E-02 0.  1.
    10030    2    1    2    0    0  0.00000000000E+00  0.00000000000E+00 -0.19982831575E+02  0.12245020070E+04  0.12243389447E+04 0.  0.
        4    1    3    3  502    0 -0.46139419583E+03  0.40207582071E+03 -0.24145347966E+02  0.61248198363E+03  0.12699999809E+01 0. -1.
       -4    1    3    3    0  502  0.46139419583E+03 -0.40207582071E+03  0.41625163913E+01  0.61202002336E+03  0.12699999809E+01 0.  1.
</event>
<event>
 5   0  0.2047109E-03  0.1185106E+04  0.7818609E-02  0.9125994E-01
       -1   -1    0    0    0  501  0.00000000000E+00  0.00000000000E+00  0.41408734824E+03  0.41408734827E+03  0.50400001928E-02 0. -1.
        1   -1    0    0  501    0  0.00000000000E+00  0.00000000000E+00 -0.84793514207E+03  0.84793514208E+03  0.50400001928E-02 0.  1.
    10030    2    1    2    0    0  0.00000000000E+00  0.00000000000E+00 -0.43384779382E+03  0.12620224904E+04  0.11851062644E+04 0.  0.
        1    1    3    3  502    0  0.32632875044E+03 -0.35423440416E+03  0.15065527692E+03  0.50464787619E+03  0.50400001928E-02 0. -1.
       -1    1    3    3    0  502 -0.32632875044E+03  0.35423440416E+03 -0.58450307074E+03  0.75737461417E+03  0.50400001928E-02 0.  1.
</event>
<event>
 5   0  0.2096270E-03  0.1207620E+04  0.7818609E-02  0.9106212E-01
        1   -1    0    0  501    0  0.00000000000E+00  0.00000000000E+00  0.63642182790E+03  0.63642182792E+03  0.50400001928E-02 0.  1.
       -1   -1    0    0    0  501  0.00000000000E+00  0.00000000000E+00 -0.57286966769E+03  0.57286966771E+03  0.50400001928E-02 0. -1.
    10030    2    1    2    0    0  0.00000000000E+00  0.00000000000E+00  0.63552160206E+02  0.12092914956E+04  0.12076204057E+04 0.  0.
        2    1    3    3  502    0  0.13888220015E+03 -0.10397469416E+03  0.61092555902E+03  0.63508191693E+03  0.25500000920E-02 0.  1.
       -2    1    3    3    0  502 -0.13888220015E+03  0.10397469416E+03 -0.54737339881E+03  0.57420957870E+03  0.25500000920E-02 0. -1.
</event>
<event>
 5   0  0.2096270E-03  0.1182570E+04  0.7818609E-02  0.9128251E-01
       -1   -1    0    0    0  501  0.00000000000E+00  0.00000000000E+00  0.15653982323E+03  0.15653982331E+03  0.50400001928E-02 0. -1.
        1   -1    0    0  501    0  0.00000000000E+00  0.00000000000E+00 -0.22334132803E+04  0.22334132803E+04  0.50400001928E-02 0.  1.
    10030    2    1    2    0    0  0.00000000000E+00  0.00000000000E+00 -0.20768734571E+04  0.23899531036E+04  0.11825702858E+04 0.  0.
        2    1    3    3  502    0 -0.69190262933E+01  0.12110872856E+03  0.13112159994E+03  0.17862830413E+03  0.25500000920E-02 0. -1.
       -2    1    3    3    0  502  0.69190262933E+01 -0.12110872856E+03 -0.22079950570E+04  0.22113247995E+04  0.25500000920E-02 0.  1.
</event>
<event>
 5   0  0.3650180E-03  0.1203944E+04  0.7818609E-02  0.9109411E-01
       -2   -1    0    0    0  501  0.00000000000E+00  0.00000000000E+00  0.21689800436E+03  0.21689800438E+03  0.25500000920E-02 0. -1.
        2   -1    0    0  501    0  0.00000000000E+00  0.00000000000E+00 -0.16706954682E+04  0.16706954682E+04  0.25500000920E-02 0.  1.
    10030    2    1    2    0    0  0.00000000000E+00  0.00000000000E+00 -0.14537974638E+04  0.18875934726E+04  0.12039443724E+04 0.  0.
        3    1    3    3  502    0  0.17729801477E+03  0.37102734852E+03 -0.37628593693E+02  0.41293074559E+03  0.10100000352E+00 0. -1.
       -3    1    3    3    0  502 -0.17729801477E+03 -0.37102734852E+03 -0.14161688701E+04  0.14746627270E+04  0.10100000352E+00 0.  1.
</event>
<event>
 5   0  0.3626049E-03  0.1179717E+04  0.7818609E-02  0.9130797E-01
       -2   -1    0    0    0  501  0.00000000000E+00  0.00000000000E+00  0.38130981619E+03  0.38130981619E+03  0.25500000920E-02 0. -1.
        2   -1    0    0  501    0  0.00000000000E+00  0.00000000000E+00 -0.91246864148E+03  0.91246864149E+03  0.25500000920E-02 0.  1.
    10030    2    1    2    0    0  0.00000000000E+00  0.00000000000E+00 -0.53115882530E+03  0.12937784577E+04  0.11797173390E+04 0.  0.
        1    1    3    3  502    0  0.11287597789E+02  0.39721598936E+03  0.21248637401E+03  0.45062002977E+03  0.50400001928E-02 0. -1.
       -1    1    3    3    0  502 -0.11287597789E+02 -0.39721598936E+03 -0.74364519931E+03  0.84315842791E+03  0.50400001928E-02 0.  1.
</event>
<event>
 5   0  0.3650180E-03  0.1197252E+04  0.7818609E-02  0.9115265E-01
        2   -1    0    0  501    0  0.00000000000E+00  0.00000000000E+00  0.14088549969E+04  0.14088549969E+04  0.25500000920E-02 0. -1.
       -2   -1    0    0    0  501  0.00000000000E+00  0.00000000000E+00 -0.25435770355E+03  0.25435770357E+03  0.25500000920E-02 0.  1.
    10030    2    1    2    0    0  0.00000000000E+00  0.00000000000E+00  0.11544972934E+04  0.16632127005E+04  0.11972520564E+04 0.  0.
        3    1    3    3  502    0  0.35346959229E+03 -0.19130808196E+03 -0.39047890824E+02  0.40381218762E+03  0.10100000352E+00 0.  1.
       -3    1    3    3    0  502 -0.35346959229E+03  0.19130808196E+03  0.11935451842E+04  0.12594005129E+04  0.10100000352E+00 0. -1.
</event>
<event>
 5   0  0.2047109E-03  0.1202077E+04  0.7818609E-02  0.9111041E-01
       -1   -1    0    0    0  501  0.00000000000E+00  0.00000000000E+00  0.44348932188E+03  0.44348932191E+03  0.50400001928E-02 0.  1.
        1   -1    0    0  501    0  0.00000000000E+00  0.00000000000E+00 -0.81455671900E+03  0.81455671902E+03  0.50400001928E-02 0. -1.
    10030    2    1    2    0    0  0.00000000000E+00  0.00000000000E+00 -0.37106739712E+03  0.12580460409E+04  0.12020768810E+04 0.  0.
        1    1    3    3  502    0  0.91037558320E+02 -0.58895604749E+03 -0.26720661671E+03  0.65311288376E+03  0.50400001928E-02 0.  1.
       -1    1    3    3    0  502 -0.91037558320E+02  0.58895604749E+03 -0.10386078041E+03  0.60493315716E+03  0.50400001928E-02 0. -1.
</event>
<event>
 5   0  0.3706035E-03  0.1200456E+04  0.7818609E-02  0.9112457E-01
        2   -1    0    0  501    0  0.00000000000E+00  0.00000000000E+00  0.31277349324E+03  0.31277349325E+03  0.25500000920E-02 0. -1.
       -2   -1    0    0    0  501  0.00000000000E+00  0.00000000000E+00 -0.11518683248E+04  0.11518683248E+04  0.25500000920E-02 0.  1.
    10030    2    1    2    0    0  0.00000000000E+00  0.00000000000E+00 -0.83909483152E+03  0.14646418180E+04  0.12004563794E+04 0.  0.
        2    1    3    3  502    0 -0.13017315705E+03 -0.58586783337E+03 -0.43097386625E+03  0.73886713446E+03  0.25500000920E-02 0.  1.
       -2    1    3    3    0  502  0.13017315705E+03  0.58586783337E+03 -0.40812096527E+03  0.72577468355E+03  0.25500000920E-02 0. -1.
</event>
<event>
 5   0  0.3706035E-03  0.1214126E+04  0.7818609E-02  0.9100581E-01
        2   -1    0    0  501    0  0.00000000000E+00  0.00000000000E+00  0.73040812477E+03  0.73040812477E+03  0.25500000920E-02 0.  1.
       -2   -1    0    0    0  501  0.00000000000E+00  0.00000000000E+00 -0.50454745705E+03  0.50454745706E+03  0.25500000920E-02 0. -1.
    10030    2    1    2    0    0  0.00000000000E+00  0.00000000000E+00  0.22586066771E+03  0.12349555818E+04  0.12141261252E+04 0.  0.
        2    1    3    3  502    0 -0.46469267397E+03 -0.66793666809E+02  0.50440309490E+03  0.68907413049E+03  0.25500000920E-02 0.  1.
       -2    1    3    3    0  502  0.46469267397E+03  0.66793666809E+02 -0.27854242719E+03  0.54588145134E+03  0.25500000920E-02 0. -1.
</event>
<event>
 5   0  0.2047109E-03  0.1234421E+04  0.7818609E-02  0.9083250E-01
        1   -1    0    0  501    0  0.00000000000E+00  0.00000000000E+00  0.73216508071E+03  0.73216508073E+03  0.50400001928E-02 0.  1.
       -1   -1    0    0    0  501  0.00000000000E+00  0.00000000000E+00 -0.52030480827E+03  0.52030480829E+03  0.50400001928E-02 0. -1.
    10030    2    1    2    0    0  0.00000000000E+00  0.00000000000E+00  0.21186027245E+03  0.12524698890E+04  0.12344213413E+04 0.  0.
        1    1    3    3  502    0 -0.21645586681E+02  0.32403839908E+03 -0.42660539711E+03  0.53615443705E+03  0.50400001928E-02 0. -1.
       -1    1    3    3    0  502  0.21645586681E+02 -0.32403839908E+03  0.63846566956E+03  0.71631545197E+03  0.50400001928E-02 0.  1.
</event>
<event>
 5   0  0.2134992E-03  0.1201857E+04  0.7818609E-02  0.9111233E-01
        1   -1    0    0  501    0  0.00000000000E+00  0.00000000000E+00  0.64113414571E+03  0.64113414573E+03  0.50400001928E-02 0. -1.
       -1   -1    0    0    0  501  0.00000000000E+00  0.00000000000E+00 -0.56324415066E+03  0.56324415068E+03  0.50400001928E-02 0.  1.
    10030    2    1    2    0    0  0.00000000000E+00  0.00000000000E+00  0.77889995056E+02  0.12043782964E+04  0.12018569921E+04 0.  0.
        4    1    3    3  502    0 -0.54104595769E+03 -0.16344976893E+03 -0.16560791380E+03  0.58896022728E+03  0.12699999809E+01 0.  1.
       -4    1    3    3    0  502  0.54104595769E+03  0.16344976893E+03  0.24349790886E+03  0.61541806913E+03  0.12699999809E+01 0. -1.
</event>
<event>
 5   0  0.2025294E-03  0.1192585E+04  0.7818609E-02  0.9119372E-01
       -1   -1    0    0    0  501  0.00000000000E+00  0.00000000000E+00  0.62089370289E+03  0.62089370291E+03  0.50400001928E-02 0.  1.
        1   -1    0    0  501    0  0.00000000000E+00  0.00000000000E+00 -0.57266613831E+03  0.57266613833E+03  0.50400001928E-02 0. -1.
    10030    2    1    2    0    0  0.00000000000E+00  0.00000000000E+00  0.48227564574E+02  0.11935598412E+04  0.11925850899E+04 0.  0.
        5    1    3    3  502    0  0.46337169744E+03  0.37384211265E+03  0.56873608023E+02  0.59810363021E+03  0.46999998093E+01 0.  1.
       -5    1    3    3    0  502 -0.46337169744E+03 -0.37384211265E+03 -0.86460434489E+01  0.59545621103E+03  0.46999998093E+01 0. -1.
</event>
<event>
 5   0  0.3725376E-03  0.1201595E+04  0.7818609E-02  0.9111462E-01
        2   -1    0    0  501    0  0.00000000000E+00  0.00000000000E+00  0.22538840418E+04  0.22538840418E+04  0.25500000920E-02 0.  1.
       -2   -1    0    0    0  501  0.00000000000E+00  0.00000000000E+00 -0.16014903428E+03  0.16014903430E+03  0.25500000920E-02 0. -1.
    10030    2    1    2    0    0  0.00000000000E+00  0.00000000000E+00  0.20937350075E+04  0.24140330761E+04  0.12015945284E+04 0.  0.
        4    1    3    3  502    0 -0.57345416969E+03  0.14355341941E+03  0.12622970756E+04  0.13938625430E+04  0.12699999809E+01 0.  1.
       -4    1    3    3    0  502  0.57345416969E+03 -0.14355341941E+03  0.83143793191E+03  0.10201705330E+04  0.12699999809E+01 0. -1.
</event>
<event>
 5   0  0.2025294E-03  0.1198515E+04  0.7818609E-02  0.9114157E-01
       -1   -1    0    0    0  501  0.00000000000E+00  0.00000000000E+00  0.23220827880E+03  0.23220827885E+03  0.50400001928E-02 0.  1.
        1   -1    0    0  501    0  0.00000000000E+00  0.00000000000E+00 -0.15464972607E+04  0.15464972607E+04  0.50400001928E-02 0. -1.
    10030    2    1    2    0    0  0.00000000000E+00  0.00000000000E+00 -0.13142889819E+04  0.17787055395E+04  0.11985148595E+04 0.  0.
        5    1    3    3  502    0  0.37882626112E+03 -0.34485599637E+03 -0.11185331521E+04  0.12302737487E+04  0.46999998093E+01 0. -1.
       -5    1    3    3    0  502 -0.37882626112E+03  0.34485599637E+03 -0.19575582979E+03  0.54843179087E+03  0.46999998093E+01 0.  1.
</event>
<event>
 5   0  0.3626049E-03  0.1202104E+04  0.7818609E-02  0.9111017E-01
       -2   -1    0    0    0  501  0.00000000000E+00  0.00000000000E+00  0.30652589308E+03  0.30652589309E+03  0.25500000920E-02 0.  1.
        2   -1    0    0  501    0  0.00000000000E+00  0.00000000000E+00 -0.11785738169E+04  0.11785738169E+04  0.25500000920E-02 0. -1.
    10030    2    1    2    0    0  0.00000000000E+00  0.00000000000E+00 -0.87204792387E+03  0.14850997100E+04  0.12021038088E+04 0.  0.
        1    1    3    3  502    0 -0.50115284686E+03 -0.13719884017E+03 -0.80928701258E+03  0.96172925837E+03  0.50400001928E-02 0. -1.
       -1    1    3    3    0  502  0.50115284686E+03  0.13719884017E+03 -0.62760911291E+02  0.52337045166E+03  0.50400001928E-02 0.  1.
</event>
<event>
 5   0  0.2025294E-03  0.1169008E+04  0.7818609E-02  0.9140425E-01
        1   -1    0    0  501    0  0.00000000000E+00  0.00000000000E+00  0.53220351925E+03  0.53220351928E+03  0.50400001928E-02 0. -1.
       -1   -1    0    0    0  501  0.00000000000E+00  0.00000000000E+00 -0.64194441549E+03  0.64194441551E+03  0.50400001928E-02 0.  1.
    10030    2    1    2    0    0  0.00000000000E+00  0.00000000000E+00 -0.10974089624E+03  0.11741479348E+04  0.11690082585E+04 0.  0.
        5    1    3    3  502    0  0.26073422792E+03  0.12704369255E+03 -0.56454660754E+03  0.63471048480E+03  0.46999998093E+01 0.  1.
       -5    1    3    3    0  502 -0.26073422792E+03 -0.12704369255E+03  0.45480571130E+03  0.53943744999E+03  0.46999998093E+01 0. -1.
</event>
<event>
 5   0  0.2078258E-03  0.1203803E+04  0.7818609E-02  0.9109534E-01
        1   -1    0    0  501    0  0.00000000000E+00  0.00000000000E+00  0.89552555578E+03  0.89552555580E+03  0.50400001928E-02 0.  1.
       -1   -1    0    0    0  501  0.00000000000E+00  0.00000000000E+00 -0.40455066612E+03  0.40455066615E+03  0.50400001928E-02 0. -1.
    10030    2    1    2    0    0  0.00000000000E+00  0.00000000000E+00  0.49097488966E+03  0.13000762219E+04  0.12038030738E+04 0.  0.
        3    1    3    3  502    0  0.16378960905E+03  0.29312863885E+03 -0.29399615219E+03  0.44630167225E+03  0.10100000352E+00 0. -1.
       -3    1    3    3    0  502 -0.16378960905E+03 -0.29312863885E+03  0.78497104186E+03  0.85377454969E+03  0.10100000352E+00 0.  1.
</event>
<event>
 5   0  0.2078258E-03  0.1201088E+04  0.7818609E-02  0.9111905E-01
        1   -1    0    0  501    0  0.00000000000E+00  0.00000000000E+00  0.39778053013E+03  0.39778053016E+03  0.50400001928E-02 0.  1.
       -1   -1    0    0    0  501  0.00000000000E+00  0.00000000000E+00 -0.90666388448E+03  0.90666388450E+03  0.50400001928E-02 0. -1.
    10030    2    1    2    0    0  0.00000000000E+00  0.00000000000E+00 -0.50888335435E+03  0.13044444147E+04  0.12010882410E+04 0.  0.
        3    1    3    3  502    0 -0.29670414006E+03  0.10109019227E+03 -0.81077249888E+03  0.86925521502E+03  0.10100000352E+00 0. -1.
       -3    1    3    3    0  502  0.29670414006E+03 -0.10109019227E+03  0.30188914452E+03  0.43518919964E+03  0.10100000352E+00 0.  1.
</event>
<event>
 5   0  0.2025294E-03  0.1223529E+04  0.7818609E-02  0.9092507E-01
        1   -1    0    0  501    0  0.00000000000E+00  0.00000000000E+00  0.25809701566E+04  0.25809701566E+04  0.50400001928E-02 0. -1.
       -1   -1    0    0    0  501  0.00000000000E+00  0.00000000000E+00 -0.14500583554E+03  0.14500583563E+03  0.50400001928E-02 0.  1.
    10030    2    1    2    0    0  0.00000000000E+00  0.00000000000E+00  0.24359643210E+04  0.27259759922E+04  0.12235288868E+04 0.  0.
        5    1    3    3  502    0 -0.34997217517E+03  0.23753233908E+03  0.22026595183E+04  0.22429073051E+04  0.46999998093E+01 0. -1.
       -5    1    3    3    0  502  0.34997217517E+03 -0.23753233908E+03  0.23330480268E+03  0.48306868709E+03  0.46999998093E+01 0.  1.
</event>
<event>
 5   0  0.3725376E-03  0.1089936E+04  0.7818609E-02  0.9215056E-01
        2   -1    0    0  501    0  0.00000000000E+00  0.00000000000E+00  0.57538646331E+03  0.57538646332E+03  0.25500000920E-02 0. -1.
       -2   -1    0    0    0  501  0.00000000000E+00  0.00000000000E+00 -0.51615801710E+03  0.51615801710E+03  0.25500000920E-02 0.  1.
    10030    2    1    2    0    0  0.00000000000E+00  0.00000000000E+00  0.59228446215E+02  0.10915444804E+04  0.10899363944E+04 0.  0.
        4    1    3    3  502    0  0.11015027010E+03  0.22870098740E+03  0.51256164880E+03  0.57197751736E+03  0.12699999809E+01 0. -1.
       -4    1    3    3    0  502 -0.11015027010E+03 -0.22870098740E+03 -0.45333320258E+03  0.51956696306E+03  0.12699999809E+01 0.  1.
</event>
<event>
 5   0  0.3650180E-03  0.1231898E+04  0.7818609E-02  0.9085386E-01
        2   -1    0    0  501    0  0.00000000000E+00  0.00000000000E+00  0.60247282809E+03  0.60247282810E+03  0.25500000920E-02 0. -1.
       -2   -1    0    0    0  501  0.00000000000E+00  0.00000000000E+00 -0.62972646090E+03  0.62972646090E+03  0.25500000920E-02 0.  1.
    10030    2    1    2    0    0  0.00000000000E+00  0.00000000000E+00 -0.27253632803E+02  0.12321992890E+04  0.12318978559E+04 0.  0.
        3    1    3    3  502    0 -0.43258869570E+03 -0.24831409837E+03 -0.37510174152E+03  0.62409470258E+03  0.10100000352E+00 0.  1.
       -3    1    3    3    0  502  0.43258869570E+03  0.24831409837E+03  0.34784810871E+03  0.60810458643E+03  0.10100000352E+00 0. -1.
</event>
<event>
 5   0  0.3706035E-03  0.1221837E+04  0.7818609E-02  0.9093954E-01
       -2   -1    0    0    0  501  0.00000000000E+00  0.00000000000E+00  0.33097914152E+03  0.33097914153E+03  0.25500000920E-02 0. -1.
        2   -1    0    0  501    0  0.00000000000E+00  0.00000000000E+00 -0.11276284826E+04  0.11276284826E+04  0.25500000920E-02 0.  1.
    10030    2    1    2    0    0  0.00000000000E+00  0.00000000000E+00 -0.79664934107E+03  0.14586076241E+04  0.12218371530E+04 0.  0.
        2    1    3    3  502    0  0.42326310533E+03  0.30664773377E+03 -0.20747679195E+02  0.52308216865E+03  0.25500000920E-02 0. -1.
       -2    1    3    3    0  502 -0.42326310533E+03 -0.30664773377E+03 -0.77590166187E+03  0.93552545548E+03  0.25500000920E-02 0.  1.
</event>
<event>
 5   0  0.3626049E-03  0.1005623E+04  0.7818609E-02  0.9302399E-01
       -2   -1    0    0    0  501  0.00000000000E+00  0.00000000000E+00  0.33650569463E+03  0.33650569464E+03  0.25500000920E-02 0.  1.
        2   -1    0    0  501    0  0.00000000000E+00  0.00000000000E+00 -0.75130834610E+03  0.75130834610E+03  0.25500000920E-02 0. -1.
    10030    2    1    2    0    0  0.00000000000E+00  0.00000000000E+00 -0.41480265146E+03  0.10878140407E+04  0.10056232632E+04 0.  0.
        1    1    3    3  502    0 -0.24120033089E+03  0.19568039666E+03  0.22032880694E+03  0.38080598794E+03  0.50400001928E-02 0.  1.
       -1    1    3    3    0  502  0.24120033089E+03 -0.19568039666E+03 -0.63513145840E+03  0.70700805281E+03  0.50400001928E-02 0. -1.
</event>
<event>
 5   0  0.3751091E-03  0.1065262E+04  0.7818609E-02  0.9239727E-01
        2   -1    0    0  501    0  0.00000000000E+00  0.00000000000E+00  0.64542143761E+03  0.64542143762E+03  0.25500000920E-02 0.  1.
       -2   -1    0    0    0  501  0.00000000000E+00  0.00000000000E+00 -0.43955125723E+03  0.43955125723E+03  0.25500000920E-02 0. -1.
    10030    2    1    2    0    0  0.00000000000E+00  0.00000000000E+00  0.20587018039E+03  0.10849726949E+04  0.10652620417E+04 0.  0.
        5    1    3    3  502    0  0.11942503552E+03 -0.38932014141E+03  0.45256690113E+03  0.60882789162E+03  0.46999998093E+01 0.  1.
       -5    1    3    3    0  502 -0.11942503552E+03  0.38932014141E+03 -0.24669672075E+03  0.47614480323E+03  0.46999998093E+01 0. -1.
</event>
<event>
 5   0  0.3650180E-03  0.1232597E+04  0.7818609E-02  0.9084794E-01
        2   -1    0    0  501    0  0.00000000000E+00  0.00000000000E+00  0.15906278503E+04  0.15906278503E+04  0.25500000920E-02 0.  1.
       -2   -1    0    0    0  501  0.00000000000E+00  0.00000000000E+00 -0.23878851152E+03  0.23878851154E+03  0.25500000920E-02 0. -1.
    10030    2    1    2    0    0  0.00000000000E+00  0.00000000000E+00  0.13518393388E+04  0.18294163619E+04  0.12325967009E+04 0.  0.
        3    1    3    3  502    0 -0.31593529114E+03  0.27659107076E+03  0.63741940287E+01  0.41995043655E+03  0.10100000352E+00 0. -1.
       -3    1    3    3    0  502  0.31593529114E+03 -0.27659107076E+03  0.13454651448E+04  0.14094659253E+04  0.10100000352E+00 0.  1.
</event>
<event>
 5   0  0.2047109E-03  0.1193371E+04  0.7818609E-02  0.9118679E-01
       -1   -1    0    0    0  501  0.00000000000E+00  0.00000000000E+00  0.40894292692E+03  0.40894292695E+03  0.50400001928E-02 0. -1.
        1   -1    0    0  501    0  0.00000000000E+00  0.00000000000E+00 -0.87061859682E+03  0.87061859683E+03  0.50400001928E-02 0.  1.
    10030    2    1    2    0    0  0.00000000000E+00  0.00000000000E+00 -0.46167566990E+03  0.12795615238E+04  0.11933705497E+04 0.  0.
        1    1    3    3  502    0 -0.10462420656E+02  0.28404552097E+02  0.40811913252E+03  0.40924015832E+03  0.50400001928E-02 0. -1.
       -1    1    3    3    0  502  0.10462420656E+02 -0.28404552097E+02 -0.86979480242E+03  0.87032136546E+03  0.50400001928E-02 0.  1.
</event>
<event>
 5   0  0.2078258E-03  0.1217202E+04  0.7818609E-02  0.9097931E-01
       -1   -1    0    0    0  501  0.00000000000E+00  0.00000000000E+00  0.26675370487E+03  0.26675370492E+03  0.50400001928E-02 0. -1.
        1   -1    0    0  501    0  0.00000000000E+00  0.00000000000E+00 -0.13885293202E+04  0.13885293202E+04  0.50400001928E-02 0.  1.
    10030    2    1    2    0    0  0.00000000000E+00  0.00000000000E+00 -0.11217756153E+04  0.16552830251E+04  0.12172022684E+04 0.  0.
        3    1    3    3  502    0  0.18611539984E+03  0.22083861839E+03 -0.12894059780E+04  0.13213540115E+04  0.10100000352E+00 0.  1.
       -3    1    3    3    0  502 -0.18611539984E+03 -0.22083861839E+03  0.16763036269E+03  0.33392901360E+03  0.10100000352E+00 0. -1.
</event>
<event>
 5   0  0.2025294E-03  0.1224837E+04  0.7818609E-02  0.9091390E-01
       -1   -1    0    0    0  501  0.00000000000E+00  0.00000000000E+00  0.24335772396E+03  0.24335772401E+03  0.50400001928E-02 0.  1.
        1   -1    0    0  501    0  0.00000000000E+00  0.00000000000E+00 -0.15411734232E+04  0.15411734233E+04  0.50400001928E-02 0. -1.
    10030    2    1    2    0    0  0.00000000000E+00  0.00000000000E+00 -0.12978156993E+04  0.17845311473E+04  0.12248370611E+04 0.  0.
        5    1    3    3  502    0  0.41561547260E+03  0.27941076362E+03 -0.11624252447E+04  0.12657255371E+04  0.46999998093E+01 0.  1.
       -5    1    3    3    0  502 -0.41561547260E+03 -0.27941076362E+03 -0.13539045460E+03  0.51880561012E+03  0.46999998093E+01 0. -1.
</event>
<event>
 5   0  0.2078258E-03  0.1257206E+04  0.7818609E-02  0.9064207E-01
        1   -1    0    0  501    0  0.00000000000E+00  0.00000000000E+00  0.47674891336E+03  0.47674891339E+03  0.50400001928E-02 0. -1.
       -1   -1    0    0    0  501  0.00000000000E+00  0.00000000000E+00 -0.82882625885E+03  0.82882625886E+03  0.50400001928E-02 0.  1.
    10030    2    1    2    0    0  0.00000000000E+00  0.00000000000E+00 -0.35207734548E+03  0.13055751723E+04  0.12572064561E+04 0.  0.
        3    1    3    3  502    0  0.36002949794E+03 -0.43978837267E+03  0.10281981066E+03  0.57758720189E+03  0.10100000352E+00 0. -1.
       -3    1    3    3    0  502 -0.36002949794E+03  0.43978837267E+03 -0.45489715614E+03  0.72798797036E+03  0.10100000352E+00 0.  1.
</event>
<event>
 5   0  0.3706035E-03  0.1168614E+04  0.7818609E-02  0.9140781E-01
        2   -1    0    0  501    0  0.00000000000E+00  0.00000000000E+00  0.18816889131E+04  0.18816889131E+04  0.25500000920E-02 0. -1.
       -2   -1    0    0    0  501  0.00000000000E+00  0.00000000000E+00 -0.18144067077E+03  0.18144067078E+03  0.25500000920E-02 0.  1.
    10030    2    1    2    0    0  0.00000000000E+00  0.00000000000E+00  0.17002482423E+04  0.20631295839E+04  0.11686143908E+04 0.  0.
        2    1    3    3  502    0  0.38827064139E+03 -0.35718186150E+03  0.12935364322E+04  0.13969858534E+04  0.25500000920E-02 0. -1.
       -2    1    3    3    0  502 -0.38827064139E+03  0.35718186150E+03  0.40671181010E+03  0.66614373046E+03  0.25500000920E-02 0.  1.
</event>
<event>
 5   0  0.3650180E-03  0.1215757E+04  0.7818609E-02  0.9099175E-01
        2   -1    0    0  501    0  0.00000000000E+00  0.00000000000E+00  0.20418611184E+04  0.20418611184E+04  0.25500000920E-02 0.  1.
       -2   -1    0    0    0  501  0.00000000000E+00  0.00000000000E+00 -0.18097038048E+03  0.18097038049E+03  0.25500000920E-02 0. -1.
    10030    2    1    2    0    0  0.00000000000E+00  0.00000000000E+00  0.18608907379E+04  0.22228314989E+04  0.12157571855E+04 0.  0.
        3    1    3    3  502    0  0.58831232729E+03 -0.12530079442E+02  0.12092193720E+04  0.13447973443E+04  0.10100000352E+00 0.  1.
       -3    1    3    3    0  502 -0.58831232729E+03  0.12530079442E+02  0.65167136594E+03  0.87803415464E+03  0.10100000352E+00 0. -1.
</event>
<event>
 5   0  0.2078258E-03  0.1199859E+04  0.7818609E-02  0.9112980E-01
        1   -1    0    0  501    0  0.00000000000E+00  0.00000000000E+00  0.71868891042E+03  0.71868891044E+03  0.50400001928E-02 0.  1.
       -1   -1    0    0    0  501  0.00000000000E+00  0.00000000000E+00 -0.50079423142E+03  0.50079423144E+03  0.50400001928E-02 0. -1.
    10030    2    1    2    0    0  0.00000000000E+00  0.00000000000E+00  0.21789467900E+03  0.12194831419E+04  0.11998587593E+04 0.  0.
        3    1    3    3  502    0  0.19801690078E+02  0.38412449537E+03  0.57688115093E+03  0.69335099868E+03  0.10100000352E+00 0.  1.
       -3    1    3    3    0  502 -0.19801690078E+02 -0.38412449537E+03 -0.35898647193E+03  0.52613214320E+03  0.10100000352E+00 0. -1.
</event>
<event>
 5   0  0.2096270E-03  0.1209215E+04  0.7818609E-02  0.9104829E-01
        1   -1    0    0  501    0  0.00000000000E+00  0.00000000000E+00  0.10749998786E+04  0.10749998787E+04  0.50400001928E-02 0. -1.
       -1   -1    0    0    0  501  0.00000000000E+00  0.00000000000E+00 -0.34004667595E+03  0.34004667599E+03  0.50400001928E-02 0.  1.
    10030    2    1    2    0    0  0.00000000000E+00  0.00000000000E+00  0.73495320270E+03  0.14150465546E+04  0.12092148451E+04 0.  0.
        2    1    3    3  502    0 -0.44528585186E+03  0.16779230289E+03  0.80394861843E+03  0.93422006393E+03  0.25500000920E-02 0. -1.
       -2    1    3    3    0  502  0.44528585186E+03 -0.16779230289E+03 -0.68995415728E+02  0.48082649072E+03  0.25500000920E-02 0.  1.
</event>
<event>
 5   0  0.3706035E-03  0.1200800E+04  0.7818609E-02  0.9112156E-01
        2   -1    0    0  501    0  0.00000000000E+00  0.00000000000E+00  0.12113836575E+04  0.12113836575E+04  0.25500000920E-02 0.  1.
       -2   -1    0    0    0  501  0.00000000000E+00  0.00000000000E+00 -0.29757742607E+03  0.29757742608E+03  0.25500000920E-02 0. -1.
    10030    2    1    2    0    0  0.00000000000E+00  0.00000000000E+00  0.91380623143E+03  0.15089610836E+04  0.12008004510E+04 0.  0.
        2    1    3    3  502    0 -0.25139879548E+03  0.31318145760E+03 -0.10394852580E+03  0.41483644461E+03  0.25500000920E-02 0. -1.
       -2    1    3    3    0  502  0.25139879548E+03 -0.31318145760E+03  0.10177547572E+04  0.10941246390E+04  0.25500000920E-02 0.  1.
</event>
<event>
 5   0  0.2134992E-03  0.1178703E+04  0.7818609E-02  0.9131704E-01
        1   -1    0    0  501    0  0.00000000000E+00  0.00000000000E+00  0.89722373265E+03  0.89722373266E+03  0.50400001928E-02 0. -1.
       -1   -1    0    0    0  501  0.00000000000E+00  0.00000000000E+00 -0.38712248760E+03  0.38712248763E+03  0.50400001928E-02 0.  1.
    10030    2    1    2    0    0  0.00000000000E+00  0.00000000000E+00  0.51010124505E+03  0.12843462203E+04  0.11787034968E+04 0.  0.
        4    1    3    3  502    0  0.55959996958E+02  0.54518191625E+03  0.18878000829E+02  0.54837289766E+03  0.12699999809E+01 0.  1.
       -4    1    3    3    0  502 -0.55959996958E+02 -0.54518191625E+03  0.49122324422E+03  0.73597332263E+03  0.12699999809E+01 0. -1.
</event>
<event>
 5   0  0.1397500E-03  0.1193238E+04  0.7818609E-02  0.9118796E-01
       -3   -1    0    0    0  501  0.00000000000E+00  0.00000000000E+00  0.50684552638E+03  0.50684553644E+03  0.10100000352E+00 0.  1.
        3   -1    0    0  501    0  0.00000000000E+00  0.00000000000E+00 -0.70229276132E+03  0.70229276859E+03  0.10100000352E+00 0. -1.
    10030    2    1    2    0    0  0.00000000000E+00  0.00000000000E+00 -0.19544723494E+03  0.12091383050E+04  0.11932375367E+04 0.  0.
        3    1    3    3  502    0  0.51631243971E+03 -0.19657854294E+03  0.13051613476E+03  0.56767607892E+03  0.10100000352E+00 0.  1.
       -3    1    3    3    0  502 -0.51631243971E+03  0.19657854294E+03 -0.32596336970E+03  0.64146222611E+03  0.10100000352E+00 0. -1.
</event>
<event>
 5   0  0.3626049E-03  0.1183979E+04  0.7818609E-02  0.9126996E-01
        2   -1    0    0  501    0  0.00000000000E+00  0.00000000000E+00  0.25651228342E+04  0.25651228342E+04  0.25500000920E-02 0. -1.
       -2   -1    0    0    0  501  0.00000000000E+00  0.00000000000E+00 -0.13662180504E+03  0.13662180507E+03  0.25500000920E-02 0.  1.
    10030    2    1    2    0    0  0.00000000000E+00  0.00000000000E+00  0.24285010292E+04  0.27017446393E+04  0.11839792427E+04 0.  0.
        1    1    3    3  502    0 -0.30294698724E+03  0.91175796617E+02  0.23560352963E+04  0.23771815708E+04  0.50400001928E-02 0. -1.
       -1    1    3    3    0  502  0.30294698724E+03 -0.91175796617E+02  0.72465732851E+02  0.32456306849E+03  0.50400001928E-02 0.  1.
</event>
<event>
 5   0  0.2134992E-03  0.1154229E+04  0.7818609E-02  0.9153891E-01
        1   -1    0    0  501    0  0.00000000000E+00  0.00000000000E+00  0.63771727308E+03  0.63771727310E+03  0.50400001928E-02 0. -1.
       -1   -1    0    0    0  501  0.00000000000E+00  0.00000000000E+00 -0.52227098823E+03  0.52227098825E+03  0.50400001928E-02 0.  1.
    10030    2    1    2    0    0  0.00000000000E+00  0.00000000000E+00  0.11544628484E+03  0.11599882614E+04  0.11542291461E+04 0.  0.
        4    1    3    3  502    0  0.12704781496E+03  0.19489402163E+03 -0.47305484145E+03  0.52716915963E+03  0.12699999809E+01 0.  1.
       -4    1    3    3    0  502 -0.12704781496E+03 -0.19489402163E+03  0.58850112629E+03  0.63281910172E+03  0.12699999809E+01 0. -1.
</event>
<event>
 5   0  0.2078258E-03  0.1059919E+04  0.7818609E-02  0.9245163E-01
        1   -1    0    0  501    0  0.00000000000E+00  0.00000000000E+00  0.16889074602E+04  0.16889074602E+04  0.50400001928E-02 0.  1.
       -1   -1    0    0    0  501  0.00000000000E+00  0.00000000000E+00 -0.16629517546E+03  0.16629517554E+03  0.50400001928E-02 0. -1.
    10030    2    1    2    0    0  0.00000000000E+00  0.00000000000E+00  0.15226122847E+04  0.18552026357E+04  0.10599191714E+04 0.  0.
        3    1    3    3  502    0  0.28865949118E+03  0.50008491206E+02  0.15342919918E+04  0.15620105881E+04  0.10100000352E+00 0.  1.
       -3    1    3    3    0  502 -0.28865949118E+03 -0.50008491206E+02 -0.11679707059E+02  0.29319204764E+03  0.10100000352E+00 0. -1.
</event>
<event>
 5   0  0.2096270E-03  0.1202999E+04  0.7818609E-02  0.9110235E-01
       -1   -1    0    0    0  501  0.00000000000E+00  0.00000000000E+00  0.20640229263E+03  0.20640229269E+03  0.50400001928E-02 0. -1.
        1   -1    0    0  501    0  0.00000000000E+00  0.00000000000E+00 -0.17528962742E+04  0.17528962742E+04  0.50400001928E-02 0.  1.
    10030    2    1    2    0    0  0.00000000000E+00  0.00000000000E+00 -0.15464939816E+04  0.19592985669E+04  0.12029992682E+04 0.  0.
        2    1    3    3  502    0 -0.27977474801E+03 -0.41964247950E+03 -0.23942779833E+03  0.55830044855E+03  0.25500000920E-02 0.  1.
       -2    1    3    3    0  502  0.27977474801E+03  0.41964247950E+03 -0.13070661832E+04  0.14009981183E+04  0.25500000920E-02 0. -1.
</event>
<event>
 5   0  0.3626049E-03  0.1187029E+04  0.7818609E-02  0.9124286E-01
       -2   -1    0    0    0  501  0.00000000000E+00  0.00000000000E+00  0.38126329059E+03  0.38126329060E+03  0.25500000920E-02 0.  1.
        2   -1    0    0  501    0  0.00000000000E+00  0.00000000000E+00 -0.92392725302E+03  0.92392725303E+03  0.25500000920E-02 0. -1.
    10030    2    1    2    0    0  0.00000000000E+00  0.00000000000E+00 -0.54266396243E+03  0.13051905436E+04  0.11870291399E+04 0.  0.
        1    1    3    3  502    0 -0.21470124689E+03  0.53494344243E+03 -0.11583909719E+03  0.58794541284E+03  0.50400001928E-02 0. -1.
       -1    1    3    3    0  502  0.21470124689E+03 -0.53494344243E+03 -0.42682486525E+03  0.71724513079E+03  0.50400001928E-02 0.  1.
</event>
<event>
 5   0  0.3751091E-03  0.1208762E+04  0.7818609E-02  0.9105221E-01
       -2   -1    0    0    0  501  0.00000000000E+00  0.00000000000E+00  0.67137491924E+03  0.67137491924E+03  0.25500000920E-02 0. -1.
        2   -1    0    0  501    0  0.00000000000E+00  0.00000000000E+00 -0.54407224616E+03  0.54407224617E+03  0.25500000920E-02 0.  1.
    10030    2    1    2    0    0  0.00000000000E+00  0.00000000000E+00  0.12730267308E+03  0.12154471654E+04  0.12087621111E+04 0.  0.
        5    1    3    3  502    0 -0.43021656266E+03 -0.20792463963E+03  0.43574575174E+03  0.64669575282E+03  0.46999998093E+01 0. -1.
       -5    1    3    3    0  502  0.43021656266E+03  0.20792463963E+03 -0.30844307867E+03  0.56875141259E+03  0.46999998093E+01 0.  1.
</event>
<event>
 5   0  0.2025294E-03  0.1214964E+04  0.7818609E-02  0.9099859E-01
       -1   -1    0    0    0  501  0.00000000000E+00  0.00000000000E+00  0.10345200925E+04  0.10345200925E+04  0.50400001928E-02 0.  1.
        1   -1    0    0  501    0  0.00000000000E+00  0.00000000000E+00 -0.35672028158E+03  0.35672028162E+03  0.50400001928E-02 0. -1.
    10030    2    1    2    0    0  0.00000000000E+00  0.00000000000E+00  0.67779981092E+03  0.13912403741E+04  0.12149638657E+04 0.  0.
        5    1    3    3  502    0 -0.89876165466E+02 -0.36875079569E+03  0.88201126855E+03  0.96021916367E+03  0.46999998093E+01 0.  1.
       -5    1    3    3    0  502  0.89876165466E+02  0.36875079569E+03 -0.20421145763E+03  0.43102121046E+03  0.46999998093E+01 0. -1.
</event>
<event>
 5   0  0.3725376E-03  0.1226438E+04  0.7818609E-02  0.9090025E-01
        2   -1    0    0  501    0  0.00000000000E+00  0.00000000000E+00  0.76317625457E+03  0.76317625457E+03  0.25500000920E-02 0. -1.
       -2   -1    0    0    0  501  0.00000000000E+00  0.00000000000E+00 -0.49272698252E+03  0.49272698253E+03  0.25500000920E-02 0.  1.
    10030    2    1    2    0    0  0.00000000000E+00  0.00000000000E+00  0.27044927204E+03  0.12559032371E+04  0.12264379855E+04 0.  0.
        4    1    3    3  502    0 -0.12519108385E+03  0.11760082034E+03  0.73803815855E+03  0.75776295555E+03  0.12699999809E+01 0. -1.
       -4    1    3    3    0  502  0.12519108385E+03 -0.11760082034E+03 -0.46758888651E+03  0.49814028155E+03  0.12699999809E+01 0.  1.
</event>
<event>
 5   0  0.2047109E-03  0.1222221E+04  0.7818609E-02  0.9093626E-01
       -1   -1    0    0    0  501  0.00000000000E+00  0.00000000000E+00  0.10981166913E+04  0.10981166913E+04  0.50400001928E-02 0.  1.
        1   -1    0    0  501    0  0.00000000000E+00  0.00000000000E+00 -0.34008757840E+03  0.34008757844E+03  0.50400001928E-02 0. -1.
    10030    2    1    2    0    0  0.00000000000E+00  0.00000000000E+00  0.75802911292E+03  0.14382042698E+04  0.12222206779E+04 0.  0.
        1    1    3    3  502    0  0.14294883851E+03  0.41011660293E+03  0.88490013666E+03  0.98573741449E+03  0.50400001928E-02 0.  1.
       -1    1    3    3    0  502 -0.14294883851E+03 -0.41011660293E+03 -0.12687102375E+03  0.45246685528E+03  0.50400001928E-02 0. -1.
</event>
<event>
 5   0  0.2025294E-03  0.1208007E+04  0.7818609E-02  0.9105877E-01
       -1   -1    0    0    0  501  0.00000000000E+00  0.00000000000E+00  0.35802121503E+03  0.35802121507E+03  0.50400001928E-02 0.  1.
        1   -1    0    0  501    0  0.00000000000E+00  0.00000000000E+00 -0.10189906442E+04  0.10189906442E+04  0.50400001928E-02 0. -1.
    10030    2    1    2    0    0  0.00000000000E+00  0.00000000000E+00 -0.66096942913E+03  0.13770118592E+04  0.12080070671E+04 0.  0.
        5    1    3    3  502    0  0.39701938604E+03  0.18594388507E+03  0.14308826157E+03  0.46118961598E+03  0.46999998093E+01 0.  1.
       -5    1    3    3    0  502 -0.39701938604E+03 -0.18594388507E+03 -0.80405769070E+03  0.91582224327E+03  0.46999998093E+01 0. -1.
</event>
<event>
 5   0  0.2096270E-03  0.1241177E+04  0.7818609E-02  0.9077559E-01
        1   -1    0    0  501    0  0.00000000000E+00  0.00000000000E+00  0.28598588051E+03  0.28598588055E+03  0.50400001928E-02 0.  1.
       -1   -1    0    0    0  501  0.00000000000E+00  0.00000000000E+00 -0.13466757621E+04  0.13466757621E+04  0.50400001928E-02 0. -1.
    10030    2    1    2    0    0  0.00000000000E+00  0.00000000000E+00 -0.10606898816E+04  0.16326616426E+04  0.12411772696E+04 0.  0.
        2    1    3    3  502    0  0.55782239078E+03  0.17811540087E+03 -0.80069155031E+03  0.99196667002E+03  0.25500000920E-02 0. -1.
       -2    1    3    3    0  502 -0.55782239078E+03 -0.17811540087E+03 -0.25999833127E+03  0.64069497263E+03  0.25500000920E-02 0.  1.
</event>
<event>
 5   0  0.2096270E-03  0.1188765E+04  0.7818609E-02  0.9122748E-01
        1   -1    0    0  501    0  0.00000000000E+00  0.00000000000E+00  0.44435445336E+03  0.44435445339E+03  0.50400001928E-02 0.  1.
       -1   -1    0    0    0  501  0.00000000000E+00  0.00000000000E+00 -0.79506450979E+03  0.79506450981E+03  0.50400001928E-02 0. -1.
    10030    2    1    2    0    0  0.00000000000E+00  0.00000000000E+00 -0.35071005643E+03  0.12394189632E+04  0.11887648307E+04 0.  0.
        2    1    3    3  502    0 -0.57109942406E+03 -0.61121933986E+02 -0.33484384453E+03  0.66483896036E+03  0.25500000920E-02 0. -1.
       -2    1    3    3    0  502  0.57109942406E+03  0.61121933986E+02 -0.15866211893E+02  0.57458000284E+03  0.25500000920E-02 0.  1.
</event>
<event>
 5   0  0.2025294E-03  0.1179316E+04  0.7818609E-02  0.9131156E-01
        1   -1    0    0  501    0  0.00000000000E+00  0.00000000000E+00  0.24594115269E+03  0.24594115274E+03  0.50400001928E-02 0. -1.
       -1   -1    0    0    0  501  0.00000000000E+00  0.00000000000E+00 -0.14137397899E+04  0.14137397899E+04  0.50400001928E-02 0.  1.
    10030    2    1    2    0    0  0.00000000000E+00  0.00000000000E+00 -0.11677986372E+04  0.16596809426E+04  0.11793164013E+04 0.  0.
        5    1    3    3  502    0  0.36562732504E+02 -0.55312747072E+03 -0.30107304563E+03  0.63083587492E+03  0.46999998093E+01 0.  1.
       -5    1    3    3    0  502 -0.36562732504E+02  0.55312747072E+03 -0.86672559153E+03  0.10288450677E+04  0.46999998093E+01 0. -1.
</event>
<event>
 5   0  0.2025294E-03  0.1202677E+04  0.7818609E-02  0.9110517E-01
       -1   -1    0    0    0  501  0.00000000000E+00  0.00000000000E+00  0.22263884304E+03  0.22263884310E+03  0.50400001928E-02 0.  1.
        1   -1    0    0  501    0  0.00000000000E+00  0.00000000000E+00 -0.16241896008E+04  0.16241896008E+04  0.50400001928E-02 0. -1.
    10030    2    1    2    0    0  0.00000000000E+00  0.00000000000E+00 -0.14015507577E+04  0.18468284439E+04  0.12026765046E+04 0.  0.
        5    1    3    3  502    0  0.29050566689E+03  0.83330763018E+02  0.97511532250E+02  0.31759746139E+03  0.46999998093E+01 0.  1.
       -5    1    3    3    0  502 -0.29050566689E+03 -0.83330763018E+02 -0.14990622900E+04  0.15292309825E+04  0.46999998093E+01 0. -1.
</event>
<event>
 5   0  0.2096270E-03  0.1204115E+04  0.7818609E-02  0.9109263E-01
        1   -1    0    0  501    0  0.00000000000E+00  0.00000000000E+00  0.87147059271E+03  0.87147059273E+03  0.50400001928E-02 0.  1.
       -1   -1    0    0    0  501  0.00000000000E+00  0.00000000000E+00 -0.41593260268E+03  0.41593260271E+03  0.50400001928E-02 0. -1.
    10030    2    1    2    0    0  0.00000000000E+00  0.00000000000E+00  0.45553799004E+03  0.12874031954E+04  0.12041146653E+04 0.  0.
        2    1    3    3  502    0  0.52901348335E+03 -0.14177050180E+02 -0.79171756173E+02  0.53509290904E+03  0.25500000920E-02 0.  1.
       -2    1    3    3    0  502 -0.52901348335E+03  0.14177050180E+02  0.53470974621E+03  0.75231028640E+03  0.25500000920E-02 0. -1.
</event>
<event>
 5   0  0.2096270E-03  0.1188470E+04  0.7818609E-02  0.9123009E-01
       -1   -1    0    0    0  501  0.00000000000E+00  0.00000000000E+00  0.34152192944E+03  0.34152192948E+03  0.50400001928E-02 0. -1.
        1   -1    0    0  501    0  0.00000000000E+00  0.00000000000E+00 -0.10339465760E+04  0.10339465761E+04  0.50400001928E-02 0.  1.
    10030    2    1    2    0    0  0.00000000000E+00  0.00000000000E+00 -0.69242464660E+03  0.13754685055E+04  0.11884703272E+04 0.  0.
        2    1    3    3  502    0  0.59715158374E+02 -0.42751508375E+03 -0.81885702144E+03  0.92566833615E+03  0.25500000920E-02 0.  1.
       -2    1    3    3    0  502 -0.59715158374E+02  0.42751508375E+03  0.12643237484E+03  0.44980016940E+03  0.25500000920E-02 0. -1.
</event>
<event>
 5   0  0.1397500E-03  0.9946075E+03  0.7818609E-02  0.9314479E-01
        4   -1    0    0  501    0  0.00000000000E+00  0.00000000000E+00  0.50063355949E+03  0.50063517035E+03  0.12699999809E+01 0. -1.
       -4   -1    0    0    0  501  0.00000000000E+00  0.00000000000E+00 -0.49399284855E+03  0.49399448106E+03  0.12699999809E+01 0.  1.
    10030    2    1    2    0    0  0.00000000000E+00  0.00000000000E+00  0.66407109379E+01  0.99462965141E+03  0.99460748259E+03 0.  0.
        3    1    3    3  502    0 -0.10321433326E+03 -0.48097641357E+03 -0.69616117143E+02  0.49682786050E+03  0.10100000352E+00 0.  1.
       -3    1    3    3    0  502  0.10321433326E+03  0.48097641357E+03  0.76256828081E+02  0.49780179091E+03  0.10100000352E+00 0. -1.
</event>
<event>
 5   0  0.3626049E-03  0.1205045E+04  0.7818609E-02  0.9108452E-01
       -2   -1    0    0    0  501  0.00000000000E+00  0.00000000000E+00  0.29395176451E+03  0.29395176452E+03  0.25500000920E-02 0. -1.
        2   -1    0    0  501    0  0.00000000000E+00  0.00000000000E+00 -0.12350092905E+04  0.12350092905E+04  0.25500000920E-02 0.  1.
    10030    2    1    2    0    0  0.00000000000E+00  0.00000000000E+00 -0.94105752595E+03  0.15289610550E+04  0.12050446633E+04 0.  0.
        1    1    3    3  502    0  0.24403470712E+03  0.31951060030E+03 -0.10399264242E+04  0.11149380833E+04  0.50400001928E-02 0.  1.
       -1    1    3    3    0  502 -0.24403470712E+03 -0.31951060030E+03  0.98868898217E+02  0.41402297164E+03  0.50400001928E-02 0. -1.
</event>
<event>
 5   0  0.2025294E-03  0.1195796E+04  0.7818609E-02  0.9116544E-01
        1   -1    0    0  501    0  0.00000000000E+00  0.00000000000E+00  0.10254830149E+04  0.10254830149E+04  0.50400001928E-02 0. -1.
       -1   -1    0    0    0  501  0.00000000000E+00  0.00000000000E+00 -0.34859858759E+03  0.34859858763E+03  0.50400001928E-02 0.  1.
    10030    2    1    2    0    0  0.00000000000E+00  0.00000000000E+00  0.67688442729E+03  0.13740816025E+04  0.11957958532E+04 0.  0.
        5    1    3    3  502    0  0.44106835396E+03 -0.31414654312E+03  0.47218910255E+02  0.54358169478E+03  0.46999998093E+01 0.  1.
       -5    1    3    3    0  502 -0.44106835396E+03  0.31414654312E+03  0.62966551704E+03  0.83049990774E+03  0.46999998093E+01 0. -1.
</event>
<event>
 5   0  0.2096270E-03  0.1180190E+04  0.7818609E-02  0.9130375E-01
        1   -1    0    0  501    0  0.00000000000E+00  0.00000000000E+00  0.34229998140E+03  0.34229998144E+03  0.50400001928E-02 0. -1.
       -1   -1    0    0    0  501  0.00000000000E+00  0.00000000000E+00 -0.10172725465E+04  0.10172725465E+04  0.50400001928E-02 0.  1.
    10030    2    1    2    0    0  0.00000000000E+00  0.00000000000E+00 -0.67497256508E+03  0.13595725279E+04  0.11801904487E+04 0.  0.
        2    1    3    3  502    0 -0.20519253739E+03 -0.54607350838E+03 -0.43995627697E+03  0.73065845619E+03  0.25500000920E-02 0. -1.
       -2    1    3    3    0  502  0.20519253739E+03  0.54607350838E+03 -0.23501628811E+03  0.62891407174E+03  0.25500000920E-02 0.  1.
</event>
<event>
 5   0  0.2047109E-03  0.1223022E+04  0.7818609E-02  0.9092941E-01
       -1   -1    0    0    0  501  0.00000000000E+00  0.00000000000E+00  0.10488044322E+04  0.10488044322E+04  0.50400001928E-02 0. -1.
        1   -1    0    0  501    0  0.00000000000E+00  0.00000000000E+00 -0.35654460717E+03  0.35654460721E+03  0.50400001928E-02 0.  1.
    10030    2    1    2    0    0  0.00000000000E+00  0.00000000000E+00  0.69225982501E+03  0.14053490394E+04  0.12230217730E+04 0.  0.
        1    1    3    3  502    0  0.24122006211E+03 -0.31781283894E+03 -0.18637066422E+03  0.44037046162E+03  0.50400001928E-02 0.  1.
       -1    1    3    3    0  502 -0.24122006211E+03  0.31781283894E+03  0.87863048923E+03  0.96497857779E+03  0.50400001928E-02 0. -1.
</event>
<event>
 5   0  0.3751091E-03  0.1205306E+04  0.7818609E-02  0.9108225E-01
        2   -1    0    0  501    0  0.00000000000E+00  0.00000000000E+00  0.16089664652E+04  0.16089664652E+04  0.25500000920E-02 0. -1.
       -2   -1    0    0    0  501  0.00000000000E+00  0.00000000000E+00 -0.22572917461E+03  0.22572917462E+03  0.25500000920E-02 0.  1.
    10030    2    1    2    0    0  0.00000000000E+00  0.00000000000E+00  0.13832372906E+04  0.18346956398E+04  0.12053060560E+04 0.  0.
        5    1    3    3  502    0 -0.46249110728E+03 -0.25862092596E+03  0.11285294700E+04  0.12467492379E+04  0.46999998093E+01 0. -1.
       -5    1    3    3    0  502  0.46249110728E+03  0.25862092596E+03  0.25470782065E+03  0.58794640194E+03  0.46999998093E+01 0.  1.
</event>
<event>
 5   0  0.3751091E-03  0.1175092E+04  0.7818609E-02  0.9134942E-01
        2   -1    0    0  501    0  0.00000000000E+00  0.00000000000E+00  0.93909153873E+03  0.93909153873E+03  0.25500000920E-02 0.  1.
       -2   -1    0    0    0  501  0.00000000000E+00  0.00000000000E+00 -0.36760021658E+03  0.36760021658E+03  0.25500000920E-02 0. -1.
    10030    2    1    2    0    0  0.00000000000E+00  0.00000000000E+00  0.57149132215E+03  0.13066917553E+04  0.11750919165E+04 0.  0.
        5    1    3    3  502    0  0.28254120844E+02 -0.57426792092E+03  0.42013668751E+03  0.71212278895E+03  0.46999998093E+01 0. -1.
       -5    1    3    3    0  502 -0.28254120844E+02  0.57426792092E+03  0.15135463464E+03  0.59456896637E+03  0.46999998093E+01 0.  1.
</event>
<event>
 5   0  0.3725376E-03  0.1223173E+04  0.7818609E-02  0.9092812E-01
       -2   -1    0    0    0  501  0.00000000000E+00  0.00000000000E+00  0.29451251325E+03  0.29451251326E+03  0.25500000920E-02 0. -1.
        2   -1    0    0  501    0  0.00000000000E+00  0.00000000000E+00 -0.12700243671E+04  0.12700243671E+04  0.25500000920E-02 0.  1.
    10030    2    1    2    0    0  0.00000000000E+00  0.00000000000E+00 -0.97551185384E+03  0.15645368804E+04  0.12231730348E+04 0.  0.
        4    1    3    3  502    0  0.46983367210E+03  0.21687281531E+03 -0.90470276328E+03  0.10422409511E+04  0.12699999809E+01 0.  1.
       -4    1    3    3    0  502 -0.46983367210E+03 -0.21687281531E+03 -0.70809090566E+02  0.52229592921E+03  0.12699999809E+01 0. -1.
</event>
<event>
 5   0  0.2025294E-03  0.1207411E+04  0.7818609E-02  0.9106395E-01
        1   -1    0    0  501    0  0.00000000000E+00  0.00000000000E+00  0.72032119798E+03  0.72032119800E+03  0.50400001928E-02 0.  1.
       -1   -1    0    0    0  501  0.00000000000E+00  0.00000000000E+00 -0.50596883766E+03  0.50596883768E+03  0.50400001928E-02 0. -1.
    10030    2    1    2    0    0  0.00000000000E+00  0.00000000000E+00  0.21435236033E+03  0.12262900357E+04  0.12074105835E+04 0.  0.
        5    1    3    3  502    0 -0.25956938508E+03  0.30020264342E+03 -0.35484357401E+03  0.53238514706E+03  0.46999998093E+01 0. -1.
       -5    1    3    3    0  502  0.25956938508E+03 -0.30020264342E+03  0.56919593434E+03  0.69390488862E+03  0.46999998093E+01 0.  1.
</event>
<event>
 5   0  0.3706035E-03  0.1217856E+04  0.7818609E-02  0.9097370E-01
        2   -1    0    0  501    0  0.00000000000E+00  0.00000000000E+00  0.51382413342E+03  0.51382413343E+03  0.25500000920E-02 0. -1.
       -2   -1    0    0    0  501  0.00000000000E+00  0.00000000000E+00 -0.72163420239E+03  0.72163420239E+03  0.25500000920E-02 0.  1.
    10030    2    1    2    0    0  0.00000000000E+00  0.00000000000E+00 -0.20781006897E+03  0.12354583358E+04  0.12178556051E+04 0.  0.
        2    1    3    3  502    0 -0.35790063433E+03  0.22763477147E+03 -0.54712109908E+03  0.69228025416E+03  0.25500000920E-02 0.  1.
       -2    1    3    3    0  502  0.35790063433E+03 -0.22763477147E+03  0.33931103011E+03  0.54317808166E+03  0.25500000920E-02 0. -1.
</event>
<event>
 5   0  0.2096270E-03  0.1186381E+04  0.7818609E-02  0.9124861E-01
        1   -1    0    0  501    0  0.00000000000E+00  0.00000000000E+00  0.18770228534E+04  0.18770228534E+04  0.50400001928E-02 0.  1.
       -1   -1    0    0    0  501  0.00000000000E+00  0.00000000000E+00 -0.18746455815E+03  0.18746455822E+03  0.50400001928E-02 0. -1.
    10030    2    1    2    0    0  0.00000000000E+00  0.00000000000E+00  0.16895582952E+04  0.20644874116E+04  0.11863814900E+04 0.  0.
        2    1    3    3  502    0 -0.22510041759E+03 -0.95289128798E+02 -0.95750028240E+02  0.26252292086E+03  0.25500000920E-02 0. -1.
       -2    1    3    3    0  502  0.22510041759E+03  0.95289128798E+02  0.17853083235E+04  0.18019644908E+04  0.25500000920E-02 0.  1.
</event>
<event>
 5   0  0.3706035E-03  0.1180313E+04  0.7818609E-02  0.9130265E-01
        2   -1    0    0  501    0  0.00000000000E+00  0.00000000000E+00  0.92266540824E+03  0.92266540824E+03  0.25500000920E-02 0.  1.
       -2   -1    0    0    0  501  0.00000000000E+00  0.00000000000E+00 -0.37747695190E+03  0.37747695191E+03  0.25500000920E-02 0. -1.
    10030    2    1    2    0    0  0.00000000000E+00  0.00000000000E+00  0.54518845634E+03  0.13001423602E+04  0.11803133922E+04 0.  0.
        2    1    3    3  502    0 -0.32906740175E+03  0.11471473971E+03  0.79722467132E+03  0.87006436714E+03  0.25500000920E-02 0.  1.
       -2    1    3    3    0  502  0.32906740175E+03 -0.11471473971E+03 -0.25203621498E+03  0.43007799301E+03  0.25500000920E-02 0. -1.
</event>
<event>
 5   0  0.2025294E-03  0.1236647E+04  0.7818609E-02  0.9081371E-01
       -1   -1    0    0    0  501  0.00000000000E+00  0.00000000000E+00  0.23381699099E+03  0.23381699104E+03  0.50400001928E-02 0. -1.
        1   -1    0    0  501    0  0.00000000000E+00  0.00000000000E+00 -0.16351408688E+04  0.16351408688E+04  0.50400001928E-02 0.  1.
    10030    2    1    2    0    0  0.00000000000E+00  0.00000000000E+00 -0.14013238778E+04  0.18689578599E+04  0.12366466235E+04 0.  0.
        5    1    3    3  502    0  0.59854482326E+03 -0.14408163846E+03 -0.78729848782E+03  0.99943805357E+03  0.46999998093E+01 0. -1.
       -5    1    3    3    0  502 -0.59854482326E+03  0.14408163846E+03 -0.61402539002E+03  0.86951980632E+03  0.46999998093E+01 0.  1.
</event>
<event>
 5   0  0.3725376E-03  0.1161714E+04  0.7818609E-02  0.9147044E-01
        2   -1    0    0  501    0  0.00000000000E+00  0.00000000000E+00  0.25948950641E+04  0.25948950641E+04  0.25500000920E-02 0. -1.
       -2   -1    0    0    0  501  0.00000000000E+00  0.00000000000E+00 -0.13002255938E+03  0.13002255941E+03  0.25500000920E-02 0.  1.
    10030    2    1    2    0    0  0.00000000000E+00  0.00000000000E+00  0.24648725048E+04  0.27249176236E+04  0.11617140743E+04 0.  0.
        4    1    3    3  502    0  0.47212819538E+02 -0.12742301976E+03  0.25570833276E+04  0.25606917881E+04  0.12699999809E+01 0. -1.
       -4    1    3    3    0  502 -0.47212819538E+02  0.12742301976E+03 -0.92210822839E+02  0.16422583549E+03  0.12699999809E+01 0.  1.
</event>
<event>
 5   0  0.2047109E-03  0.1192577E+04  0.7818609E-02  0.9119378E-01
       -1   -1    0    0    0  501  0.00000000000E+00  0.00000000000E+00  0.49792792579E+03  0.49792792582E+03  0.50400001928E-02 0.  1.
        1   -1    0    0  501    0  0.00000000000E+00  0.00000000000E+00 -0.71407958312E+03  0.71407958314E+03  0.50400001928E-02 0. -1.
    10030    2    1    2    0    0  0.00000000000E+00  0.00000000000E+00 -0.21615165733E+03  0.12120075090E+04  0.11925773194E+04 0.  0.
        1    1    3    3  502    0 -0.11786224986E+03 -0.24250696615E+03  0.43243423760E+03  0.50960819111E+03  0.50400001928E-02 0.  1.
       -1    1    3    3    0  502  0.11786224986E+03  0.24250696615E+03 -0.64858589494E+03  0.70239931785E+03  0.50400001928E-02 0. -1.
</event>
<event>
 5   0  0.2025294E-03  0.1193024E+04  0.7818609E-02  0.9118985E-01
        1   -1    0    0  501    0  0.00000000000E+00  0.00000000000E+00  0.70540688048E+03  0.70540688049E+03  0.50400001928E-02 0.  1.
       -1   -1    0    0    0  501  0.00000000000E+00  0.00000000000E+00 -0.50442714700E+03  0.50442714703E+03  0.50400001928E-02 0. -1.
    10030    2    1    2    0    0  0.00000000000E+00  0.00000000000E+00  0.20097973347E+03  0.12098340275E+04  0.11930236883E+04 0.  0.
        5    1    3    3  502    0 -0.21151167433E+03 -0.55656551353E+03  0.13708056625E+03  0.61099552442E+03  0.46999998093E+01 0.  1.
       -5    1    3    3    0  502  0.21151167433E+03  0.55656551353E+03  0.63899167224E+02  0.59883850310E+03  0.46999998093E+01 0. -1.
</event>
<event>
 5   0  0.2047109E-03  0.1043792E+04  0.7818609E-02  0.9261777E-01
        1   -1    0    0  501    0  0.00000000000E+00  0.00000000000E+00  0.14460022662E+04  0.14460022663E+04  0.50400001928E-02 0.  1.
       -1   -1    0    0    0  501  0.00000000000E+00  0.00000000000E+00 -0.18836429218E+03  0.18836429225E+03  0.50400001928E-02 0. -1.
    10030    2    1    2    0    0  0.00000000000E+00  0.00000000000E+00  0.12576379741E+04  0.16343665585E+04  0.10437915375E+04 0.  0.
        1    1    3    3  502    0  0.15752446284E+02 -0.14461270145E+02 -0.18767805376E+03  0.18889234973E+03  0.50400001928E-02 0. -1.
       -1    1    3    3    0  502 -0.15752446284E+02  0.14461270145E+02  0.14453160278E+04  0.14454742088E+04  0.50400001928E-02 0.  1.
</event>
<event>
 5   0  0.3706035E-03  0.1055574E+04  0.7818609E-02  0.9249608E-01
        2   -1    0    0  501    0  0.00000000000E+00  0.00000000000E+00  0.11795358168E+04  0.11795358168E+04  0.25500000920E-02 0. -1.
       -2   -1    0    0    0  501  0.00000000000E+00  0.00000000000E+00 -0.23616014618E+03  0.23616014620E+03  0.25500000920E-02 0.  1.
    10030    2    1    2    0    0  0.00000000000E+00  0.00000000000E+00  0.94337567058E+03  0.14156959630E+04  0.10555744425E+04 0.  0.
        2    1    3    3  502    0 -0.50843316099E+03  0.31579433047E+02  0.65683524326E+03  0.83122444417E+03  0.25500000920E-02 0. -1.
       -2    1    3    3    0  502  0.50843316099E+03 -0.31579433047E+02  0.28654042732E+03  0.58447151880E+03  0.25500000920E-02 0.  1.
</event>
<event>
 5   0  0.3650180E-03  0.1197106E+04  0.7818609E-02  0.9115393E-01
       -2   -1    0    0    0  501  0.00000000000E+00  0.00000000000E+00  0.17370495499E+03  0.17370495501E+03  0.25500000920E-02 0.  1.
        2   -1    0    0  501    0  0.00000000000E+00  0.00000000000E+00 -0.20624964394E+04  0.20624964394E+04  0.25500000920E-02 0. -1.
    10030    2    1    2    0    0  0.00000000000E+00  0.00000000000E+00 -0.18887914844E+04  0.22362013944E+04  0.11971062629E+04 0.  0.
        3    1    3    3  502    0  0.31370578478E+03  0.39570069821E+03 -0.34408402525E+03  0.61105170697E+03  0.10100000352E+00 0.  1.
       -3    1    3    3    0  502 -0.31370578478E+03 -0.39570069821E+03 -0.15447074591E+04  0.16251496874E+04  0.10100000352E+00 0. -1.
</event>
<event>
 5   0  0.2025294E-03  0.1223112E+04  0.7818609E-02  0.9092863E-01
       -1   -1    0    0    0  501  0.00000000000E+00  0.00000000000E+00  0.47772855340E+03  0.47772855342E+03  0.50400001928E-02 0.  1.
        1   -1    0    0  501    0  0.00000000000E+00  0.00000000000E+00 -0.78287344010E+03  0.78287344012E+03  0.50400001928E-02 0. -1.
    10030    2    1    2    0    0  0.00000000000E+00  0.00000000000E+00 -0.30514488671E+03  0.12606019935E+04  0.12231124168E+04 0.  0.
        5    1    3    3  502    0 -0.16103975188E+02 -0.59445047168E+03 -0.55530371929E+01  0.59471306318E+03  0.46999998093E+01 0. -1.
       -5    1    3    3    0  502  0.16103975188E+02  0.59445047168E+03 -0.29959184951E+03  0.66588893037E+03  0.46999998093E+01 0.  1.
</event>
<event>
 5   0  0.3751091E-03  0.1164180E+04  0.7818609E-02  0.9144801E-01
       -2   -1    0    0    0  501  0.00000000000E+00  0.00000000000E+00  0.31401841612E+03  0.31401841613E+03  0.25500000920E-02 0. -1.
        2   -1    0    0  501    0  0.00000000000E+00  0.00000000000E+00 -0.10790083739E+04  0.10790083739E+04  0.25500000920E-02 0.  1.
    10030    2    1    2    0    0  0.00000000000E+00  0.00000000000E+00 -0.76498995778E+03  0.13930267900E+04  0.11641795404E+04 0.  0.
        5    1    3    3  502    0  0.10682219166E+03 -0.47572091167E+03 -0.76293216306E+03  0.90543301346E+03  0.46999998093E+01 0.  1.
       -5    1    3    3    0  502 -0.10682219166E+03  0.47572091167E+03 -0.20577947259E+01  0.48759377657E+03  0.46999998093E+01 0. -1.
</event>
<event>
 5   0  0.3751091E-03  0.1210676E+04  0.7818609E-02  0.9103563E-01
       -2   -1    0    0    0  501  0.00000000000E+00  0.00000000000E+00  0.20212905057E+03  0.20212905058E+03  0.25500000920E-02 0. -1.
        2   -1    0    0  501    0  0.00000000000E+00  0.00000000000E+00 -0.18128730882E+04  0.18128730882E+04  0.25500000920E-02 0.  1.
    10030    2    1    2    0    0  0.00000000000E+00  0.00000000000E+00 -0.16107440376E+04  0.20150021387E+04  0.12106763665E+04 0.  0.
        5    1    3    3  502    0 -0.56763655806E+03  0.10571716064E+03 -0.11078319489E+04  0.12492802316E+04  0.46999998093E+01 0.  1.
       -5    1    3    3    0  502  0.56763655806E+03 -0.10571716064E+03 -0.50291208866E+03  0.76572190710E+03  0.46999998093E+01 0. -1.
</event>
<event>
 5   0  0.3751091E-03  0.1195194E+04  0.7818609E-02  0.9117074E-01
        2   -1    0    0  501    0  0.00000000000E+00  0.00000000000E+00  0.66266764405E+03  0.66266764406E+03  0.25500000920E-02 0. -1.
       -2   -1    0    0    0  501  0.00000000000E+00  0.00000000000E+00 -0.53891600708E+03  0.53891600709E+03  0.25500000920E-02 0.  1.
    10030    2    1    2    0    0  0.00000000000E+00  0.00000000000E+00  0.12375163697E+03  0.12015836511E+04  0.11951940441E+04 0.  0.
        5    1    3    3  502    0 -0.24819293434E+03  0.28693406433E+03 -0.40229500590E+03  0.55298666503E+03  0.46999998093E+01 0.  1.
       -5    1    3    3    0  502  0.24819293434E+03 -0.28693406433E+03  0.52604664287E+03  0.64859698612E+03  0.46999998093E+01 0. -1.
</event>
<event>
 5   0  0.2047109E-03  0.1202732E+04  0.7818609E-02  0.9110469E-01
        1   -1    0    0  501    0  0.00000000000E+00  0.00000000000E+00  0.95917680981E+03  0.95917680982E+03  0.50400001928E-02 0. -1.
       -1   -1    0    0    0  501  0.00000000000E+00  0.00000000000E+00 -0.37703262735E+03  0.37703262738E+03  0.50400001928E-02 0.  1.
    10030    2    1    2    0    0  0.00000000000E+00  0.00000000000E+00  0.58214418246E+03  0.13362094372E+04  0.12027318117E+04 0.  0.
        1    1    3    3  502    0 -0.28005135726E+03  0.30408418852E+03 -0.19414078101E+03  0.45671281927E+03  0.50400001928E-02 0.  1.
       -1    1    3    3    0  502  0.28005135726E+03 -0.30408418852E+03  0.77628496347E+03  0.87949661793E+03  0.50400001928E-02 0. -1.
</event>
<event>
 5   0  0.3725376E-03  0.1199612E+04  0.7818609E-02  0.9113196E-01
        2   -1    0    0  501    0  0.00000000000E+00  0.00000000000E+00  0.89038008043E+03  0.89038008043E+03  0.25500000920E-02 0. -1.
       -2   -1    0    0    0  501  0.00000000000E+00  0.00000000000E+00 -0.40406060133E+03  0.40406060134E+03  0.25500000920E-02 0.  1.
    10030    2    1    2    0    0  0.00000000000E+00  0.00000000000E+00  0.48631947909E+03  0.12944406818E+04  0.11996124553E+04 0.  0.
        4    1    3    3  502    0 -0.30888259987E+03 -0.10357294349E+03 -0.30026770651E+03  0.44305544077E+03  0.12699999809E+01 0.  1.
       -4    1    3    3    0  502  0.30888259987E+03  0.10357294349E+03  0.78658718561E+03  0.85138524100E+03  0.12699999809E+01 0. -1.
</event>
<event>
 5   0  0.2047109E-03  0.1196608E+04  0.7818609E-02  0.9115831E-01
       -1   -1    0    0    0  501  0.00000000000E+00  0.00000000000E+00  0.35859739589E+03  0.35859739592E+03  0.50400001928E-02 0.  1.
        1   -1    0    0  501    0  0.00000000000E+00  0.00000000000E+00 -0.99824380258E+03  0.99824380260E+03  0.50400001928E-02 0. -1.
    10030    2    1    2    0    0  0.00000000000E+00  0.00000000000E+00 -0.63964640669E+03  0.13568411985E+04  0.11966079192E+04 0.  0.
        1    1    3    3  502    0 -0.13823289407E+03  0.51750112090E+03 -0.17574148786E+02  0.53593338566E+03  0.50400001928E-02 0.  1.
       -1    1    3    3    0  502  0.13823289407E+03 -0.51750112090E+03 -0.62207225791E+03  0.82090781286E+03  0.50400001928E-02 0. -1.
</event>
<event>
 5   0  0.2078258E-03  0.1197296E+04  0.7818609E-02  0.9115226E-01
       -1   -1    0    0    0  501  0.00000000000E+00  0.00000000000E+00  0.28485537669E+03  0.28485537674E+03  0.50400001928E-02 0.  1.
        1   -1    0    0  501    0  0.00000000000E+00  0.00000000000E+00 -0.12581105983E+04  0.12581105983E+04  0.50400001928E-02 0. -1.
    10030    2    1    2    0    0  0.00000000000E+00  0.00000000000E+00 -0.97325522162E+03  0.15429659751E+04  0.11972962348E+04 0.  0.
        3    1    3    3  502    0 -0.35478180666E+03 -0.41976081713E+03 -0.79243543484E+03  0.96437710598E+03  0.10100000352E+00 0. -1.
       -3    1    3    3    0  502  0.35478180666E+03  0.41976081713E+03 -0.18081978678E+03  0.57858886908E+03  0.10100000352E+00 0.  1.
</event>
<event>
 5   0  0.2096270E-03  0.1190812E+04  0.7818609E-02  0.9120937E-01
       -1   -1    0    0    0  501  0.00000000000E+00  0.00000000000E+00  0.41525698885E+03  0.41525698888E+03  0.50400001928E-02 0.  1.
        1   -1    0    0  501    0  0.00000000000E+00  0.00000000000E+00 -0.85370815877E+03  0.85370815878E+03  0.50400001928E-02 0. -1.
    10030    2    1    2    0    0  0.00000000000E+00  0.00000000000E+00 -0.43845116991E+03  0.12689651477E+04  0.11908119573E+04 0.  0.
        2    1    3    3  502    0  0.24489284652E+03 -0.49487208562E+03  0.18190962411E+02  0.55245072044E+03  0.25500000920E-02 0.  1.
       -2    1    3    3    0  502 -0.24489284652E+03  0.49487208562E+03 -0.45664213232E+03  0.71651442722E+03  0.25500000920E-02 0. -1.
</event>
<event>
 5   0  0.3725376E-03  0.1200916E+04  0.7818609E-02  0.9112055E-01
        2   -1    0    0  501    0  0.00000000000E+00  0.00000000000E+00  0.51928737751E+03  0.51928737752E+03  0.25500000920E-02 0.  1.
       -2   -1    0    0    0  501  0.00000000000E+00  0.00000000000E+00 -0.69431636410E+03  0.69431636411E+03  0.25500000920E-02 0. -1.
    10030    2    1    2    0    0  0.00000000000E+00  0.00000000000E+00 -0.17502898659E+03  0.12136037416E+04  0.12009158570E+04 0.  0.
        4    1    3    3  502    0  0.58312276268E+03  0.81941911706E+02 -0.20623537737E+03  0.62392409557E+03  0.12699999809E+01 0. -1.
       -4    1    3    3    0  502 -0.58312276268E+03 -0.81941911706E+02  0.31206390778E+02  0.58967964606E+03  0.12699999809E+01 0.  1.
</event>
<event>
 5   0  0.2134992E-03  0.1175062E+04  0.7818609E-02  0.9134970E-01
       -1   -1    0    0    0  501  0.00000000000E+00  0.00000000000E+00  0.52164626370E+03  0.52164626372E+03  0.50400001928E-02 0. -1.
        1   -1    0    0  501    0  0.00000000000E+00  0.00000000000E+00 -0.66173652804E+03  0.66173652806E+03  0.50400001928E-02 0.  1.
    10030    2    1    2    0    0  0.00000000000E+00  0.00000000000E+00 -0.14009026435E+03  0.11833827918E+04  0.11750615089E+04 0.  0.
        4    1    3    3  502    0 -0.43585763560E+03 -0.23752158298E+02  0.32600143579E+03  0.54480693147E+03  0.12699999809E+01 0. -1.
       -4    1    3    3    0  502  0.43585763560E+03  0.23752158298E+02 -0.46609170014E+03  0.63857586031E+03  0.12699999809E+01 0.  1.
</event>
<event>
 5   0  0.2078258E-03  0.1204807E+04  0.7818609E-02  0.9108659E-01
        1   -1    0    0  501    0  0.00000000000E+00  0.00000000000E+00  0.13846307429E+04  0.13846307429E+04  0.50400001928E-02 0.  1.
       -1   -1    0    0    0  501  0.00000000000E+00  0.00000000000E+00 -0.26208425054E+03  0.26208425059E+03  0.50400001928E-02 0. -1.
    10030    2    1    2    0    0  0.00000000000E+00  0.00000000000E+00  0.11225464924E+04  0.16467149935E+04  0.12048068901E+04 0.  0.
        3    1    3    3  502    0  0.15336610278E+03 -0.17576528149E+03  0.13203945827E+04  0.13408416983E+04  0.10100000352E+00 0.  1.
       -3    1    3    3    0  502 -0.15336610278E+03  0.17576528149E+03 -0.19784809035E+03  0.30587329520E+03  0.10100000352E+00 0. -1.
</event>
<event>
 5   0  0.3626049E-03  0.1264752E+04  0.7818609E-02  0.9057994E-01
       -2   -1    0    0    0  501  0.00000000000E+00  0.00000000000E+00  0.34809286899E+03  0.34809286900E+03  0.25500000920E-02 0.  1.
        2   -1    0    0  501    0  0.00000000000E+00  0.00000000000E+00 -0.11488288320E+04  0.11488288320E+04  0.25500000920E-02 0. -1.
    10030    2    1    2    0    0  0.00000000000E+00  0.00000000000E+00 -0.80073596297E+03  0.14969217010E+04  0.12647515552E+04 0.  0.
        1    1    3    3  502    0 -0.43049283958E+03 -0.44685234364E+03 -0.25590446912E+03  0.67118417688E+03  0.50400001928E-02 0. -1.
       -1    1    3    3    0  502  0.43049283958E+03  0.44685234364E+03 -0.54483149385E+03  0.82573752408E+03  0.50400001928E-02 0.  1.
</event>
<event>
 5   0  0.3751091E-03  0.1221085E+04  0.7818609E-02  0.9094598E-01
        2   -1    0    0  501    0  0.00000000000E+00  0.00000000000E+00  0.38667162559E+03  0.38667162559E+03  0.25500000920E-02 0. -1.
       -2   -1    0    0    0  501  0.00000000000E+00  0.00000000000E+00 -0.96402766166E+03  0.96402766166E+03  0.25500000920E-02 0.  1.
    10030    2    1    2    0    0  0.00000000000E+00  0.00000000000E+00 -0.57735603607E+03  0.13506992873E+04  0.12210849979E+04 0.  0.
        5    1    3    3  502    0 -0.19753427489E+03  0.72157133642E+02 -0.92267831211E+03  0.94635289365E+03  0.46999998093E+01 0.  1.
       -5    1    3    3    0  502  0.19753427489E+03 -0.72157133642E+02  0.34532227604E+03  0.40434639360E+03  0.46999998093E+01 0. -1.
</event>
<event>
 5   0  0.2134992E-03  0.1224452E+04  0.7818609E-02  0.9091719E-01
        1   -1    0    0  501    0  0.00000000000E+00  0.00000000000E+00  0.23754062210E+04  0.23754062210E+04  0.50400001928E-02 0. -1.
       -1   -1    0    0    0  501  0.00000000000E+00  0.00000000000E+00 -0.15779211407E+03  0.15779211415E+03  0.50400001928E-02 0.  1.
    10030    2    1    2    0    0  0.00000000000E+00  0.00000000000E+00  0.22176141069E+04  0.25331983352E+04  0.12244515009E+04 0.  0.
        4    1    3    3  502    0  0.72878988989E+02 -0.85811254740E+02  0.23538036267E+04  0.23564948641E+04  0.12699999809E+01 0. -1.
       -4    1    3    3    0  502 -0.72878988989E+02  0.85811254740E+02 -0.13618951980E+03  0.17670347104E+03  0.12699999809E+01 0.  1.
</event>
<event>
 5   0  0.3725376E-03  0.1216539E+04  0.7818609E-02  0.9098502E-01
        2   -1    0    0  501    0  0.00000000000E+00  0.00000000000E+00  0.17991863401E+04  0.17991863401E+04  0.25500000920E-02 0. -1.
       -2   -1    0    0    0  501  0.00000000000E+00  0.00000000000E+00 -0.20564379915E+03  0.20564379916E+03  0.25500000920E-02 0.  1.
    10030    2    1    2    0    0  0.00000000000E+00  0.00000000000E+00  0.15935425410E+04  0.20048301393E+04  0.12165385557E+04 0.  0.
        4    1    3    3  502    0 -0.40791808839E+03  0.17697904993E+03  0.11276830889E+03  0.45873418811E+03  0.12699999809E+01 0.  1.
       -4    1    3    3    0  502  0.40791808839E+03 -0.17697904993E+03  0.14807742321E+04  0.15460959512E+04  0.12699999809E+01 0. -1.
</event>
<event>
 5   0  0.3706035E-03  0.1192573E+04  0.7818609E-02  0.9119383E-01
       -2   -1    0    0    0  501  0.00000000000E+00  0.00000000000E+00  0.38203271197E+03  0.38203271198E+03  0.25500000920E-02 0. -1.
        2   -1    0    0  501    0  0.00000000000E+00  0.00000000000E+00 -0.93069888605E+03  0.93069888605E+03  0.25500000920E-02 0.  1.
    10030    2    1    2    0    0  0.00000000000E+00  0.00000000000E+00 -0.54866617408E+03  0.13127315980E+04  0.11925727139E+04 0.  0.
        2    1    3    3  502    0 -0.19109248223E+03 -0.50352080825E+03 -0.55606616340E+03  0.77411828502E+03  0.25500000920E-02 0.  1.
       -2    1    3    3    0  502  0.19109248223E+03  0.50352080825E+03  0.73999893232E+01  0.53861331301E+03  0.25500000920E-02 0. -1.
</event>
<event>
 5   0  0.2047109E-03  0.1220417E+04  0.7818609E-02  0.9095171E-01
       -1   -1    0    0    0  501  0.00000000000E+00  0.00000000000E+00  0.24332618303E+03  0.24332618308E+03  0.50400001928E-02 0.  1.
        1   -1    0    0  501    0  0.00000000000E+00  0.00000000000E+00 -0.15302693744E+04  0.15302693744E+04  0.50400001928E-02 0. -1.
    10030    2    1    2    0    0  0.00000000000E+00  0.00000000000E+00 -0.12869431914E+04  0.17735955575E+04  0.12204173154E+04 0.  0.
        1    1    3    3  502    0 -0.34567703189E+03  0.54936126493E+02 -0.13698797469E+04  0.14138886481E+04  0.50400001928E-02 0. -1.
       -1    1    3    3    0  502  0.34567703189E+03 -0.54936126493E+02  0.82936555515E+02  0.35970690935E+03  0.50400001928E-02 0.  1.
</event>
<event>
 5   0  0.3706035E-03  0.1261938E+04  0.7818609E-02  0.9060305E-01
       -2   -1    0    0    0  501  0.00000000000E+00  0.00000000000E+00  0.12023883649E+04  0.12023883649E+04  0.25500000920E-02 0.  1.
        2   -1    0    0  501    0  0.00000000000E+00  0.00000000000E+00 -0.33110917385E+03  0.33110917386E+03  0.25500000920E-02 0. -1.
    10030    2    1    2    0    0  0.00000000000E+00  0.00000000000E+00  0.87127919106E+03  0.15334975388E+04  0.12619379036E+04 0.  0.
        2    1    3    3  502    0  0.19928094685E+03  0.59711927178E+03  0.48801281053E+03  0.79650538212E+03  0.25500000920E-02 0.  1.
       -2    1    3    3    0  502 -0.19928094685E+03 -0.59711927178E+03  0.38326638053E+03  0.73699215665E+03  0.25500000920E-02 0. -1.
</event>
<event>
 5   0  0.2096270E-03  0.1190678E+04  0.7818609E-02  0.9121055E-01
        1   -1    0    0  501    0  0.00000000000E+00  0.00000000000E+00  0.95324501596E+03  0.95324501597E+03  0.50400001928E-02 0. -1.
       -1   -1    0    0    0  501  0.00000000000E+00  0.00000000000E+00 -0.37181263526E+03  0.37181263530E+03  0.50400001928E-02 0.  1.
    10030    2    1    2    0    0  0.00000000000E+00  0.00000000000E+00  0.58143238069E+03  0.13250576513E+04  0.11906780278E+04 0.  0.
        2    1    3    3  502    0  0.25409700141E+03  0.30222561857E+03  0.78656100259E+03  0.88010443780E+03  0.25500000920E-02 0. -1.
       -2    1    3    3    0  502 -0.25409700141E+03 -0.30222561857E+03 -0.20512862189E+03  0.44495321346E+03  0.25500000920E-02 0.  1.
</event>
<event>
 5   0  0.2134992E-03  0.1201981E+04  0.7818609E-02  0.9111124E-01
       -1   -1    0    0    0  501  0.00000000000E+00  0.00000000000E+00  0.12126979098E+04  0.12126979098E+04  0.50400001928E-02 0. -1.
        1   -1    0    0  501    0  0.00000000000E+00  0.00000000000E+00 -0.29783984196E+03  0.29783984200E+03  0.50400001928E-02 0.  1.
    10030    2    1    2    0    0  0.00000000000E+00  0.00000000000E+00  0.91485806783E+03  0.15105377518E+04  0.12019812874E+04 0.  0.
        4    1    3    3  502    0 -0.30047657561E+03  0.43235664931E+03  0.82159148898E+03  0.97582407859E+03  0.12699999809E+01 0. -1.
       -4    1    3    3    0  502  0.30047657561E+03 -0.43235664931E+03  0.93266578852E+02  0.53471367322E+03  0.12699999809E+01 0.  1.
</event>
<event>
 5   0  0.3626049E-03  0.1199568E+04  0.7818609E-02  0.9113234E-01
        2   -1    0    0  501    0  0.00000000000E+00  0.00000000000E+00  0.13632322926E+04  0.13632322926E+04  0.25500000920E-02 0. -1.
       -2   -1    0    0    0  501  0.00000000000E+00  0.00000000000E+00 -0.26388828632E+03  0.26388828633E+03  0.25500000920E-02 0.  1.
    10030    2    1    2    0    0  0.00000000000E+00  0.00000000000E+00  0.10993440062E+04  0.16271205789E+04  0.11995683116E+04 0.  0.
        1    1    3    3  502    0  0.10056579785E+03 -0.47584990126E+03  0.73580663931E+02  0.49189503185E+03  0.50400001928E-02 0.  1.
       -1    1    3    3    0  502 -0.10056579785E+03  0.47584990126E+03  0.10257633423E+04  0.11352255471E+04  0.50400001928E-02 0. -1.
</event>
<event>
 5   0  0.3706035E-03  0.1222947E+04  0.7818609E-02  0.9093004E-01
       -2   -1    0    0    0  501  0.00000000000E+00  0.00000000000E+00  0.29332696075E+03  0.29332696076E+03  0.25500000920E-02 0. -1.
        2   -1    0    0  501    0  0.00000000000E+00  0.00000000000E+00 -0.12746871423E+04  0.12746871423E+04  0.25500000920E-02 0.  1.
    10030    2    1    2    0    0  0.00000000000E+00  0.00000000000E+00 -0.98136018159E+03  0.15680141031E+04  0.12229474320E+04 0.  0.
        2    1    3    3  502    0  0.19136630038E+03 -0.25142085512E+02 -0.12346056803E+04  0.12496016850E+04  0.25500000920E-02 0.  1.
       -2    1    3    3    0  502 -0.19136630038E+03  0.25142085512E+02  0.25324549869E+03  0.31841241810E+03  0.25500000920E-02 0. -1.
</event>
<event>
 5   0  0.2047109E-03  0.1196656E+04  0.7818609E-02  0.9115788E-01
       -1   -1    0    0    0  501  0.00000000000E+00  0.00000000000E+00  0.93723108854E+03  0.93723108855E+03  0.50400001928E-02 0.  1.
        1   -1    0    0  501    0  0.00000000000E+00  0.00000000000E+00 -0.38197249213E+03  0.38197249216E+03  0.50400001928E-02 0. -1.
    10030    2    1    2    0    0  0.00000000000E+00  0.00000000000E+00  0.55525859641E+03  0.13192035807E+04  0.11966561655E+04 0.  0.
        1    1    3    3  502    0 -0.15761526698E+02 -0.15361374722E+03  0.91488502479E+03  0.92782553192E+03  0.50400001928E-02 0.  1.
       -1    1    3    3    0  502  0.15761526698E+02  0.15361374722E+03 -0.35962642839E+03  0.39137804880E+03  0.50400001928E-02 0. -1.
</event>
<event>
 5   0  0.2096270E-03  0.1193691E+04  0.7818609E-02  0.9118397E-01
       -1   -1    0    0    0  501  0.00000000000E+00  0.00000000000E+00  0.35703504333E+03  0.35703504337E+03  0.50400001928E-02 0. -1.
        1   -1    0    0  501    0  0.00000000000E+00  0.00000000000E+00 -0.99772979966E+03  0.99772979967E+03  0.50400001928E-02 0.  1.
    10030    2    1    2    0    0  0.00000000000E+00  0.00000000000E+00 -0.64069475633E+03  0.13547648430E+04  0.11936909186E+04 0.  0.
        2    1    3    3  502    0  0.22382402335E+03 -0.55313557970E+03 -0.33507270078E+03  0.68434631421E+03  0.25500000920E-02 0.  1.
       -2    1    3    3    0  502 -0.22382402335E+03  0.55313557970E+03 -0.30562205555E+03  0.67041852883E+03  0.25500000920E-02 0. -1.
</event>
<event>
 5   0  0.3626049E-03  0.1209485E+04  0.7818609E-02  0.9104595E-01
       -2   -1    0    0    0  501  0.00000000000E+00  0.00000000000E+00  0.60367128532E+03  0.60367128532E+03  0.25500000920E-02 0.  1.
        2   -1    0    0  501    0  0.00000000000E+00  0.00000000000E+00 -0.60581557834E+03  0.60581557835E+03  0.25500000920E-02 0. -1.
    10030    2    1    2    0    0  0.00000000000E+00  0.00000000000E+00 -0.21442930241E+01  0.12094868637E+04  0.12094849629E+04 0.  0.
        1    1    3    3  502    0 -0.58069842561E+02  0.55173807449E+03  0.23960739445E+03  0.60431673232E+03  0.50400001928E-02 0.  1.
       -1    1    3    3    0  502  0.58069842561E+02 -0.55173807449E+03 -0.24175168748E+03  0.60517013135E+03  0.50400001928E-02 0. -1.
</event>
<event>
 5   0  0.2096270E-03  0.1195837E+04  0.7818609E-02  0.9116508E-01
       -1   -1    0    0    0  501  0.00000000000E+00  0.00000000000E+00  0.45769488838E+03  0.45769488841E+03  0.50400001928E-02 0. -1.
        1   -1    0    0  501    0  0.00000000000E+00  0.00000000000E+00 -0.78110260559E+03  0.78110260561E+03  0.50400001928E-02 0.  1.
    10030    2    1    2    0    0  0.00000000000E+00  0.00000000000E+00 -0.32340771721E+03  0.12387974940E+04  0.11958372296E+04 0.  0.
        2    1    3    3  502    0 -0.41897920024E+03  0.12531626132E+03  0.26069306290E+03  0.50912533686E+03  0.25500000920E-02 0. -1.
       -2    1    3    3    0  502  0.41897920024E+03 -0.12531626132E+03 -0.58410078011E+03  0.72967215715E+03  0.25500000920E-02 0.  1.
</event>
<event>
 5   0  0.2078258E-03  0.1198715E+04  0.7818609E-02  0.9113982E-01
       -1   -1    0    0    0  501  0.00000000000E+00  0.00000000000E+00  0.63051030233E+03  0.63051030235E+03  0.50400001928E-02 0.  1.
        1   -1    0    0  501    0  0.00000000000E+00  0.00000000000E+00 -0.56974387287E+03  0.56974387289E+03  0.50400001928E-02 0. -1.
    10030    2    1    2    0    0  0.00000000000E+00  0.00000000000E+00  0.60766429458E+02  0.12002541752E+04  0.11987149479E+04 0.  0.
        3    1    3    3  502    0 -0.24596590884E+03  0.53753680682E+03  0.12942597265E+03  0.60514142116E+03  0.10100000352E+00 0. -1.
       -3    1    3    3    0  502  0.24596590884E+03 -0.53753680682E+03 -0.68659543190E+02  0.59511275409E+03  0.10100000352E+00 0.  1.
</event>
<event>
 5   0  0.3725376E-03  0.1185007E+04  0.7818609E-02  0.9126082E-01
        2   -1    0    0  501    0  0.00000000000E+00  0.00000000000E+00  0.79296785965E+03  0.79296785965E+03  0.25500000920E-02 0. -1.
       -2   -1    0    0    0  501  0.00000000000E+00  0.00000000000E+00 -0.44271698354E+03  0.44271698354E+03  0.25500000920E-02 0.  1.
    10030    2    1    2    0    0  0.00000000000E+00  0.00000000000E+00  0.35025087611E+03  0.12356848432E+04  0.11850069010E+04 0.  0.
        4    1    3    3  502    0  0.13319105903E+03 -0.50965290619E+03  0.45796843624E+03  0.69801335552E+03  0.12699999809E+01 0. -1.
       -4    1    3    3    0  502 -0.13319105903E+03  0.50965290619E+03 -0.10771756013E+03  0.53767148767E+03  0.12699999809E+01 0.  1.
</event>
<event>
 5   0  0.3725376E-03  0.1185511E+04  0.7818609E-02  0.9125634E-01
        2   -1    0    0  501    0  0.00000000000E+00  0.00000000000E+00  0.93405242528E+03  0.93405242528E+03  0.25500000920E-02 0.  1.
       -2   -1    0    0    0  501  0.00000000000E+00  0.00000000000E+00 -0.37616664346E+03  0.37616664347E+03  0.25500000920E-02 0. -1.
    10030    2    1    2    0    0  0.00000000000E+00  0.00000000000E+00  0.55788578182E+03  0.13102190687E+04  0.11855114772E+04 0.  0.
        4    1    3    3  502    0  0.15951833181E+03  0.45568278581E+03 -0.10112921885E+03  0.49327642481E+03  0.12699999809E+01 0. -1.
       -4    1    3    3    0  502 -0.15951833181E+03 -0.45568278581E+03  0.65901500067E+03  0.81694264393E+03  0.12699999809E+01 0.  1.
</event>
<event>
 5   0  0.3725376E-03  0.1159470E+04  0.7818609E-02  0.9149091E-01
        2   -1    0    0  501    0  0.00000000000E+00  0.00000000000E+00  0.25601758337E+03  0.25601758338E+03  0.25500000920E-02 0.  1.
       -2   -1    0    0    0  501  0.00000000000E+00  0.00000000000E+00 -0.13127714163E+04  0.13127714163E+04  0.25500000920E-02 0. -1.
    10030    2    1    2    0    0  0.00000000000E+00  0.00000000000E+00 -0.10567538329E+04  0.15687889997E+04  0.11594698194E+04 0.  0.
        4    1    3    3  502    0  0.43275591281E+03  0.37768740323E+03 -0.42213664612E+03  0.71282986436E+03  0.12699999809E+01 0.  1.
       -4    1    3    3    0  502 -0.43275591281E+03 -0.37768740323E+03 -0.63461718678E+03  0.85595913529E+03  0.12699999809E+01 0. -1.
</event>
<event>
 5   0  0.3650180E-03  0.1205421E+04  0.7818609E-02  0.9108125E-01
       -2   -1    0    0    0  501  0.00000000000E+00  0.00000000000E+00  0.51149299433E+03  0.51149299434E+03  0.25500000920E-02 0.  1.
        2   -1    0    0  501    0  0.00000000000E+00  0.00000000000E+00 -0.71019556532E+03  0.71019556533E+03  0.25500000920E-02 0. -1.
    10030    2    1    2    0    0  0.00000000000E+00  0.00000000000E+00 -0.19870257099E+03  0.12216885597E+04  0.12054211816E+04 0.  0.
        3    1    3    3  502    0 -0.20251649077E+03  0.54169500856E+03 -0.27138783034E+03  0.63882530945E+03  0.10100000352E+00 0.  1.
       -3    1    3    3    0  502  0.20251649077E+03 -0.54169500856E+03  0.72685259348E+02  0.58286325022E+03  0.10100000352E+00 0. -1.
</event>
<event>
 5   0  0.2047109E-03  0.1083993E+04  0.7818609E-02  0.9220935E-01
        1   -1    0    0  501    0  0.00000000000E+00  0.00000000000E+00  0.46659544942E+03  0.46659544945E+03  0.50400001928E-02 0.  1.
       -1   -1    0    0    0  501  0.00000000000E+00  0.00000000000E+00 -0.62958219202E+03  0.62958219204E+03  0.50400001928E-02 0. -1.
    10030    2    1    2    0    0  0.00000000000E+00  0.00000000000E+00 -0.16298674260E+03  0.10961776415E+04  0.10839929628E+04 0.  0.
        1    1    3    3  502    0  0.53922789747E+03 -0.46783305866E+02 -0.52805798986E+02  0.54382336797E+03  0.50400001928E-02 0.  1.
       -1    1    3    3    0  502 -0.53922789747E+03  0.46783305866E+02 -0.11018094361E+03  0.55235427352E+03  0.50400001928E-02 0. -1.
</event>
<event>
 5   0  0.3706035E-03  0.1203503E+04  0.7818609E-02  0.9109796E-01
       -2   -1    0    0    0  501  0.00000000000E+00  0.00000000000E+00  0.20309813982E+03  0.20309813983E+03  0.25500000920E-02 0.  1.
        2   -1    0    0  501    0  0.00000000000E+00  0.00000000000E+00 -0.17829068367E+04  0.17829068367E+04  0.25500000920E-02 0. -1.
    10030    2    1    2    0    0  0.00000000000E+00  0.00000000000E+00 -0.15798086969E+04  0.19860049766E+04  0.12035033229E+04 0.  0.
        2    1    3    3  502    0 -0.11362277744E+03  0.58799433392E+03 -0.69287127899E+03  0.91581552811E+03  0.25500000920E-02 0.  1.
       -2    1    3    3    0  502  0.11362277744E+03 -0.58799433392E+03 -0.88693741794E+03  0.10701894485E+04  0.25500000920E-02 0. -1.
</event>
<event>
 5   0  0.3626049E-03  0.1192849E+04  0.7818609E-02  0.9119139E-01
        2   -1    0    0  501    0  0.00000000000E+00  0.00000000000E+00  0.79430012609E+03  0.79430012610E+03  0.25500000920E-02 0. -1.
       -2   -1    0    0    0  501  0.00000000000E+00  0.00000000000E+00 -0.44784376958E+03  0.44784376959E+03  0.25500000920E-02 0.  1.
    10030    2    1    2    0    0  0.00000000000E+00  0.00000000000E+00  0.34645635651E+03  0.12421438957E+04  0.11928492992E+04 0.  0.
        1    1    3    3  502    0  0.62412895505E+01 -0.45338867240E+03  0.57669578766E+03  0.73360634777E+03  0.50400001928E-02 0. -1.
       -1    1    3    3    0  502 -0.62412895505E+01  0.45338867240E+03 -0.23023943115E+03  0.50853754792E+03  0.50400001928E-02 0.  1.
</event>
<event>
 5   0  0.2096270E-03  0.1167226E+04  0.7818609E-02  0.9142037E-01
       -1   -1    0    0    0  501  0.00000000000E+00  0.00000000000E+00  0.52252000388E+03  0.52252000390E+03  0.50400001928E-02 0.  1.
        1   -1    0    0  501    0  0.00000000000E+00  0.00000000000E+00 -0.65184916190E+03  0.65184916192E+03  0.50400001928E-02 0. -1.
    10030    2    1    2    0    0  0.00000000000E+00  0.00000000000E+00 -0.12932915802E+03  0.11743691658E+04  0.11672261591E+04 0.  0.
        2    1    3    3  502    0  0.78012441375E+02  0.45753792934E+03 -0.42063381602E+03  0.62638622669E+03  0.25500000920E-02 0. -1.
       -2    1    3    3    0  502 -0.78012441375E+02 -0.45753792934E+03  0.29130465800E+03  0.54798293913E+03  0.25500000920E-02 0.  1.
</event>
<event>
 5   0  0.2096270E-03  0.1241164E+04  0.7818609E-02  0.9077569E-01
       -1   -1    0    0    0  501  0.00000000000E+00  0.00000000000E+00  0.36071867414E+03  0.36071867418E+03  0.50400001928E-02 0.  1.
        1   -1    0    0  501    0  0.00000000000E+00  0.00000000000E+00 -0.10676524335E+04  0.10676524335E+04  0.50400001928E-02 0. -1.
    10030    2    1    2    0    0  0.00000000000E+00  0.00000000000E+00 -0.70693375934E+03  0.14283711077E+04  0.12411642442E+04 0.  0.
        2    1    3    3  502    0  0.41909159027E+03  0.42380820806E+03 -0.55236778937E+03  0.81262619512E+03  0.25500000920E-02 0. -1.
       -2    1    3    3    0  502 -0.41909159027E+03 -0.42380820806E+03 -0.15456596996E+03  0.61574491255E+03  0.25500000920E-02 0.  1.
</event>
<event>
 5   0  0.3626049E-03  0.1232537E+04  0.7818609E-02  0.9084844E-01
        2   -1    0    0  501    0  0.00000000000E+00  0.00000000000E+00  0.10052463926E+04  0.10052463926E+04  0.25500000920E-02 0. -1.
       -2   -1    0    0    0  501  0.00000000000E+00  0.00000000000E+00 -0.37780495941E+03  0.37780495942E+03  0.25500000920E-02 0.  1.
    10030    2    1    2    0    0  0.00000000000E+00  0.00000000000E+00  0.62744143317E+03  0.13830513520E+04  0.12325373383E+04 0.  0.
        1    1    3    3  502    0  0.44864088106E+03  0.35909720808E+03  0.63920118098E+02  0.57819998835E+03  0.50400001928E-02 0. -1.
       -1    1    3    3    0  502 -0.44864088106E+03 -0.35909720808E+03  0.56352131507E+03  0.80485136365E+03  0.50400001928E-02 0.  1.
</event>
<event>
 5   0  0.3725376E-03  0.1201562E+04  0.7818609E-02  0.9111490E-01
        2   -1    0    0  501    0  0.00000000000E+00  0.00000000000E+00  0.89990890937E+03  0.89990890937E+03  0.25500000920E-02 0. -1.
       -2   -1    0    0    0  501  0.00000000000E+00  0.00000000000E+00 -0.40108271199E+03  0.40108271199E+03  0.25500000920E-02 0.  1.
    10030    2    1    2    0    0  0.00000000000E+00  0.00000000000E+00  0.49882619738E+03  0.13009916214E+04  0.12015621597E+04 0.  0.
        4    1    3    3  502    0 -0.44775065088E+03 -0.22636552481E+03 -0.10840969636E+03  0.51329939738E+03  0.12699999809E+01 0.  1.
       -4    1    3    3    0  502  0.44775065088E+03  0.22636552481E+03  0.60723589374E+03  0.78769222399E+03  0.12699999809E+01 0. -1.
</event>
<event>
 5   0  0.3725376E-03  0.1102477E+04  0.7818609E-02  0.9202781E-01
       -2   -1    0    0    0  501  0.00000000000E+00  0.00000000000E+00  0.42454465239E+03  0.42454465240E+03  0.25500000920E-02 0.  1.
        2   -1    0    0  501    0  0.00000000000E+00  0.00000000000E+00 -0.71574104652E+03  0.71574104653E+03  0.25500000920E-02 0. -1.
    10030    2    1    2    0    0  0.00000000000E+00  0.00000000000E+00 -0.29119639413E+03  0.11402856989E+04  0.11024772720E+04 0.  0.
        4    1    3    3  502    0 -0.38367842390E+03  0.21279052118E+03 -0.49076969833E+03  0.65828979073E+03  0.12699999809E+01 0. -1.
       -4    1    3    3    0  502  0.38367842390E+03 -0.21279052118E+03  0.19957330421E+03  0.48199590820E+03  0.12699999809E+01 0.  1.
</event>
<event>
 5   0  0.2078258E-03  0.1196954E+04  0.7818609E-02  0.9115527E-01
       -1   -1    0    0    0  501  0.00000000000E+00  0.00000000000E+00  0.37277379773E+03  0.37277379777E+03  0.50400001928E-02 0. -1.
        1   -1    0    0  501    0  0.00000000000E+00  0.00000000000E+00 -0.96083656754E+03  0.96083656755E+03  0.50400001928E-02 0.  1.
    10030    2    1    2    0    0  0.00000000000E+00  0.00000000000E+00 -0.58806276981E+03  0.13336103653E+04  0.11969539612E+04 0.  0.
        3    1    3    3  502    0  0.41568618960E+03 -0.74397327772E+01  0.18561119834E+03  0.45530416756E+03  0.10100000352E+00 0. -1.
       -3    1    3    3    0  502 -0.41568618960E+03  0.74397327772E+01 -0.77367396814E+03  0.87830619776E+03  0.10100000352E+00 0.  1.
</event>
<event>
 5   0  0.2025294E-03  0.1197406E+04  0.7818609E-02  0.9115130E-01
       -1   -1    0    0    0  501  0.00000000000E+00  0.00000000000E+00  0.76592627464E+03  0.76592627465E+03  0.50400001928E-02 0. -1.
        1   -1    0    0  501    0  0.00000000000E+00  0.00000000000E+00 -0.46798954237E+03  0.46798954240E+03  0.50400001928E-02 0.  1.
    10030    2    1    2    0    0  0.00000000000E+00  0.00000000000E+00  0.29793673226E+03  0.12339158171E+04  0.11974063417E+04 0.  0.
        5    1    3    3  502    0  0.33753269734E+03 -0.21597353913E+03 -0.30939780663E+03  0.50628251414E+03  0.46999998093E+01 0.  1.
       -5    1    3    3    0  502 -0.33753269734E+03  0.21597353913E+03  0.60733453889E+03  0.72763330291E+03  0.46999998093E+01 0. -1.
</event>
<event>
 5   0  0.3706035E-03  0.1185642E+04  0.7818609E-02  0.9125518E-01
       -2   -1    0    0    0  501  0.00000000000E+00  0.00000000000E+00  0.15468014656E+03  0.15468014658E+03  0.25500000920E-02 0.  1.
        2   -1    0    0  501    0  0.00000000000E+00  0.00000000000E+00 -0.22720229821E+04  0.22720229821E+04  0.25500000920E-02 0. -1.
    10030    2    1    2    0    0  0.00000000000E+00  0.00000000000E+00 -0.21173428355E+04  0.24267031287E+04  0.11856421853E+04 0.  0.
        2    1    3    3  502    0  0.35533491011E+03  0.40389264300E+02 -0.90965914030E+02  0.36901082441E+03  0.25500000920E-02 0.  1.
       -2    1    3    3    0  502 -0.35533491011E+03 -0.40389264300E+02 -0.20263769215E+04  0.20576923043E+04  0.25500000920E-02 0. -1.
</event>
<event>
 5   0  0.2096270E-03  0.1207996E+04  0.7818609E-02  0.9105887E-01
       -1   -1    0    0    0  501  0.00000000000E+00  0.00000000000E+00  0.55447920355E+03  0.55447920357E+03  0.50400001928E-02 0. -1.
        1   -1    0    0  501    0  0.00000000000E+00  0.00000000000E+00 -0.65793868891E+03  0.65793868892E+03  0.50400001928E-02 0.  1.
    10030    2    1    2    0    0  0.00000000000E+00  0.00000000000E+00 -0.10345948535E+03  0.12124178925E+04  0.12079955633E+04 0.  0.
        2    1    3    3  502    0  0.42277782443E+03  0.28953486983E+03 -0.37265302177E+03  0.63359435313E+03  0.25500000920E-02 0.  1.
       -2    1    3    3    0  502 -0.42277782443E+03 -0.28953486983E+03  0.26919353642E+03  0.57882353937E+03  0.25500000920E-02 0. -1.
</event>
<event>
 5   0  0.2096270E-03  0.1193400E+04  0.7818609E-02  0.9118654E-01
        1   -1    0    0  501    0  0.00000000000E+00  0.00000000000E+00  0.83417263216E+03  0.83417263217E+03  0.50400001928E-02 0. -1.
       -1   -1    0    0    0  501  0.00000000000E+00  0.00000000000E+00 -0.42683083867E+03  0.42683083870E+03  0.50400001928E-02 0.  1.
    10030    2    1    2    0    0  0.00000000000E+00  0.00000000000E+00  0.40734179349E+03  0.12610034709E+04  0.11933995210E+04 0.  0.
        2    1    3    3  502    0  0.19458217366E+03  0.28389177664E+03 -0.31137746729E+03  0.46412572681E+03  0.25500000920E-02 0.  1.
       -2    1    3    3    0  502 -0.19458217366E+03 -0.28389177664E+03  0.71871926078E+03  0.79687774406E+03  0.25500000920E-02 0. -1.
</event>
<event>
 5   0  0.2047109E-03  0.1187565E+04  0.7818609E-02  0.9123811E-01
        1   -1    0    0  501    0  0.00000000000E+00  0.00000000000E+00  0.78711681646E+03  0.78711681648E+03  0.50400001928E-02 0. -1.
       -1   -1    0    0    0  501  0.00000000000E+00  0.00000000000E+00 -0.44793534130E+03  0.44793534133E+03  0.50400001928E-02 0.  1.
    10030    2    1    2    0    0  0.00000000000E+00  0.00000000000E+00  0.33918147516E+03  0.12350521578E+04  0.11875646338E+04 0.  0.
        1    1    3    3  502    0 -0.44085756557E+03 -0.37496977992E+03  0.31543591758E+02  0.57961429173E+03  0.50400001928E-02 0.  1.
       -1    1    3    3    0  502  0.44085756557E+03  0.37496977992E+03  0.30763788340E+03  0.65543786608E+03  0.50400001928E-02 0. -1.
</event>
<event>
 5   0  0.3706035E-03  0.1212750E+04  0.7818609E-02  0.9101769E-01
        2   -1    0    0  501    0  0.00000000000E+00  0.00000000000E+00  0.13470166068E+04  0.13470166068E+04  0.25500000920E-02 0. -1.
       -2   -1    0    0    0  501  0.00000000000E+00  0.00000000000E+00 -0.27296652359E+03  0.27296652361E+03  0.25500000920E-02 0.  1.
    10030    2    1    2    0    0  0.00000000000E+00  0.00000000000E+00  0.10740500832E+04  0.16199831304E+04  0.12127496698E+04 0.  0.
        2    1    3    3  502    0  0.49638898061E+03 -0.14223748469E+03  0.96166646034E+03  0.10915291581E+04  0.25500000920E-02 0. -1.
       -2    1    3    3    0  502 -0.49638898061E+03  0.14223748469E+03  0.11238362288E+03  0.52845397228E+03  0.25500000920E-02 0.  1.
</event>
<event>
 5   0  0.3725376E-03  0.1099112E+04  0.7818609E-02  0.9206057E-01
        2   -1    0    0  501    0  0.00000000000E+00  0.00000000000E+00  0.15755608429E+04  0.15755608429E+04  0.25500000920E-02 0.  1.
       -2   -1    0    0    0  501  0.00000000000E+00  0.00000000000E+00 -0.19168540533E+03  0.19168540535E+03  0.25500000920E-02 0. -1.
    10030    2    1    2    0    0  0.00000000000E+00  0.00000000000E+00  0.13838754376E+04  0.17672462483E+04  0.10991124034E+04 0.  0.
        4    1    3    3  502    0  0.58003094719E+02 -0.12095336901E+03  0.15488307575E+04  0.15546293464E+04  0.12699999809E+01 0.  1.
       -4    1    3    3    0  502 -0.58003094719E+02  0.12095336901E+03 -0.16495531993E+03  0.21261690183E+03  0.12699999809E+01 0. -1.
</event>
<event>
 5   0  0.2047109E-03  0.1232797E+04  0.7818609E-02  0.9084624E-01
        1   -1    0    0  501    0  0.00000000000E+00  0.00000000000E+00  0.99541529499E+03  0.99541529500E+03  0.50400001928E-02 0.  1.
       -1   -1    0    0    0  501  0.00000000000E+00  0.00000000000E+00 -0.38169704525E+03  0.38169704528E+03  0.50400001928E-02 0. -1.
    10030    2    1    2    0    0  0.00000000000E+00  0.00000000000E+00  0.61371824974E+03  0.13771123403E+04  0.12327969450E+04 0.  0.
        1    1    3    3  502    0 -0.32336056630E+03  0.45557793834E+03  0.15920905912E+02  0.55889783414E+03  0.50400001928E-02 0. -1.
       -1    1    3    3    0  502  0.32336056630E+03 -0.45557793834E+03  0.59779734383E+03  0.81821450614E+03  0.50400001928E-02 0.  1.
</event>
<event>
 5   0  0.3626049E-03  0.1193248E+04  0.7818609E-02  0.9118787E-01
        2   -1    0    0  501    0  0.00000000000E+00  0.00000000000E+00  0.10149115123E+04  0.10149115123E+04  0.25500000920E-02 0. -1.
       -2   -1    0    0    0  501  0.00000000000E+00  0.00000000000E+00 -0.35073016478E+03  0.35073016479E+03  0.25500000920E-02 0.  1.
    10030    2    1    2    0    0  0.00000000000E+00  0.00000000000E+00  0.66418134749E+03  0.13656416771E+04  0.11932478065E+04 0.  0.
        1    1    3    3  502    0 -0.58150071789E+03  0.21663001105E+02  0.18135112471E+03  0.60950849131E+03  0.50400001928E-02 0. -1.
       -1    1    3    3    0  502  0.58150071789E+03 -0.21663001105E+02  0.48283022278E+03  0.75613318574E+03  0.50400001928E-02 0.  1.
</event>
<event>
 5   0  0.2096270E-03  0.1218073E+04  0.7818609E-02  0.9097183E-01
        1   -1    0    0  501    0  0.00000000000E+00  0.00000000000E+00  0.25775323764E+03  0.25775323769E+03  0.50400001928E-02 0. -1.
       -1   -1    0    0    0  501  0.00000000000E+00  0.00000000000E+00 -0.14390708936E+04  0.14390708936E+04  0.50400001928E-02 0.  1.
    10030    2    1    2    0    0  0.00000000000E+00  0.00000000000E+00 -0.11813176560E+04  0.16968241313E+04  0.12180725464E+04 0.  0.
        2    1    3    3  502    0 -0.16642207898E+03  0.29422834059E+03  0.11507600146E+03  0.35708417900E+03  0.25500000920E-02 0. -1.
       -2    1    3    3    0  502  0.16642207898E+03 -0.29422834059E+03 -0.12963936574E+04  0.13397399523E+04  0.25500000920E-02 0.  1.
</event>
<event>
 5   0  0.2047109E-03  0.1227115E+04  0.7818609E-02  0.9089449E-01
       -1   -1    0    0    0  501  0.00000000000E+00  0.00000000000E+00  0.29633631364E+03  0.29633631368E+03  0.50400001928E-02 0. -1.
        1   -1    0    0  501    0  0.00000000000E+00  0.00000000000E+00 -0.12703562803E+04  0.12703562803E+04  0.50400001928E-02 0.  1.
    10030    2    1    2    0    0  0.00000000000E+00  0.00000000000E+00 -0.97401996669E+03  0.15666925940E+04  0.12271148229E+04 0.  0.
        1    1    3    3  502    0 -0.13310409518E+03 -0.59486462320E+03 -0.39789398807E+03  0.72794247428E+03  0.50400001928E-02 0. -1.
       -1    1    3    3    0  502  0.13310409518E+03  0.59486462320E+03 -0.57612597861E+03  0.83875011973E+03  0.50400001928E-02 0.  1.
</event>
<event>
 5   0  0.2047109E-03  0.1202549E+04  0.7818609E-02  0.9110628E-01
        1   -1    0    0  501    0  0.00000000000E+00  0.00000000000E+00  0.66006562340E+03  0.66006562342E+03  0.50400001928E-02 0.  1.
       -1   -1    0    0    0  501  0.00000000000E+00  0.00000000000E+00 -0.54772000435E+03  0.54772000437E+03  0.50400001928E-02 0. -1.
    10030    2    1    2    0    0  0.00000000000E+00  0.00000000000E+00  0.11234561905E+03  0.12077856278E+04  0.12025492026E+04 0.  0.
        1    1    3    3  502    0 -0.25844540416E+02  0.57914424263E+02  0.65669708572E+03  0.65975228929E+03  0.50400001928E-02 0.  1.
       -1    1    3    3    0  502  0.25844540416E+02 -0.57914424263E+02 -0.54435146667E+03  0.54803333849E+03  0.50400001928E-02 0. -1.
</event>
<event>
 5   0  0.2047109E-03  0.1189183E+04  0.7818609E-02  0.9122377E-01
        1   -1    0    0  501    0  0.00000000000E+00  0.00000000000E+00  0.20274441681E+03  0.20274441687E+03  0.50400001928E-02 0.  1.
       -1   -1    0    0    0  501  0.00000000000E+00  0.00000000000E+00 -0.17437681359E+04  0.17437681359E+04  0.50400001928E-02 0. -1.
    10030    2    1    2    0    0  0.00000000000E+00  0.00000000000E+00 -0.15410237191E+04  0.19465125528E+04  0.11891833397E+04 0.  0.
        1    1    3    3  502    0  0.33150005545E+03  0.48530590334E+03 -0.62296702415E+03  0.85644732458E+03  0.50400001928E-02 0. -1.
       -1    1    3    3    0  502 -0.33150005545E+03 -0.48530590334E+03 -0.91805669497E+03  0.10900652282E+04  0.50400001928E-02 0.  1.
</event>
<event>
 5   0  0.2047109E-03  0.1200540E+04  0.7818609E-02  0.9112384E-01
        1   -1    0    0  501    0  0.00000000000E+00  0.00000000000E+00  0.14502384875E+04  0.14502384875E+04  0.50400001928E-02 0. -1.
       -1   -1    0    0    0  501  0.00000000000E+00  0.00000000000E+00 -0.24845858983E+03  0.24845858988E+03  0.50400001928E-02 0.  1.
    10030    2    1    2    0    0  0.00000000000E+00  0.00000000000E+00  0.12017798977E+04  0.16986970774E+04  0.12005402277E+04 0.  0.
        1    1    3    3  502    0  0.40831686544E+03  0.11154886437E+03 -0.13484713120E+01  0.42328197475E+03  0.50400001928E-02 0.  1.
       -1    1    3    3    0  502 -0.40831686544E+03 -0.11154886437E+03  0.12031283690E+04  0.12754151026E+04  0.50400001928E-02 0. -1.
</event>
<event>
 5   0  0.2096270E-03  0.1209864E+04  0.7818609E-02  0.9104266E-01
       -1   -1    0    0    0  501  0.00000000000E+00  0.00000000000E+00  0.35840685800E+03  0.35840685804E+03  0.50400001928E-02 0. -1.
        1   -1    0    0  501    0  0.00000000000E+00  0.00000000000E+00 -0.10210264640E+04  0.10210264641E+04  0.50400001928E-02 0.  1.
    10030    2    1    2    0    0  0.00000000000E+00  0.00000000000E+00 -0.66261960605E+03  0.13794333221E+04  0.12098642683E+04 0.  0.
        2    1    3    3  502    0  0.44634506022E+03  0.40719754028E+03 -0.36568766099E+03  0.70623028468E+03  0.25500000920E-02 0. -1.
       -2    1    3    3    0  502 -0.44634506022E+03 -0.40719754028E+03 -0.29693194506E+03  0.67320303742E+03  0.25500000920E-02 0.  1.
</event>
<event>
 5   0  0.2047109E-03  0.1204705E+04  0.7818609E-02  0.9108748E-01
        1   -1    0    0  501    0  0.00000000000E+00  0.00000000000E+00  0.14898645834E+04  0.14898645834E+04  0.50400001928E-02 0. -1.
       -1   -1    0    0    0  501  0.00000000000E+00  0.00000000000E+00 -0.24353118601E+03  0.24353118606E+03  0.50400001928E-02 0.  1.
    10030    2    1    2    0    0  0.00000000000E+00  0.00000000000E+00  0.12463333974E+04  0.17333957695E+04  0.12047049249E+04 0.  0.
        1    1    3    3  502    0  0.37532848555E+03 -0.20955599720E+03  0.16039253851E+02  0.43016560267E+03  0.50400001928E-02 0.  1.
       -1    1    3    3    0  502 -0.37532848555E+03  0.20955599720E+03  0.12302941435E+04  0.13032301668E+04  0.50400001928E-02 0. -1.
</event>
<event>
 5   0  0.3706035E-03  0.1325920E+04  0.7818609E-02  0.9009259E-01
       -2   -1    0    0    0  501  0.00000000000E+00  0.00000000000E+00  0.26573342437E+03  0.26573342438E+03  0.25500000920E-02 0. -1.
        2   -1    0    0  501    0  0.00000000000E+00  0.00000000000E+00 -0.16539734699E+04  0.16539734699E+04  0.25500000920E-02 0.  1.
    10030    2    1    2    0    0  0.00000000000E+00  0.00000000000E+00 -0.13882400456E+04  0.19197068943E+04  0.13259201092E+04 0.  0.
        2    1    3    3  502    0  0.34744738367E+02  0.13189438855E+03 -0.16334400586E+04  0.16391246907E+04  0.25500000920E-02 0.  1.
       -2    1    3    3    0  502 -0.34744738367E+02 -0.13189438855E+03  0.24520001305E+03  0.28058220361E+03  0.25500000920E-02 0. -1.
</event>
<event>
 5   0  0.2096270E-03  0.1205917E+04  0.7818609E-02  0.9107693E-01
        1   -1    0    0  501    0  0.00000000000E+00  0.00000000000E+00  0.94793548296E+03  0.94793548297E+03  0.50400001928E-02 0. -1.
       -1   -1    0    0    0  501  0.00000000000E+00  0.00000000000E+00 -0.38352685599E+03  0.38352685603E+03  0.50400001928E-02 0.  1.
    10030    2    1    2    0    0  0.00000000000E+00  0.00000000000E+00  0.56440862697E+03  0.13314623390E+04  0.12059166066E+04 0.  0.
        2    1    3    3  502    0 -0.38773928531E+03  0.22853965201E+03 -0.16079847611E+03  0.47794170757E+03  0.25500000920E-02 0.  1.
       -2    1    3    3    0  502  0.38773928531E+03 -0.22853965201E+03  0.72520710307E+03  0.85352063143E+03  0.25500000920E-02 0. -1.
</event>
<event>
 5   0  0.2025294E-03  0.1193959E+04  0.7818609E-02  0.9118161E-01
        1   -1    0    0  501    0  0.00000000000E+00  0.00000000000E+00  0.12567035019E+04  0.12567035020E+04  0.50400001928E-02 0. -1.
       -1   -1    0    0    0  501  0.00000000000E+00  0.00000000000E+00 -0.28358682987E+03  0.28358682991E+03  0.50400001928E-02 0.  1.
    10030    2    1    2    0    0  0.00000000000E+00  0.00000000000E+00  0.97311667208E+03  0.15402903319E+04  0.11939590650E+04 0.  0.
        5    1    3    3  502    0 -0.31186411127E+03 -0.26074360665E+03 -0.77419060576E+02  0.41383843858E+03  0.46999998093E+01 0.  1.
       -5    1    3    3    0  502  0.31186411127E+03  0.26074360665E+03  0.10505357327E+04  0.11264518933E+04  0.46999998093E+01 0. -1.
</event>
<event>
 5   0  0.3626049E-03  0.1223599E+04  0.7818609E-02  0.9092448E-01
        2   -1    0    0  501    0  0.00000000000E+00  0.00000000000E+00  0.11317704376E+04  0.11317704376E+04  0.25500000920E-02 0. -1.
       -2   -1    0    0    0  501  0.00000000000E+00  0.00000000000E+00 -0.33071936889E+03  0.33071936890E+03  0.25500000920E-02 0.  1.
    10030    2    1    2    0    0  0.00000000000E+00  0.00000000000E+00  0.80105106871E+03  0.14624898065E+04  0.12235986349E+04 0.  0.
        1    1    3    3  502    0  0.92040518957E+02  0.21279235653E+02  0.11230004419E+04  0.11269668387E+04  0.50400001928E-02 0. -1.
       -1    1    3    3    0  502 -0.92040518957E+02 -0.21279235653E+02 -0.32194937319E+03  0.33552296780E+03  0.50400001928E-02 0.  1.
</event>
<event>
 5   0  0.3626049E-03  0.1207500E+04  0.7818609E-02  0.9106317E-01
        2   -1    0    0  501    0  0.00000000000E+00  0.00000000000E+00  0.11557325434E+04  0.11557325434E+04  0.25500000920E-02 0.  1.
       -2   -1    0    0    0  501  0.00000000000E+00  0.00000000000E+00 -0.31539653989E+03  0.31539653990E+03  0.25500000920E-02 0. -1.
    10030    2    1    2    0    0  0.00000000000E+00  0.00000000000E+00  0.84033600349E+03  0.14711290833E+04  0.12074999714E+04 0.  0.
        1    1    3    3  502    0 -0.53816888834E+03  0.16794395396E+02  0.75294341536E+03  0.92565198150E+03  0.50400001928E-02 0.  1.
       -1    1    3    3    0  502  0.53816888834E+03 -0.16794395396E+02  0.87392588132E+02  0.54547710179E+03  0.50400001928E-02 0. -1.
</event>
<event>
 5   0  0.3706035E-03  0.1196383E+04  0.7818609E-02  0.9116028E-01
       -2   -1    0    0    0  501  0.00000000000E+00  0.00000000000E+00  0.18815754494E+03  0.18815754496E+03  0.25500000920E-02 0. -1.
        2   -1    0    0  501    0  0.00000000000E+00  0.00000000000E+00 -0.19017740810E+04  0.19017740810E+04  0.25500000920E-02 0.  1.
    10030    2    1    2    0    0  0.00000000000E+00  0.00000000000E+00 -0.17136165361E+04  0.20899316260E+04  0.11963831195E+04 0.  0.
        2    1    3    3  502    0 -0.34322089790E+03 -0.48702274378E+03 -0.76369140712E+03  0.96861566321E+03  0.25500000920E-02 0.  1.
       -2    1    3    3    0  502  0.34322089790E+03  0.48702274378E+03 -0.94992512894E+03  0.11213159627E+04  0.25500000920E-02 0. -1.
</event>
<event>
 5   0  0.3751091E-03  0.1220100E+04  0.7818609E-02  0.9095443E-01
        2   -1    0    0  501    0  0.00000000000E+00  0.00000000000E+00  0.86299295493E+03  0.86299295494E+03  0.25500000920E-02 0. -1.
       -2   -1    0    0    0  501  0.00000000000E+00  0.00000000000E+00 -0.43124460167E+03  0.43124460168E+03  0.25500000920E-02 0.  1.
    10030    2    1    2    0    0  0.00000000000E+00  0.00000000000E+00  0.43174835326E+03  0.12942375566E+04  0.12201000829E+04 0.  0.
        5    1    3    3  502    0  0.12305295631E+03  0.28029918476E+03  0.77560085767E+03  0.83383957897E+03  0.46999998093E+01 0. -1.
       -5    1    3    3    0  502 -0.12305295631E+03 -0.28029918476E+03 -0.34385250441E+03  0.46039797765E+03  0.46999998093E+01 0.  1.
</event>
<event>
 5   0  0.2134992E-03  0.1211917E+04  0.7818609E-02  0.9102489E-01
        1   -1    0    0  501    0  0.00000000000E+00  0.00000000000E+00  0.22869127822E+03  0.22869127827E+03  0.50400001928E-02 0.  1.
       -1   -1    0    0    0  501  0.00000000000E+00  0.00000000000E+00 -0.16055947953E+04  0.16055947953E+04  0.50400001928E-02 0. -1.
    10030    2    1    2    0    0  0.00000000000E+00  0.00000000000E+00 -0.13769035171E+04  0.18342860736E+04  0.12119167069E+04 0.  0.
        4    1    3    3  502    0 -0.11970948939E+03 -0.19458706596E+01  0.21060935230E+03  0.24226444320E+03  0.12699999809E+01 0.  1.
       -4    1    3    3    0  502  0.11970948939E+03  0.19458706596E+01 -0.15875128694E+04  0.15920216304E+04  0.12699999809E+01 0. -1.
</event>
<event>
 5   0  0.3626049E-03  0.1213535E+04  0.7818609E-02  0.9101091E-01
        2   -1    0    0  501    0  0.00000000000E+00  0.00000000000E+00  0.74158129324E+03  0.74158129325E+03  0.25500000920E-02 0.  1.
       -2   -1    0    0    0  501  0.00000000000E+00  0.00000000000E+00 -0.49646174991E+03  0.49646174991E+03  0.25500000920E-02 0. -1.
    10030    2    1    2    0    0  0.00000000000E+00  0.00000000000E+00  0.24511954334E+03  0.12380430432E+04  0.12135349135E+04 0.  0.
        1    1    3    3  502    0 -0.59116935588E+03  0.29544355657E+02 -0.13599739187E+02  0.59206336588E+03  0.50400001928E-02 0. -1.
       -1    1    3    3    0  502  0.59116935588E+03 -0.29544355657E+02  0.25871928252E+03  0.64597967728E+03  0.50400001928E-02 0.  1.
</event>
<event>
 5   0  0.2047109E-03  0.1203702E+04  0.7818609E-02  0.9109622E-01
        1   -1    0    0  501    0  0.00000000000E+00  0.00000000000E+00  0.78921526168E+03  0.78921526169E+03  0.50400001928E-02 0. -1.
       -1   -1    0    0    0  501  0.00000000000E+00  0.00000000000E+00 -0.45896830708E+03  0.45896830710E+03  0.50400001928E-02 0.  1.
    10030    2    1    2    0    0  0.00000000000E+00  0.00000000000E+00  0.33024695460E+03  0.12481835688E+04  0.12037022765E+04 0.  0.
        1    1    3    3  502    0 -0.23841392845E+03  0.15066120921E+03  0.71645217787E+03  0.76996345656E+03  0.50400001928E-02 0. -1.
       -1    1    3    3    0  502  0.23841392845E+03 -0.15066120921E+03 -0.38620522327E+03  0.47822011223E+03  0.50400001928E-02 0.  1.
</event>
<event>
 5   0  0.2096270E-03  0.1223265E+04  0.7818609E-02  0.9092733E-01
       -1   -1    0    0    0  501  0.00000000000E+00  0.00000000000E+00  0.39442435151E+03  0.39442435154E+03  0.50400001928E-02 0.  1.
        1   -1    0    0  501    0  0.00000000000E+00  0.00000000000E+00 -0.94845672272E+03  0.94845672273E+03  0.50400001928E-02 0. -1.
    10030    2    1    2    0    0  0.00000000000E+00  0.00000000000E+00 -0.55403237121E+03  0.13428810743E+04  0.12232651844E+04 0.  0.
        2    1    3    3  502    0  0.25400064380E+03  0.32917581454E+03  0.21542458652E+03  0.46827427477E+03  0.25500000920E-02 0.  1.
       -2    1    3    3    0  502 -0.25400064380E+03 -0.32917581454E+03 -0.76945695773E+03  0.87460679950E+03  0.25500000920E-02 0. -1.
</event>
<event>
 5   0  0.2047109E-03  0.1214128E+04  0.7818609E-02  0.9100579E-01
        1   -1    0    0  501    0  0.00000000000E+00  0.00000000000E+00  0.23443864388E+03  0.23443864393E+03  0.50400001928E-02 0.  1.
       -1   -1    0    0    0  501  0.00000000000E+00  0.00000000000E+00 -0.15719548452E+04  0.15719548452E+04  0.50400001928E-02 0. -1.
    10030    2    1    2    0    0  0.00000000000E+00  0.00000000000E+00 -0.13375162014E+04  0.18063934892E+04  0.12141284318E+04 0.  0.
        1    1    3    3  502    0  0.52456849318E+02  0.26230584399E+03  0.14202496040E+03  0.30286493068E+03  0.50400001928E-02 0.  1.
       -1    1    3    3    0  502 -0.52456849318E+02 -0.26230584399E+03 -0.14795411618E+04  0.15035285585E+04  0.50400001928E-02 0. -1.
</event>
<event>
 5   0  0.2025294E-03  0.1196213E+04  0.7818609E-02  0.9116178E-01
       -1   -1    0    0    0  501  0.00000000000E+00  0.00000000000E+00  0.54214282095E+03  0.54214282097E+03  0.50400001928E-02 0. -1.
        1   -1    0    0  501    0  0.00000000000E+00  0.00000000000E+00 -0.65984730619E+03  0.65984730620E+03  0.50400001928E-02 0.  1.
    10030    2    1    2    0    0  0.00000000000E+00  0.00000000000E+00 -0.11770448524E+03  0.12019901272E+04  0.11962131583E+04 0.  0.
        5    1    3    3  502    0 -0.10205992120E+03  0.24860543836E+03 -0.59574387256E+03  0.65356999869E+03  0.46999998093E+01 0.  1.
       -5    1    3    3    0  502  0.10205992120E+03 -0.24860543836E+03  0.47803938732E+03  0.54842012849E+03  0.46999998093E+01 0. -1.
</event>
<event>
 5   0  0.2096270E-03  0.1179349E+04  0.7818609E-02  0.9131127E-01
       -1   -1    0    0    0  501  0.00000000000E+00  0.00000000000E+00  0.57792258723E+03  0.57792258725E+03  0.50400001928E-02 0. -1.
        1   -1    0    0  501    0  0.00000000000E+00  0.00000000000E+00 -0.60166501888E+03  0.60166501891E+03  0.50400001928E-02 0.  1.
    10030    2    1    2    0    0  0.00000000000E+00  0.00000000000E+00 -0.23742431654E+02  0.11795876062E+04  0.11793486412E+04 0.  0.
        2    1    3    3  502    0 -0.45578395215E+03 -0.12813425455E+03  0.33970876532E+03  0.58271729292E+03  0.25500000920E-02 0. -1.
       -2    1    3    3    0  502  0.45578395215E+03  0.12813425455E+03 -0.36345119698E+03  0.59687031323E+03  0.25500000920E-02 0.  1.
</event>
<event>
 5   0  0.3626049E-03  0.1369305E+04  0.7818609E-02  0.8976342E-01
       -2   -1    0    0    0  501  0.00000000000E+00  0.00000000000E+00  0.47997240232E+03  0.47997240232E+03  0.25500000920E-02 0. -1.
        2   -1    0    0  501    0  0.00000000000E+00  0.00000000000E+00 -0.97661649088E+03  0.97661649089E+03  0.25500000920E-02 0.  1.
    10030    2    1    2    0    0  0.00000000000E+00  0.00000000000E+00 -0.49664408856E+03  0.14565888932E+04  0.13693048795E+04 0.  0.
        1    1    3    3  502    0  0.29229364999E+03 -0.40407525398E+03  0.25065926240E+03  0.55815988261E+03  0.50400001928E-02 0. -1.
       -1    1    3    3    0  502 -0.29229364999E+03  0.40407525398E+03 -0.74730335096E+03  0.89842901060E+03  0.50400001928E-02 0.  1.
</event>
<event>
 5   0  0.3650180E-03  0.1211274E+04  0.7818609E-02  0.9103046E-01
       -2   -1    0    0    0  501  0.00000000000E+00  0.00000000000E+00  0.36977741969E+03  0.36977741970E+03  0.25500000920E-02 0.  1.
        2   -1    0    0  501    0  0.00000000000E+00  0.00000000000E+00 -0.99193726215E+03  0.99193726216E+03  0.25500000920E-02 0. -1.
    10030    2    1    2    0    0  0.00000000000E+00  0.00000000000E+00 -0.62215984246E+03  0.13617146819E+04  0.12112737119E+04 0.  0.
        3    1    3    3  502    0  0.45684239209E+03 -0.28178469980E+03 -0.62643453793E+03  0.82494110624E+03  0.10100000352E+00 0.  1.
       -3    1    3    3    0  502 -0.45684239209E+03  0.28178469980E+03  0.42746954658E+01  0.53677357562E+03  0.10100000352E+00 0. -1.
</event>
<event>
 5   0  0.2047109E-03  0.1212867E+04  0.7818609E-02  0.9101668E-01
        1   -1    0    0  501    0  0.00000000000E+00  0.00000000000E+00  0.20807344328E+03  0.20807344334E+03  0.50400001928E-02 0. -1.
       -1   -1    0    0    0  501  0.00000000000E+00  0.00000000000E+00 -0.17674608281E+04  0.17674608281E+04  0.50400001928E-02 0.  1.
    10030    2    1    2    0    0  0.00000000000E+00  0.00000000000E+00 -0.15593873848E+04  0.19755342714E+04  0.12128671163E+04 0.  0.
        1    1    3    3  502    0  0.34730957092E+02  0.51746924217E+03 -0.12916207278E+04  0.13918565876E+04  0.50400001928E-02 0.  1.
       -1    1    3    3    0  502 -0.34730957092E+02 -0.51746924217E+03 -0.26776665704E+03  0.58367768385E+03  0.50400001928E-02 0. -1.
</event>
<event>
 5   0  0.2096270E-03  0.1199879E+04  0.7818609E-02  0.9112962E-01
       -1   -1    0    0    0  501  0.00000000000E+00  0.00000000000E+00  0.46306124410E+03  0.46306124412E+03  0.50400001928E-02 0.  1.
        1   -1    0    0  501    0  0.00000000000E+00  0.00000000000E+00 -0.77727815961E+03  0.77727815963E+03  0.50400001928E-02 0. -1.
    10030    2    1    2    0    0  0.00000000000E+00  0.00000000000E+00 -0.31421691551E+03  0.12403394037E+04  0.11998789799E+04 0.  0.
        2    1    3    3  502    0 -0.36114209557E+03  0.39832163824E+03 -0.43224834999E+03  0.68987127550E+03  0.25500000920E-02 0. -1.
       -2    1    3    3    0  502  0.36114209557E+03 -0.39832163824E+03  0.11803143448E+03  0.55046812825E+03  0.25500000920E-02 0.  1.
</event>
<event>
 5   0  0.1397500E-03  0.1204899E+04  0.7818609E-02  0.9108579E-01
        3   -1    0    0  501    0  0.00000000000E+00  0.00000000000E+00  0.82055713669E+03  0.82055714290E+03  0.10100000352E+00 0. -1.
       -3   -1    0    0    0  501  0.00000000000E+00  0.00000000000E+00 -0.44231611482E+03  0.44231612635E+03  0.10100000352E+00 0.  1.
    10030    2    1    2    0    0  0.00000000000E+00  0.00000000000E+00  0.37824102187E+03  0.12628732693E+04  0.12048994247E+04 0.  0.
        3    1    3    3  502    0  0.17597842029E+03  0.20136048631E+03  0.75493881542E+03  0.80090391127E+03  0.10100000352E+00 0. -1.
       -3    1    3    3    0  502 -0.17597842029E+03 -0.20136048631E+03 -0.37669779355E+03  0.46196935799E+03  0.10100000352E+00 0.  1.
</event>
<event>
 5   0  0.2047109E-03  0.1194408E+04  0.7818609E-02  0.9117765E-01
       -1   -1    0    0    0  501  0.00000000000E+00  0.00000000000E+00  0.38439021178E+03  0.38439021181E+03  0.50400001928E-02 0. -1.
        1   -1    0    0  501    0  0.00000000000E+00  0.00000000000E+00 -0.92784015472E+03  0.92784015473E+03  0.50400001928E-02 0.  1.
    10030    2    1    2    0    0  0.00000000000E+00  0.00000000000E+00 -0.54344994294E+03  0.13122303665E+04  0.11944080937E+04 0.  0.
        1    1    3    3  502    0 -0.23599197298E+03 -0.53266231077E+03 -0.12750789673E+03  0.59638880973E+03  0.50400001928E-02 0.  1.
       -1    1    3    3    0  502  0.23599197298E+03  0.53266231077E+03 -0.41594204621E+03  0.71584155681E+03  0.50400001928E-02 0. -1.
</event>
<event>
 5   0  0.2096270E-03  0.1052129E+04  0.7818609E-02  0.9253149E-01
       -1   -1    0    0    0  501  0.00000000000E+00  0.00000000000E+00  0.21842929627E+03  0.21842929633E+03  0.50400001928E-02 0. -1.
        1   -1    0    0  501    0  0.00000000000E+00  0.00000000000E+00 -0.12669715457E+04  0.12669715457E+04  0.50400001928E-02 0.  1.
    10030    2    1    2    0    0  0.00000000000E+00  0.00000000000E+00 -0.10485422494E+04  0.14854008421E+04  0.10521287054E+04 0.  0.
        2    1    3    3  502    0  0.29145494074E+03  0.43702243845E+03 -0.48411254839E+03  0.71435254161E+03  0.25500000920E-02 0. -1.
       -2    1    3    3    0  502 -0.29145494074E+03 -0.43702243845E+03 -0.56442970106E+03  0.77104830045E+03  0.25500000920E-02 0.  1.
</event>
<event>
 5   0  0.2078258E-03  0.1222669E+04  0.7818609E-02  0.9093242E-01
        1   -1    0    0  501    0  0.00000000000E+00  0.00000000000E+00  0.12089878968E+04  0.12089878968E+04  0.50400001928E-02 0. -1.
       -1   -1    0    0    0  501  0.00000000000E+00  0.00000000000E+00 -0.30912631626E+03  0.30912631630E+03  0.50400001928E-02 0.  1.
    10030    2    1    2    0    0  0.00000000000E+00  0.00000000000E+00  0.89986158052E+03  0.15181142131E+04  0.12226691702E+04 0.  0.
        3    1    3    3  502    0  0.20639590791E+02  0.56054370250E+03  0.75176597220E+03  0.93796978751E+03  0.10100000352E+00 0. -1.
       -3    1    3    3    0  502 -0.20639590791E+02 -0.56054370250E+03  0.14809560833E+03  0.58014442558E+03  0.10100000352E+00 0.  1.
</event>
<event>
 5   0  0.3626049E-03  0.1191484E+04  0.7818609E-02  0.9120343E-01
       -2   -1    0    0    0  501  0.00000000000E+00  0.00000000000E+00  0.18936441632E+03  0.18936441634E+03  0.25500000920E-02 0.  1.
        2   -1    0    0  501    0  0.00000000000E+00  0.00000000000E+00 -0.18742107525E+04  0.18742107525E+04  0.25500000920E-02 0. -1.
    10030    2    1    2    0    0  0.00000000000E+00  0.00000000000E+00 -0.16848463362E+04  0.20635751688E+04  0.11914844946E+04 0.  0.
        1    1    3    3  502    0  0.21005598588E+03 -0.53543668880E+03 -0.11112521451E+04  0.12512782644E+04  0.50400001928E-02 0. -1.
       -1    1    3    3    0  502 -0.21005598588E+03  0.53543668880E+03 -0.57359419105E+03  0.81229690443E+03  0.50400001928E-02 0.  1.
</event>
<event>
 5   0  0.2025294E-03  0.1210081E+04  0.7818609E-02  0.9104078E-01
        1   -1    0    0  501    0  0.00000000000E+00  0.00000000000E+00  0.38063124672E+03  0.38063124676E+03  0.50400001928E-02 0.  1.
       -1   -1    0    0    0  501  0.00000000000E+00  0.00000000000E+00 -0.96175578569E+03  0.96175578571E+03  0.50400001928E-02 0. -1.
    10030    2    1    2    0    0  0.00000000000E+00  0.00000000000E+00 -0.58112453897E+03  0.13423870325E+04  0.12100814911E+04 0.  0.
        5    1    3    3  502    0 -0.25189099669E+03 -0.12691306213E+03  0.30321364032E+03  0.41414562804E+03  0.46999998093E+01 0.  1.
       -5    1    3    3    0  502  0.25189099669E+03  0.12691306213E+03 -0.88433817928E+03  0.92824140443E+03  0.46999998093E+01 0. -1.
</event>
<event>
 5   0  0.3706035E-03  0.1219793E+04  0.7818609E-02  0.9095706E-01
       -2   -1    0    0    0  501  0.00000000000E+00  0.00000000000E+00  0.16337457947E+03  0.16337457949E+03  0.25500000920E-02 0.  1.
        2   -1    0    0  501    0  0.00000000000E+00  0.00000000000E+00 -0.22768140841E+04  0.22768140841E+04  0.25500000920E-02 0. -1.
    10030    2    1    2    0    0  0.00000000000E+00  0.00000000000E+00 -0.21134395046E+04  0.24401886636E+04  0.12197926767E+04 0.  0.
        2    1    3    3  502    0  0.20948436894E+02  0.55123412689E+03 -0.53630022759E+03  0.76936066560E+03  0.25500000920E-02 0. -1.
       -2    1    3    3    0  502 -0.20948436894E+02 -0.55123412689E+03 -0.15771392770E+04  0.16708279980E+04  0.25500000920E-02 0.  1.
</event>
<event>
 5   0  0.2096270E-03  0.1208615E+04  0.7818609E-02  0.9105349E-01
        1   -1    0    0  501    0  0.00000000000E+00  0.00000000000E+00  0.18199988890E+04  0.18199988890E+04  0.50400001928E-02 0. -1.
       -1   -1    0    0    0  501  0.00000000000E+00  0.00000000000E+00 -0.20065253406E+03  0.20065253412E+03  0.50400001928E-02 0.  1.
    10030    2    1    2    0    0  0.00000000000E+00  0.00000000000E+00  0.16193463549E+04  0.20206514231E+04  0.12086147263E+04 0.  0.
        2    1    3    3  502    0  0.46467111335E+03  0.28662137550E+03  0.37654381278E+03  0.66321663084E+03  0.25500000920E-02 0.  1.
       -2    1    3    3    0  502 -0.46467111335E+03 -0.28662137550E+03  0.12428025422E+04  0.13574347923E+04  0.25500000920E-02 0. -1.
</event>
<event>
 5   0  0.3650180E-03  0.1194562E+04  0.7818609E-02  0.9117630E-01
       -2   -1    0    0    0  501  0.00000000000E+00  0.00000000000E+00  0.42551370095E+03  0.42551370096E+03  0.25500000920E-02 0. -1.
        2   -1    0    0  501    0  0.00000000000E+00  0.00000000000E+00 -0.83838548855E+03  0.83838548856E+03  0.25500000920E-02 0.  1.
    10030    2    1    2    0    0  0.00000000000E+00  0.00000000000E+00 -0.41287178760E+03  0.12638991895E+04  0.11945618646E+04 0.  0.
        3    1    3    3  502    0  0.13861773404E+03 -0.34059040503E+02 -0.82007377740E+03  0.83240369113E+03  0.10100000352E+00 0.  1.
       -3    1    3    3    0  502 -0.13861773404E+03  0.34059040503E+02  0.40720198979E+03  0.43149549838E+03  0.10100000352E+00 0. -1.
</event>
<event>
 5   0  0.2047109E-03  0.1221884E+04  0.7818609E-02  0.9093914E-01
       -1   -1    0    0    0  501  0.00000000000E+00  0.00000000000E+00  0.89277065440E+03  0.89277065441E+03  0.50400001928E-02 0.  1.
        1   -1    0    0  501    0  0.00000000000E+00  0.00000000000E+00 -0.41808050942E+03  0.41808050945E+03  0.50400001928E-02 0. -1.
    10030    2    1    2    0    0  0.00000000000E+00  0.00000000000E+00  0.47469014497E+03  0.13108511639E+04  0.12218838079E+04 0.  0.
        1    1    3    3  502    0 -0.42696485718E+03  0.37210661863E+03 -0.84381216433E+01  0.56642168639E+03  0.50400001928E-02 0. -1.
       -1    1    3    3    0  502  0.42696485718E+03 -0.37210661863E+03  0.48312826662E+03  0.74442947747E+03  0.50400001928E-02 0.  1.
</event>
<event>
 5   0  0.3650180E-03  0.1223786E+04  0.7818609E-02  0.9092287E-01
       -2   -1    0    0    0  501  0.00000000000E+00  0.00000000000E+00  0.18859060908E+03  0.18859060909E+03  0.25500000920E-02 0. -1.
        2   -1    0    0  501    0  0.00000000000E+00  0.00000000000E+00 -0.19853228211E+04  0.19853228211E+04  0.25500000920E-02 0.  1.
    10030    2    1    2    0    0  0.00000000000E+00  0.00000000000E+00 -0.17967322120E+04  0.21739134302E+04  0.12237863213E+04 0.  0.
        3    1    3    3  502    0 -0.54177069698E+03 -0.35516161029E+02 -0.13996598769E+04  0.15012743477E+04  0.10100000352E+00 0.  1.
       -3    1    3    3    0  502  0.54177069698E+03  0.35516161029E+02 -0.39707233510E+03  0.67263908250E+03  0.10100000352E+00 0. -1.
</event>
<event>
 5   0  0.2078258E-03  0.1198537E+04  0.7818609E-02  0.9114138E-01
       -1   -1    0    0    0  501  0.00000000000E+00  0.00000000000E+00  0.14822725068E+03  0.14822725077E+03  0.50400001928E-02 0.  1.
        1   -1    0    0  501    0  0.00000000000E+00  0.00000000000E+00 -0.24227846367E+04  0.24227846367E+04  0.50400001928E-02 0. -1.
    10030    2    1    2    0    0  0.00000000000E+00  0.00000000000E+00 -0.22745573860E+04  0.25710118875E+04  0.11985369511E+04 0.  0.
        3    1    3    3  502    0  0.61009091857E+02  0.59019367135E+03 -0.95688377740E+03  0.11259117428E+04  0.10100000352E+00 0.  1.
       -3    1    3    3    0  502 -0.61009091857E+02 -0.59019367135E+03 -0.13176736086E+04  0.14451001446E+04  0.10100000352E+00 0. -1.
</event>
<event>
 5   0  0.2025294E-03  0.1201830E+04  0.7818609E-02  0.9111257E-01
        1   -1    0    0  501    0  0.00000000000E+00  0.00000000000E+00  0.10509442399E+04  0.10509442400E+04  0.50400001928E-02 0. -1.
       -1   -1    0    0    0  501  0.00000000000E+00  0.00000000000E+00 -0.34359438850E+03  0.34359438853E+03  0.50400001928E-02 0.  1.
    10030    2    1    2    0    0  0.00000000000E+00  0.00000000000E+00  0.70734985144E+03  0.13945386285E+04  0.12018295112E+04 0.  0.
        5    1    3    3  502    0 -0.18778548627E+03 -0.26879456699E+03  0.93796732391E+03  0.99363911901E+03  0.46999998093E+01 0. -1.
       -5    1    3    3    0  502  0.18778548627E+03  0.26879456699E+03 -0.23061747247E+03  0.40089950948E+03  0.46999998093E+01 0.  1.
</event>
<event>
 5   0  0.2078258E-03  0.1203305E+04  0.7818609E-02  0.9109969E-01
       -1   -1    0    0    0  501  0.00000000000E+00  0.00000000000E+00  0.25712429972E+03  0.25712429976E+03  0.50400001928E-02 0. -1.
        1   -1    0    0  501    0  0.00000000000E+00  0.00000000000E+00 -0.14078233054E+04  0.14078233054E+04  0.50400001928E-02 0.  1.
    10030    2    1    2    0    0  0.00000000000E+00  0.00000000000E+00 -0.11506990057E+04  0.16649476052E+04  0.12033047520E+04 0.  0.
        3    1    3    3  502    0 -0.53047528847E+02 -0.96274237857E+02  0.24311274026E+03  0.26680814056E+03  0.10100000352E+00 0. -1.
       -3    1    3    3    0  502  0.53047528847E+02  0.96274237857E+02 -0.13938117460E+04  0.13981394646E+04  0.10100000352E+00 0.  1.
</event>
<event>
 5   0  0.3751091E-03  0.1208989E+04  0.7818609E-02  0.9105024E-01
       -2   -1    0    0    0  501  0.00000000000E+00  0.00000000000E+00  0.26453225670E+03  0.26453225671E+03  0.25500000920E-02 0. -1.
        2   -1    0    0  501    0  0.00000000000E+00  0.00000000000E+00 -0.13813581491E+04  0.13813581491E+04  0.25500000920E-02 0.  1.
    10030    2    1    2    0    0  0.00000000000E+00  0.00000000000E+00 -0.11168258924E+04  0.16458904058E+04  0.12089893110E+04 0.  0.
        5    1    3    3  502    0  0.16830926716E+03 -0.57967924708E+03 -0.51460156254E+03  0.79321680332E+03  0.46999998093E+01 0.  1.
       -5    1    3    3    0  502 -0.16830926716E+03  0.57967924708E+03 -0.60222432987E+03  0.85267360250E+03  0.46999998093E+01 0. -1.
</event>
<event>
 5   0  0.3626049E-03  0.1195608E+04  0.7818609E-02  0.9116710E-01
        2   -1    0    0  501    0  0.00000000000E+00  0.00000000000E+00  0.29957977668E+03  0.29957977669E+03  0.25500000920E-02 0. -1.
       -2   -1    0    0    0  501  0.00000000000E+00  0.00000000000E+00 -0.11929027670E+04  0.11929027670E+04  0.25500000920E-02 0.  1.
    10030    2    1    2    0    0  0.00000000000E+00  0.00000000000E+00 -0.89332299027E+03  0.14924825436E+04  0.11956078697E+04 0.  0.
        1    1    3    3  502    0 -0.12079800166E+03 -0.46526782949E+03 -0.89029846562E+03  0.10117794563E+04  0.50400001928E-02 0.  1.
       -1    1    3    3    0  502  0.12079800166E+03  0.46526782949E+03 -0.30245246453E+01  0.48070308730E+03  0.50400001928E-02 0. -1.
</event>
<event>
 5   0  0.3626049E-03  0.1196505E+04  0.7818609E-02  0.9115921E-01
        2   -1    0    0  501    0  0.00000000000E+00  0.00000000000E+00  0.17392106770E+04  0.17392106770E+04  0.25500000920E-02 0. -1.
       -2   -1    0    0    0  501  0.00000000000E+00  0.00000000000E+00 -0.20578641400E+03  0.20578641402E+03  0.25500000920E-02 0.  1.
    10030    2    1    2    0    0  0.00000000000E+00  0.00000000000E+00  0.15334242630E+04  0.19449970910E+04  0.11965047905E+04 0.  0.
        1    1    3    3  502    0  0.33637929966E+02  0.55425489986E+03  0.11286549161E+04  0.12578521074E+04  0.50400001928E-02 0. -1.
       -1    1    3    3    0  502 -0.33637929966E+02 -0.55425489986E+03  0.40476934691E+03  0.68714498367E+03  0.50400001928E-02 0.  1.
</event>
<event>
 5   0  0.2096270E-03  0.1167809E+04  0.7818609E-02  0.9141509E-01
       -1   -1    0    0    0  501  0.00000000000E+00  0.00000000000E+00  0.52989208241E+03  0.52989208243E+03  0.50400001928E-02 0.  1.
        1   -1    0    0  501    0  0.00000000000E+00  0.00000000000E+00 -0.64342269206E+03  0.64342269208E+03  0.50400001928E-02 0. -1.
    10030    2    1    2    0    0  0.00000000000E+00  0.00000000000E+00 -0.11353060965E+03  0.11733147745E+04  0.11678092142E+04 0.  0.
        2    1    3    3  502    0  0.96651393940E+02 -0.63903129468E+02 -0.63175652753E+03  0.64229386732E+03  0.25500000920E-02 0. -1.
       -2    1    3    3    0  502 -0.96651393940E+02  0.63903129468E+02  0.51822591788E+03  0.53102090719E+03  0.25500000920E-02 0.  1.
</event>
<event>
 5   0  0.1397500E-03  0.1201527E+04  0.7818609E-02  0.9111521E-01
        4   -1    0    0  501    0  0.00000000000E+00  0.00000000000E+00  0.43539845888E+03  0.43540031109E+03  0.12699999809E+01 0. -1.
       -4   -1    0    0    0  501  0.00000000000E+00  0.00000000000E+00 -0.82893098028E+03  0.82893195316E+03  0.12699999809E+01 0.  1.
    10030    2    1    2    0    0  0.00000000000E+00  0.00000000000E+00 -0.39353252141E+03  0.12643322643E+04  0.12015274566E+04 0.  0.
        1    1    3    3  502    0  0.49146427148E+02 -0.49590043738E+02 -0.82464886420E+03  0.82759911370E+03  0.50400001928E-02 0.  1.
       -1    1    3    3    0  502 -0.49146427148E+02  0.49590043738E+02  0.43111634280E+03  0.43673315055E+03  0.50400001928E-02 0. -1.
</event>
<event>
 5   0  0.3706035E-03  0.1206523E+04  0.7818609E-02  0.9107166E-01
        2   -1    0    0  501    0  0.00000000000E+00  0.00000000000E+00  0.66680073351E+03  0.66680073352E+03  0.25500000920E-02 0.  1.
       -2   -1    0    0    0  501  0.00000000000E+00  0.00000000000E+00 -0.54577694841E+03  0.54577694842E+03  0.25500000920E-02 0. -1.
    10030    2    1    2    0    0  0.00000000000E+00  0.00000000000E+00  0.12102378510E+03  0.12125776819E+04  0.12065230533E+04 0.  0.
        2    1    3    3  502    0  0.14601496919E+03  0.37290330733E+02  0.64757808015E+03  0.66488217745E+03  0.25500000920E-02 0.  1.
       -2    1    3    3    0  502 -0.14601496919E+03 -0.37290330733E+02 -0.52655429505E+03  0.54769550449E+03  0.25500000920E-02 0. -1.
</event>
<event>
 5   0  0.2025294E-03  0.1235303E+04  0.7818609E-02  0.9082505E-01
       -1   -1    0    0    0  501  0.00000000000E+00  0.00000000000E+00  0.39974381659E+03  0.39974381663E+03  0.50400001928E-02 0.  1.
        1   -1    0    0  501    0  0.00000000000E+00  0.00000000000E+00 -0.95434397637E+03  0.95434397638E+03  0.50400001928E-02 0. -1.
    10030    2    1    2    0    0  0.00000000000E+00  0.00000000000E+00 -0.55460015977E+03  0.13540877930E+04  0.12353025597E+04 0.  0.
        5    1    3    3  502    0 -0.10956575182E+03  0.44611025377E+03  0.17525821936E+03  0.49168744741E+03  0.46999998093E+01 0.  1.
       -5    1    3    3    0  502  0.10956575182E+03 -0.44611025377E+03 -0.72985837913E+03  0.86240034559E+03  0.46999998093E+01 0. -1.
</event>
<event>
 5   0  0.2134992E-03  0.1199550E+04  0.7818609E-02  0.9113251E-01
       -1   -1    0    0    0  501  0.00000000000E+00  0.00000000000E+00  0.48864971362E+03  0.48864971364E+03  0.50400001928E-02 0. -1.
        1   -1    0    0  501    0  0.00000000000E+00  0.00000000000E+00 -0.73617161217E+03  0.73617161219E+03  0.50400001928E-02 0.  1.
    10030    2    1    2    0    0  0.00000000000E+00  0.00000000000E+00 -0.24752189855E+03  0.12248213258E+04  0.11995499948E+04 0.  0.
        4    1    3    3  502    0 -0.12745663678E+03  0.30008854073E+03 -0.63778506024E+03  0.71628885410E+03  0.12699999809E+01 0.  1.
       -4    1    3    3    0  502  0.12745663678E+03 -0.30008854073E+03  0.39026316169E+03  0.50853247173E+03  0.12699999809E+01 0. -1.
</event>
<event>
 5   0  0.2078258E-03  0.1257272E+04  0.7818609E-02  0.9064153E-01
       -1   -1    0    0    0  501  0.00000000000E+00  0.00000000000E+00  0.59591843636E+03  0.59591843638E+03  0.50400001928E-02 0.  1.
        1   -1    0    0  501    0  0.00000000000E+00  0.00000000000E+00 -0.66314956605E+03  0.66314956607E+03  0.50400001928E-02 0. -1.
    10030    2    1    2    0    0  0.00000000000E+00  0.00000000000E+00 -0.67231129692E+02  0.12590680024E+04  0.12572717328E+04 0.  0.
        3    1    3    3  502    0 -0.42762790630E+03 -0.16156088833E+03  0.39852789434E+03  0.60645860506E+03  0.10100000352E+00 0.  1.
       -3    1    3    3    0  502  0.42762790630E+03  0.16156088833E+03 -0.46575902404E+03  0.65260939739E+03  0.10100000352E+00 0. -1.
</event>
<event>
 5   0  0.2025294E-03  0.1202268E+04  0.7818609E-02  0.9110874E-01
        1   -1    0    0  501    0  0.00000000000E+00  0.00000000000E+00  0.93029316632E+03  0.93029316633E+03  0.50400001928E-02 0.  1.
       -1   -1    0    0    0  501  0.00000000000E+00  0.00000000000E+00 -0.38843865662E+03  0.38843865665E+03  0.50400001928E-02 0. -1.
    10030    2    1    2    0    0  0.00000000000E+00  0.00000000000E+00  0.54185450970E+03  0.13187318230E+04  0.12022675706E+04 0.  0.
        5    1    3    3  502    0 -0.37021187420E+03  0.39079485964E+03 -0.22497972238E+02  0.53880024394E+03  0.46999998093E+01 0. -1.
       -5    1    3    3    0  502  0.37021187420E+03 -0.39079485964E+03  0.56435248194E+03  0.77993157904E+03  0.46999998093E+01 0.  1.
</event>
<event>
 5   0  0.3706035E-03  0.1203512E+04  0.7818609E-02  0.9109788E-01
       -2   -1    0    0    0  501  0.00000000000E+00  0.00000000000E+00  0.66292528767E+03  0.66292528768E+03  0.25500000920E-02 0.  1.
        2   -1    0    0  501    0  0.00000000000E+00  0.00000000000E+00 -0.54623129726E+03  0.54623129726E+03  0.25500000920E-02 0. -1.
    10030    2    1    2    0    0  0.00000000000E+00  0.00000000000E+00  0.11669399041E+03  0.12091565849E+04  0.12035124260E+04 0.  0.
        2    1    3    3  502    0  0.10700442609E+03 -0.15074530790E+03  0.63368996239E+03  0.66010382782E+03  0.25500000920E-02 0.  1.
       -2    1    3    3    0  502 -0.10700442609E+03  0.15074530790E+03 -0.51699597198E+03  0.54905275712E+03  0.25500000920E-02 0. -1.
</event>
<event>
 5   0  0.3706035E-03  0.1195748E+04  0.7818609E-02  0.9116587E-01
        2   -1    0    0  501    0  0.00000000000E+00  0.00000000000E+00  0.15690163276E+04  0.15690163276E+04  0.25500000920E-02 0.  1.
       -2   -1    0    0    0  501  0.00000000000E+00  0.00000000000E+00 -0.22781982482E+03  0.22781982483E+03  0.25500000920E-02 0. -1.
    10030    2    1    2    0    0  0.00000000000E+00  0.00000000000E+00  0.13411965028E+04  0.17968361524E+04  0.11957475066E+04 0.  0.
        2    1    3    3  502    0  0.10366339301E+03 -0.49589761251E+03  0.19352719745E+03  0.54232215269E+03  0.25500000920E-02 0. -1.
       -2    1    3    3    0  502 -0.10366339301E+03  0.49589761251E+03  0.11476693053E+04  0.12545139997E+04  0.25500000920E-02 0.  1.
</event>
<event>
 5   0  0.2134992E-03  0.1198696E+04  0.7818609E-02  0.9113999E-01
       -1   -1    0    0    0  501  0.00000000000E+00  0.00000000000E+00  0.49796491008E+03  0.49796491011E+03  0.50400001928E-02 0. -1.
        1   -1    0    0  501    0  0.00000000000E+00  0.00000000000E+00 -0.72137230683E+03  0.72137230684E+03  0.50400001928E-02 0.  1.
    10030    2    1    2    0    0  0.00000000000E+00  0.00000000000E+00 -0.22340739674E+03  0.12193372170E+04  0.11986961182E+04 0.  0.
        4    1    3    3  502    0 -0.45581512304E+03  0.87988126748E+01  0.28406093816E+03  0.53715647160E+03  0.12699999809E+01 0. -1.
       -4    1    3    3    0  502  0.45581512304E+03 -0.87988126748E+01 -0.50746833491E+03  0.68218074535E+03  0.12699999809E+01 0.  1.
</event>
<event>
 5   0  0.2047109E-03  0.1196748E+04  0.7818609E-02  0.9115708E-01
       -1   -1    0    0    0  501  0.00000000000E+00  0.00000000000E+00  0.31111659015E+03  0.31111659019E+03  0.50400001928E-02 0. -1.
        1   -1    0    0  501    0  0.00000000000E+00  0.00000000000E+00 -0.11508593812E+04  0.11508593812E+04  0.50400001928E-02 0.  1.
    10030    2    1    2    0    0  0.00000000000E+00  0.00000000000E+00 -0.83974279103E+03  0.14619759714E+04  0.11967480043E+04 0.  0.
        1    1    3    3  502    0  0.21625608321E+03  0.38033116935E+03 -0.91854682478E+03  0.10174216241E+04  0.50400001928E-02 0.  1.
       -1    1    3    3    0  502 -0.21625608321E+03 -0.38033116935E+03  0.78804033749E+02  0.44455434726E+03  0.50400001928E-02 0. -1.
</event>
<event>
 5   0  0.2047109E-03  0.1248442E+04  0.7818609E-02  0.9071481E-01
       -1   -1    0    0    0  501  0.00000000000E+00  0.00000000000E+00  0.31713286340E+03  0.31713286344E+03  0.50400001928E-02 0. -1.
        1   -1    0    0  501    0  0.00000000000E+00  0.00000000000E+00 -0.12286697238E+04  0.12286697238E+04  0.50400001928E-02 0.  1.
    10030    2    1    2    0    0  0.00000000000E+00  0.00000000000E+00 -0.91153686035E+03  0.15458025872E+04  0.12484415048E+04 0.  0.
        1    1    3    3  502    0  0.26712971547E+03  0.38256252656E+01 -0.11543056793E+04  0.11848183496E+04  0.50400001928E-02 0.  1.
       -1    1    3    3    0  502 -0.26712971547E+03 -0.38256252656E+01  0.24276881896E+03  0.36098423758E+03  0.50400001928E-02 0. -1.
</event>
<event>
 5   0  0.1397500E-03  0.1310304E+04  0.7818609E-02  0.9021434E-01
        3   -1    0    0  501    0  0.00000000000E+00  0.00000000000E+00  0.32601204516E+03  0.32601206080E+03  0.10100000352E+00 0. -1.
       -3   -1    0    0    0  501  0.00000000000E+00  0.00000000000E+00 -0.13165898191E+04  0.13165898230E+04  0.10100000352E+00 0.  1.
    10030    2    1    2    0    0  0.00000000000E+00  0.00000000000E+00 -0.99057777393E+03  0.16426018838E+04  0.13103040190E+04 0.  0.
        5    1    3    3  502    0 -0.44009737292E+03  0.76909862156E+02  0.10539690407E+03  0.45905492257E+03  0.46999998093E+01 0. -1.
       -5    1    3    3    0  502  0.44009737292E+03 -0.76909862156E+02 -0.10959746780E+04  0.11835469612E+04  0.46999998093E+01 0.  1.
</event>
<event>
 5   0  0.2025294E-03  0.1200469E+04  0.7818609E-02  0.9112446E-01
        1   -1    0    0  501    0  0.00000000000E+00  0.00000000000E+00  0.58117774437E+03  0.58117774439E+03  0.50400001928E-02 0. -1.
       -1   -1    0    0    0  501  0.00000000000E+00  0.00000000000E+00 -0.61991568710E+03  0.61991568712E+03  0.50400001928E-02 0.  1.
    10030    2    1    2    0    0  0.00000000000E+00  0.00000000000E+00 -0.38737942738E+02  0.12010934315E+04  0.12004685764E+04 0.  0.
        5    1    3    3  502    0  0.56657628336E+03 -0.18251380449E+03 -0.96474881773E+02  0.60303355339E+03  0.46999998093E+01 0. -1.
       -5    1    3    3    0  502 -0.56657628336E+03  0.18251380449E+03  0.57736939035E+02  0.59805987813E+03  0.46999998093E+01 0.  1.
</event>
<event>
 5   0  0.3626049E-03  0.1202491E+04  0.7818609E-02  0.9110679E-01
        2   -1    0    0  501    0  0.00000000000E+00  0.00000000000E+00  0.94797080182E+03  0.94797080183E+03  0.25500000920E-02 0. -1.
       -2   -1    0    0    0  501  0.00000000000E+00  0.00000000000E+00 -0.38133675926E+03  0.38133675926E+03  0.25500000920E-02 0.  1.
    10030    2    1    2    0    0  0.00000000000E+00  0.00000000000E+00  0.56663404257E+03  0.13293075611E+04  0.12024909371E+04 0.  0.
        1    1    3    3  502    0 -0.45226543401E+03  0.27509343502E+03  0.59847187692E+03  0.79899249576E+03  0.50400001928E-02 0. -1.
       -1    1    3    3    0  502  0.45226543401E+03 -0.27509343502E+03 -0.31837834352E+02  0.53031506533E+03  0.50400001928E-02 0.  1.
</event>
<event>
 5   0  0.3650180E-03  0.1198848E+04  0.7818609E-02  0.9113866E-01
        2   -1    0    0  501    0  0.00000000000E+00  0.00000000000E+00  0.81057090045E+03  0.81057090045E+03  0.25500000920E-02 0. -1.
       -2   -1    0    0    0  501  0.00000000000E+00  0.00000000000E+00 -0.44327902207E+03  0.44327902208E+03  0.25500000920E-02 0.  1.
    10030    2    1    2    0    0  0.00000000000E+00  0.00000000000E+00  0.36729187838E+03  0.12538499225E+04  0.11988479071E+04 0.  0.
        3    1    3    3  502    0 -0.50353481889E+03 -0.28178249857E+03  0.35345359419E+03  0.67666693712E+03  0.10100000352E+00 0. -1.
       -3    1    3    3    0  502  0.50353481889E+03  0.28178249857E+03  0.13838284194E+02  0.57718298541E+03  0.10100000352E+00 0.  1.
</event>
<event>
 5   0  0.3626049E-03  0.1206272E+04  0.7818609E-02  0.9107384E-01
       -2   -1    0    0    0  501  0.00000000000E+00  0.00000000000E+00  0.42780425291E+03  0.42780425292E+03  0.25500000920E-02 0.  1.
        2   -1    0    0  501    0  0.00000000000E+00  0.00000000000E+00 -0.85032568265E+03  0.85032568266E+03  0.25500000920E-02 0. -1.
    10030    2    1    2    0    0  0.00000000000E+00  0.00000000000E+00 -0.42252142974E+03  0.12781299356E+04  0.12062718490E+04 0.  0.
        1    1    3    3  502    0  0.28819362151E+03 -0.47372579603E+03 -0.46267435315E+03  0.72217674457E+03  0.50400001928E-02 0.  1.
       -1    1    3    3    0  502 -0.28819362151E+03  0.47372579603E+03  0.40152923410E+02  0.55595319101E+03  0.50400001928E-02 0. -1.
</event>
<event>
 5   0  0.3650180E-03  0.1195401E+04  0.7818609E-02  0.9116892E-01
       -2   -1    0    0    0  501  0.00000000000E+00  0.00000000000E+00  0.47150848396E+03  0.47150848397E+03  0.25500000920E-02 0.  1.
        2   -1    0    0  501    0  0.00000000000E+00  0.00000000000E+00 -0.75766596459E+03  0.75766596460E+03  0.25500000920E-02 0. -1.
    10030    2    1    2    0    0  0.00000000000E+00  0.00000000000E+00 -0.28615748063E+03  0.12291744486E+04  0.11954010713E+04 0.  0.
        3    1    3    3  502    0 -0.19027990313E+02 -0.24159654986E+03  0.41872281270E+03  0.48379723169E+03  0.10100000352E+00 0.  1.
       -3    1    3    3    0  502  0.19027990313E+02  0.24159654986E+03 -0.70488029333E+03  0.74537721688E+03  0.10100000352E+00 0. -1.
</event>
<event>
 5   0  0.3751091E-03  0.1219204E+04  0.7818609E-02  0.9096211E-01
        2   -1    0    0  501    0  0.00000000000E+00  0.00000000000E+00  0.51202085196E+03  0.51202085197E+03  0.25500000920E-02 0.  1.
       -2   -1    0    0    0  501  0.00000000000E+00  0.00000000000E+00 -0.72578033374E+03  0.72578033375E+03  0.25500000920E-02 0. -1.
    10030    2    1    2    0    0  0.00000000000E+00  0.00000000000E+00 -0.21375948178E+03  0.12378011857E+04  0.12192041090E+04 0.  0.
        5    1    3    3  502    0  0.46286817950E+03  0.48003110760E+02  0.29287922388E+03  0.54986505619E+03  0.46999998093E+01 0.  1.
       -5    1    3    3    0  502 -0.46286817950E+03 -0.48003110760E+02 -0.50663870566E+03  0.68793612953E+03  0.46999998093E+01 0. -1.
</event>
<event>
 5   0  0.1397500E-03  0.1210940E+04  0.7818609E-02  0.9103334E-01
        4   -1    0    0  501    0  0.00000000000E+00  0.00000000000E+00  0.52313667317E+03  0.52313821474E+03  0.12699999809E+01 0.  1.
       -4   -1    0    0    0  501  0.00000000000E+00  0.00000000000E+00 -0.70075829441E+03  0.70075944523E+03  0.12699999809E+01 0. -1.
    10030    2    1    2    0    0  0.00000000000E+00  0.00000000000E+00 -0.17762162124E+03  0.12238976600E+04  0.12109401479E+04 0.  0.
        1    1    3    3  502    0  0.27466533492E+03 -0.51078870011E+03  0.86969331441E+02  0.58643823802E+03  0.50400001928E-02 0.  1.
       -1    1    3    3    0  502 -0.27466533492E+03  0.51078870011E+03 -0.26459095268E+03  0.63745942195E+03  0.50400001928E-02 0. -1.
</event>
<event>
 5   0  0.2078258E-03  0.1216080E+04  0.7818609E-02  0.9098897E-01
       -1   -1    0    0    0  501  0.00000000000E+00  0.00000000000E+00  0.52513769118E+03  0.52513769120E+03  0.50400001928E-02 0. -1.
        1   -1    0    0  501    0  0.00000000000E+00  0.00000000000E+00 -0.70403013638E+03  0.70403013640E+03  0.50400001928E-02 0.  1.
    10030    2    1    2    0    0  0.00000000000E+00  0.00000000000E+00 -0.17889244520E+03  0.12291678276E+04  0.12160801953E+04 0.  0.
        3    1    3    3  502    0 -0.21703987267E+03  0.19728440140E+03 -0.62779953742E+03  0.69293557474E+03  0.10100000352E+00 0.  1.
       -3    1    3    3    0  502  0.21703987267E+03 -0.19728440140E+03  0.44890709221E+03  0.53623225286E+03  0.10100000352E+00 0. -1.
</event>
<event>
 5   0  0.3626049E-03  0.1180889E+04  0.7818609E-02  0.9129751E-01
       -2   -1    0    0    0  501  0.00000000000E+00  0.00000000000E+00  0.62996500926E+03  0.62996500926E+03  0.25500000920E-02 0. -1.
        2   -1    0    0  501    0  0.00000000000E+00  0.00000000000E+00 -0.55340292385E+03  0.55340292385E+03  0.25500000920E-02 0.  1.
    10030    2    1    2    0    0  0.00000000000E+00  0.00000000000E+00  0.76562085412E+02  0.11833679331E+04  0.11808886113E+04 0.  0.
        1    1    3    3  502    0  0.31610774092E+03 -0.31548565128E+03 -0.34875410892E+03  0.56664338746E+03  0.50400001928E-02 0.  1.
       -1    1    3    3    0  502 -0.31610774092E+03  0.31548565128E+03  0.42531619433E+03  0.61672454566E+03  0.50400001928E-02 0. -1.
</event>
<event>
 5   0  0.2078258E-03  0.1189333E+04  0.7818609E-02  0.9122245E-01
       -1   -1    0    0    0  501  0.00000000000E+00  0.00000000000E+00  0.35369493085E+03  0.35369493088E+03  0.50400001928E-02 0. -1.
        1   -1    0    0  501    0  0.00000000000E+00  0.00000000000E+00 -0.99981088251E+03  0.99981088252E+03  0.50400001928E-02 0.  1.
    10030    2    1    2    0    0  0.00000000000E+00  0.00000000000E+00 -0.64611595166E+03  0.13535058134E+04  0.11893326549E+04 0.  0.
        3    1    3    3  502    0 -0.45502737350E+03  0.14164954269E+03  0.81727819791E+02  0.48352244033E+03  0.10100000352E+00 0. -1.
       -3    1    3    3    0  502  0.45502737350E+03 -0.14164954269E+03 -0.72784377146E+03  0.86998337307E+03  0.10100000352E+00 0.  1.
</event>
<event>
 5   0  0.2096270E-03  0.1190168E+04  0.7818609E-02  0.9121507E-01
       -1   -1    0    0    0  501  0.00000000000E+00  0.00000000000E+00  0.26344262745E+03  0.26344262750E+03  0.50400001928E-02 0. -1.
        1   -1    0    0  501    0  0.00000000000E+00  0.00000000000E+00 -0.13442196117E+04  0.13442196117E+04  0.50400001928E-02 0.  1.
    10030    2    1    2    0    0  0.00000000000E+00  0.00000000000E+00 -0.10807769842E+04  0.16076622392E+04  0.11901676292E+04 0.  0.
        2    1    3    3  502    0  0.27651664436E+02  0.58972485331E+03 -0.43944281187E+03  0.73596875074E+03  0.25500000920E-02 0. -1.
       -2    1    3    3    0  502 -0.27651664436E+02 -0.58972485331E+03 -0.64133417237E+03  0.87169348846E+03  0.25500000920E-02 0.  1.
</event>
<event>
 5   0  0.2134992E-03  0.1200228E+04  0.7818609E-02  0.9112657E-01
       -1   -1    0    0    0  501  0.00000000000E+00  0.00000000000E+00  0.52134078971E+03  0.52134078973E+03  0.50400001928E-02 0.  1.
        1   -1    0    0  501    0  0.00000000000E+00  0.00000000000E+00 -0.69079005965E+03  0.69079005967E+03  0.50400001928E-02 0. -1.
    10030    2    1    2    0    0  0.00000000000E+00  0.00000000000E+00 -0.16944926994E+03  0.12121308494E+04  0.12002283703E+04 0.  0.
        4    1    3    3  502    0 -0.46544091077E+02  0.57636548365E+03 -0.24685293468E+03  0.62873007516E+03  0.12699999809E+01 0. -1.
       -4    1    3    3    0  502  0.46544091077E+02 -0.57636548365E+03  0.77403664734E+02  0.58340077423E+03  0.12699999809E+01 0.  1.
</event>
<event>
 5   0  0.3725376E-03  0.1188446E+04  0.7818609E-02  0.9123031E-01
       -2   -1    0    0    0  501  0.00000000000E+00  0.00000000000E+00  0.64355109868E+03  0.64355109868E+03  0.25500000920E-02 0. -1.
        2   -1    0    0  501    0  0.00000000000E+00  0.00000000000E+00 -0.54867560225E+03  0.54867560225E+03  0.25500000920E-02 0.  1.
    10030    2    1    2    0    0  0.00000000000E+00  0.00000000000E+00  0.94875496429E+02  0.11922267009E+04  0.11884456852E+04 0.  0.
        4    1    3    3  502    0 -0.22470155430E+03 -0.50288837682E+03 -0.17623272856E+03  0.57831401121E+03  0.12699999809E+01 0.  1.
       -4    1    3    3    0  502  0.22470155430E+03  0.50288837682E+03  0.27110822499E+03  0.61391268972E+03  0.12699999809E+01 0. -1.
</event>
<event>
 5   0  0.2025294E-03  0.1230211E+04  0.7818609E-02  0.9086816E-01
        1   -1    0    0  501    0  0.00000000000E+00  0.00000000000E+00  0.51905083402E+03  0.51905083405E+03  0.50400001928E-02 0.  1.
       -1   -1    0    0    0  501  0.00000000000E+00  0.00000000000E+00 -0.72893586352E+03  0.72893586354E+03  0.50400001928E-02 0. -1.
    10030    2    1    2    0    0  0.00000000000E+00  0.00000000000E+00 -0.20988502950E+03  0.12479866976E+04  0.12302109867E+04 0.  0.
        5    1    3    3  502    0  0.26867247811E+03 -0.14880157175E+02  0.45615559217E+03  0.52962848661E+03  0.46999998093E+01 0.  1.
       -5    1    3    3    0  502 -0.26867247811E+03  0.14880157175E+02 -0.66604062166E+03  0.71835821097E+03  0.46999998093E+01 0. -1.
</event>
<event>
 5   0  0.2025294E-03  0.1197398E+04  0.7818609E-02  0.9115137E-01
       -1   -1    0    0    0  501  0.00000000000E+00  0.00000000000E+00  0.27669120915E+03  0.27669120919E+03  0.50400001928E-02 0.  1.
        1   -1    0    0  501    0  0.00000000000E+00  0.00000000000E+00 -0.12954539522E+04  0.12954539523E+04  0.50400001928E-02 0. -1.
    10030    2    1    2    0    0  0.00000000000E+00  0.00000000000E+00 -0.10187627431E+04  0.15721451615E+04  0.11973983806E+04 0.  0.
        5    1    3    3  502    0  0.27778732037E+03  0.31560261647E+03 -0.10689702524E+04  0.11486906883E+04  0.46999998093E+01 0. -1.
       -5    1    3    3    0  502 -0.27778732037E+03 -0.31560261647E+03  0.50207509253E+02  0.42345447319E+03  0.46999998093E+01 0.  1.
</event>
<event>
 5   0  0.2025294E-03  0.1198063E+04  0.7818609E-02  0.9114553E-01
       -1   -1    0    0    0  501  0.00000000000E+00  0.00000000000E+00  0.10206964551E+04  0.10206964551E+04  0.50400001928E-02 0.  1.
        1   -1    0    0  501    0  0.00000000000E+00  0.00000000000E+00 -0.35156287696E+03  0.35156287700E+03  0.50400001928E-02 0. -1.
    10030    2    1    2    0    0  0.00000000000E+00  0.00000000000E+00  0.66913357813E+03  0.13722593321E+04  0.11980634078E+04 0.  0.
        5    1    3    3  502    0 -0.21605725432E+02  0.53701391490E+03  0.63753729128E+03  0.83386248263E+03  0.46999998093E+01 0. -1.
       -5    1    3    3    0  502  0.21605725432E+02 -0.53701391490E+03  0.31596286844E+02  0.53839684946E+03  0.46999998093E+01 0.  1.
</event>
<event>
 5   0  0.3751091E-03  0.1240792E+04  0.7818609E-02  0.9077882E-01
       -2   -1    0    0    0  501  0.00000000000E+00  0.00000000000E+00  0.26129143781E+03  0.26129143782E+03  0.25500000920E-02 0. -1.
        2   -1    0    0  501    0  0.00000000000E+00  0.00000000000E+00 -0.14730343663E+04  0.14730343663E+04  0.25500000920E-02 0.  1.
    10030    2    1    2    0    0  0.00000000000E+00  0.00000000000E+00 -0.12117429285E+04  0.17343258041E+04  0.12407921140E+04 0.  0.
        5    1    3    3  502    0 -0.21882845723E+03  0.30025750840E+03  0.88560175705E+02  0.38197573191E+03  0.46999998093E+01 0. -1.
       -5    1    3    3    0  502  0.21882845723E+03 -0.30025750840E+03 -0.13003031042E+04  0.13523500722E+04  0.46999998093E+01 0.  1.
</event>
<event>
 5   0  0.3626049E-03  0.1196035E+04  0.7818609E-02  0.9116334E-01
        2   -1    0    0  501    0  0.00000000000E+00  0.00000000000E+00  0.13537134689E+04  0.13537134690E+04  0.25500000920E-02 0.  1.
       -2   -1    0    0    0  501  0.00000000000E+00  0.00000000000E+00 -0.26418083657E+03  0.26418083659E+03  0.25500000920E-02 0. -1.
    10030    2    1    2    0    0  0.00000000000E+00  0.00000000000E+00  0.10895326324E+04  0.16178943055E+04  0.11960353786E+04 0.  0.
        1    1    3    3  502    0 -0.13698986312E+03 -0.52908828961E+03  0.87312925339E+03  0.10300754021E+04  0.50400001928E-02 0. -1.
       -1    1    3    3    0  502  0.13698986312E+03  0.52908828961E+03  0.21640337898E+03  0.58781890346E+03  0.50400001928E-02 0.  1.
</event>
<event>
 5   0  0.2096270E-03  0.1200504E+04  0.7818609E-02  0.9112416E-01
       -1   -1    0    0    0  501  0.00000000000E+00  0.00000000000E+00  0.10543278585E+04  0.10543278585E+04  0.50400001928E-02 0.  1.
        1   -1    0    0  501    0  0.00000000000E+00  0.00000000000E+00 -0.34173652797E+03  0.34173652800E+03  0.50400001928E-02 0. -1.
    10030    2    1    2    0    0  0.00000000000E+00  0.00000000000E+00  0.71259133056E+03  0.13960643865E+04  0.12005037972E+04 0.  0.
        2    1    3    3  502    0 -0.16658795612E+03 -0.37297120706E+03  0.86776397068E+03  0.95910029572E+03  0.25500000920E-02 0.  1.
       -2    1    3    3    0  502  0.16658795612E+03  0.37297120706E+03 -0.15517264013E+03  0.43696409082E+03  0.25500000920E-02 0. -1.
</event>
<event>
 5   0  0.1397500E-03  0.1229975E+04  0.7818609E-02  0.9087016E-01
        4   -1    0    0  501    0  0.00000000000E+00  0.00000000000E+00  0.89604842433E+03  0.89604932434E+03  0.12699999809E+01 0. -1.
       -4   -1    0    0    0  501  0.00000000000E+00  0.00000000000E+00 -0.42208442065E+03  0.42208633128E+03  0.12699999809E+01 0.  1.
    10030    2    1    2    0    0  0.00000000000E+00  0.00000000000E+00  0.47396400368E+03  0.13181356556E+04  0.12299754997E+04 0.  0.
        4    1    3    3  502    0  0.40276969807E+03  0.35280757579E+03 -0.87209755901E+02  0.54249771395E+03  0.12699999809E+01 0. -1.
       -4    1    3    3    0  502 -0.40276969807E+03 -0.35280757579E+03  0.56117375958E+03  0.77563794167E+03  0.12699999809E+01 0.  1.
</event>
<event>
 5   0  0.3626049E-03  0.1064508E+04  0.7818609E-02  0.9240492E-01
        2   -1    0    0  501    0  0.00000000000E+00  0.00000000000E+00  0.67762463376E+03  0.67762463377E+03  0.25500000920E-02 0. -1.
       -2   -1    0    0    0  501  0.00000000000E+00  0.00000000000E+00 -0.41806993341E+03  0.41806993342E+03  0.25500000920E-02 0.  1.
    10030    2    1    2    0    0  0.00000000000E+00  0.00000000000E+00  0.25955470035E+03  0.10956945672E+04  0.10645083100E+04 0.  0.
        1    1    3    3  502    0  0.44837407747E+03 -0.14354681962E+03  0.38534458302E+03  0.60838758244E+03  0.50400001928E-02 0. -1.
       -1    1    3    3    0  502 -0.44837407747E+03  0.14354681962E+03 -0.12578988267E+03  0.48730698475E+03  0.50400001928E-02 0.  1.
</event>
<event>
 5   0  0.1397500E-03  0.1195696E+04  0.7818609E-02  0.9116632E-01
        3   -1    0    0  501    0  0.00000000000E+00  0.00000000000E+00  0.10324162603E+04  0.10324162653E+04  0.10100000352E+00 0.  1.
       -3   -1    0    0    0  501  0.00000000000E+00  0.00000000000E+00 -0.34619956112E+03  0.34619957586E+03  0.10100000352E+00 0. -1.
    10030    2    1    2    0    0  0.00000000000E+00  0.00000000000E+00  0.68621669921E+03  0.13786158411E+04  0.11956957302E+04 0.  0.
        1    1    3    3  502    0 -0.20946885590E+03 -0.18344772298E+03 -0.26687457030E+03  0.38568420366E+03  0.50400001928E-02 0. -1.
       -1    1    3    3    0  502  0.20946885590E+03  0.18344772298E+03  0.95309126950E+03  0.99293163747E+03  0.50400001928E-02 0.  1.
</event>
<event>
 5   0  0.3626049E-03  0.1193741E+04  0.7818609E-02  0.9118352E-01
        2   -1    0    0  501    0  0.00000000000E+00  0.00000000000E+00  0.93650005458E+03  0.93650005458E+03  0.25500000920E-02 0. -1.
       -2   -1    0    0    0  501  0.00000000000E+00  0.00000000000E+00 -0.38041065651E+03  0.38041065652E+03  0.25500000920E-02 0.  1.
    10030    2    1    2    0    0  0.00000000000E+00  0.00000000000E+00  0.55608939807E+03  0.13169107111E+04  0.11937413465E+04 0.  0.
        1    1    3    3  502    0 -0.31861191253E+03 -0.13302160498E+03 -0.25906461834E+03  0.43165121881E+03  0.50400001928E-02 0.  1.
       -1    1    3    3    0  502  0.31861191253E+03  0.13302160498E+03  0.81515401641E+03  0.88525949229E+03  0.50400001928E-02 0. -1.
</event>
<event>
 5   0  0.3650180E-03  0.1207901E+04  0.7818609E-02  0.9105969E-01
       -2   -1    0    0    0  501  0.00000000000E+00  0.00000000000E+00  0.11461884241E+04  0.11461884241E+04  0.25500000920E-02 0. -1.
        2   -1    0    0  501    0  0.00000000000E+00  0.00000000000E+00 -0.31823423839E+03  0.31823423840E+03  0.25500000920E-02 0.  1.
    10030    2    1    2    0    0  0.00000000000E+00  0.00000000000E+00  0.82795418575E+03  0.14644226625E+04  0.12079013208E+04 0.  0.
        3    1    3    3  502    0 -0.36236292411E+03  0.36848242212E+03  0.79286961709E+03  0.94642930221E+03  0.10100000352E+00 0. -1.
       -3    1    3    3    0  502  0.36236292411E+03 -0.36848242212E+03  0.35084568659E+02  0.51799336032E+03  0.10100000352E+00 0.  1.
</event>
<event>
 5   0  0.2134992E-03  0.1154133E+04  0.7818609E-02  0.9153979E-01
        1   -1    0    0  501    0  0.00000000000E+00  0.00000000000E+00  0.51241045781E+03  0.51241045784E+03  0.50400001928E-02 0.  1.
       -1   -1    0    0    0  501  0.00000000000E+00  0.00000000000E+00 -0.64988056463E+03  0.64988056465E+03  0.50400001928E-02 0. -1.
    10030    2    1    2    0    0  0.00000000000E+00  0.00000000000E+00 -0.13747010682E+03  0.11622910225E+04  0.11541327440E+04 0.  0.
        4    1    3    3  502    0  0.42688843015E+03  0.70285694903E+02 -0.45331162000E+03  0.62663134970E+03  0.12699999809E+01 0. -1.
       -4    1    3    3    0  502 -0.42688843015E+03 -0.70285694903E+02  0.31584151318E+03  0.53565967279E+03  0.12699999809E+01 0.  1.
</event>
<event>
 5   0  0.2134992E-03  0.1196187E+04  0.7818609E-02  0.9116201E-01
        1   -1    0    0  501    0  0.00000000000E+00  0.00000000000E+00  0.16587795535E+04  0.16587795535E+04  0.50400001928E-02 0.  1.
       -1   -1    0    0    0  501  0.00000000000E+00  0.00000000000E+00 -0.21564995817E+03  0.21564995822E+03  0.50400001928E-02 0. -1.
    10030    2    1    2    0    0  0.00000000000E+00  0.00000000000E+00  0.14431295953E+04  0.18744295117E+04  0.11961868439E+04 0.  0.
        4    1    3    3  502    0  0.21923743919E+03 -0.40760904098E+02 -0.14806962762E+03  0.26768028237E+03  0.12699999809E+01 0. -1.
       -4    1    3    3    0  502 -0.21923743919E+03  0.40760904098E+02  0.15911992230E+04  0.16067492294E+04  0.12699999809E+01 0.  1.
</event>
<event>
 5   0  0.2047109E-03  0.1197558E+04  0.7818609E-02  0.9114997E-01
       -1   -1    0    0    0  501  0.00000000000E+00  0.00000000000E+00  0.26124963607E+03  0.26124963612E+03  0.50400001928E-02 0.  1.
        1   -1    0    0  501    0  0.00000000000E+00  0.00000000000E+00 -0.13723893591E+04  0.13723893591E+04  0.50400001928E-02 0. -1.
    10030    2    1    2    0    0  0.00000000000E+00  0.00000000000E+00 -0.11111397231E+04  0.16336389953E+04  0.11975578828E+04 0.  0.
        1    1    3    3  502    0  0.28622710169E+03 -0.30295263677E+03  0.30900096802E+02  0.41792471795E+03  0.50400001928E-02 0.  1.
       -1    1    3    3    0  502 -0.28622710169E+03  0.30295263677E+03 -0.11420398199E+04  0.12157142773E+04  0.50400001928E-02 0. -1.
</event>
<event>
 5   0  0.3751091E-03  0.1184905E+04  0.7818609E-02  0.9126172E-01
       -2   -1    0    0    0  501  0.00000000000E+00  0.00000000000E+00  0.76014634204E+03  0.76014634205E+03  0.25500000920E-02 0. -1.
        2   -1    0    0  501    0  0.00000000000E+00  0.00000000000E+00 -0.46175349345E+03  0.46175349346E+03  0.25500000920E-02 0.  1.
    10030    2    1    2    0    0  0.00000000000E+00  0.00000000000E+00  0.29839284859E+03  0.12218998355E+04  0.11849054460E+04 0.  0.
        5    1    3    3  502    0 -0.28229954874E+03  0.29417720708E+03  0.59243557093E+03  0.71919069799E+03  0.46999998093E+01 0. -1.
       -5    1    3    3    0  502  0.28229954874E+03 -0.29417720708E+03 -0.29404272233E+03  0.50270913751E+03  0.46999998093E+01 0.  1.
</event>
<event>
 5   0  0.2047109E-03  0.1203848E+04  0.7818609E-02  0.9109495E-01
        1   -1    0    0  501    0  0.00000000000E+00  0.00000000000E+00  0.85370369333E+03  0.85370369335E+03  0.50400001928E-02 0. -1.
       -1   -1    0    0    0  501  0.00000000000E+00  0.00000000000E+00 -0.42440051047E+03  0.42440051050E+03  0.50400001928E-02 0.  1.
    10030    2    1    2    0    0  0.00000000000E+00  0.00000000000E+00  0.42930318287E+03  0.12781042038E+04  0.12038476370E+04 0.  0.
        1    1    3    3  502    0 -0.10182687176E+02 -0.39285047710E+03 -0.26940714428E+03  0.47646132465E+03  0.50400001928E-02 0.  1.
       -1    1    3    3    0  502  0.10182687176E+02  0.39285047710E+03  0.69871032715E+03  0.80164287919E+03  0.50400001928E-02 0. -1.
</event>
<event>
 5   0  0.1397500E-03  0.1193351E+04  0.7818609E-02  0.9118696E-01
        3   -1    0    0  501    0  0.00000000000E+00  0.00000000000E+00  0.46801678500E+03  0.46801679590E+03  0.10100000352E+00 0.  1.
       -3   -1    0    0    0  501  0.00000000000E+00  0.00000000000E+00 -0.76070254410E+03  0.76070255081E+03  0.10100000352E+00 0. -1.
    10030    2    1    2    0    0  0.00000000000E+00  0.00000000000E+00 -0.29268575910E+03  0.12287193467E+04  0.11933508618E+04 0.  0.
        3    1    3    3  502    0 -0.28019071163E+03 -0.52454525355E+03 -0.19643666298E+03  0.62629220869E+03  0.10100000352E+00 0. -1.
       -3    1    3    3    0  502  0.28019071163E+03  0.52454525355E+03 -0.96249096121E+02  0.60242713801E+03  0.10100000352E+00 0.  1.
</event>
<event>
 5   0  0.3751091E-03  0.1197171E+04  0.7818609E-02  0.9115336E-01
       -2   -1    0    0    0  501  0.00000000000E+00  0.00000000000E+00  0.39991154411E+03  0.39991154412E+03  0.25500000920E-02 0. -1.
        2   -1    0    0  501    0  0.00000000000E+00  0.00000000000E+00 -0.89595954174E+03  0.89595954174E+03  0.25500000920E-02 0.  1.
    10030    2    1    2    0    0  0.00000000000E+00  0.00000000000E+00 -0.49604799763E+03  0.12958710859E+04  0.11971709382E+04 0.  0.
        5    1    3    3  502    0 -0.17140728581E+03  0.40924601631E+03 -0.68291850486E+03  0.81440931587E+03  0.46999998093E+01 0. -1.
       -5    1    3    3    0  502  0.17140728581E+03 -0.40924601631E+03  0.18687050723E+03  0.48146176999E+03  0.46999998093E+01 0.  1.
</event>
<event>
 5   0  0.3626049E-03  0.1219883E+04  0.7818609E-02  0.9095629E-01
        2   -1    0    0  501    0  0.00000000000E+00  0.00000000000E+00  0.10000744875E+04  0.10000744875E+04  0.25500000920E-02 0. -1.
       -2   -1    0    0    0  501  0.00000000000E+00  0.00000000000E+00 -0.37200075308E+03  0.37200075308E+03  0.25500000920E-02 0.  1.
    10030    2    1    2    0    0  0.00000000000E+00  0.00000000000E+00  0.62807373443E+03  0.13720752406E+04  0.12198827198E+04 0.  0.
        1    1    3    3  502    0 -0.27309031593E+03  0.92356953947E+02  0.91861008304E+03  0.96278378273E+03  0.50400001928E-02 0. -1.
       -1    1    3    3    0  502  0.27309031593E+03 -0.92356953947E+02 -0.29053634861E+03  0.40929145787E+03  0.50400001928E-02 0.  1.
</event>
<event>
 5   0  0.3725376E-03  0.1193348E+04  0.7818609E-02  0.9118699E-01
        2   -1    0    0  501    0  0.00000000000E+00  0.00000000000E+00  0.39985554090E+03  0.39985554090E+03  0.25500000920E-02 0. -1.
       -2   -1    0    0    0  501  0.00000000000E+00  0.00000000000E+00 -0.89037061826E+03  0.89037061827E+03  0.25500000920E-02 0.  1.
    10030    2    1    2    0    0  0.00000000000E+00  0.00000000000E+00 -0.49051507737E+03  0.12902261592E+04  0.11933476026E+04 0.  0.
        4    1    3    3  502    0  0.13843683339E+03  0.32528485895E+03  0.27443358660E+03  0.44753815777E+03  0.12699999809E+01 0. -1.
       -4    1    3    3    0  502 -0.13843683339E+03 -0.32528485895E+03 -0.76494866397E+03  0.84268800140E+03  0.12699999809E+01 0.  1.
</event>
<event>
 5   0  0.3751091E-03  0.1178766E+04  0.7818609E-02  0.9131648E-01
        2   -1    0    0  501    0  0.00000000000E+00  0.00000000000E+00  0.13992407464E+04  0.13992407464E+04  0.25500000920E-02 0. -1.
       -2   -1    0    0    0  501  0.00000000000E+00  0.00000000000E+00 -0.24825790081E+03  0.24825790082E+03  0.25500000920E-02 0.  1.
    10030    2    1    2    0    0  0.00000000000E+00  0.00000000000E+00  0.11509828456E+04  0.16474986472E+04  0.11787664238E+04 0.  0.
        5    1    3    3  502    0 -0.33948756114E+03  0.33585418661E+03  0.10582374401E+04  0.11610074972E+04  0.46999998093E+01 0.  1.
       -5    1    3    3    0  502  0.33948756114E+03 -0.33585418661E+03  0.92745405459E+02  0.48649115004E+03  0.46999998093E+01 0. -1.
</event>
<event>
 5   0  0.2134992E-03  0.1196143E+04  0.7818609E-02  0.9116240E-01
       -1   -1    0    0    0  501  0.00000000000E+00  0.00000000000E+00  0.87200111208E+03  0.87200111209E+03  0.50400001928E-02 0. -1.
        1   -1    0    0  501    0  0.00000000000E+00  0.00000000000E+00 -0.41019369257E+03  0.41019369260E+03  0.50400001928E-02 0.  1.
    10030    2    1    2    0    0  0.00000000000E+00  0.00000000000E+00  0.46180741951E+03  0.12821948047E+04  0.11961427275E+04 0.  0.
        4    1    3    3  502    0 -0.20611989006E+03 -0.52084640471E+03  0.45555498217E+03  0.72200993141E+03  0.12699999809E+01 0. -1.
       -4    1    3    3    0  502  0.20611989006E+03  0.52084640471E+03  0.62524373345E+01  0.56018487328E+03  0.12699999809E+01 0.  1.
</event>
<event>
 5   0  0.3626049E-03  0.1205953E+04  0.7818609E-02  0.9107662E-01
        2   -1    0    0  501    0  0.00000000000E+00  0.00000000000E+00  0.10028027658E+04  0.10028027658E+04  0.25500000920E-02 0. -1.
       -2   -1    0    0    0  501  0.00000000000E+00  0.00000000000E+00 -0.36256464591E+03  0.36256464592E+03  0.25500000920E-02 0.  1.
    10030    2    1    2    0    0  0.00000000000E+00  0.00000000000E+00  0.64023811993E+03  0.13653674118E+04  0.12059532822E+04 0.  0.
        1    1    3    3  502    0 -0.10443303482E+03  0.26607832422E+03 -0.28098379352E+03  0.40081894370E+03  0.50400001928E-02 0.  1.
       -1    1    3    3    0  502  0.10443303482E+03 -0.26607832422E+03  0.92122191346E+03  0.96454846806E+03  0.50400001928E-02 0. -1.
</event>
<event>
 5   0  0.2134992E-03  0.1203279E+04  0.7818609E-02  0.9109992E-01
       -1   -1    0    0    0  501  0.00000000000E+00  0.00000000000E+00  0.12071158190E+04  0.12071158190E+04  0.50400001928E-02 0.  1.
        1   -1    0    0  501    0  0.00000000000E+00  0.00000000000E+00 -0.29986345105E+03  0.29986345109E+03  0.50400001928E-02 0. -1.
    10030    2    1    2    0    0  0.00000000000E+00  0.00000000000E+00  0.90725236799E+03  0.15069792701E+04  0.12032787131E+04 0.  0.
        4    1    3    3  502    0 -0.40949058715E+03  0.11818672819E+02  0.10054562488E+04  0.10857099535E+04  0.12699999809E+01 0.  1.
       -4    1    3    3    0  502  0.40949058715E+03 -0.11818672819E+02 -0.98203880852E+02  0.42126931659E+03  0.12699999809E+01 0. -1.
</event>
<event>
 5   0  0.2096270E-03  0.1200446E+04  0.7818609E-02  0.9112466E-01
       -1   -1    0    0    0  501  0.00000000000E+00  0.00000000000E+00  0.43942226119E+03  0.43942226122E+03  0.50400001928E-02 0.  1.
        1   -1    0    0  501    0  0.00000000000E+00  0.00000000000E+00 -0.81986669596E+03  0.81986669598E+03  0.50400001928E-02 0. -1.
    10030    2    1    2    0    0  0.00000000000E+00  0.00000000000E+00 -0.38044443477E+03  0.12592889572E+04  0.12004460462E+04 0.  0.
        2    1    3    3  502    0 -0.28511191075E+02  0.21357068571E+03  0.39745455274E+03  0.45210114721E+03  0.25500000920E-02 0.  1.
       -2    1    3    3    0  502  0.28511191075E+02 -0.21357068571E+03 -0.77789898751E+03  0.80718780998E+03  0.25500000920E-02 0. -1.
</event>
<event>
 5   0  0.2096270E-03  0.1200394E+04  0.7818609E-02  0.9112512E-01
       -1   -1    0    0    0  501  0.00000000000E+00  0.00000000000E+00  0.11316167266E+04  0.11316167266E+04  0.50400001928E-02 0.  1.
        1   -1    0    0  501    0  0.00000000000E+00  0.00000000000E+00 -0.31833774295E+03  0.31833774299E+03  0.50400001928E-02 0. -1.
    10030    2    1    2    0    0  0.00000000000E+00  0.00000000000E+00  0.81327898365E+03  0.14499544696E+04  0.12003937932E+04 0.  0.
        2    1    3    3  502    0  0.50783670421E+03 -0.30042905586E+03  0.27387727449E+03  0.65051095090E+03  0.25500000920E-02 0. -1.
       -2    1    3    3    0  502 -0.50783670421E+03  0.30042905586E+03  0.53940170916E+03  0.79944351871E+03  0.25500000920E-02 0.  1.
</event>
<event>
 5   0  0.2047109E-03  0.1185085E+04  0.7818609E-02  0.9126012E-01
        1   -1    0    0  501    0  0.00000000000E+00  0.00000000000E+00  0.71051233701E+03  0.71051233703E+03  0.50400001928E-02 0. -1.
       -1   -1    0    0    0  501  0.00000000000E+00  0.00000000000E+00 -0.49416004054E+03  0.49416004056E+03  0.50400001928E-02 0.  1.
    10030    2    1    2    0    0  0.00000000000E+00  0.00000000000E+00  0.21635229647E+03  0.12046723776E+04  0.11850853223E+04 0.  0.
        1    1    3    3  502    0 -0.12064936098E+03 -0.68026014736E+02  0.69382595658E+03  0.70751555816E+03  0.50400001928E-02 0. -1.
       -1    1    3    3    0  502  0.12064936098E+03  0.68026014736E+02 -0.47747366011E+03  0.49715681943E+03  0.50400001928E-02 0.  1.
</event>
<event>
 5   0  0.2134992E-03  0.1271387E+04  0.7818609E-02  0.9052568E-01
       -1   -1    0    0    0  501  0.00000000000E+00  0.00000000000E+00  0.76019371627E+03  0.76019371628E+03  0.50400001928E-02 0. -1.
        1   -1    0    0  501    0  0.00000000000E+00  0.00000000000E+00 -0.53158350466E+03  0.53158350468E+03  0.50400001928E-02 0.  1.
    10030    2    1    2    0    0  0.00000000000E+00  0.00000000000E+00  0.22861021161E+03  0.12917772210E+04  0.12713873366E+04 0.  0.
        4    1    3    3  502    0 -0.24768016282E+03  0.41444317761E+03  0.53445377395E+03  0.72024375034E+03  0.12699999809E+01 0. -1.
       -4    1    3    3    0  502  0.24768016282E+03 -0.41444317761E+03 -0.30584356234E+03  0.57153347063E+03  0.12699999809E+01 0.  1.
</event>
<event>
 5   0  0.3725376E-03  0.1198976E+04  0.7818609E-02  0.9113754E-01
        2   -1    0    0  501    0  0.00000000000E+00  0.00000000000E+00  0.40671915855E+03  0.40671915856E+03  0.25500000920E-02 0.  1.
       -2   -1    0    0    0  501  0.00000000000E+00  0.00000000000E+00 -0.88362099242E+03  0.88362099242E+03  0.25500000920E-02 0. -1.
    10030    2    1    2    0    0  0.00000000000E+00  0.00000000000E+00 -0.47690183387E+03  0.12903401510E+04  0.11989755402E+04 0.  0.
        4    1    3    3  502    0 -0.39757806239E+03 -0.39281190847E+03 -0.50999388465E+01  0.55892498012E+03  0.12699999809E+01 0.  1.
       -4    1    3    3    0  502  0.39757806239E+03  0.39281190847E+03 -0.47180189502E+03  0.73141517087E+03  0.12699999809E+01 0. -1.
</event>
<event>
 5   0  0.3725376E-03  0.1157518E+04  0.7818609E-02  0.9150876E-01
        2   -1    0    0  501    0  0.00000000000E+00  0.00000000000E+00  0.18040177718E+04  0.18040177718E+04  0.25500000920E-02 0.  1.
       -2   -1    0    0    0  501  0.00000000000E+00  0.00000000000E+00 -0.18567540397E+03  0.18567540399E+03  0.25500000920E-02 0. -1.
    10030    2    1    2    0    0  0.00000000000E+00  0.00000000000E+00  0.16183423679E+04  0.19896931758E+04  0.11575175654E+04 0.  0.
        4    1    3    3  502    0 -0.52586905262E+03  0.83462389219E+02  0.41925070504E+03  0.67769978420E+03  0.12699999809E+01 0. -1.
       -4    1    3    3    0  502  0.52586905262E+03 -0.83462389219E+02  0.11990916628E+04  0.13119933916E+04  0.12699999809E+01 0.  1.
</event>
<event>
 5   0  0.2025294E-03  0.1183188E+04  0.7818609E-02  0.9127700E-01
       -1   -1    0    0    0  501  0.00000000000E+00  0.00000000000E+00  0.26319133691E+03  0.26319133696E+03  0.50400001928E-02 0.  1.
        1   -1    0    0  501    0  0.00000000000E+00  0.00000000000E+00 -0.13297686445E+04  0.13297686446E+04  0.50400001928E-02 0. -1.
    10030    2    1    2    0    0  0.00000000000E+00  0.00000000000E+00 -0.10665773076E+04  0.15929599815E+04  0.11831882139E+04 0.  0.
        5    1    3    3  502    0 -0.40512366261E+03  0.25713738518E+03 -0.99911962954E+03  0.11083803233E+04  0.46999998093E+01 0. -1.
       -5    1    3    3    0  502  0.40512366261E+03 -0.25713738518E+03 -0.67457678101E+02  0.48457965826E+03  0.46999998093E+01 0.  1.
</event>
<event>
 5   0  0.3706035E-03  0.1369126E+04  0.7818609E-02  0.8976475E-01
        2   -1    0    0  501    0  0.00000000000E+00  0.00000000000E+00  0.18231402683E+04  0.18231402683E+04  0.25500000920E-02 0.  1.
       -2   -1    0    0    0  501  0.00000000000E+00  0.00000000000E+00 -0.25704340407E+03  0.25704340408E+03  0.25500000920E-02 0. -1.
    10030    2    1    2    0    0  0.00000000000E+00  0.00000000000E+00  0.15660968642E+04  0.20801836724E+04  0.13691255321E+04 0.  0.
        2    1    3    3  502    0 -0.12941288645E+03  0.66903223914E+03  0.68371547208E+03  0.96530755666E+03  0.25500000920E-02 0.  1.
       -2    1    3    3    0  502  0.12941288645E+03 -0.66903223914E+03  0.88238139217E+03  0.11148761157E+04  0.25500000920E-02 0. -1.
</event>
<event>
 5   0  0.2025294E-03  0.1188201E+04  0.7818609E-02  0.9123247E-01
       -1   -1    0    0    0  501  0.00000000000E+00  0.00000000000E+00  0.52377520819E+03  0.52377520822E+03  0.50400001928E-02 0. -1.
        1   -1    0    0  501    0  0.00000000000E+00  0.00000000000E+00 -0.67386850087E+03  0.67386850089E+03  0.50400001928E-02 0.  1.
    10030    2    1    2    0    0  0.00000000000E+00  0.00000000000E+00 -0.15009329267E+03  0.11976437091E+04  0.11882013539E+04 0.  0.
        5    1    3    3  502    0 -0.38772549978E+03  0.26683647000E+03  0.29032642203E+03  0.55303190344E+03  0.46999998093E+01 0. -1.
       -5    1    3    3    0  502  0.38772549978E+03 -0.26683647000E+03 -0.44041971470E+03  0.64461180566E+03  0.46999998093E+01 0.  1.
</event>
<event>
 5   0  0.3626049E-03  0.1218693E+04  0.7818609E-02  0.9096650E-01
        2   -1    0    0  501    0  0.00000000000E+00  0.00000000000E+00  0.54903185024E+03  0.54903185024E+03  0.25500000920E-02 0. -1.
       -2   -1    0    0    0  501  0.00000000000E+00  0.00000000000E+00 -0.67628698704E+03  0.67628698704E+03  0.25500000920E-02 0.  1.
    10030    2    1    2    0    0  0.00000000000E+00  0.00000000000E+00 -0.12725513680E+03  0.12253188373E+04  0.12186928994E+04 0.  0.
        1    1    3    3  502    0 -0.14634559470E+03  0.10117289765E+03  0.52233612469E+03  0.55180432717E+03  0.50400001928E-02 0. -1.
       -1    1    3    3    0  502  0.14634559470E+03 -0.10117289765E+03 -0.64959126149E+03  0.67351451011E+03  0.50400001928E-02 0.  1.
</event>
<event>
 5   0  0.3725376E-03  0.1195350E+04  0.7818609E-02  0.9116937E-01
        2   -1    0    0  501    0  0.00000000000E+00  0.00000000000E+00  0.11604834083E+04  0.11604834083E+04  0.25500000920E-02 0. -1.
       -2   -1    0    0    0  501  0.00000000000E+00  0.00000000000E+00 -0.30781578606E+03  0.30781578607E+03  0.25500000920E-02 0.  1.
    10030    2    1    2    0    0  0.00000000000E+00  0.00000000000E+00  0.85266762221E+03  0.14682991943E+04  0.11953495096E+04 0.  0.
        4    1    3    3  502    0 -0.93528233864E+02  0.12816040471E+03 -0.28147412987E+03  0.32311285730E+03  0.12699999809E+01 0.  1.
       -4    1    3    3    0  502  0.93528233864E+02 -0.12816040471E+03  0.11341417521E+04  0.11451863370E+04  0.12699999809E+01 0. -1.
</event>
<event>
 5   0  0.2025294E-03  0.1233875E+04  0.7818609E-02  0.9083712E-01
       -1   -1    0    0    0  501  0.00000000000E+00  0.00000000000E+00  0.48665293520E+03  0.48665293522E+03  0.50400001928E-02 0. -1.
        1   -1    0    0  501    0  0.00000000000E+00  0.00000000000E+00 -0.78210093241E+03  0.78210093242E+03  0.50400001928E-02 0.  1.
    10030    2    1    2    0    0  0.00000000000E+00  0.00000000000E+00 -0.29544799721E+03  0.12687538676E+04  0.12338747334E+04 0.  0.
        5    1    3    3  502    0 -0.53328750369E+03 -0.27597187595E+03 -0.29326510123E+03  0.66826831999E+03  0.46999998093E+01 0.  1.
       -5    1    3    3    0  502  0.53328750369E+03  0.27597187595E+03 -0.21828959791E+01  0.60048554765E+03  0.46999998093E+01 0. -1.
</event>
<event>
 5   0  0.3725376E-03  0.1202695E+04  0.7818609E-02  0.9110501E-01
        2   -1    0    0  501    0  0.00000000000E+00  0.00000000000E+00  0.62489274126E+03  0.62489274126E+03  0.25500000920E-02 0. -1.
       -2   -1    0    0    0  501  0.00000000000E+00  0.00000000000E+00 -0.57868954248E+03  0.57868954249E+03  0.25500000920E-02 0.  1.
    10030    2    1    2    0    0  0.00000000000E+00  0.00000000000E+00  0.46203198774E+02  0.12035822838E+04  0.12026951310E+04 0.  0.
        4    1    3    3  502    0  0.32752710131E+03  0.37210314624E+03 -0.31756473254E+03  0.58871361950E+03  0.12699999809E+01 0.  1.
       -4    1    3    3    0  502 -0.32752710131E+03 -0.37210314624E+03  0.36376793131E+03  0.61486866425E+03  0.12699999809E+01 0. -1.
</event>
<event>
 5   0  0.3751091E-03  0.1201739E+04  0.7818609E-02  0.9111335E-01
       -2   -1    0    0    0  501  0.00000000000E+00  0.00000000000E+00  0.77973260077E+03  0.77973260077E+03  0.25500000920E-02 0. -1.
        2   -1    0    0  501    0  0.00000000000E+00  0.00000000000E+00 -0.46303612120E+03  0.46303612120E+03  0.25500000920E-02 0.  1.
    10030    2    1    2    0    0  0.00000000000E+00  0.00000000000E+00  0.31669647957E+03  0.12427687220E+04  0.12017393379E+04 0.  0.
        5    1    3    3  502    0 -0.52527077715E+03  0.15684273044E+03 -0.96044803912E+02  0.55655702832E+03  0.46999998093E+01 0. -1.
       -5    1    3    3    0  502  0.52527077715E+03 -0.15684273044E+03  0.41274128348E+03  0.68621169365E+03  0.46999998093E+01 0.  1.
</event>
<event>
 5   0  0.3626049E-03  0.1205174E+04  0.7818609E-02  0.9108340E-01
       -2   -1    0    0    0  501  0.00000000000E+00  0.00000000000E+00  0.35444401056E+03  0.35444401057E+03  0.25500000920E-02 0.  1.
        2   -1    0    0  501    0  0.00000000000E+00  0.00000000000E+00 -0.10244520348E+04  0.10244520348E+04  0.25500000920E-02 0. -1.
    10030    2    1    2    0    0  0.00000000000E+00  0.00000000000E+00 -0.67000802426E+03  0.13788960454E+04  0.12051736603E+04 0.  0.
        1    1    3    3  502    0  0.44261479550E+03  0.18334543014E+03 -0.75318547711E+03  0.89264313524E+03  0.50400001928E-02 0.  1.
       -1    1    3    3    0  502 -0.44261479550E+03 -0.18334543014E+03  0.83177452845E+02  0.48625291015E+03  0.50400001928E-02 0. -1.
</event>
<event>
 5   0  0.2134992E-03  0.1216020E+04  0.7818609E-02  0.9098949E-01
        1   -1    0    0  501    0  0.00000000000E+00  0.00000000000E+00  0.25457897715E+04  0.25457897715E+04  0.50400001928E-02 0.  1.
       -1   -1    0    0    0  501  0.00000000000E+00  0.00000000000E+00 -0.14521069138E+03  0.14521069147E+03  0.50400001928E-02 0. -1.
    10030    2    1    2    0    0  0.00000000000E+00  0.00000000000E+00  0.24005790801E+04  0.26910004630E+04  0.12160195606E+04 0.  0.
        4    1    3    3  502    0 -0.34562605694E+03 -0.29150533376E+03  0.30072393763E+03  0.54301862805E+03  0.12699999809E+01 0. -1.
       -4    1    3    3    0  502  0.34562605694E+03  0.29150533376E+03  0.20998551425E+04  0.21479818349E+04  0.12699999809E+01 0.  1.
</event>
<event>
 5   0  0.3626049E-03  0.1232988E+04  0.7818609E-02  0.9084463E-01
        2   -1    0    0  501    0  0.00000000000E+00  0.00000000000E+00  0.20742238836E+03  0.20742238838E+03  0.25500000920E-02 0.  1.
       -2   -1    0    0    0  501  0.00000000000E+00  0.00000000000E+00 -0.18323222492E+04  0.18323222492E+04  0.25500000920E-02 0. -1.
    10030    2    1    2    0    0  0.00000000000E+00  0.00000000000E+00 -0.16248998609E+04  0.20397446376E+04  0.12329876840E+04 0.  0.
        1    1    3    3  502    0 -0.49231496899E+03  0.23812684750E+03 -0.34166488302E+03  0.64483588339E+03  0.50400001928E-02 0.  1.
       -1    1    3    3    0  502  0.49231496899E+03 -0.23812684750E+03 -0.12832349779E+04  0.13949087542E+04  0.50400001928E-02 0. -1.
</event>
<event>
 5   0  0.2096270E-03  0.1205550E+04  0.7818609E-02  0.9108012E-01
       -1   -1    0    0    0  501  0.00000000000E+00  0.00000000000E+00  0.19836244877E+03  0.19836244884E+03  0.50400001928E-02 0.  1.
        1   -1    0    0  501    0  0.00000000000E+00  0.00000000000E+00 -0.18316858946E+04  0.18316858946E+04  0.50400001928E-02 0. -1.
    10030    2    1    2    0    0  0.00000000000E+00  0.00000000000E+00 -0.16333234458E+04  0.20300483434E+04  0.12055499981E+04 0.  0.
        2    1    3    3  502    0 -0.26877495759E+02 -0.37660956323E+03 -0.16078895374E+04  0.16516252382E+04  0.25500000920E-02 0. -1.
       -2    1    3    3    0  502  0.26877495759E+02  0.37660956323E+03 -0.25433908427E+02  0.37842310526E+03  0.25500000920E-02 0.  1.
</event>
<event>
 5   0  0.3650180E-03  0.1039135E+04  0.7818609E-02  0.9266634E-01
        2   -1    0    0  501    0  0.00000000000E+00  0.00000000000E+00  0.14830725951E+04  0.14830725951E+04  0.25500000920E-02 0. -1.
       -2   -1    0    0    0  501  0.00000000000E+00  0.00000000000E+00 -0.18202110372E+03  0.18202110374E+03  0.25500000920E-02 0.  1.
    10030    2    1    2    0    0  0.00000000000E+00  0.00000000000E+00  0.13010514914E+04  0.16650936988E+04  0.10391352379E+04 0.  0.
        3    1    3    3  502    0 -0.26832741664E+03  0.43816055513E+03  0.52675544361E+03  0.73583665454E+03  0.10100000352E+00 0. -1.
       -3    1    3    3    0  502  0.26832741664E+03 -0.43816055513E+03  0.77429604776E+03  0.92925704429E+03  0.10100000352E+00 0.  1.
</event>
<event>
 5   0  0.2134992E-03  0.1169772E+04  0.7818609E-02  0.9139735E-01
       -1   -1    0    0    0  501  0.00000000000E+00  0.00000000000E+00  0.42653493342E+03  0.42653493345E+03  0.50400001928E-02 0.  1.
        1   -1    0    0  501    0  0.00000000000E+00  0.00000000000E+00 -0.80202468022E+03  0.80202468024E+03  0.50400001928E-02 0. -1.
    10030    2    1    2    0    0  0.00000000000E+00  0.00000000000E+00 -0.37548974680E+03  0.12285596137E+04  0.11697718472E+04 0.  0.
        4    1    3    3  502    0 -0.90674598330E+02  0.22068028037E+03 -0.74859350412E+03  0.78569428930E+03  0.12699999809E+01 0. -1.
       -4    1    3    3    0  502  0.90674598330E+02 -0.22068028037E+03  0.37310375732E+03  0.44286532439E+03  0.12699999809E+01 0.  1.
</event>
<event>
 5   0  0.2047109E-03  0.1197720E+04  0.7818609E-02  0.9114855E-01
        1   -1    0    0  501    0  0.00000000000E+00  0.00000000000E+00  0.10948572351E+04  0.10948572351E+04  0.50400001928E-02 0.  1.
       -1   -1    0    0    0  501  0.00000000000E+00  0.00000000000E+00 -0.32756148387E+03  0.32756148391E+03  0.50400001928E-02 0. -1.
    10030    2    1    2    0    0  0.00000000000E+00  0.00000000000E+00  0.76729575121E+03  0.14224187190E+04  0.11977196009E+04 0.  0.
        1    1    3    3  502    0  0.61021971214E+02 -0.53607450282E+03  0.75022271033E+02  0.54472735815E+03  0.50400001928E-02 0.  1.
       -1    1    3    3    0  502 -0.61021971214E+02  0.53607450282E+03  0.69227348018E+03  0.87769136086E+03  0.50400001928E-02 0. -1.
</event>
<event>
 5   0  0.3626049E-03  0.1077078E+04  0.7818609E-02  0.9227825E-01
        2   -1    0    0  501    0  0.00000000000E+00  0.00000000000E+00  0.11948118103E+04  0.11948118103E+04  0.25500000920E-02 0. -1.
       -2   -1    0    0    0  501  0.00000000000E+00  0.00000000000E+00 -0.24273654808E+03  0.24273654809E+03  0.25500000920E-02 0.  1.
    10030    2    1    2    0    0  0.00000000000E+00  0.00000000000E+00  0.95207526219E+03  0.14375483584E+04  0.10770784455E+04 0.  0.
        1    1    3    3  502    0  0.40514319689E+02  0.20818723507E+03 -0.18464767427E+03  0.28120828328E+03  0.50400001928E-02 0.  1.
       -1    1    3    3    0  502 -0.40514319689E+02 -0.20818723507E+03  0.11367229365E+04  0.11563400751E+04  0.50400001928E-02 0. -1.
</event>
<event>
 5   0  0.3725376E-03  0.1222018E+04  0.7818609E-02  0.9093799E-01
        2   -1    0    0  501    0  0.00000000000E+00  0.00000000000E+00  0.30193573854E+03  0.30193573855E+03  0.25500000920E-02 0. -1.
       -2   -1    0    0    0  501  0.00000000000E+00  0.00000000000E+00 -0.12364624595E+04  0.12364624595E+04  0.25500000920E-02 0.  1.
    10030    2    1    2    0    0  0.00000000000E+00  0.00000000000E+00 -0.93452672093E+03  0.15383981980E+04  0.12220183401E+04 0.  0.
        4    1    3    3  502    0 -0.47094909967E+03  0.38890050442E+03 -0.44568007474E+03  0.75608795701E+03  0.12699999809E+01 0. -1.
       -4    1    3    3    0  502  0.47094909967E+03 -0.38890050442E+03 -0.48884664619E+03  0.78231024102E+03  0.12699999809E+01 0.  1.
</event>
<event>
 5   0  0.2025294E-03  0.1309874E+04  0.7818609E-02  0.9021772E-01
       -1   -1    0    0    0  501  0.00000000000E+00  0.00000000000E+00  0.28211251126E+03  0.28211251131E+03  0.50400001928E-02 0. -1.
        1   -1    0    0  501    0  0.00000000000E+00  0.00000000000E+00 -0.15204649334E+04  0.15204649334E+04  0.50400001928E-02 0.  1.
    10030    2    1    2    0    0  0.00000000000E+00  0.00000000000E+00 -0.12383524221E+04  0.18025774447E+04  0.13098735522E+04 0.  0.
        5    1    3    3  502    0 -0.10957798316E+03 -0.64157811705E+03 -0.51908320659E+03  0.83252584346E+03  0.46999998093E+01 0. -1.
       -5    1    3    3    0  502  0.10957798316E+03  0.64157811705E+03 -0.71926921555E+03  0.97005160126E+03  0.46999998093E+01 0.  1.
</event>
<event>
 5   0  0.3626049E-03  0.1249196E+04  0.7818609E-02  0.9070852E-01
       -2   -1    0    0    0  501  0.00000000000E+00  0.00000000000E+00  0.68027215865E+03  0.68027215865E+03  0.25500000920E-02 0. -1.
        2   -1    0    0  501    0  0.00000000000E+00  0.00000000000E+00 -0.57348065017E+03  0.57348065018E+03  0.25500000920E-02 0.  1.
    10030    2    1    2    0    0  0.00000000000E+00  0.00000000000E+00  0.10679150847E+03  0.12537528088E+04  0.12491964134E+04 0.  0.
        1    1    3    3  502    0 -0.48227745118E+03  0.64943231815E+02  0.44637693466E+03  0.66034955220E+03  0.50400001928E-02 0. -1.
       -1    1    3    3    0  502  0.48227745118E+03 -0.64943231815E+02 -0.33958542618E+03  0.59340325663E+03  0.50400001928E-02 0.  1.
</event>
<event>
 5   0  0.3650180E-03  0.1211035E+04  0.7818609E-02  0.9103252E-01
        2   -1    0    0  501    0  0.00000000000E+00  0.00000000000E+00  0.78813514791E+03  0.78813514791E+03  0.25500000920E-02 0.  1.
       -2   -1    0    0    0  501  0.00000000000E+00  0.00000000000E+00 -0.46521430435E+03  0.46521430435E+03  0.25500000920E-02 0. -1.
    10030    2    1    2    0    0  0.00000000000E+00  0.00000000000E+00  0.32292084356E+03  0.12533494523E+04  0.12110354984E+04 0.  0.
        3    1    3    3  502    0  0.58318764906E+03 -0.14772431699E+03  0.90346943758E+02  0.60835260195E+03  0.10100000352E+00 0. -1.
       -3    1    3    3    0  502 -0.58318764906E+03  0.14772431699E+03  0.23257389980E+03  0.64499685032E+03  0.10100000352E+00 0.  1.
</event>
<event>
 5   0  0.2047109E-03  0.1196784E+04  0.7818609E-02  0.9115676E-01
       -1   -1    0    0    0  501  0.00000000000E+00  0.00000000000E+00  0.27346612065E+03  0.27346612070E+03  0.50400001928E-02 0.  1.
        1   -1    0    0  501    0  0.00000000000E+00  0.00000000000E+00 -0.13093866030E+04  0.13093866030E+04  0.50400001928E-02 0. -1.
    10030    2    1    2    0    0  0.00000000000E+00  0.00000000000E+00 -0.10359204823E+04  0.15828527237E+04  0.11967838147E+04 0.  0.
        1    1    3    3  502    0 -0.14852468534E+03 -0.44776394505E+03 -0.10048466889E+04  0.11100761239E+04  0.50400001928E-02 0. -1.
       -1    1    3    3    0  502  0.14852468534E+03  0.44776394505E+03 -0.31073793419E+02  0.47277659978E+03  0.50400001928E-02 0.  1.
</event>
<event>
 5   0  0.2047109E-03  0.1177330E+04  0.7818609E-02  0.9132935E-01
        1   -1    0    0  501    0  0.00000000000E+00  0.00000000000E+00  0.85229396977E+03  0.85229396978E+03  0.50400001928E-02 0. -1.
       -1   -1    0    0    0  501  0.00000000000E+00  0.00000000000E+00 -0.40658066614E+03  0.40658066617E+03  0.50400001928E-02 0.  1.
    10030    2    1    2    0    0  0.00000000000E+00  0.00000000000E+00  0.44571330363E+03  0.12588746360E+04  0.11773296055E+04 0.  0.
        1    1    3    3  502    0  0.76227526024E+02 -0.12893527453E+03  0.83157740848E+03  0.84495912745E+03  0.50400001928E-02 0. -1.
       -1    1    3    3    0  502 -0.76227526024E+02  0.12893527453E+03 -0.38586410485E+03  0.41391550851E+03  0.50400001928E-02 0.  1.
</event>
<event>
 5   0  0.2078258E-03  0.1209990E+04  0.7818609E-02  0.9104157E-01
        1   -1    0    0  501    0  0.00000000000E+00  0.00000000000E+00  0.34020820066E+03  0.34020820070E+03  0.50400001928E-02 0.  1.
       -1   -1    0    0    0  501  0.00000000000E+00  0.00000000000E+00 -0.10758676181E+04  0.10758676181E+04  0.50400001928E-02 0. -1.
    10030    2    1    2    0    0  0.00000000000E+00  0.00000000000E+00 -0.73565941745E+03  0.14160758188E+04  0.12099900604E+04 0.  0.
        3    1    3    3  502    0  0.16889261560E+03 -0.22800728394E+03 -0.99316514252E+03  0.10329032131E+04  0.10100000352E+00 0. -1.
       -3    1    3    3    0  502 -0.16889261560E+03  0.22800728394E+03  0.25750572506E+03  0.38317260572E+03  0.10100000352E+00 0.  1.
</event>
<event>
 5   0  0.2025294E-03  0.1194156E+04  0.7818609E-02  0.9117987E-01
        1   -1    0    0  501    0  0.00000000000E+00  0.00000000000E+00  0.49431011599E+03  0.49431011601E+03  0.50400001928E-02 0. -1.
       -1   -1    0    0    0  501  0.00000000000E+00  0.00000000000E+00 -0.72121167401E+03  0.72121167403E+03  0.50400001928E-02 0.  1.
    10030    2    1    2    0    0  0.00000000000E+00  0.00000000000E+00 -0.22690155802E+03  0.12155217900E+04  0.11941561477E+04 0.  0.
        5    1    3    3  502    0 -0.63104311081E+02 -0.32542754169E+03 -0.61891878603E+03  0.70211665175E+03  0.46999998093E+01 0.  1.
       -5    1    3    3    0  502  0.63104311081E+02  0.32542754169E+03  0.39201722801E+03  0.51340513829E+03  0.46999998093E+01 0. -1.
</event>
<event>
 5   0  0.2078258E-03  0.1167113E+04  0.7818609E-02  0.9142139E-01
        1   -1    0    0  501    0  0.00000000000E+00  0.00000000000E+00  0.10324501377E+04  0.10324501377E+04  0.50400001928E-02 0.  1.
       -1   -1    0    0    0  501  0.00000000000E+00  0.00000000000E+00 -0.32983521181E+03  0.32983521185E+03  0.50400001928E-02 0. -1.
    10030    2    1    2    0    0  0.00000000000E+00  0.00000000000E+00  0.70261492584E+03  0.13622853495E+04  0.11671133790E+04 0.  0.
        3    1    3    3  502    0  0.41133411207E+03  0.51026178451E+01  0.83442719537E+03  0.93031744208E+03  0.10100000352E+00 0.  1.
       -3    1    3    3    0  502 -0.41133411207E+03 -0.51026178451E+01 -0.13181226953E+03  0.43196790744E+03  0.10100000352E+00 0. -1.
</event>
<event>
 5   0  0.3725376E-03  0.1206407E+04  0.7818609E-02  0.9107267E-01
        2   -1    0    0  501    0  0.00000000000E+00  0.00000000000E+00  0.84402390950E+03  0.84402390950E+03  0.25500000920E-02 0. -1.
       -2   -1    0    0    0  501  0.00000000000E+00  0.00000000000E+00 -0.43109523231E+03  0.43109523231E+03  0.25500000920E-02 0.  1.
    10030    2    1    2    0    0  0.00000000000E+00  0.00000000000E+00  0.41292867719E+03  0.12751191418E+04  0.12064073663E+04 0.  0.
        4    1    3    3  502    0  0.60189329196E+03 -0.24245434153E+02  0.23971554109E+03  0.64832748632E+03  0.12699999809E+01 0. -1.
       -4    1    3    3    0  502 -0.60189329196E+03  0.24245434153E+02  0.17321313610E+03  0.62679165549E+03  0.12699999809E+01 0.  1.
</event>
<event>
 5   0  0.3626049E-03  0.1197812E+04  0.7818609E-02  0.9114774E-01
       -2   -1    0    0    0  501  0.00000000000E+00  0.00000000000E+00  0.33059607614E+03  0.33059607615E+03  0.25500000920E-02 0.  1.
        2   -1    0    0  501    0  0.00000000000E+00  0.00000000000E+00 -0.10849753288E+04  0.10849753288E+04  0.25500000920E-02 0. -1.
    10030    2    1    2    0    0  0.00000000000E+00  0.00000000000E+00 -0.75437925270E+03  0.14155714050E+04  0.11978123166E+04 0.  0.
        1    1    3    3  502    0 -0.14090354821E+03 -0.52136293090E+03 -0.71253655189E+02  0.54474783067E+03  0.50400001928E-02 0.  1.
       -1    1    3    3    0  502  0.14090354821E+03  0.52136293090E+03 -0.68312559751E+03  0.87082357433E+03  0.50400001928E-02 0. -1.
</event>
<event>
 5   0  0.2096270E-03  0.1152182E+04  0.7818609E-02  0.9155772E-01
        1   -1    0    0  501    0  0.00000000000E+00  0.00000000000E+00  0.16623676333E+04  0.16623676333E+04  0.50400001928E-02 0.  1.
       -1   -1    0    0    0  501  0.00000000000E+00  0.00000000000E+00 -0.19964363928E+03  0.19964363935E+03  0.50400001928E-02 0. -1.
    10030    2    1    2    0    0  0.00000000000E+00  0.00000000000E+00  0.14627239940E+04  0.18620112727E+04  0.11521824929E+04 0.  0.
        2    1    3    3  502    0 -0.10536331697E+03  0.17849454835E+03  0.16000211097E+04  0.16133906172E+04  0.25500000920E-02 0.  1.
       -2    1    3    3    0  502  0.10536331697E+03 -0.17849454835E+03 -0.13729711563E+03  0.24862065545E+03  0.25500000920E-02 0. -1.
</event>
<event>
 5   0  0.3751091E-03  0.1265938E+04  0.7818609E-02  0.9057022E-01
        2   -1    0    0  501    0  0.00000000000E+00  0.00000000000E+00  0.11588033769E+04  0.11588033769E+04  0.25500000920E-02 0.  1.
       -2   -1    0    0    0  501  0.00000000000E+00  0.00000000000E+00 -0.34574419676E+03  0.34574419676E+03  0.25500000920E-02 0. -1.
    10030    2    1    2    0    0  0.00000000000E+00  0.00000000000E+00  0.81305918016E+03  0.15045475737E+04  0.12659376647E+04 0.  0.
        5    1    3    3  502    0  0.48587275867E+03 -0.55882717115E+02  0.88404647835E+03  0.10103244437E+04  0.46999998093E+01 0.  1.
       -5    1    3    3    0  502 -0.48587275867E+03  0.55882717115E+02 -0.70987298197E+02  0.49422312996E+03  0.46999998093E+01 0. -1.
</event>
<event>
 5   0  0.2096270E-03  0.1204290E+04  0.7818609E-02  0.9109110E-01
       -1   -1    0    0    0  501  0.00000000000E+00  0.00000000000E+00  0.46223293427E+03  0.46223293429E+03  0.50400001928E-02 0.  1.
        1   -1    0    0  501    0  0.00000000000E+00  0.00000000000E+00 -0.78440676966E+03  0.78440676967E+03  0.50400001928E-02 0. -1.
    10030    2    1    2    0    0  0.00000000000E+00  0.00000000000E+00 -0.32217383539E+03  0.12466397040E+04  0.12042900694E+04 0.  0.
        2    1    3    3  502    0  0.59635004557E+03 -0.55109816618E+02 -0.22580070233E+03  0.64004408123E+03  0.25500000920E-02 0.  1.
       -2    1    3    3    0  502 -0.59635004557E+03  0.55109816618E+02 -0.96373133064E+02  0.60659562274E+03  0.25500000920E-02 0. -1.
</event>
<event>
 5   0  0.3706035E-03  0.1210765E+04  0.7818609E-02  0.9103486E-01
        2   -1    0    0  501    0  0.00000000000E+00  0.00000000000E+00  0.44253125167E+03  0.44253125167E+03  0.25500000920E-02 0. -1.
       -2   -1    0    0    0  501  0.00000000000E+00  0.00000000000E+00 -0.82816328482E+03  0.82816328482E+03  0.25500000920E-02 0.  1.
    10030    2    1    2    0    0  0.00000000000E+00  0.00000000000E+00 -0.38563203315E+03  0.12706945365E+04  0.12107652704E+04 0.  0.
        2    1    3    3  502    0  0.46134214500E+03 -0.37800251030E+03 -0.30170942388E+03  0.66839438134E+03  0.25500000920E-02 0.  1.
       -2    1    3    3    0  502 -0.46134214500E+03  0.37800251030E+03 -0.83922609266E+02  0.60230015515E+03  0.25500000920E-02 0. -1.
</event>
<event>
 5   0  0.3650180E-03  0.1214888E+04  0.7818609E-02  0.9099924E-01
       -2   -1    0    0    0  501  0.00000000000E+00  0.00000000000E+00  0.57151705076E+03  0.57151705077E+03  0.25500000920E-02 0.  1.
        2   -1    0    0  501    0  0.00000000000E+00  0.00000000000E+00 -0.64562967547E+03  0.64562967548E+03  0.25500000920E-02 0. -1.
    10030    2    1    2    0    0  0.00000000000E+00  0.00000000000E+00 -0.74112624711E+02  0.12171467262E+04  0.12148882550E+04 0.  0.
        3    1    3    3  502    0  0.18046653951E+03  0.53886432854E+02  0.54152609465E+03  0.57334321389E+03  0.10100000352E+00 0.  1.
       -3    1    3    3    0  502 -0.18046653951E+03 -0.53886432854E+02 -0.61563871936E+03  0.64380351235E+03  0.10100000352E+00 0. -1.
</event>
<event>
 5   0  0.1397500E-03  0.1197988E+04  0.7818609E-02  0.9114619E-01
        3   -1    0    0  501    0  0.00000000000E+00  0.00000000000E+00  0.59271491744E+03  0.59271492604E+03  0.10100000352E+00 0.  1.
       -3   -1    0    0    0  501  0.00000000000E+00  0.00000000000E+00 -0.60533981094E+03  0.60533981937E+03  0.10100000352E+00 0. -1.
    10030    2    1    2    0    0  0.00000000000E+00  0.00000000000E+00 -0.12624893507E+02  0.11980547454E+04  0.11979882241E+04 0.  0.
        1    1    3    3  502    0  0.35184411298E+03  0.17411809526E+03 -0.45875613051E+03  0.60379514592E+03  0.50400001928E-02 0. -1.
       -1    1    3    3    0  502 -0.35184411298E+03 -0.17411809526E+03  0.44613123700E+03  0.59425959949E+03  0.50400001928E-02 0.  1.
</event>
<event>
 5   0  0.3626049E-03  0.1201863E+04  0.7818609E-02  0.9111228E-01
        2   -1    0    0  501    0  0.00000000000E+00  0.00000000000E+00  0.25375798581E+04  0.25375798581E+04  0.25500000920E-02 0.  1.
       -2   -1    0    0    0  501  0.00000000000E+00  0.00000000000E+00 -0.14230823142E+03  0.14230823144E+03  0.25500000920E-02 0. -1.
    10030    2    1    2    0    0  0.00000000000E+00  0.00000000000E+00  0.23952716267E+04  0.26798880895E+04  0.12018627238E+04 0.  0.
        1    1    3    3  502    0 -0.75301937243E+02 -0.59385124401E+03  0.13153888268E+04  0.14451911456E+04  0.50400001928E-02 0. -1.
       -1    1    3    3    0  502  0.75301937243E+02  0.59385124401E+03  0.10798827999E+04  0.12346969439E+04  0.50400001928E-02 0.  1.
</event>
<event>
 5   0  0.3725376E-03  0.1200822E+04  0.7818609E-02  0.9112137E-01
        2   -1    0    0  501    0  0.00000000000E+00  0.00000000000E+00  0.88370429805E+03  0.88370429805E+03  0.25500000920E-02 0.  1.
       -2   -1    0    0    0  501  0.00000000000E+00  0.00000000000E+00 -0.40793460989E+03  0.40793460989E+03  0.25500000920E-02 0. -1.
    10030    2    1    2    0    0  0.00000000000E+00  0.00000000000E+00  0.47576968816E+03  0.12916389079E+04  0.12008223317E+04 0.  0.
        4    1    3    3  502    0  0.49136988124E+03  0.34227059146E+03  0.28475112405E+03  0.66308244850E+03  0.12699999809E+01 0. -1.
       -4    1    3    3    0  502 -0.49136988124E+03 -0.34227059146E+03  0.19101856412E+03  0.62855645944E+03  0.12699999809E+01 0.  1.
</event>
<event>
 5   0  0.2025294E-03  0.1190361E+04  0.7818609E-02  0.9121336E-01
       -1   -1    0    0    0  501  0.00000000000E+00  0.00000000000E+00  0.24749845703E+03  0.24749845708E+03  0.50400001928E-02 0.  1.
        1   -1    0    0  501    0  0.00000000000E+00  0.00000000000E+00 -0.14312807599E+04  0.14312807599E+04  0.50400001928E-02 0. -1.
    10030    2    1    2    0    0  0.00000000000E+00  0.00000000000E+00 -0.11837823029E+04  0.16787792170E+04  0.11903609195E+04 0.  0.
        5    1    3    3  502    0 -0.63580792533E+02  0.21741665596E+03 -0.13680815514E+04  0.13867161716E+04  0.46999998093E+01 0. -1.
       -5    1    3    3    0  502  0.63580792533E+02 -0.21741665596E+03  0.18429924850E+03  0.29206304535E+03  0.46999998093E+01 0.  1.
</event>
<event>
 5   0  0.2134992E-03  0.1212612E+04  0.7818609E-02  0.9101889E-01
       -1   -1    0    0    0  501  0.00000000000E+00  0.00000000000E+00  0.53460587825E+03  0.53460587827E+03  0.50400001928E-02 0. -1.
        1   -1    0    0  501    0  0.00000000000E+00  0.00000000000E+00 -0.68762217430E+03  0.68762217431E+03  0.50400001928E-02 0.  1.
    10030    2    1    2    0    0  0.00000000000E+00  0.00000000000E+00 -0.15301629605E+03  0.12222280526E+04  0.12126118199E+04 0.  0.
        4    1    3    3  502    0 -0.31083395092E+03  0.24026765235E+03 -0.54196999375E+03  0.66938731452E+03  0.12699999809E+01 0.  1.
       -4    1    3    3    0  502  0.31083395092E+03 -0.24026765235E+03  0.38895369770E+03  0.55284073807E+03  0.12699999809E+01 0. -1.
</event>
<event>
 5   0  0.2025294E-03  0.1199231E+04  0.7818609E-02  0.9113530E-01
       -1   -1    0    0    0  501  0.00000000000E+00  0.00000000000E+00  0.29421821414E+03  0.29421821419E+03  0.50400001928E-02 0.  1.
        1   -1    0    0  501    0  0.00000000000E+00  0.00000000000E+00 -0.12220146639E+04  0.12220146639E+04  0.50400001928E-02 0. -1.
    10030    2    1    2    0    0  0.00000000000E+00  0.00000000000E+00 -0.92779644973E+03  0.15162328781E+04  0.11992313740E+04 0.  0.
        5    1    3    3  502    0  0.37336371513E+03  0.14645787336E+03  0.99642438237E+02  0.41328087053E+03  0.46999998093E+01 0.  1.
       -5    1    3    3    0  502 -0.37336371513E+03 -0.14645787336E+03 -0.10274388880E+04  0.11029520075E+04  0.46999998093E+01 0. -1.
</event>
<event>
 5   0  0.3650180E-03  0.1161227E+04  0.7818609E-02  0.9147488E-01
       -2   -1    0    0    0  501  0.00000000000E+00  0.00000000000E+00  0.48605147406E+03  0.48605147407E+03  0.25500000920E-02 0.  1.
        2   -1    0    0  501    0  0.00000000000E+00  0.00000000000E+00 -0.69357286061E+03  0.69357286061E+03  0.25500000920E-02 0. -1.
    10030    2    1    2    0    0  0.00000000000E+00  0.00000000000E+00 -0.20752138655E+03  0.11796243347E+04  0.11612271290E+04 0.  0.
        3    1    3    3  502    0  0.16509648883E+03  0.14466019003E+03 -0.64979744736E+03  0.68587182039E+03  0.10100000352E+00 0. -1.
       -3    1    3    3    0  502 -0.16509648883E+03 -0.14466019003E+03  0.44227606081E+03  0.49375251430E+03  0.10100000352E+00 0.  1.
</event>
<event>
 5   0  0.3706035E-03  0.1202276E+04  0.7818609E-02  0.9110867E-01
       -2   -1    0    0    0  501  0.00000000000E+00  0.00000000000E+00  0.22530621951E+03  0.22530621953E+03  0.25500000920E-02 0. -1.
        2   -1    0    0  501    0  0.00000000000E+00  0.00000000000E+00 -0.16038911779E+04  0.16038911779E+04  0.25500000920E-02 0.  1.
    10030    2    1    2    0    0  0.00000000000E+00  0.00000000000E+00 -0.13785849584E+04  0.18291973974E+04  0.12022756054E+04 0.  0.
        2    1    3    3  502    0  0.15723165482E+03 -0.57757566942E+03 -0.77333375442E+03  0.97793688085E+03  0.25500000920E-02 0.  1.
       -2    1    3    3    0  502 -0.15723165482E+03  0.57757566942E+03 -0.60525120393E+03  0.85126051655E+03  0.25500000920E-02 0. -1.
</event>
<event>
 5   0  0.3751091E-03  0.1199832E+04  0.7818609E-02  0.9113004E-01
       -2   -1    0    0    0  501  0.00000000000E+00  0.00000000000E+00  0.19386206800E+03  0.19386206802E+03  0.25500000920E-02 0. -1.
        2   -1    0    0  501    0  0.00000000000E+00  0.00000000000E+00 -0.18564698121E+04  0.18564698121E+04  0.25500000920E-02 0.  1.
    10030    2    1    2    0    0  0.00000000000E+00  0.00000000000E+00 -0.16626077441E+04  0.20503318801E+04  0.11998317831E+04 0.  0.
        5    1    3    3  502    0  0.26828867386E+03 -0.25349198259E+03 -0.23178887860E+02  0.36985990402E+03  0.46999998093E+01 0. -1.
       -5    1    3    3    0  502 -0.26828867386E+03  0.25349198259E+03 -0.16394288562E+04  0.16804719761E+04  0.46999998093E+01 0.  1.
</event>
<event>
 5   0  0.2134992E-03  0.1178985E+04  0.7818609E-02  0.9131453E-01
        1   -1    0    0  501    0  0.00000000000E+00  0.00000000000E+00  0.77487854257E+03  0.77487854259E+03  0.50400001928E-02 0.  1.
       -1   -1    0    0    0  501  0.00000000000E+00  0.00000000000E+00 -0.44845907959E+03  0.44845907962E+03  0.50400001928E-02 0. -1.
    10030    2    1    2    0    0  0.00000000000E+00  0.00000000000E+00  0.32641946298E+03  0.12233376222E+04  0.11789848481E+04 0.  0.
        4    1    3    3  502    0 -0.26691055743E+03 -0.15661143081E+03  0.68381281280E+03  0.75057975044E+03  0.12699999809E+01 0.  1.
       -4    1    3    3    0  502  0.26691055743E+03  0.15661143081E+03 -0.35739334981E+03  0.47275787176E+03  0.12699999809E+01 0. -1.
</event>
<event>
 5   0  0.2047109E-03  0.1197256E+04  0.7818609E-02  0.9115262E-01
       -1   -1    0    0    0  501  0.00000000000E+00  0.00000000000E+00  0.10533414478E+04  0.10533414478E+04  0.50400001928E-02 0.  1.
        1   -1    0    0  501    0  0.00000000000E+00  0.00000000000E+00 -0.34020812862E+03  0.34020812865E+03  0.50400001928E-02 0. -1.
    10030    2    1    2    0    0  0.00000000000E+00  0.00000000000E+00  0.71313331921E+03  0.13935495765E+04  0.11972557334E+04 0.  0.
        1    1    3    3  502    0 -0.16189754966E+03  0.11154650193E+03  0.10146912164E+04  0.10335626267E+04  0.50400001928E-02 0.  1.
       -1    1    3    3    0  502  0.16189754966E+03 -0.11154650193E+03 -0.30155789715E+03  0.35998694982E+03  0.50400001928E-02 0. -1.
</event>
<event>
 5   0  0.3706035E-03  0.1166754E+04  0.7818609E-02  0.9142464E-01
       -2   -1    0    0    0  501  0.00000000000E+00  0.00000000000E+00  0.23829877067E+03  0.23829877069E+03  0.25500000920E-02 0.  1.
        2   -1    0    0  501    0  0.00000000000E+00  0.00000000000E+00 -0.14281610014E+04  0.14281610014E+04  0.25500000920E-02 0. -1.
    10030    2    1    2    0    0  0.00000000000E+00  0.00000000000E+00 -0.11898622307E+04  0.16664597721E+04  0.11667544917E+04 0.  0.
        2    1    3    3  502    0  0.43260837495E+03 -0.39137723261E+03 -0.59734938641E+03  0.83495654601E+03  0.25500000920E-02 0. -1.
       -2    1    3    3    0  502 -0.43260837495E+03  0.39137723261E+03 -0.59251284431E+03  0.83150322607E+03  0.25500000920E-02 0.  1.
</event>
<event>
 5   0  0.1397500E-03  0.1198658E+04  0.7818609E-02  0.9114032E-01
       -3   -1    0    0    0  501  0.00000000000E+00  0.00000000000E+00  0.34189362695E+03  0.34189364187E+03  0.10100000352E+00 0.  1.
        3   -1    0    0  501    0  0.00000000000E+00  0.00000000000E+00 -0.10506057662E+04  0.10506057711E+04  0.10100000352E+00 0. -1.
    10030    2    1    2    0    0  0.00000000000E+00  0.00000000000E+00 -0.70871213928E+03  0.13924994129E+04  0.11986582994E+04 0.  0.
        1    1    3    3  502    0 -0.24246227424E+03 -0.54345520787E+02 -0.98794788671E+03  0.10187160630E+04  0.50400001928E-02 0. -1.
       -1    1    3    3    0  502  0.24246227424E+03  0.54345520787E+02  0.27923574743E+03  0.37378334999E+03  0.50400001928E-02 0.  1.
</event>
<event>
 5   0  0.2134992E-03  0.1189984E+04  0.7818609E-02  0.9121669E-01
        1   -1    0    0  501    0  0.00000000000E+00  0.00000000000E+00  0.72983842648E+03  0.72983842650E+03  0.50400001928E-02 0. -1.
       -1   -1    0    0    0  501  0.00000000000E+00  0.00000000000E+00 -0.48505974368E+03  0.48505974370E+03  0.50400001928E-02 0.  1.
    10030    2    1    2    0    0  0.00000000000E+00  0.00000000000E+00  0.24477868281E+03  0.12148981702E+04  0.11899835967E+04 0.  0.
        4    1    3    3  502    0 -0.54323577260E+03 -0.24098867263E+03  0.15185504217E+03  0.61338585873E+03  0.12699999809E+01 0. -1.
       -4    1    3    3    0  502  0.54323577260E+03  0.24098867263E+03  0.92923640635E+02  0.60151231147E+03  0.12699999809E+01 0.  1.
</event>
<event>
 5   0  0.3725376E-03  0.1184477E+04  0.7818609E-02  0.9126553E-01
       -2   -1    0    0    0  501  0.00000000000E+00  0.00000000000E+00  0.25582802397E+03  0.25582802398E+03  0.25500000920E-02 0.  1.
        2   -1    0    0  501    0  0.00000000000E+00  0.00000000000E+00 -0.13710245718E+04  0.13710245719E+04  0.25500000920E-02 0. -1.
    10030    2    1    2    0    0  0.00000000000E+00  0.00000000000E+00 -0.11151965479E+04  0.16268525958E+04  0.11844771117E+04 0.  0.
        4    1    3    3  502    0 -0.50633448520E+03  0.30425244122E+03 -0.49931466107E+03  0.77347327203E+03  0.12699999809E+01 0. -1.
       -4    1    3    3    0  502  0.50633448520E+03 -0.30425244122E+03 -0.61588188681E+03  0.85337932380E+03  0.12699999809E+01 0.  1.
</event>
<event>
 5   0  0.2025294E-03  0.1191114E+04  0.7818609E-02  0.9120670E-01
        1   -1    0    0  501    0  0.00000000000E+00  0.00000000000E+00  0.13908032937E+04  0.13908032938E+04  0.50400001928E-02 0.  1.
       -1   -1    0    0    0  501  0.00000000000E+00  0.00000000000E+00 -0.25502406021E+03  0.25502406026E+03  0.50400001928E-02 0. -1.
    10030    2    1    2    0    0  0.00000000000E+00  0.00000000000E+00  0.11357792335E+04  0.16458273540E+04  0.11911142732E+04 0.  0.
        5    1    3    3  502    0  0.24587946068E+03 -0.52786606305E+03  0.74028762322E+03  0.94188488936E+03  0.46999998093E+01 0.  1.
       -5    1    3    3    0  502 -0.24587946068E+03  0.52786606305E+03  0.39549161032E+03  0.70394246465E+03  0.46999998093E+01 0. -1.
</event>
<event>
 5   0  0.3751091E-03  0.1190518E+04  0.7818609E-02  0.9121197E-01
        2   -1    0    0  501    0  0.00000000000E+00  0.00000000000E+00  0.88404428939E+03  0.88404428940E+03  0.25500000920E-02 0. -1.
       -2   -1    0    0    0  501  0.00000000000E+00  0.00000000000E+00 -0.40080936248E+03  0.40080936249E+03  0.25500000920E-02 0.  1.
    10030    2    1    2    0    0  0.00000000000E+00  0.00000000000E+00  0.48323492691E+03  0.12848536519E+04  0.11905179176E+04 0.  0.
        5    1    3    3  502    0  0.15783792928E+03 -0.28019553840E+02 -0.37705423554E+03  0.40974369288E+03  0.46999998093E+01 0.  1.
       -5    1    3    3    0  502 -0.15783792928E+03  0.28019553840E+02  0.86028916245E+03  0.87510995901E+03  0.46999998093E+01 0. -1.
</event>
<event>
 5   0  0.3626049E-03  0.1209377E+04  0.7818609E-02  0.9104688E-01
        2   -1    0    0  501    0  0.00000000000E+00  0.00000000000E+00  0.96644155606E+03  0.96644155607E+03  0.25500000920E-02 0. -1.
       -2   -1    0    0    0  501  0.00000000000E+00  0.00000000000E+00 -0.37834494045E+03  0.37834494046E+03  0.25500000920E-02 0.  1.
    10030    2    1    2    0    0  0.00000000000E+00  0.00000000000E+00  0.58809661561E+03  0.13447864965E+04  0.12093771504E+04 0.  0.
        1    1    3    3  502    0 -0.88966830713E+02 -0.25517205018E+03 -0.30746311771E+03  0.40934269376E+03  0.50400001928E-02 0.  1.
       -1    1    3    3    0  502  0.88966830713E+02  0.25517205018E+03  0.89555973332E+03  0.93544380276E+03  0.50400001928E-02 0. -1.
</event>
<event>
 5   0  0.2078258E-03  0.1188085E+04  0.7818609E-02  0.9123350E-01
        1   -1    0    0  501    0  0.00000000000E+00  0.00000000000E+00  0.10086350005E+04  0.10086350006E+04  0.50400001928E-02 0.  1.
       -1   -1    0    0    0  501  0.00000000000E+00  0.00000000000E+00 -0.34986519116E+03  0.34986519119E+03  0.50400001928E-02 0. -1.
    10030    2    1    2    0    0  0.00000000000E+00  0.00000000000E+00  0.65876980938E+03  0.13585001917E+04  0.11880846389E+04 0.  0.
        3    1    3    3  502    0 -0.24179080115E+03 -0.93336042031E+02 -0.28180540028E+03  0.38286904039E+03  0.10100000352E+00 0. -1.
       -3    1    3    3    0  502  0.24179080115E+03  0.93336042031E+02  0.94057520966E+03  0.97563115135E+03  0.10100000352E+00 0.  1.
</event>
<event>
 5   0  0.2134992E-03  0.1214362E+04  0.7818609E-02  0.9100377E-01
       -1   -1    0    0    0  501  0.00000000000E+00  0.00000000000E+00  0.56768875806E+03  0.56768875808E+03  0.50400001928E-02 0.  1.
        1   -1    0    0  501    0  0.00000000000E+00  0.00000000000E+00 -0.64942088662E+03  0.64942088664E+03  0.50400001928E-02 0. -1.
    10030    2    1    2    0    0  0.00000000000E+00  0.00000000000E+00 -0.81732128559E+02  0.12171096447E+04  0.12143622797E+04 0.  0.
        4    1    3    3  502    0  0.46591487198E+03  0.11969533520E+03 -0.41219539779E+03  0.63349056825E+03  0.12699999809E+01 0. -1.
       -4    1    3    3    0  502 -0.46591487198E+03 -0.11969533520E+03  0.33046326923E+03  0.58361907646E+03  0.12699999809E+01 0.  1.
</event>
<event>
 5   0  0.2134992E-03  0.1230732E+04  0.7818609E-02  0.9086374E-01
        1   -1    0    0  501    0  0.00000000000E+00  0.00000000000E+00  0.13572539625E+04  0.13572539625E+04  0.50400001928E-02 0.  1.
       -1   -1    0    0    0  501  0.00000000000E+00  0.00000000000E+00 -0.27900114600E+03  0.27900114605E+03  0.50400001928E-02 0. -1.
    10030    2    1    2    0    0  0.00000000000E+00  0.00000000000E+00  0.10782528165E+04  0.16362551085E+04  0.12307321577E+04 0.  0.
        4    1    3    3  502    0  0.19179050521E+03 -0.57630681880E+03  0.67047543377E+03  0.90468340732E+03  0.12699999809E+01 0. -1.
       -4    1    3    3    0  502 -0.19179050521E+03  0.57630681880E+03  0.40777738270E+03  0.73157170122E+03  0.12699999809E+01 0.  1.
</event>
<event>
 5   0  0.2134992E-03  0.1216264E+04  0.7818609E-02  0.9098738E-01
       -1   -1    0    0    0  501  0.00000000000E+00  0.00000000000E+00  0.36693679188E+03  0.36693679192E+03  0.50400001928E-02 0. -1.
        1   -1    0    0  501    0  0.00000000000E+00  0.00000000000E+00 -0.10078701231E+04  0.10078701231E+04  0.50400001928E-02 0.  1.
    10030    2    1    2    0    0  0.00000000000E+00  0.00000000000E+00 -0.64093333118E+03  0.13748069150E+04  0.12162641648E+04 0.  0.
        4    1    3    3  502    0  0.14343748177E+03 -0.57024409817E+03 -0.49583663101E+03  0.76916072457E+03  0.12699999809E+01 0.  1.
       -4    1    3    3    0  502 -0.14343748177E+03  0.57024409817E+03 -0.14509670017E+03  0.60564619042E+03  0.12699999809E+01 0. -1.
</event>
<event>
 5   0  0.2078258E-03  0.1211039E+04  0.7818609E-02  0.9103249E-01
        1   -1    0    0  501    0  0.00000000000E+00  0.00000000000E+00  0.82783241782E+03  0.82783241784E+03  0.50400001928E-02 0.  1.
       -1   -1    0    0    0  501  0.00000000000E+00  0.00000000000E+00 -0.44290805177E+03  0.44290805180E+03  0.50400001928E-02 0. -1.
    10030    2    1    2    0    0  0.00000000000E+00  0.00000000000E+00  0.38492436605E+03  0.12707404696E+04  0.12110386342E+04 0.  0.
        3    1    3    3  502    0  0.13307703432E+03 -0.57958682514E+03  0.31220749584E+03  0.67164269936E+03  0.10100000352E+00 0.  1.
       -3    1    3    3    0  502 -0.13307703432E+03  0.57958682514E+03  0.72716870208E+02  0.59909777028E+03  0.10100000352E+00 0. -1.
</event>
<event>
 5   0  0.3751091E-03  0.1220223E+04  0.7818609E-02  0.9095337E-01
        2   -1    0    0  501    0  0.00000000000E+00  0.00000000000E+00  0.17679981047E+04  0.17679981047E+04  0.25500000920E-02 0.  1.
       -2   -1    0    0    0  501  0.00000000000E+00  0.00000000000E+00 -0.21054103447E+03  0.21054103448E+03  0.25500000920E-02 0. -1.
    10030    2    1    2    0    0  0.00000000000E+00  0.00000000000E+00  0.15574570703E+04  0.19785391392E+04  0.12202231762E+04 0.  0.
        5    1    3    3  502    0  0.52971673754E+03  0.24564728337E+02  0.28956748236E+03  0.60421408850E+03  0.46999998093E+01 0.  1.
       -5    1    3    3    0  502 -0.52971673754E+03 -0.24564728337E+02  0.12678895879E+04  0.13743250507E+04  0.46999998093E+01 0. -1.
</event>
<event>
 5   0  0.3706035E-03  0.1187317E+04  0.7818609E-02  0.9124031E-01
       -2   -1    0    0    0  501  0.00000000000E+00  0.00000000000E+00  0.20162291971E+03  0.20162291973E+03  0.25500000920E-02 0. -1.
        2   -1    0    0  501    0  0.00000000000E+00  0.00000000000E+00 -0.17479693119E+04  0.17479693119E+04  0.25500000920E-02 0.  1.
    10030    2    1    2    0    0  0.00000000000E+00  0.00000000000E+00 -0.15463463922E+04  0.19495922317E+04  0.11873174407E+04 0.  0.
        2    1    3    3  502    0 -0.24864582055E+03  0.44281872851E+03 -0.12779891421E+04  0.13751979558E+04  0.25500000920E-02 0.  1.
       -2    1    3    3    0  502  0.24864582055E+03 -0.44281872851E+03 -0.26835725011E+03  0.57439427582E+03  0.25500000920E-02 0. -1.
</event>
<event>
 5   0  0.2096270E-03  0.1160524E+04  0.7818609E-02  0.9148129E-01
       -1   -1    0    0    0  501  0.00000000000E+00  0.00000000000E+00  0.48602789221E+03  0.48602789224E+03  0.50400001928E-02 0.  1.
        1   -1    0    0  501    0  0.00000000000E+00  0.00000000000E+00 -0.69276729927E+03  0.69276729929E+03  0.50400001928E-02 0. -1.
    10030    2    1    2    0    0  0.00000000000E+00  0.00000000000E+00 -0.20673940706E+03  0.11787951915E+04  0.11605244164E+04 0.  0.
        2    1    3    3  502    0  0.22287781328E+03  0.21045681116E+03 -0.60381042013E+03  0.67716586777E+03  0.25500000920E-02 0. -1.
       -2    1    3    3    0  502 -0.22287781328E+03 -0.21045681116E+03  0.39707101307E+03  0.50162932375E+03  0.25500000920E-02 0.  1.
</event>
<event>
 5   0  0.2047109E-03  0.1201437E+04  0.7818609E-02  0.9111600E-01
       -1   -1    0    0    0  501  0.00000000000E+00  0.00000000000E+00  0.25891579588E+03  0.25891579593E+03  0.50400001928E-02 0.  1.
        1   -1    0    0  501    0  0.00000000000E+00  0.00000000000E+00 -0.13937449059E+04  0.13937449059E+04  0.50400001928E-02 0. -1.
    10030    2    1    2    0    0  0.00000000000E+00  0.00000000000E+00 -0.11348291100E+04  0.16526607018E+04  0.12014367592E+04 0.  0.
        1    1    3    3  502    0  0.52971022433E+03 -0.25185632144E+03 -0.74591059851E+03  0.94889786036E+03  0.50400001928E-02 0.  1.
       -1    1    3    3    0  502 -0.52971022433E+03  0.25185632144E+03 -0.38891851147E+03  0.70376284145E+03  0.50400001928E-02 0. -1.
</event>
<event>
 5   0  0.2078258E-03  0.1196980E+04  0.7818609E-02  0.9115504E-01
        1   -1    0    0  501    0  0.00000000000E+00  0.00000000000E+00  0.92658341671E+03  0.92658341672E+03  0.50400001928E-02 0.  1.
       -1   -1    0    0    0  501  0.00000000000E+00  0.00000000000E+00 -0.38657104366E+03  0.38657104370E+03  0.50400001928E-02 0. -1.
    10030    2    1    2    0    0  0.00000000000E+00  0.00000000000E+00  0.54001237304E+03  0.13131544604E+04  0.11969800641E+04 0.  0.
        3    1    3    3  502    0 -0.19824266545E+03  0.51512025791E+03  0.16158479163E+02  0.55218669050E+03  0.10100000352E+00 0. -1.
       -3    1    3    3    0  502  0.19824266545E+03 -0.51512025791E+03  0.52385389388E+03  0.76096776992E+03  0.10100000352E+00 0.  1.
</event>
<event>
 5   0  0.2047109E-03  0.1205662E+04  0.7818609E-02  0.9107915E-01
       -1   -1    0    0    0  501  0.00000000000E+00  0.00000000000E+00  0.34243219124E+03  0.34243219128E+03  0.50400001928E-02 0.  1.
        1   -1    0    0  501    0  0.00000000000E+00  0.00000000000E+00 -0.10612469653E+04  0.10612469653E+04  0.50400001928E-02 0. -1.
    10030    2    1    2    0    0  0.00000000000E+00  0.00000000000E+00 -0.71881477408E+03  0.14036791566E+04  0.12056618495E+04 0.  0.
        1    1    3    3  502    0  0.35316278694E+03  0.48854611618E+03 -0.36169537112E+03  0.70301123976E+03  0.50400001928E-02 0.  1.
       -1    1    3    3    0  502 -0.35316278694E+03 -0.48854611618E+03 -0.35711940296E+03  0.70066791685E+03  0.50400001928E-02 0. -1.
</event>
<event>
 5   0  0.2134992E-03  0.1226841E+04  0.7818609E-02  0.9089681E-01
        1   -1    0    0  501    0  0.00000000000E+00  0.00000000000E+00  0.22356985500E+03  0.22356985505E+03  0.50400001928E-02 0.  1.
       -1   -1    0    0    0  501  0.00000000000E+00  0.00000000000E+00 -0.16830757295E+04  0.16830757295E+04  0.50400001928E-02 0. -1.
    10030    2    1    2    0    0  0.00000000000E+00  0.00000000000E+00 -0.14595058745E+04  0.19066455845E+04  0.12268414679E+04 0.  0.
        4    1    3    3  502    0  0.10962463449E+03  0.44791682762E+03 -0.13584210061E+04  0.14345578718E+04  0.12699999809E+01 0. -1.
       -4    1    3    3    0  502 -0.10962463449E+03 -0.44791682762E+03 -0.10108486837E+03  0.47208771268E+03  0.12699999809E+01 0.  1.
</event>
<event>
 5   0  0.2134992E-03  0.1191409E+04  0.7818609E-02  0.9120409E-01
        1   -1    0    0  501    0  0.00000000000E+00  0.00000000000E+00  0.64044696733E+03  0.64044696735E+03  0.50400001928E-02 0.  1.
       -1   -1    0    0    0  501  0.00000000000E+00  0.00000000000E+00 -0.55408812818E+03  0.55408812820E+03  0.50400001928E-02 0. -1.
    10030    2    1    2    0    0  0.00000000000E+00  0.00000000000E+00  0.86358839147E+02  0.11945350956E+04  0.11914093526E+04 0.  0.
        4    1    3    3  502    0  0.58374026434E+03 -0.10345787789E+03 -0.15336527640E+02  0.59303714108E+03  0.12699999809E+01 0.  1.
       -4    1    3    3    0  502 -0.58374026434E+03  0.10345787789E+03  0.10169536679E+03  0.60149795448E+03  0.12699999809E+01 0. -1.
</event>
<event>
 5   0  0.2078258E-03  0.1128284E+04  0.7818609E-02  0.9178055E-01
       -1   -1    0    0    0  501  0.00000000000E+00  0.00000000000E+00  0.43412636465E+03  0.43412636467E+03  0.50400001928E-02 0. -1.
        1   -1    0    0  501    0  0.00000000000E+00  0.00000000000E+00 -0.73309555906E+03  0.73309555908E+03  0.50400001928E-02 0.  1.
    10030    2    1    2    0    0  0.00000000000E+00  0.00000000000E+00 -0.29896919442E+03  0.11672219238E+04  0.11282838473E+04 0.  0.
        3    1    3    3  502    0  0.97925745838E+02  0.27474952841E+03  0.35006671521E+03  0.45565718513E+03  0.10100000352E+00 0. -1.
       -3    1    3    3    0  502 -0.97925745838E+02 -0.27474952841E+03 -0.64903590963E+03  0.71156473862E+03  0.10100000352E+00 0.  1.
</event>
<event>
 5   0  0.3706035E-03  0.1189815E+04  0.7818609E-02  0.9121818E-01
       -2   -1    0    0    0  501  0.00000000000E+00  0.00000000000E+00  0.24178457089E+03  0.24178457091E+03  0.25500000920E-02 0.  1.
        2   -1    0    0  501    0  0.00000000000E+00  0.00000000000E+00 -0.14637619372E+04  0.14637619372E+04  0.25500000920E-02 0. -1.
    10030    2    1    2    0    0  0.00000000000E+00  0.00000000000E+00 -0.12219773663E+04  0.17055465081E+04  0.11898151989E+04 0.  0.
        2    1    3    3  502    0 -0.38806972285E+03  0.20697809392E+03 -0.36752615230E+02  0.44134883696E+03  0.25500000920E-02 0.  1.
       -2    1    3    3    0  502  0.38806972285E+03 -0.20697809392E+03 -0.11852247511E+04  0.12641976712E+04  0.25500000920E-02 0. -1.
</event>
<event>
 5   0  0.2025294E-03  0.1197641E+04  0.7818609E-02  0.9114924E-01
        1   -1    0    0  501    0  0.00000000000E+00  0.00000000000E+00  0.13721888017E+04  0.13721888017E+04  0.50400001928E-02 0.  1.
       -1   -1    0    0    0  501  0.00000000000E+00  0.00000000000E+00 -0.26132426782E+03  0.26132426787E+03  0.50400001928E-02 0. -1.
    10030    2    1    2    0    0  0.00000000000E+00  0.00000000000E+00  0.11108645339E+04  0.16335130696E+04  0.11976414054E+04 0.  0.
        5    1    3    3  502    0 -0.21076959679E+03 -0.43427882970E+03  0.10387032414E+04  0.11454031773E+04  0.46999998093E+01 0.  1.
       -5    1    3    3    0  502  0.21076959679E+03  0.43427882970E+03  0.72161292528E+02  0.48810989233E+03  0.46999998093E+01 0. -1.
</event>
<event>
 5   0  0.3626049E-03  0.1228720E+04  0.7818609E-02  0.9088083E-01
       -2   -1    0    0    0  501  0.00000000000E+00  0.00000000000E+00  0.27219598149E+03  0.27219598150E+03  0.25500000920E-02 0.  1.
        2   -1    0    0  501    0  0.00000000000E+00  0.00000000000E+00 -0.13866418057E+04  0.13866418057E+04  0.25500000920E-02 0. -1.
    10030    2    1    2    0    0  0.00000000000E+00  0.00000000000E+00 -0.11144458242E+04  0.16588377872E+04  0.12287201916E+04 0.  0.
        1    1    3    3  502    0  0.51449433031E+03 -0.68142653334E+02 -0.10010815415E+04  0.11276134488E+04  0.50400001928E-02 0. -1.
       -1    1    3    3    0  502 -0.51449433031E+03  0.68142653334E+02 -0.11336428275E+03  0.53122433845E+03  0.50400001928E-02 0.  1.
</event>
<event>
 5   0  0.2078258E-03  0.1197090E+04  0.7818609E-02  0.9115408E-01
        1   -1    0    0  501    0  0.00000000000E+00  0.00000000000E+00  0.10932410212E+04  0.10932410212E+04  0.50400001928E-02 0. -1.
       -1   -1    0    0    0  501  0.00000000000E+00  0.00000000000E+00 -0.32770078266E+03  0.32770078270E+03  0.50400001928E-02 0.  1.
    10030    2    1    2    0    0  0.00000000000E+00  0.00000000000E+00  0.76554023855E+03  0.14209418039E+04  0.11970897014E+04 0.  0.
        3    1    3    3  502    0 -0.69057790254E+01  0.36562625575E+03 -0.17967817804E+03  0.40744877782E+03  0.10100000352E+00 0.  1.
       -3    1    3    3    0  502  0.69057790254E+01 -0.36562625575E+03  0.94521841659E+03  0.10134930261E+04  0.10100000352E+00 0. -1.
</event>
<event>
 5   0  0.3626049E-03  0.1291836E+04  0.7818609E-02  0.9036065E-01
       -2   -1    0    0    0  501  0.00000000000E+00  0.00000000000E+00  0.19216258831E+03  0.19216258833E+03  0.25500000920E-02 0.  1.
        2   -1    0    0  501    0  0.00000000000E+00  0.00000000000E+00 -0.21711299596E+04  0.21711299596E+04  0.25500000920E-02 0. -1.
    10030    2    1    2    0    0  0.00000000000E+00  0.00000000000E+00 -0.19789673713E+04  0.23632925479E+04  0.12918358295E+04 0.  0.
        1    1    3    3  502    0 -0.42090377105E+03 -0.28547670620E+03 -0.26103759514E+03  0.57166210332E+03  0.50400001928E-02 0.  1.
       -1    1    3    3    0  502  0.42090377105E+03  0.28547670620E+03 -0.17179297761E+04  0.17916304446E+04  0.50400001928E-02 0. -1.
</event>
<event>
 5   0  0.2047109E-03  0.1370582E+04  0.7818609E-02  0.8975392E-01
       -1   -1    0    0    0  501  0.00000000000E+00  0.00000000000E+00  0.15172821677E+04  0.15172821677E+04  0.50400001928E-02 0.  1.
        1   -1    0    0  501    0  0.00000000000E+00  0.00000000000E+00 -0.30951658749E+03  0.30951658753E+03  0.50400001928E-02 0. -1.
    10030    2    1    2    0    0  0.00000000000E+00  0.00000000000E+00  0.12077655802E+04  0.18267987552E+04  0.13705823563E+04 0.  0.
        1    1    3    3  502    0 -0.15720324765E+03 -0.65287730823E+03  0.42180002918E+03  0.79301759458E+03  0.50400001928E-02 0. -1.
       -1    1    3    3    0  502  0.15720324765E+03  0.65287730823E+03  0.78596555102E+03  0.10337811606E+04  0.50400001928E-02 0.  1.
</event>
<event>
 5   0  0.3751091E-03  0.1186614E+04  0.7818609E-02  0.9124655E-01
        2   -1    0    0  501    0  0.00000000000E+00  0.00000000000E+00  0.14937191275E+04  0.14937191275E+04  0.25500000920E-02 0.  1.
       -2   -1    0    0    0  501  0.00000000000E+00  0.00000000000E+00 -0.23566214096E+03  0.23566214097E+03  0.25500000920E-02 0. -1.
    10030    2    1    2    0    0  0.00000000000E+00  0.00000000000E+00  0.12580569866E+04  0.17293812685E+04  0.11866137495E+04 0.  0.
        5    1    3    3  502    0  0.19000410818E+03  0.29175706369E+03 -0.71084965134E+02  0.35538557596E+03  0.46999998093E+01 0. -1.
       -5    1    3    3    0  502 -0.19000410818E+03 -0.29175706369E+03  0.13291419517E+04  0.13739956926E+04  0.46999998093E+01 0.  1.
</event>
<event>
 5   0  0.2096270E-03  0.1212057E+04  0.7818609E-02  0.9102368E-01
        1   -1    0    0  501    0  0.00000000000E+00  0.00000000000E+00  0.54476435715E+03  0.54476435718E+03  0.50400001928E-02 0. -1.
       -1   -1    0    0    0  501  0.00000000000E+00  0.00000000000E+00 -0.67418279050E+03  0.67418279052E+03  0.50400001928E-02 0.  1.
    10030    2    1    2    0    0  0.00000000000E+00  0.00000000000E+00 -0.12941843334E+03  0.12189471477E+04  0.12120573493E+04 0.  0.
        2    1    3    3  502    0  0.22319033627E+03  0.37221088313E+03  0.36067968874E+03  0.56430905149E+03  0.25500000920E-02 0. -1.
       -2    1    3    3    0  502 -0.22319033627E+03 -0.37221088313E+03 -0.49009812208E+03  0.65463809620E+03  0.25500000920E-02 0.  1.
</event>
<event>
 5   0  0.3650180E-03  0.1193644E+04  0.7818609E-02  0.9118438E-01
        2   -1    0    0  501    0  0.00000000000E+00  0.00000000000E+00  0.42986548212E+03  0.42986548213E+03  0.25500000920E-02 0. -1.
       -2   -1    0    0    0  501  0.00000000000E+00  0.00000000000E+00 -0.82862364831E+03  0.82862364831E+03  0.25500000920E-02 0.  1.
    10030    2    1    2    0    0  0.00000000000E+00  0.00000000000E+00 -0.39875816619E+03  0.12584891304E+04  0.11936443425E+04 0.  0.
        3    1    3    3  502    0  0.30611915299E+03 -0.14805785181E+03 -0.71650013437E+03  0.79309678859E+03  0.10100000352E+00 0.  1.
       -3    1    3    3    0  502 -0.30611915299E+03  0.14805785181E+03  0.31774196818E+03  0.46539234185E+03  0.10100000352E+00 0. -1.
</event>
<event>
 5   0  0.3706035E-03  0.1130881E+04  0.7818609E-02  0.9175605E-01
       -2   -1    0    0    0  501  0.00000000000E+00  0.00000000000E+00  0.33541757735E+03  0.33541757736E+03  0.25500000920E-02 0.  1.
        2   -1    0    0  501    0  0.00000000000E+00  0.00000000000E+00 -0.95320903893E+03  0.95320903893E+03  0.25500000920E-02 0. -1.
    10030    2    1    2    0    0  0.00000000000E+00  0.00000000000E+00 -0.61779146158E+03  0.12886266163E+04  0.11308811901E+04 0.  0.
        2    1    3    3  502    0  0.44907264748E+03 -0.33785864668E+03 -0.23765845155E+03  0.61016083737E+03  0.25500000920E-02 0. -1.
       -2    1    3    3    0  502 -0.44907264748E+03  0.33785864668E+03 -0.38013301003E+03  0.67846577892E+03  0.25500000920E-02 0.  1.
</event>
<event>
 5   0  0.2096270E-03  0.1250598E+04  0.7818609E-02  0.9069686E-01
       -1   -1    0    0    0  501  0.00000000000E+00  0.00000000000E+00  0.90225957728E+03  0.90225957729E+03  0.50400001928E-02 0. -1.
        1   -1    0    0  501    0  0.00000000000E+00  0.00000000000E+00 -0.43335529198E+03  0.43335529201E+03  0.50400001928E-02 0.  1.
    10030    2    1    2    0    0  0.00000000000E+00  0.00000000000E+00  0.46890428529E+03  0.13356148693E+04  0.12505981970E+04 0.  0.
        2    1    3    3  502    0  0.50754356619E+03 -0.23551866974E+03 -0.63683736915E+02  0.56313864521E+03  0.25500000920E-02 0. -1.
       -2    1    3    3    0  502 -0.50754356619E+03  0.23551866974E+03  0.53258802221E+03  0.77247622409E+03  0.25500000920E-02 0.  1.
</event>
<event>
 5   0  0.3751091E-03  0.1186942E+04  0.7818609E-02  0.9124363E-01
        2   -1    0    0  501    0  0.00000000000E+00  0.00000000000E+00  0.10001019068E+04  0.10001019068E+04  0.25500000920E-02 0.  1.
       -2   -1    0    0    0  501  0.00000000000E+00  0.00000000000E+00 -0.35217211842E+03  0.35217211842E+03  0.25500000920E-02 0. -1.
    10030    2    1    2    0    0  0.00000000000E+00  0.00000000000E+00  0.64792978837E+03  0.13522740252E+04  0.11869423021E+04 0.  0.
        5    1    3    3  502    0 -0.30768503579E+03 -0.50739879345E+03  0.33295738956E+03  0.68044568490E+03  0.46999998093E+01 0. -1.
       -5    1    3    3    0  502  0.30768503579E+03  0.50739879345E+03  0.31497239881E+03  0.67182834032E+03  0.46999998093E+01 0.  1.
</event>
<event>
 5   0  0.3751091E-03  0.1209681E+04  0.7818609E-02  0.9104425E-01
       -2   -1    0    0    0  501  0.00000000000E+00  0.00000000000E+00  0.71502081409E+03  0.71502081410E+03  0.25500000920E-02 0. -1.
        2   -1    0    0  501    0  0.00000000000E+00  0.00000000000E+00 -0.51163825139E+03  0.51163825139E+03  0.25500000920E-02 0.  1.
    10030    2    1    2    0    0  0.00000000000E+00  0.00000000000E+00  0.20338256270E+03  0.12266590655E+04  0.12096809481E+04 0.  0.
        5    1    3    3  502    0  0.27042614215E+03 -0.30136868909E+03  0.55728153750E+03  0.68886732189E+03  0.46999998093E+01 0. -1.
       -5    1    3    3    0  502 -0.27042614215E+03  0.30136868909E+03 -0.35389897480E+03  0.53779174360E+03  0.46999998093E+01 0.  1.
</event>
<event>
 5   0  0.3650180E-03  0.1188008E+04  0.7818609E-02  0.9123419E-01
        2   -1    0    0  501    0  0.00000000000E+00  0.00000000000E+00  0.60142160773E+03  0.60142160773E+03  0.25500000920E-02 0.  1.
       -2   -1    0    0    0  501  0.00000000000E+00  0.00000000000E+00 -0.58667759811E+03  0.58667759811E+03  0.25500000920E-02 0. -1.
    10030    2    1    2    0    0  0.00000000000E+00  0.00000000000E+00  0.14744009622E+02  0.11880992058E+04  0.11880077176E+04 0.  0.
        3    1    3    3  502    0  0.45629240962E+02 -0.56773739814E+03 -0.16126124390E+03  0.59195690710E+03  0.10100000352E+00 0. -1.
       -3    1    3    3    0  502 -0.45629240962E+02  0.56773739814E+03  0.17600525352E+03  0.59614229874E+03  0.10100000352E+00 0.  1.
</event>
<event>
 5   0  0.3626049E-03  0.1214025E+04  0.7818609E-02  0.9100669E-01
        2   -1    0    0  501    0  0.00000000000E+00  0.00000000000E+00  0.84516502110E+03  0.84516502110E+03  0.25500000920E-02 0.  1.
       -2   -1    0    0    0  501  0.00000000000E+00  0.00000000000E+00 -0.43596686226E+03  0.43596686226E+03  0.25500000920E-02 0. -1.
    10030    2    1    2    0    0  0.00000000000E+00  0.00000000000E+00  0.40919815884E+03  0.12811318834E+04  0.12140246165E+04 0.  0.
        1    1    3    3  502    0  0.16408617842E+02 -0.39120214153E+03  0.69408776503E+03  0.79691039890E+03  0.50400001928E-02 0.  1.
       -1    1    3    3    0  502 -0.16408617842E+02  0.39120214153E+03 -0.28488960619E+03  0.48422148447E+03  0.50400001928E-02 0. -1.
</event>
<event>
 5   0  0.2025294E-03  0.1175153E+04  0.7818609E-02  0.9134887E-01
        1   -1    0    0  501    0  0.00000000000E+00  0.00000000000E+00  0.91609993678E+03  0.91609993680E+03  0.50400001928E-02 0.  1.
       -1   -1    0    0    0  501  0.00000000000E+00  0.00000000000E+00 -0.37686524808E+03  0.37686524811E+03  0.50400001928E-02 0. -1.
    10030    2    1    2    0    0  0.00000000000E+00  0.00000000000E+00  0.53923468871E+03  0.12929651849E+04  0.11751531474E+04 0.  0.
        5    1    3    3  502    0 -0.49424925628E+03 -0.30836268141E+03  0.18543350798E+03  0.61137349181E+03  0.46999998093E+01 0.  1.
       -5    1    3    3    0  502  0.49424925628E+03  0.30836268141E+03  0.35380118072E+03  0.68159169309E+03  0.46999998093E+01 0. -1.
</event>
<event>
 5   0  0.2047109E-03  0.1194379E+04  0.7818609E-02  0.9117791E-01
        1   -1    0    0  501    0  0.00000000000E+00  0.00000000000E+00  0.11315448023E+04  0.11315448024E+04  0.50400001928E-02 0.  1.
       -1   -1    0    0    0  501  0.00000000000E+00  0.00000000000E+00 -0.31517569553E+03  0.31517569557E+03  0.50400001928E-02 0. -1.
    10030    2    1    2    0    0  0.00000000000E+00  0.00000000000E+00  0.81636910682E+03  0.14467204979E+04  0.11943792030E+04 0.  0.
        1    1    3    3  502    0 -0.35440581644E+03  0.46511373952E+03  0.26131965550E+03  0.64048593723E+03  0.50400001928E-02 0. -1.
       -1    1    3    3    0  502  0.35440581644E+03 -0.46511373952E+03  0.55504945132E+03  0.80623456069E+03  0.50400001928E-02 0.  1.
</event>
<event>
 5   0  0.1397500E-03  0.1195976E+04  0.7818609E-02  0.9116386E-01
        3   -1    0    0  501    0  0.00000000000E+00  0.00000000000E+00  0.77448068510E+03  0.77448069169E+03  0.10100000352E+00 0. -1.
       -3   -1    0    0    0  501  0.00000000000E+00  0.00000000000E+00 -0.46171502074E+03  0.46171503179E+03  0.10100000352E+00 0.  1.
    10030    2    1    2    0    0  0.00000000000E+00  0.00000000000E+00  0.31276566436E+03  0.12361957235E+04  0.11959755457E+04 0.  0.
        5    1    3    3  502    0 -0.46420603965E+02 -0.11106249525E+03 -0.44904318268E+03  0.46492109033E+03  0.46999998093E+01 0.  1.
       -5    1    3    3    0  502  0.46420603965E+02  0.11106249525E+03  0.76180884703E+03  0.77127463315E+03  0.46999998093E+01 0. -1.
</event>
<event>
 5   0  0.3706035E-03  0.1146719E+04  0.7818609E-02  0.9160816E-01
       -2   -1    0    0    0  501  0.00000000000E+00  0.00000000000E+00  0.40047748397E+03  0.40047748397E+03  0.25500000920E-02 0.  1.
        2   -1    0    0  501    0  0.00000000000E+00  0.00000000000E+00 -0.82087235115E+03  0.82087235116E+03  0.25500000920E-02 0. -1.
    10030    2    1    2    0    0  0.00000000000E+00  0.00000000000E+00 -0.42039486719E+03  0.12213498351E+04  0.11467186121E+04 0.  0.
        2    1    3    3  502    0 -0.51774606254E+03 -0.24600333494E+03 -0.22376491870E+03  0.61534491541E+03  0.25500000920E-02 0. -1.
       -2    1    3    3    0  502  0.51774606254E+03  0.24600333494E+03 -0.19662994848E+03  0.60600491972E+03  0.25500000920E-02 0.  1.
</event>
<event>
 5   0  0.2096270E-03  0.1168414E+04  0.7818609E-02  0.9140962E-01
        1   -1    0    0  501    0  0.00000000000E+00  0.00000000000E+00  0.10088248707E+04  0.10088248707E+04  0.50400001928E-02 0.  1.
       -1   -1    0    0    0  501  0.00000000000E+00  0.00000000000E+00 -0.33831239248E+03  0.33831239251E+03  0.50400001928E-02 0. -1.
    10030    2    1    2    0    0  0.00000000000E+00  0.00000000000E+00  0.67051247821E+03  0.13471372632E+04  0.11684142341E+04 0.  0.
        2    1    3    3  502    0  0.32397404147E+02  0.26340856042E+03  0.93531100556E+03  0.97223471375E+03  0.25500000920E-02 0.  1.
       -2    1    3    3    0  502 -0.32397404147E+02 -0.26340856042E+03 -0.26479852735E+03  0.37490254946E+03  0.25500000920E-02 0. -1.
</event>
<event>
 5   0  0.3626049E-03  0.1193518E+04  0.7818609E-02  0.9118549E-01
        2   -1    0    0  501    0  0.00000000000E+00  0.00000000000E+00  0.73058640230E+03  0.73058640230E+03  0.25500000920E-02 0.  1.
       -2   -1    0    0    0  501  0.00000000000E+00  0.00000000000E+00 -0.48744573740E+03  0.48744573741E+03  0.25500000920E-02 0. -1.
    10030    2    1    2    0    0  0.00000000000E+00  0.00000000000E+00  0.24314066489E+03  0.12180321397E+04  0.11935178719E+04 0.  0.
        1    1    3    3  502    0 -0.38932878292E+03  0.29965157635E+03  0.46728064593E+03  0.67802593646E+03  0.50400001928E-02 0. -1.
       -1    1    3    3    0  502  0.38932878292E+03 -0.29965157635E+03 -0.22413998104E+03  0.54000620325E+03  0.50400001928E-02 0.  1.
</event>
<event>
 5   0  0.3751091E-03  0.1180943E+04  0.7818609E-02  0.9129702E-01
       -2   -1    0    0    0  501  0.00000000000E+00  0.00000000000E+00  0.84364118041E+03  0.84364118041E+03  0.25500000920E-02 0.  1.
        2   -1    0    0  501    0  0.00000000000E+00  0.00000000000E+00 -0.41327619758E+03  0.41327619759E+03  0.25500000920E-02 0. -1.
    10030    2    1    2    0    0  0.00000000000E+00  0.00000000000E+00  0.43036498283E+03  0.12569173780E+04  0.11809433842E+04 0.  0.
        5    1    3    3  502    0 -0.14011225978E+03  0.20349105545E+03 -0.35559662248E+03  0.43302552223E+03  0.46999998093E+01 0. -1.
       -5    1    3    3    0  502  0.14011225978E+03 -0.20349105545E+03  0.78596160531E+03  0.82389185577E+03  0.46999998093E+01 0.  1.
</event>
<event>
 5   0  0.1397500E-03  0.1199541E+04  0.7818609E-02  0.9113259E-01
       -3   -1    0    0    0  501  0.00000000000E+00  0.00000000000E+00  0.78627347654E+03  0.78627348303E+03  0.10100000352E+00 0. -1.
        3   -1    0    0  501    0  0.00000000000E+00  0.00000000000E+00 -0.45750548183E+03  0.45750549298E+03  0.10100000352E+00 0.  1.
    10030    2    1    2    0    0  0.00000000000E+00  0.00000000000E+00  0.32876799471E+03  0.12437789760E+04  0.11995406399E+04 0.  0.
        5    1    3    3  502    0  0.26944931642E+03  0.53134717487E+03  0.92774788425E+02  0.60296103168E+03  0.46999998093E+01 0.  1.
       -5    1    3    3    0  502 -0.26944931642E+03 -0.53134717487E+03  0.23599320628E+03  0.64081794433E+03  0.46999998093E+01 0. -1.
</event>
<event>
 5   0  0.2078258E-03  0.1194504E+04  0.7818609E-02  0.9117681E-01
       -1   -1    0    0    0  501  0.00000000000E+00  0.00000000000E+00  0.51913015800E+03  0.51913015803E+03  0.50400001928E-02 0.  1.
        1   -1    0    0  501    0  0.00000000000E+00  0.00000000000E+00 -0.68713006603E+03  0.68713006605E+03  0.50400001928E-02 0. -1.
    10030    2    1    2    0    0  0.00000000000E+00  0.00000000000E+00 -0.16799990803E+03  0.12062602241E+04  0.11945039804E+04 0.  0.
        3    1    3    3  502    0 -0.22740986937E+03  0.10799093612E+03 -0.63093228982E+03  0.67930321323E+03  0.10100000352E+00 0. -1.
       -3    1    3    3    0  502  0.22740986937E+03 -0.10799093612E+03  0.46293238179E+03  0.52695701085E+03  0.10100000352E+00 0.  1.
</event>
<event>
 5   0  0.2025294E-03  0.1179972E+04  0.7818609E-02  0.9130570E-01
        1   -1    0    0  501    0  0.00000000000E+00  0.00000000000E+00  0.16890149492E+04  0.16890149492E+04  0.50400001928E-02 0.  1.
       -1   -1    0    0    0  501  0.00000000000E+00  0.00000000000E+00 -0.20608678622E+03  0.20608678628E+03  0.50400001928E-02 0. -1.
    10030    2    1    2    0    0  0.00000000000E+00  0.00000000000E+00  0.14829281630E+04  0.18951017355E+04  0.11799723096E+04 0.  0.
        5    1    3    3  502    0 -0.30136199859E+03  0.50706341981E+03  0.72320816613E+03  0.93326550749E+03  0.46999998093E+01 0.  1.
       -5    1    3    3    0  502  0.30136199859E+03 -0.50706341981E+03  0.75971999684E+03  0.96183622801E+03  0.46999998093E+01 0. -1.
</event>
<event>
 5   0  0.3626049E-03  0.1200601E+04  0.7818609E-02  0.9112331E-01
        2   -1    0    0  501    0  0.00000000000E+00  0.00000000000E+00  0.55101026756E+03  0.55101026756E+03  0.25500000920E-02 0.  1.
       -2   -1    0    0    0  501  0.00000000000E+00  0.00000000000E+00 -0.65399948846E+03  0.65399948846E+03  0.25500000920E-02 0. -1.
    10030    2    1    2    0    0  0.00000000000E+00  0.00000000000E+00 -0.10298922090E+03  0.12050097560E+04  0.12006005716E+04 0.  0.
        1    1    3    3  502    0 -0.17987662086E+03  0.52466695993E+03 -0.28196678316E+03  0.62220276792E+03  0.50400001928E-02 0. -1.
       -1    1    3    3    0  502  0.17987662086E+03 -0.52466695993E+03  0.17897756226E+03  0.58280698811E+03  0.50400001928E-02 0.  1.
</event>
<event>
 5   0  0.3725376E-03  0.1196284E+04  0.7818609E-02  0.9116115E-01
        2   -1    0    0  501    0  0.00000000000E+00  0.00000000000E+00  0.97431621261E+03  0.97431621262E+03  0.25500000920E-02 0.  1.
       -2   -1    0    0    0  501  0.00000000000E+00  0.00000000000E+00 -0.36720536059E+03  0.36720536060E+03  0.25500000920E-02 0. -1.
    10030    2    1    2    0    0  0.00000000000E+00  0.00000000000E+00  0.60711085202E+03  0.13415215732E+04  0.11962844748E+04 0.  0.
        4    1    3    3  502    0  0.42944650042E+03 -0.41576503551E+03  0.27879132501E+03  0.65955369553E+03  0.12699999809E+01 0.  1.
       -4    1    3    3    0  502 -0.42944650042E+03  0.41576503551E+03  0.32831952701E+03  0.68196787769E+03  0.12699999809E+01 0. -1.
</event>
<event>
 5   0  0.1397500E-03  0.1237742E+04  0.7818609E-02  0.9080448E-01
        4   -1    0    0  501    0  0.00000000000E+00  0.00000000000E+00  0.70224094553E+03  0.70224209392E+03  0.12699999809E+01 0.  1.
       -4   -1    0    0    0  501  0.00000000000E+00  0.00000000000E+00 -0.54539616498E+03  0.54539764363E+03  0.12699999809E+01 0. -1.
    10030    2    1    2    0    0  0.00000000000E+00  0.00000000000E+00  0.15684478055E+03  0.12476397375E+04  0.12377417459E+04 0.  0.
        5    1    3    3  502    0 -0.83034973270E+02  0.15088912770E+03  0.67758025180E+03  0.69914191926E+03  0.46999998093E+01 0.  1.
       -5    1    3    3    0  502  0.83034973270E+02 -0.15088912770E+03 -0.52073547125E+03  0.54849781828E+03  0.46999998093E+01 0. -1.
</event>
<event>
 5   0  0.2134992E-03  0.1195177E+04  0.7818609E-02  0.9117088E-01
        1   -1    0    0  501    0  0.00000000000E+00  0.00000000000E+00  0.41994131480E+03  0.41994131483E+03  0.50400001928E-02 0. -1.
       -1   -1    0    0    0  501  0.00000000000E+00  0.00000000000E+00 -0.85038616866E+03  0.85038616868E+03  0.50400001928E-02 0.  1.
    10030    2    1    2    0    0  0.00000000000E+00  0.00000000000E+00 -0.43044485387E+03  0.12703274835E+04  0.11951774526E+04 0.  0.
        4    1    3    3  502    0  0.45534223873E+03 -0.32539508552E+03 -0.43790014588E+03  0.71061710275E+03  0.12699999809E+01 0.  1.
       -4    1    3    3    0  502 -0.45534223873E+03  0.32539508552E+03  0.74552920162E+01  0.55971038076E+03  0.12699999809E+01 0. -1.
</event>
<event>
 5   0  0.3650180E-03  0.1176545E+04  0.7818609E-02  0.9133638E-01
        2   -1    0    0  501    0  0.00000000000E+00  0.00000000000E+00  0.10949421393E+04  0.10949421393E+04  0.25500000920E-02 0. -1.
       -2   -1    0    0    0  501  0.00000000000E+00  0.00000000000E+00 -0.31605721356E+03  0.31605721357E+03  0.25500000920E-02 0.  1.
    10030    2    1    2    0    0  0.00000000000E+00  0.00000000000E+00  0.77888492578E+03  0.14109993529E+04  0.11765447065E+04 0.  0.
        3    1    3    3  502    0  0.49731666399E+03 -0.14385078334E+03  0.54401653227E+02  0.52055399549E+03  0.10100000352E+00 0.  1.
       -3    1    3    3    0  502 -0.49731666399E+03  0.14385078334E+03  0.72448327255E+03  0.89044535742E+03  0.10100000352E+00 0. -1.
</event>
<event>
 5   0  0.2047109E-03  0.1189841E+04  0.7818609E-02  0.9121796E-01
       -1   -1    0    0    0  501  0.00000000000E+00  0.00000000000E+00  0.22540513755E+03  0.22540513761E+03  0.50400001928E-02 0.  1.
        1   -1    0    0  501    0  0.00000000000E+00  0.00000000000E+00 -0.15701962045E+04  0.15701962045E+04  0.50400001928E-02 0. -1.
    10030    2    1    2    0    0  0.00000000000E+00  0.00000000000E+00 -0.13447910669E+04  0.17956013421E+04  0.11898408154E+04 0.  0.
        1    1    3    3  502    0  0.17742911323E+03 -0.13764944312E+03  0.15898857189E+03  0.27514691609E+03  0.50400001928E-02 0.  1.
       -1    1    3    3    0  502 -0.17742911323E+03  0.13764944312E+03 -0.15037796388E+04  0.15204544260E+04  0.50400001928E-02 0. -1.
</event>
<event>
 5   0  0.3751091E-03  0.1193997E+04  0.7818609E-02  0.9118128E-01
       -2   -1    0    0    0  501  0.00000000000E+00  0.00000000000E+00  0.49557645087E+03  0.49557645087E+03  0.25500000920E-02 0. -1.
        2   -1    0    0  501    0  0.00000000000E+00  0.00000000000E+00 -0.71917665878E+03  0.71917665878E+03  0.25500000920E-02 0.  1.
    10030    2    1    2    0    0  0.00000000000E+00  0.00000000000E+00 -0.22360020791E+03  0.12147531097E+04  0.11939966769E+04 0.  0.
        5    1    3    3  502    0  0.10129758286E+03  0.58696361569E+03 -0.71137317648E+02  0.59989173557E+03  0.46999998093E+01 0.  1.
       -5    1    3    3    0  502 -0.10129758286E+03 -0.58696361569E+03 -0.15246289026E+03  0.61486137409E+03  0.46999998093E+01 0. -1.
</event>
<event>
 5   0  0.2096270E-03  0.1212201E+04  0.7818609E-02  0.9102243E-01
        1   -1    0    0  501    0  0.00000000000E+00  0.00000000000E+00  0.66009281071E+03  0.66009281073E+03  0.50400001928E-02 0.  1.
       -1   -1    0    0    0  501  0.00000000000E+00  0.00000000000E+00 -0.55652465072E+03  0.55652465074E+03  0.50400001928E-02 0. -1.
    10030    2    1    2    0    0  0.00000000000E+00  0.00000000000E+00  0.10356815999E+03  0.12166174615E+04  0.12122011730E+04 0.  0.
        2    1    3    3  502    0 -0.30086159367E+03  0.18053063567E+03  0.54780005554E+03  0.65053355780E+03  0.25500000920E-02 0.  1.
       -2    1    3    3    0  502  0.30086159367E+03 -0.18053063567E+03 -0.44423189555E+03  0.56608390367E+03  0.25500000920E-02 0. -1.
</event>
<event>
 5   0  0.3626049E-03  0.1191015E+04  0.7818609E-02  0.9120758E-01
        2   -1    0    0  501    0  0.00000000000E+00  0.00000000000E+00  0.25543332445E+03  0.25543332446E+03  0.25500000920E-02 0. -1.
       -2   -1    0    0    0  501  0.00000000000E+00  0.00000000000E+00 -0.13883427006E+04  0.13883427006E+04  0.25500000920E-02 0.  1.
    10030    2    1    2    0    0  0.00000000000E+00  0.00000000000E+00 -0.11329093761E+04  0.16437760251E+04  0.11910146792E+04 0.  0.
        1    1    3    3  502    0  0.14080122011E+03  0.49545873028E+03 -0.15396680062E+03  0.53759660779E+03  0.50400001928E-02 0. -1.
       -1    1    3    3    0  502 -0.14080122011E+03 -0.49545873028E+03 -0.97894257551E+03  0.11061794173E+04  0.50400001928E-02 0.  1.
</event>
<event>
 5   0  0.3706035E-03  0.1211310E+04  0.7818609E-02  0.9103014E-01
       -2   -1    0    0    0  501  0.00000000000E+00  0.00000000000E+00  0.12672529849E+03  0.12672529852E+03  0.25500000920E-02 0.  1.
        2   -1    0    0  501    0  0.00000000000E+00  0.00000000000E+00 -0.28945911433E+04  0.28945911433E+04  0.25500000920E-02 0. -1.
    10030    2    1    2    0    0  0.00000000000E+00  0.00000000000E+00 -0.27678658448E+04  0.30213164418E+04  0.12113099136E+04 0.  0.
        2    1    3    3  502    0 -0.35093329480E+03 -0.12693027188E+03 -0.19411171500E+03  0.42064810617E+03  0.25500000920E-02 0.  1.
       -2    1    3    3    0  502  0.35093329480E+03  0.12693027188E+03 -0.25737541298E+04  0.26006683356E+04  0.25500000920E-02 0. -1.
</event>
<event>
 5   0  0.1397500E-03  0.1195109E+04  0.7818609E-02  0.9117149E-01
       -3   -1    0    0    0  501  0.00000000000E+00  0.00000000000E+00  0.60566640994E+03  0.60566641836E+03  0.10100000352E+00 0. -1.
        3   -1    0    0  501    0  0.00000000000E+00  0.00000000000E+00 -0.58955088837E+03  0.58955089702E+03  0.10100000352E+00 0.  1.
    10030    2    1    2    0    0  0.00000000000E+00  0.00000000000E+00  0.16115521568E+02  0.11952173154E+04  0.11951086649E+04 0.  0.
        4    1    3    3  502    0  0.11013329561E+03  0.57841170592E+03  0.10994991184E+03  0.59898250422E+03  0.12699999809E+01 0. -1.
       -4    1    3    3    0  502 -0.11013329561E+03 -0.57841170592E+03 -0.93834390275E+02  0.59623481117E+03  0.12699999809E+01 0.  1.
</event>
<event>
 5   0  0.2134992E-03  0.1203019E+04  0.7818609E-02  0.9110218E-01
        1   -1    0    0  501    0  0.00000000000E+00  0.00000000000E+00  0.22586425331E+03  0.22586425337E+03  0.50400001928E-02 0.  1.
       -1   -1    0    0    0  501  0.00000000000E+00  0.00000000000E+00 -0.16019065169E+04  0.16019065169E+04  0.50400001928E-02 0. -1.
    10030    2    1    2    0    0  0.00000000000E+00  0.00000000000E+00 -0.13760422636E+04  0.18277707703E+04  0.12030185690E+04 0.  0.
        4    1    3    3  502    0  0.28736799614E+03 -0.50638195378E+03 -0.45856470986E+03  0.74113848527E+03  0.12699999809E+01 0.  1.
       -4    1    3    3    0  502 -0.28736799614E+03  0.50638195378E+03 -0.91747755372E+03  0.10866322850E+04  0.12699999809E+01 0. -1.
</event>
<event>
 5   0  0.1397500E-03  0.1206266E+04  0.7818609E-02  0.9107390E-01
       -3   -1    0    0    0  501  0.00000000000E+00  0.00000000000E+00  0.15928109647E+04  0.15928109679E+04  0.10100000352E+00 0.  1.
        3   -1    0    0  501    0  0.00000000000E+00  0.00000000000E+00 -0.22838188727E+03  0.22838190961E+03  0.10100000352E+00 0. -1.
    10030    2    1    2    0    0  0.00000000000E+00  0.00000000000E+00  0.13644290774E+04  0.18211928775E+04  0.12062656381E+04 0.  0.
        3    1    3    3  502    0  0.12226923163E+03 -0.12085253953E+03  0.15550358897E+04  0.15645100607E+04  0.10100000352E+00 0.  1.
       -3    1    3    3    0  502 -0.12226923163E+03  0.12085253953E+03 -0.19060681237E+03  0.25668281680E+03  0.10100000352E+00 0. -1.
</event>
<event>
 5   0  0.3725376E-03  0.1242732E+04  0.7818609E-02  0.9076255E-01
       -2   -1    0    0    0  501  0.00000000000E+00  0.00000000000E+00  0.44879037638E+03  0.44879037639E+03  0.25500000920E-02 0.  1.
        2   -1    0    0  501    0  0.00000000000E+00  0.00000000000E+00 -0.86030232776E+03  0.86030232776E+03  0.25500000920E-02 0. -1.
    10030    2    1    2    0    0  0.00000000000E+00  0.00000000000E+00 -0.41151195138E+03  0.13090927042E+04  0.12427315164E+04 0.  0.
        4    1    3    3  502    0  0.62131955354E+03  0.69901450297E+01 -0.20298034346E+03  0.65367383493E+03  0.12699999809E+01 0. -1.
       -4    1    3    3    0  502 -0.62131955354E+03 -0.69901450297E+01 -0.20853160791E+03  0.65541886922E+03  0.12699999809E+01 0.  1.
</event>
<event>
 5   0  0.3751091E-03  0.1192894E+04  0.7818609E-02  0.9119100E-01
       -2   -1    0    0    0  501  0.00000000000E+00  0.00000000000E+00  0.23249583291E+03  0.23249583293E+03  0.25500000920E-02 0. -1.
        2   -1    0    0  501    0  0.00000000000E+00  0.00000000000E+00 -0.15301298956E+04  0.15301298956E+04  0.25500000920E-02 0.  1.
    10030    2    1    2    0    0  0.00000000000E+00  0.00000000000E+00 -0.12976340627E+04  0.17626257285E+04  0.11928936659E+04 0.  0.
        5    1    3    3  502    0  0.53552052215E+03 -0.10941901221E+03 -0.29613036020E+03  0.62166713771E+03  0.46999998093E+01 0. -1.
       -5    1    3    3    0  502 -0.53552052215E+03  0.10941901221E+03 -0.10015037025E+04  0.11409585908E+04  0.46999998093E+01 0.  1.
</event>
<event>
 5   0  0.2047109E-03  0.1211526E+04  0.7818609E-02  0.9102827E-01
        1   -1    0    0  501    0  0.00000000000E+00  0.00000000000E+00  0.16768652882E+04  0.16768652882E+04  0.50400001928E-02 0.  1.
       -1   -1    0    0    0  501  0.00000000000E+00  0.00000000000E+00 -0.21883021522E+03  0.21883021528E+03  0.50400001928E-02 0. -1.
    10030    2    1    2    0    0  0.00000000000E+00  0.00000000000E+00  0.14580350730E+04  0.18956955035E+04  0.12115259666E+04 0.  0.
        1    1    3    3  502    0  0.13986830591E+03  0.58019373165E+03  0.89133296468E+03  0.10726893134E+04  0.50400001928E-02 0. -1.
       -1    1    3    3    0  502 -0.13986830591E+03 -0.58019373165E+03  0.56670210829E+03  0.82300619002E+03  0.50400001928E-02 0.  1.
</event>
<event>
 5   0  0.3725376E-03  0.1181290E+04  0.7818609E-02  0.9129393E-01
        2   -1    0    0  501    0  0.00000000000E+00  0.00000000000E+00  0.83266558965E+03  0.83266558965E+03  0.25500000920E-02 0. -1.
       -2   -1    0    0    0  501  0.00000000000E+00  0.00000000000E+00 -0.41896965807E+03  0.41896965808E+03  0.25500000920E-02 0.  1.
    10030    2    1    2    0    0  0.00000000000E+00  0.00000000000E+00  0.41369593158E+03  0.12516352477E+04  0.11812901716E+04 0.  0.
        4    1    3    3  502    0  0.44180447584E+03 -0.14104553805E+03 -0.18068497025E+03  0.49772855057E+03  0.12699999809E+01 0.  1.
       -4    1    3    3    0  502 -0.44180447584E+03  0.14104553805E+03  0.59438090183E+03  0.75390669717E+03  0.12699999809E+01 0. -1.
</event>
<event>
 5   0  0.1397500E-03  0.1191407E+04  0.7818609E-02  0.9120412E-01
        3   -1    0    0  501    0  0.00000000000E+00  0.00000000000E+00  0.85686600999E+03  0.85686601595E+03  0.10100000352E+00 0.  1.
       -3   -1    0    0    0  501  0.00000000000E+00  0.00000000000E+00 -0.41413996690E+03  0.41413997921E+03  0.10100000352E+00 0. -1.
    10030    2    1    2    0    0  0.00000000000E+00  0.00000000000E+00  0.44272604310E+03  0.12710059952E+04  0.11914066856E+04 0.  0.
        3    1    3    3  502    0  0.25043002976E+02  0.54857466539E+02  0.85360143017E+03  0.85572887378E+03  0.10100000352E+00 0.  1.
       -3    1    3    3    0  502 -0.25043002976E+02 -0.54857466539E+02 -0.41087538708E+03  0.41527712138E+03  0.10100000352E+00 0. -1.
</event>
<event>
 5   0  0.2078258E-03  0.1209224E+04  0.7818609E-02  0.9104821E-01
       -1   -1    0    0    0  501  0.00000000000E+00  0.00000000000E+00  0.29829241902E+03  0.29829241907E+03  0.50400001928E-02 0. -1.
        1   -1    0    0  501    0  0.00000000000E+00  0.00000000000E+00 -0.12254944849E+04  0.12254944849E+04  0.50400001928E-02 0.  1.
    10030    2    1    2    0    0  0.00000000000E+00  0.00000000000E+00 -0.92720206588E+03  0.15237869040E+04  0.12092240726E+04 0.  0.
        3    1    3    3  502    0  0.57706666988E+03  0.17761330847E+03 -0.50351524275E+03  0.78618066544E+03  0.10100000352E+00 0. -1.
       -3    1    3    3    0  502 -0.57706666988E+03 -0.17761330847E+03 -0.42368682313E+03  0.73760623854E+03  0.10100000352E+00 0.  1.
</event>
<event>
 5   0  0.2096270E-03  0.1206988E+04  0.7818609E-02  0.9106762E-01
        1   -1    0    0  501    0  0.00000000000E+00  0.00000000000E+00  0.65422680923E+03  0.65422680925E+03  0.50400001928E-02 0.  1.
       -1   -1    0    0    0  501  0.00000000000E+00  0.00000000000E+00 -0.55669496700E+03  0.55669496703E+03  0.50400001928E-02 0. -1.
    10030    2    1    2    0    0  0.00000000000E+00  0.00000000000E+00  0.97531842227E+02  0.12109217763E+04  0.12069876089E+04 0.  0.
        2    1    3    3  502    0 -0.45345966385E+02 -0.57299432830E+03  0.23328390328E+03  0.62032260677E+03  0.25500000920E-02 0.  1.
       -2    1    3    3    0  502  0.45345966385E+02  0.57299432830E+03 -0.13575206106E+03  0.59059916951E+03  0.25500000920E-02 0. -1.
</event>
<event>
 5   0  0.2096270E-03  0.1180345E+04  0.7818609E-02  0.9130236E-01
        1   -1    0    0  501    0  0.00000000000E+00  0.00000000000E+00  0.11468224941E+04  0.11468224941E+04  0.50400001928E-02 0.  1.
       -1   -1    0    0    0  501  0.00000000000E+00  0.00000000000E+00 -0.30371210131E+03  0.30371210136E+03  0.50400001928E-02 0. -1.
    10030    2    1    2    0    0  0.00000000000E+00  0.00000000000E+00  0.84311039281E+03  0.14505345955E+04  0.11803454911E+04 0.  0.
        2    1    3    3  502    0 -0.44769709687E+02  0.39999239381E+03 -0.10887951041E+03  0.41695682007E+03  0.25500000920E-02 0. -1.
       -2    1    3    3    0  502  0.44769709687E+02 -0.39999239381E+03  0.95198990322E+03  0.10335777754E+04  0.25500000920E-02 0.  1.
</event>
<event>
 5   0  0.2047109E-03  0.1153443E+04  0.7818609E-02  0.9154613E-01
        1   -1    0    0  501    0  0.00000000000E+00  0.00000000000E+00  0.99312835648E+03  0.99312835649E+03  0.50400001928E-02 0. -1.
       -1   -1    0    0    0  501  0.00000000000E+00  0.00000000000E+00 -0.33490917570E+03  0.33490917574E+03  0.50400001928E-02 0.  1.
    10030    2    1    2    0    0  0.00000000000E+00  0.00000000000E+00  0.65821918078E+03  0.13280375322E+04  0.11534431920E+04 0.  0.
        1    1    3    3  502    0  0.14198507652E+03 -0.25495849246E+03 -0.24362416777E+03  0.38015303495E+03  0.50400001928E-02 0.  1.
       -1    1    3    3    0  502 -0.14198507652E+03  0.25495849246E+03  0.90184334855E+03  0.94788449728E+03  0.50400001928E-02 0. -1.
</event>
<event>
 5   0  0.2025294E-03  0.1221280E+04  0.7818609E-02  0.9094432E-01
        1   -1    0    0  501    0  0.00000000000E+00  0.00000000000E+00  0.15724973284E+04  0.15724973284E+04  0.50400001928E-02 0.  1.
       -1   -1    0    0    0  501  0.00000000000E+00  0.00000000000E+00 -0.23712670503E+03  0.23712670508E+03  0.50400001928E-02 0. -1.
    10030    2    1    2    0    0  0.00000000000E+00  0.00000000000E+00  0.13353706234E+04  0.18096240335E+04  0.12212798372E+04 0.  0.
        5    1    3    3  502    0  0.29271482376E+03 -0.31926764894E+03  0.13054297415E+04  0.13754209173E+04  0.46999998093E+01 0.  1.
       -5    1    3    3    0  502 -0.29271482376E+03  0.31926764894E+03  0.29940881854E+02  0.43420311619E+03  0.46999998093E+01 0. -1.
</event>
<event>
 5   0  0.2096270E-03  0.1193525E+04  0.7818609E-02  0.9118543E-01
        1   -1    0    0  501    0  0.00000000000E+00  0.00000000000E+00  0.16760461635E+04  0.16760461635E+04  0.50400001928E-02 0. -1.
       -1   -1    0    0    0  501  0.00000000000E+00  0.00000000000E+00 -0.21247942665E+03  0.21247942671E+03  0.50400001928E-02 0.  1.
    10030    2    1    2    0    0  0.00000000000E+00  0.00000000000E+00  0.14635667369E+04  0.18885255902E+04  0.11935247428E+04 0.  0.
        2    1    3    3  502    0 -0.59351807522E+03  0.59663543679E+02  0.75927568865E+03  0.96556875231E+03  0.25500000920E-02 0. -1.
       -2    1    3    3    0  502  0.59351807522E+03 -0.59663543679E+02  0.70429104822E+03  0.92295683792E+03  0.25500000920E-02 0.  1.
</event>
<event>
 5   0  0.3725376E-03  0.1204508E+04  0.7818609E-02  0.9108920E-01
        2   -1    0    0  501    0  0.00000000000E+00  0.00000000000E+00  0.12035551901E+04  0.12035551901E+04  0.25500000920E-02 0. -1.
       -2   -1    0    0    0  501  0.00000000000E+00  0.00000000000E+00 -0.30136553639E+03  0.30136553640E+03  0.25500000920E-02 0.  1.
    10030    2    1    2    0    0  0.00000000000E+00  0.00000000000E+00  0.90218965367E+03  0.15049207265E+04  0.12045082904E+04 0.  0.
        4    1    3    3  502    0 -0.55200494312E+03  0.12906031522E+03  0.70513463677E+03  0.90475548689E+03  0.12699999809E+01 0. -1.
       -4    1    3    3    0  502  0.55200494312E+03 -0.12906031522E+03  0.19705501691E+03  0.60016523957E+03  0.12699999809E+01 0.  1.
</event>
<event>
 5   0  0.3725376E-03  0.1196092E+04  0.7818609E-02  0.9116284E-01
       -2   -1    0    0    0  501  0.00000000000E+00  0.00000000000E+00  0.64173830814E+03  0.64173830814E+03  0.25500000920E-02 0. -1.
        2   -1    0    0  501    0  0.00000000000E+00  0.00000000000E+00 -0.55732826544E+03  0.55732826545E+03  0.25500000920E-02 0.  1.
    10030    2    1    2    0    0  0.00000000000E+00  0.00000000000E+00  0.84410042697E+02  0.11990665736E+04  0.11960917994E+04 0.  0.
        4    1    3    3  502    0  0.46340648250E+03 -0.35747308826E+02  0.41948374088E+03  0.62609237328E+03  0.12699999809E+01 0. -1.
       -4    1    3    3    0  502 -0.46340648250E+03  0.35747308826E+02 -0.33507369819E+03  0.57297420031E+03  0.12699999809E+01 0.  1.
</event>
<event>
 5   0  0.3626049E-03  0.1200914E+04  0.7818609E-02  0.9112057E-01
       -2   -1    0    0    0  501  0.00000000000E+00  0.00000000000E+00  0.46772264086E+03  0.46772264086E+03  0.25500000920E-02 0.  1.
        2   -1    0    0  501    0  0.00000000000E+00  0.00000000000E+00 -0.77086008248E+03  0.77086008248E+03  0.25500000920E-02 0. -1.
    10030    2    1    2    0    0  0.00000000000E+00  0.00000000000E+00 -0.30313744162E+03  0.12385827233E+04  0.12009141743E+04 0.  0.
        1    1    3    3  502    0 -0.49094925405E+03  0.25607630680E+03 -0.39110894711E+03  0.67791773357E+03  0.50400001928E-02 0. -1.
       -1    1    3    3    0  502  0.49094925405E+03 -0.25607630680E+03  0.87971505484E+02  0.56066498977E+03  0.50400001928E-02 0.  1.
</event>
<event>
 5   0  0.2134992E-03  0.1213036E+04  0.7818609E-02  0.9101522E-01
       -1   -1    0    0    0  501  0.00000000000E+00  0.00000000000E+00  0.44370687305E+03  0.44370687307E+03  0.50400001928E-02 0.  1.
        1   -1    0    0  501    0  0.00000000000E+00  0.00000000000E+00 -0.82906972626E+03  0.82906972628E+03  0.50400001928E-02 0. -1.
    10030    2    1    2    0    0  0.00000000000E+00  0.00000000000E+00 -0.38536285322E+03  0.12727765994E+04  0.12130357551E+04 0.  0.
        4    1    3    3  502    0 -0.11344725968E+02 -0.54813141829E+03 -0.46485098113E+03  0.71879399141E+03  0.12699999809E+01 0. -1.
       -4    1    3    3    0  502  0.11344725968E+02  0.54813141829E+03  0.79488127918E+02  0.55398260794E+03  0.12699999809E+01 0.  1.
</event>
<event>
 5   0  0.2134992E-03  0.1213689E+04  0.7818609E-02  0.9100959E-01
        1   -1    0    0  501    0  0.00000000000E+00  0.00000000000E+00  0.18291543154E+04  0.18291543154E+04  0.50400001928E-02 0.  1.
       -1   -1    0    0    0  501  0.00000000000E+00  0.00000000000E+00 -0.20132798259E+03  0.20132798265E+03  0.50400001928E-02 0. -1.
    10030    2    1    2    0    0  0.00000000000E+00  0.00000000000E+00  0.16278263328E+04  0.20304822980E+04  0.12136885074E+04 0.  0.
        4    1    3    3  502    0  0.60589766669E+03 -0.72066255426E+01  0.75856752083E+03  0.97087085367E+03  0.12699999809E+01 0. -1.
       -4    1    3    3    0  502 -0.60589766669E+03  0.72066255426E+01  0.86925881194E+03  0.10596114443E+04  0.12699999809E+01 0.  1.
</event>
<event>
 5   0  0.3751091E-03  0.1197941E+04  0.7818609E-02  0.9114661E-01
       -2   -1    0    0    0  501  0.00000000000E+00  0.00000000000E+00  0.28943537276E+03  0.28943537277E+03  0.25500000920E-02 0. -1.
        2   -1    0    0  501    0  0.00000000000E+00  0.00000000000E+00 -0.12395356629E+04  0.12395356629E+04  0.25500000920E-02 0.  1.
    10030    2    1    2    0    0  0.00000000000E+00  0.00000000000E+00 -0.95010029016E+03  0.15289710357E+04  0.11979406774E+04 0.  0.
        5    1    3    3  502    0  0.48153666688E+03  0.30943621814E+03 -0.70018832045E+03  0.90438603967E+03  0.46999998093E+01 0.  1.
       -5    1    3    3    0  502 -0.48153666688E+03 -0.30943621814E+03 -0.24991196970E+03  0.62458499602E+03  0.46999998093E+01 0. -1.
</event>
<event>
 5   0  0.2025294E-03  0.1220603E+04  0.7818609E-02  0.9095011E-01
       -1   -1    0    0    0  501  0.00000000000E+00  0.00000000000E+00  0.76477908396E+03  0.76477908398E+03  0.50400001928E-02 0. -1.
        1   -1    0    0  501    0  0.00000000000E+00  0.00000000000E+00 -0.48702716911E+03  0.48702716913E+03  0.50400001928E-02 0.  1.
    10030    2    1    2    0    0  0.00000000000E+00  0.00000000000E+00  0.27775191485E+03  0.12518062531E+04  0.12206034447E+04 0.  0.
        5    1    3    3  502    0  0.12027992550E+03  0.26654437340E+03 -0.41047859604E+03  0.50401183644E+03  0.46999998093E+01 0.  1.
       -5    1    3    3    0  502 -0.12027992550E+03 -0.26654437340E+03  0.68823051089E+03  0.74779441666E+03  0.46999998093E+01 0. -1.
</event>
<event>
 5   0  0.2025294E-03  0.9657855E+03  0.7818609E-02  0.9346888E-01
        1   -1    0    0  501    0  0.00000000000E+00  0.00000000000E+00  0.63762823851E+03  0.63762823853E+03  0.50400001928E-02 0. -1.
       -1   -1    0    0    0  501  0.00000000000E+00  0.00000000000E+00 -0.36570749287E+03  0.36570749290E+03  0.50400001928E-02 0.  1.
    10030    2    1    2    0    0  0.00000000000E+00  0.00000000000E+00  0.27192074564E+03  0.10033357314E+04  0.96578553419E+03 0.  0.
        5    1    3    3  502    0 -0.38600709331E+03 -0.26896254811E+03  0.24891208131E+03  0.53227966577E+03  0.46999998093E+01 0. -1.
       -5    1    3    3    0  502  0.38600709331E+03  0.26896254811E+03  0.23008664329E+02  0.47105606566E+03  0.46999998093E+01 0.  1.
</event>
<event>
 5   0  0.3706035E-03  0.1189776E+04  0.7818609E-02  0.9121853E-01
        2   -1    0    0  501    0  0.00000000000E+00  0.00000000000E+00  0.14776433143E+04  0.14776433143E+04  0.25500000920E-02 0.  1.
       -2   -1    0    0    0  501  0.00000000000E+00  0.00000000000E+00 -0.23949726423E+03  0.23949726425E+03  0.25500000920E-02 0. -1.
    10030    2    1    2    0    0  0.00000000000E+00  0.00000000000E+00  0.12381460501E+04  0.17171405786E+04  0.11897756617E+04 0.  0.
        2    1    3    3  502    0 -0.22317377362E+03  0.49995777847E+03  0.28329782000E+03  0.61645921869E+03  0.25500000920E-02 0. -1.
       -2    1    3    3    0  502  0.22317377362E+03 -0.49995777847E+03  0.95484823010E+03  0.11006813599E+04  0.25500000920E-02 0.  1.
</event>
<event>
 5   0  0.2078258E-03  0.1207258E+04  0.7818609E-02  0.9106528E-01
       -1   -1    0    0    0  501  0.00000000000E+00  0.00000000000E+00  0.87401637089E+03  0.87401637091E+03  0.50400001928E-02 0. -1.
        1   -1    0    0  501    0  0.00000000000E+00  0.00000000000E+00 -0.41688893808E+03  0.41688893811E+03  0.50400001928E-02 0.  1.
    10030    2    1    2    0    0  0.00000000000E+00  0.00000000000E+00  0.45712743281E+03  0.12909053090E+04  0.12072576473E+04 0.  0.
        3    1    3    3  502    0 -0.52053290013E+03  0.20081393253E+03  0.47493413327E+03  0.73269582827E+03  0.10100000352E+00 0.  1.
       -3    1    3    3    0  502  0.52053290013E+03 -0.20081393253E+03 -0.17806700458E+02  0.55820948075E+03  0.10100000352E+00 0. -1.
</event>
<event>
 5   0  0.3650180E-03  0.1134530E+04  0.7818609E-02  0.9172176E-01
        2   -1    0    0  501    0  0.00000000000E+00  0.00000000000E+00  0.20593181784E+04  0.20593181784E+04  0.25500000920E-02 0. -1.
       -2   -1    0    0    0  501  0.00000000000E+00  0.00000000000E+00 -0.15626012662E+03  0.15626012664E+03  0.25500000920E-02 0.  1.
    10030    2    1    2    0    0  0.00000000000E+00  0.00000000000E+00  0.19030580518E+04  0.22155783050E+04  0.11345295401E+04 0.  0.
        3    1    3    3  502    0 -0.14001097125E+03 -0.73434822572E+02 -0.11236540391E+03  0.19396324248E+03  0.10100000352E+00 0.  1.
       -3    1    3    3    0  502  0.14001097125E+03  0.73434822572E+02  0.20154234557E+04  0.20216150626E+04  0.10100000352E+00 0. -1.
</event>
<event>
 5   0  0.1397500E-03  0.1221683E+04  0.7818609E-02  0.9094086E-01
        3   -1    0    0  501    0  0.00000000000E+00  0.00000000000E+00  0.14008406690E+04  0.14008406726E+04  0.10100000352E+00 0.  1.
       -3   -1    0    0    0  501  0.00000000000E+00  0.00000000000E+00 -0.26635974695E+03  0.26635976610E+03  0.10100000352E+00 0. -1.
    10030    2    1    2    0    0  0.00000000000E+00  0.00000000000E+00  0.11344809220E+04  0.16672004387E+04  0.12216834043E+04 0.  0.
        3    1    3    3  502    0  0.11588621709E+03  0.58423195144E+03  0.75220794136E+03  0.95946515603E+03  0.10100000352E+00 0. -1.
       -3    1    3    3    0  502 -0.11588621709E+03 -0.58423195144E+03  0.38227298066E+03  0.70773528267E+03  0.10100000352E+00 0.  1.
</event>
<event>
 5   0  0.3725376E-03  0.1186299E+04  0.7818609E-02  0.9124934E-01
        2   -1    0    0  501    0  0.00000000000E+00  0.00000000000E+00  0.77239714688E+03  0.77239714688E+03  0.25500000920E-02 0.  1.
       -2   -1    0    0    0  501  0.00000000000E+00  0.00000000000E+00 -0.45549951153E+03  0.45549951154E+03  0.25500000920E-02 0. -1.
    10030    2    1    2    0    0  0.00000000000E+00  0.00000000000E+00  0.31689763534E+03  0.12278966584E+04  0.11862993267E+04 0.  0.
        4    1    3    3  502    0 -0.73599378231E+02 -0.28159803215E+03  0.69339868841E+03  0.75200909182E+03  0.12699999809E+01 0.  1.
       -4    1    3    3    0  502  0.73599378231E+02  0.28159803215E+03 -0.37650105307E+03  0.47588756660E+03  0.12699999809E+01 0. -1.
</event>
<event>
 5   0  0.3725376E-03  0.1216521E+04  0.7818609E-02  0.9098518E-01
       -2   -1    0    0    0  501  0.00000000000E+00  0.00000000000E+00  0.63601987608E+03  0.63601987609E+03  0.25500000920E-02 0.  1.
        2   -1    0    0  501    0  0.00000000000E+00  0.00000000000E+00 -0.58171229811E+03  0.58171229811E+03  0.25500000920E-02 0. -1.
    10030    2    1    2    0    0  0.00000000000E+00  0.00000000000E+00  0.54307577972E+02  0.12177321742E+04  0.12165205855E+04 0.  0.
        4    1    3    3  502    0 -0.23469254830E+03  0.50277887759E+03  0.27662434925E+03  0.61999180275E+03  0.12699999809E+01 0.  1.
       -4    1    3    3    0  502  0.23469254830E+03 -0.50277887759E+03 -0.22231677127E+03  0.59774037145E+03  0.12699999809E+01 0. -1.
</event>
<event>
 5   0  0.2096270E-03  0.1214354E+04  0.7818609E-02  0.9100384E-01
        1   -1    0    0  501    0  0.00000000000E+00  0.00000000000E+00  0.22577949779E+03  0.22577949784E+03  0.50400001928E-02 0. -1.
       -1   -1    0    0    0  501  0.00000000000E+00  0.00000000000E+00 -0.16328494759E+04  0.16328494759E+04  0.50400001928E-02 0.  1.
    10030    2    1    2    0    0  0.00000000000E+00  0.00000000000E+00 -0.14070699781E+04  0.18586289737E+04  0.12143540417E+04 0.  0.
        2    1    3    3  502    0  0.39408708893E+03 -0.32562834004E+03 -0.20211827028E+03  0.54971833214E+03  0.25500000920E-02 0. -1.
       -2    1    3    3    0  502 -0.39408708893E+03  0.32562834004E+03 -0.12049517078E+04  0.13089106416E+04  0.25500000920E-02 0.  1.
</event>
<event>
 5   0  0.3626049E-03  0.1215347E+04  0.7818609E-02  0.9099528E-01
        2   -1    0    0  501    0  0.00000000000E+00  0.00000000000E+00  0.87425242211E+03  0.87425242212E+03  0.25500000920E-02 0.  1.
       -2   -1    0    0    0  501  0.00000000000E+00  0.00000000000E+00 -0.42238049317E+03  0.42238049318E+03  0.25500000920E-02 0. -1.
    10030    2    1    2    0    0  0.00000000000E+00  0.00000000000E+00  0.45187192894E+03  0.12966329153E+04  0.12153471425E+04 0.  0.
        1    1    3    3  502    0  0.51269322658E+03  0.20148121481E+03 -0.47773311515E+02  0.55292975486E+03  0.50400001928E-02 0. -1.
       -1    1    3    3    0  502 -0.51269322658E+03 -0.20148121481E+03  0.49964524046E+03  0.74370316043E+03  0.50400001928E-02 0.  1.
</event>
<event>
 5   0  0.2047109E-03  0.1164546E+04  0.7818609E-02  0.9144468E-01
        1   -1    0    0  501    0  0.00000000000E+00  0.00000000000E+00  0.99386491149E+03  0.99386491150E+03  0.50400001928E-02 0. -1.
       -1   -1    0    0    0  501  0.00000000000E+00  0.00000000000E+00 -0.34113461083E+03  0.34113461086E+03  0.50400001928E-02 0.  1.
    10030    2    1    2    0    0  0.00000000000E+00  0.00000000000E+00  0.65273030066E+03  0.13349995224E+04  0.11645457824E+04 0.  0.
        1    1    3    3  502    0 -0.29969844038E+03 -0.38622529955E+03 -0.36243946557E+02  0.49020685518E+03  0.50400001928E-02 0.  1.
       -1    1    3    3    0  502  0.29969844038E+03  0.38622529955E+03  0.68897424722E+03  0.84479266719E+03  0.50400001928E-02 0. -1.
</event>
<event>
 5   0  0.2025294E-03  0.1042787E+04  0.7818609E-02  0.9262823E-01
        1   -1    0    0  501    0  0.00000000000E+00  0.00000000000E+00  0.10086053165E+04  0.10086053165E+04  0.50400001928E-02 0. -1.
       -1   -1    0    0    0  501  0.00000000000E+00  0.00000000000E+00 -0.26953168064E+03  0.26953168069E+03  0.50400001928E-02 0.  1.
    10030    2    1    2    0    0  0.00000000000E+00  0.00000000000E+00  0.73907363586E+03  0.12781369972E+04  0.10427868164E+04 0.  0.
        5    1    3    3  502    0  0.36528455518E+03  0.37157999797E+03  0.39161614572E+03  0.65183571299E+03  0.46999998093E+01 0.  1.
       -5    1    3    3    0  502 -0.36528455518E+03 -0.37157999797E+03  0.34745749014E+03  0.62630128421E+03  0.46999998093E+01 0. -1.
</event>
<event>
 5   0  0.3626049E-03  0.1204274E+04  0.7818609E-02  0.9109124E-01
        2   -1    0    0  501    0  0.00000000000E+00  0.00000000000E+00  0.17103374051E+04  0.17103374051E+04  0.25500000920E-02 0. -1.
       -2   -1    0    0    0  501  0.00000000000E+00  0.00000000000E+00 -0.21198678609E+03  0.21198678611E+03  0.25500000920E-02 0.  1.
    10030    2    1    2    0    0  0.00000000000E+00  0.00000000000E+00  0.14983506190E+04  0.19223241912E+04  0.12042739384E+04 0.  0.
        1    1    3    3  502    0 -0.35162312227E+03  0.29315379956E+03  0.12481652378E+03  0.47450725489E+03  0.50400001928E-02 0.  1.
       -1    1    3    3    0  502  0.35162312227E+03 -0.29315379956E+03  0.13735340952E+04  0.14478169363E+04  0.50400001928E-02 0. -1.
</event>
<event>
 5   0  0.2025294E-03  0.1202095E+04  0.7818609E-02  0.9111024E-01
       -1   -1    0    0    0  501  0.00000000000E+00  0.00000000000E+00  0.53752727411E+03  0.53752727413E+03  0.50400001928E-02 0. -1.
        1   -1    0    0  501    0  0.00000000000E+00  0.00000000000E+00 -0.67207437460E+03  0.67207437462E+03  0.50400001928E-02 0.  1.
    10030    2    1    2    0    0  0.00000000000E+00  0.00000000000E+00 -0.13454710050E+03  0.12096016488E+04  0.12020953483E+04 0.  0.
        5    1    3    3  502    0  0.25775443358E+02 -0.60043900895E+03 -0.60535494682E+02  0.60405133314E+03  0.46999998093E+01 0. -1.
       -5    1    3    3    0  502 -0.25775443358E+02  0.60043900895E+03 -0.74011605813E+02  0.60555031562E+03  0.46999998093E+01 0.  1.
</event>
<event>
 5   0  0.2078258E-03  0.1133912E+04  0.7818609E-02  0.9172755E-01
        1   -1    0    0  501    0  0.00000000000E+00  0.00000000000E+00  0.73187477928E+03  0.73187477930E+03  0.50400001928E-02 0.  1.
       -1   -1    0    0    0  501  0.00000000000E+00  0.00000000000E+00 -0.43919992845E+03  0.43919992848E+03  0.50400001928E-02 0. -1.
    10030    2    1    2    0    0  0.00000000000E+00  0.00000000000E+00  0.29267485083E+03  0.11710747078E+04  0.11339124318E+04 0.  0.
        3    1    3    3  502    0  0.17948789339E+03  0.53389726598E+03  0.21308644845E+03  0.60221926174E+03  0.10100000352E+00 0.  1.
       -3    1    3    3    0  502 -0.17948789339E+03 -0.53389726598E+03  0.79588402379E+02  0.56885544604E+03  0.10100000352E+00 0. -1.
</event>
<event>
 5   0  0.2134992E-03  0.1154554E+04  0.7818609E-02  0.9153593E-01
       -1   -1    0    0    0  501  0.00000000000E+00  0.00000000000E+00  0.95543562604E+03  0.95543562605E+03  0.50400001928E-02 0. -1.
        1   -1    0    0  501    0  0.00000000000E+00  0.00000000000E+00 -0.34879246162E+03  0.34879246166E+03  0.50400001928E-02 0.  1.
    10030    2    1    2    0    0  0.00000000000E+00  0.00000000000E+00  0.60664316442E+03  0.13042280877E+04  0.11545540160E+04 0.  0.
        4    1    3    3  502    0  0.38248676576E+02 -0.26351307380E+03 -0.27527479888E+03  0.38298815794E+03  0.12699999809E+01 0.  1.
       -4    1    3    3    0  502 -0.38248676576E+02  0.26351307380E+03  0.88191796329E+03  0.92123992977E+03  0.12699999809E+01 0. -1.
</event>
<event>
 5   0  0.3751091E-03  0.1221901E+04  0.7818609E-02  0.9093900E-01
       -2   -1    0    0    0  501  0.00000000000E+00  0.00000000000E+00  0.31011698748E+03  0.31011698749E+03  0.25500000920E-02 0.  1.
        2   -1    0    0  501    0  0.00000000000E+00  0.00000000000E+00 -0.12036114987E+04  0.12036114987E+04  0.25500000920E-02 0. -1.
    10030    2    1    2    0    0  0.00000000000E+00  0.00000000000E+00 -0.89349451126E+03  0.15137284862E+04  0.12219007686E+04 0.  0.
        5    1    3    3  502    0  0.42958365303E+03  0.43423175034E+03 -0.43214406404E+03  0.74824455230E+03  0.46999998093E+01 0. -1.
       -5    1    3    3    0  502 -0.42958365303E+03 -0.43423175034E+03 -0.46135044722E+03  0.76548393393E+03  0.46999998093E+01 0.  1.
</event>
<event>
 5   0  0.3626049E-03  0.1208105E+04  0.7818609E-02  0.9105792E-01
        2   -1    0    0  501    0  0.00000000000E+00  0.00000000000E+00  0.13795266876E+04  0.13795266876E+04  0.25500000920E-02 0.  1.
       -2   -1    0    0    0  501  0.00000000000E+00  0.00000000000E+00 -0.26449618668E+03  0.26449618669E+03  0.25500000920E-02 0. -1.
    10030    2    1    2    0    0  0.00000000000E+00  0.00000000000E+00  0.11150305009E+04  0.16440228743E+04  0.12081052078E+04 0.  0.
        1    1    3    3  502    0  0.43350968313E+02  0.59796004130E+03  0.45710839009E+03  0.75391219499E+03  0.50400001928E-02 0. -1.
       -1    1    3    3    0  502 -0.43350968313E+02 -0.59796004130E+03  0.65792211082E+03  0.89011067928E+03  0.50400001928E-02 0.  1.
</event>
<event>
 5   0  0.2096270E-03  0.1181463E+04  0.7818609E-02  0.9129238E-01
        1   -1    0    0  501    0  0.00000000000E+00  0.00000000000E+00  0.71908542489E+03  0.71908542491E+03  0.50400001928E-02 0.  1.
       -1   -1    0    0    0  501  0.00000000000E+00  0.00000000000E+00 -0.48528852667E+03  0.48528852669E+03  0.50400001928E-02 0. -1.
    10030    2    1    2    0    0  0.00000000000E+00  0.00000000000E+00  0.23379689823E+03  0.12043739516E+04  0.11814633408E+04 0.  0.
        2    1    3    3  502    0 -0.48980985337E+03 -0.23441003966E+03  0.35400762138E+03  0.64821536171E+03  0.25500000920E-02 0. -1.
       -2    1    3    3    0  502  0.48980985337E+03  0.23441003966E+03 -0.12021072315E+03  0.55615858990E+03  0.25500000920E-02 0.  1.
</event>
<event>
 5   0  0.2025294E-03  0.1086796E+04  0.7818609E-02  0.9218158E-01
        1   -1    0    0  501    0  0.00000000000E+00  0.00000000000E+00  0.10568887914E+04  0.10568887915E+04  0.50400001928E-02 0. -1.
       -1   -1    0    0    0  501  0.00000000000E+00  0.00000000000E+00 -0.27938737504E+03  0.27938737509E+03  0.50400001928E-02 0.  1.
    10030    2    1    2    0    0  0.00000000000E+00  0.00000000000E+00  0.77750141640E+03  0.13362761665E+04  0.10867959978E+04 0.  0.
        5    1    3    3  502    0  0.36716744097E+03 -0.26198371475E+03  0.16189462966E+02  0.45136635366E+03  0.46999998093E+01 0.  1.
       -5    1    3    3    0  502 -0.36716744097E+03  0.26198371475E+03  0.76131195343E+03  0.88490981289E+03  0.46999998093E+01 0. -1.
</event>
<event>
 5   0  0.3650180E-03  0.1200292E+04  0.7818609E-02  0.9112601E-01
        2   -1    0    0  501    0  0.00000000000E+00  0.00000000000E+00  0.68759302049E+03  0.68759302050E+03  0.25500000920E-02 0. -1.
       -2   -1    0    0    0  501  0.00000000000E+00  0.00000000000E+00 -0.52382010917E+03  0.52382010917E+03  0.25500000920E-02 0.  1.
    10030    2    1    2    0    0  0.00000000000E+00  0.00000000000E+00  0.16377291133E+03  0.12114131297E+04  0.12002917163E+04 0.  0.
        3    1    3    3  502    0  0.59143669988E+03  0.68284051604E+02  0.15818425899E+03  0.61602138896E+03  0.10100000352E+00 0. -1.
       -3    1    3    3    0  502 -0.59143669988E+03 -0.68284051604E+02  0.55886523398E+01  0.59539174071E+03  0.10100000352E+00 0.  1.
</event>
<event>
 5   0  0.3626049E-03  0.1213639E+04  0.7818609E-02  0.9101001E-01
        2   -1    0    0  501    0  0.00000000000E+00  0.00000000000E+00  0.77444408134E+03  0.77444408134E+03  0.25500000920E-02 0.  1.
       -2   -1    0    0    0  501  0.00000000000E+00  0.00000000000E+00 -0.47547648735E+03  0.47547648735E+03  0.25500000920E-02 0. -1.
    10030    2    1    2    0    0  0.00000000000E+00  0.00000000000E+00  0.29896759399E+03  0.12499205687E+04  0.12136390756E+04 0.  0.
        1    1    3    3  502    0 -0.45324525959E+02  0.22416896311E+03  0.72835789196E+03  0.76342075914E+03  0.50400001928E-02 0.  1.
       -1    1    3    3    0  502  0.45324525959E+02 -0.22416896311E+03 -0.42939029797E+03  0.48649980955E+03  0.50400001928E-02 0. -1.
</event>
<event>
 5   0  0.1397500E-03  0.1211489E+04  0.7818609E-02  0.9102859E-01
        3   -1    0    0  501    0  0.00000000000E+00  0.00000000000E+00  0.12193557848E+04  0.12193557889E+04  0.10100000352E+00 0.  1.
       -3   -1    0    0    0  501  0.00000000000E+00  0.00000000000E+00 -0.30091820253E+03  0.30091821948E+03  0.10100000352E+00 0. -1.
    10030    2    1    2    0    0  0.00000000000E+00  0.00000000000E+00  0.91843758224E+03  0.15202740084E+04  0.12114889468E+04 0.  0.
        2    1    3    3  502    0  0.52227533779E+03  0.30611131207E+03  0.43257796186E+03  0.74404257736E+03  0.25500000920E-02 0.  1.
       -2    1    3    3    0  502 -0.52227533779E+03 -0.30611131207E+03  0.48585962038E+03  0.77623143106E+03  0.25500000920E-02 0. -1.
</event>
<event>
 5   0  0.2096270E-03  0.1204264E+04  0.7818609E-02  0.9109132E-01
       -1   -1    0    0    0  501  0.00000000000E+00  0.00000000000E+00  0.30414818572E+03  0.30414818576E+03  0.50400001928E-02 0.  1.
        1   -1    0    0  501    0  0.00000000000E+00  0.00000000000E+00 -0.11920608061E+04  0.11920608061E+04  0.50400001928E-02 0. -1.
    10030    2    1    2    0    0  0.00000000000E+00  0.00000000000E+00 -0.88791262039E+03  0.14962089919E+04  0.12042643090E+04 0.  0.
        2    1    3    3  502    0 -0.36256320938E+03 -0.48073631520E+03 -0.44632863954E+03  0.74951233480E+03  0.25500000920E-02 0. -1.
       -2    1    3    3    0  502  0.36256320938E+03  0.48073631520E+03 -0.44158398085E+03  0.74669665708E+03  0.25500000920E-02 0.  1.
</event>
<event>
 5   0  0.2025294E-03  0.1202680E+04  0.7818609E-02  0.9110514E-01
       -1   -1    0    0    0  501  0.00000000000E+00  0.00000000000E+00  0.21842841277E+03  0.21842841283E+03  0.50400001928E-02 0. -1.
        1   -1    0    0  501    0  0.00000000000E+00  0.00000000000E+00 -0.16555060242E+04  0.16555060242E+04  0.50400001928E-02 0.  1.
    10030    2    1    2    0    0  0.00000000000E+00  0.00000000000E+00 -0.14370776114E+04  0.18739344370E+04  0.12026795970E+04 0.  0.
        5    1    3    3  502    0  0.56559278059E+03 -0.94490114836E+01 -0.40072943369E+03  0.69324645422E+03  0.46999998093E+01 0. -1.
       -5    1    3    3    0  502 -0.56559278059E+03  0.94490114836E+01 -0.10363481777E+04  0.11806879828E+04  0.46999998093E+01 0.  1.
</event>
<event>
 5   0  0.2096270E-03  0.8945811E+03  0.7818609E-02  0.9432381E-01
       -1   -1    0    0    0  501  0.00000000000E+00  0.00000000000E+00  0.33582560749E+03  0.33582560753E+03  0.50400001928E-02 0.  1.
        1   -1    0    0  501    0  0.00000000000E+00  0.00000000000E+00 -0.59575221884E+03  0.59575221886E+03  0.50400001928E-02 0. -1.
    10030    2    1    2    0    0  0.00000000000E+00  0.00000000000E+00 -0.25992661135E+03  0.93157782639E+03  0.89458113290E+03 0.  0.
        2    1    3    3  502    0  0.35017954469E+03  0.12245904811E+03  0.13026522875E+03  0.39318057151E+03  0.25500000920E-02 0.  1.
       -2    1    3    3    0  502 -0.35017954469E+03 -0.12245904811E+03 -0.39019184010E+03  0.53839725489E+03  0.25500000920E-02 0. -1.
</event>
<event>
 5   0  0.2025294E-03  0.1215786E+04  0.7818609E-02  0.9099150E-01
        1   -1    0    0  501    0  0.00000000000E+00  0.00000000000E+00  0.52912803388E+03  0.52912803391E+03  0.50400001928E-02 0.  1.
       -1   -1    0    0    0  501  0.00000000000E+00  0.00000000000E+00 -0.69838286450E+03  0.69838286452E+03  0.50400001928E-02 0. -1.
    10030    2    1    2    0    0  0.00000000000E+00  0.00000000000E+00 -0.16925483062E+03  0.12275108984E+04  0.12157860865E+04 0.  0.
        5    1    3    3  502    0 -0.29305908316E+03  0.53238417411E+03 -0.98738138737E+02  0.61570110046E+03  0.46999998093E+01 0.  1.
       -5    1    3    3    0  502  0.29305908316E+03 -0.53238417411E+03 -0.70516691881E+02  0.61180979797E+03  0.46999998093E+01 0. -1.
</event>
<event>
 5   0  0.2096270E-03  0.1207383E+04  0.7818609E-02  0.9106418E-01
       -1   -1    0    0    0  501  0.00000000000E+00  0.00000000000E+00  0.97226140511E+03  0.97226140512E+03  0.50400001928E-02 0. -1.
        1   -1    0    0  501    0  0.00000000000E+00  0.00000000000E+00 -0.37484121766E+03  0.37484121769E+03  0.50400001928E-02 0.  1.
    10030    2    1    2    0    0  0.00000000000E+00  0.00000000000E+00  0.59742018745E+03  0.13471026228E+04  0.12073833675E+04 0.  0.
        2    1    3    3  502    0  0.17790669562E+03  0.52407894821E+03  0.29698487913E+02  0.55424862336E+03  0.25500000920E-02 0.  1.
       -2    1    3    3    0  502 -0.17790669562E+03 -0.52407894821E+03  0.56772169954E+03  0.79285399945E+03  0.25500000920E-02 0. -1.
</event>
<event>
 5   0  0.3650180E-03  0.1191780E+04  0.7818609E-02  0.9120082E-01
       -2   -1    0    0    0  501  0.00000000000E+00  0.00000000000E+00  0.83873607179E+03  0.83873607179E+03  0.25500000920E-02 0. -1.
        2   -1    0    0  501    0  0.00000000000E+00  0.00000000000E+00 -0.42335719800E+03  0.42335719800E+03  0.25500000920E-02 0.  1.
    10030    2    1    2    0    0  0.00000000000E+00  0.00000000000E+00  0.41537887380E+03  0.12620932698E+04  0.11917801026E+04 0.  0.
        3    1    3    3  502    0 -0.14281967865E+03 -0.54505210596E+03  0.41305237437E+03  0.69863547934E+03  0.10100000352E+00 0. -1.
       -3    1    3    3    0  502  0.14281967865E+03  0.54505210596E+03  0.23264994274E+01  0.56345779046E+03  0.10100000352E+00 0.  1.
</event>
<event>
 5   0  0.3706035E-03  0.1206609E+04  0.7818609E-02  0.9107092E-01
        2   -1    0    0  501    0  0.00000000000E+00  0.00000000000E+00  0.60128864861E+03  0.60128864861E+03  0.25500000920E-02 0. -1.
       -2   -1    0    0    0  501  0.00000000000E+00  0.00000000000E+00 -0.60532667917E+03  0.60532667918E+03  0.25500000920E-02 0.  1.
    10030    2    1    2    0    0  0.00000000000E+00  0.00000000000E+00 -0.40380305605E+01  0.12066153278E+04  0.12066085710E+04 0.  0.
        2    1    3    3  502    0 -0.45587687778E+03 -0.37897985830E+03 -0.11394193739E+03  0.60368222252E+03  0.25500000920E-02 0.  1.
       -2    1    3    3    0  502  0.45587687778E+03  0.37897985830E+03  0.10990390683E+03  0.60293310527E+03  0.25500000920E-02 0. -1.
</event>
<event>
 5   0  0.3626049E-03  0.9670234E+03  0.7818609E-02  0.9345471E-01
        2   -1    0    0  501    0  0.00000000000E+00  0.00000000000E+00  0.48816946455E+03  0.48816946455E+03  0.25500000920E-02 0. -1.
       -2   -1    0    0    0  501  0.00000000000E+00  0.00000000000E+00 -0.47889835805E+03  0.47889835806E+03  0.25500000920E-02 0.  1.
    10030    2    1    2    0    0  0.00000000000E+00  0.00000000000E+00  0.92711064922E+01  0.96706782261E+03  0.96702338137E+03 0.  0.
        1    1    3    3  502    0  0.60601861382E+01 -0.45121008107E+03 -0.16902809789E+03  0.48186902890E+03  0.50400001928E-02 0.  1.
       -1    1    3    3    0  502 -0.60601861382E+01  0.45121008107E+03  0.17829920438E+03  0.48519879371E+03  0.50400001928E-02 0. -1.
</event>
<event>
 5   0  0.2096270E-03  0.1198409E+04  0.7818609E-02  0.9114250E-01
        1   -1    0    0  501    0  0.00000000000E+00  0.00000000000E+00  0.83762638445E+03  0.83762638446E+03  0.50400001928E-02 0. -1.
       -1   -1    0    0    0  501  0.00000000000E+00  0.00000000000E+00 -0.42864692202E+03  0.42864692205E+03  0.50400001928E-02 0.  1.
    10030    2    1    2    0    0  0.00000000000E+00  0.00000000000E+00  0.40897946243E+03  0.12662733065E+04  0.11984088977E+04 0.  0.
        2    1    3    3  502    0 -0.49494442100E+03  0.46259016683E+01 -0.15235461149E+03  0.51788348737E+03  0.25500000920E-02 0.  1.
       -2    1    3    3    0  502  0.49494442100E+03 -0.46259016683E+01  0.56133407392E+03  0.74838981914E+03  0.25500000920E-02 0. -1.
</event>
<event>
 5   0  0.3725376E-03  0.1195696E+04  0.7818609E-02  0.9116632E-01
       -2   -1    0    0    0  501  0.00000000000E+00  0.00000000000E+00  0.31744969949E+03  0.31744969950E+03  0.25500000920E-02 0.  1.
        2   -1    0    0  501    0  0.00000000000E+00  0.00000000000E+00 -0.11259175507E+04  0.11259175507E+04  0.25500000920E-02 0. -1.
    10030    2    1    2    0    0  0.00000000000E+00  0.00000000000E+00 -0.80846785125E+03  0.14433672503E+04  0.11956959281E+04 0.  0.
        4    1    3    3  502    0 -0.10328592562E+03 -0.55924024253E+03 -0.18163946296E+03  0.59700262872E+03  0.12699999809E+01 0.  1.
       -4    1    3    3    0  502  0.10328592562E+03  0.55924024253E+03 -0.62682838829E+03  0.84636462153E+03  0.12699999809E+01 0. -1.
</event>
<event>
 5   0  0.2047109E-03  0.1205630E+04  0.7818609E-02  0.9107943E-01
        1   -1    0    0  501    0  0.00000000000E+00  0.00000000000E+00  0.10530048077E+04  0.10530048077E+04  0.50400001928E-02 0. -1.
       -1   -1    0    0    0  501  0.00000000000E+00  0.00000000000E+00 -0.34509445312E+03  0.34509445315E+03  0.50400001928E-02 0.  1.
    10030    2    1    2    0    0  0.00000000000E+00  0.00000000000E+00  0.70791035455E+03  0.13980992608E+04  0.12056303219E+04 0.  0.
        1    1    3    3  502    0  0.54283771212E+02 -0.12093200297E+03  0.10358943806E+04  0.10443411535E+04  0.50400001928E-02 0. -1.
       -1    1    3    3    0  502 -0.54283771212E+02  0.12093200297E+03 -0.32798402602E+03  0.35375810734E+03  0.50400001928E-02 0.  1.
</event>
<event>
 5   0  0.2134992E-03  0.1189490E+04  0.7818609E-02  0.9122106E-01
       -1   -1    0    0    0  501  0.00000000000E+00  0.00000000000E+00  0.33603325355E+03  0.33603325358E+03  0.50400001928E-02 0. -1.
        1   -1    0    0  501    0  0.00000000000E+00  0.00000000000E+00 -0.10526382636E+04  0.10526382636E+04  0.50400001928E-02 0.  1.
    10030    2    1    2    0    0  0.00000000000E+00  0.00000000000E+00 -0.71660501001E+03  0.13886715171E+04  0.11894897403E+04 0.  0.
        4    1    3    3  502    0  0.46329811853E+03  0.33306139669E+03 -0.55415899411E+03  0.79540483042E+03  0.12699999809E+01 0. -1.
       -4    1    3    3    0  502 -0.46329811853E+03 -0.33306139669E+03 -0.16244601590E+03  0.59326668673E+03  0.12699999809E+01 0.  1.
</event>
<event>
 5   0  0.3650180E-03  0.1051978E+04  0.7818609E-02  0.9253304E-01
        2   -1    0    0  501    0  0.00000000000E+00  0.00000000000E+00  0.34267905922E+03  0.34267905923E+03  0.25500000920E-02 0.  1.
       -2   -1    0    0    0  501  0.00000000000E+00  0.00000000000E+00 -0.80735760119E+03  0.80735760119E+03  0.25500000920E-02 0. -1.
    10030    2    1    2    0    0  0.00000000000E+00  0.00000000000E+00 -0.46467854197E+03  0.11500366604E+04  0.10519782189E+04 0.  0.
        3    1    3    3  502    0 -0.83047151693E+02  0.19057320418E+03 -0.76054300192E+03  0.78844190878E+03  0.10100000352E+00 0. -1.
       -3    1    3    3    0  502  0.83047151693E+02 -0.19057320418E+03  0.29586445995E+03  0.36159475165E+03  0.10100000352E+00 0.  1.
</event>
<event>
 5   0  0.2025294E-03  0.1182227E+04  0.7818609E-02  0.9128557E-01
        1   -1    0    0  501    0  0.00000000000E+00  0.00000000000E+00  0.24226162165E+03  0.24226162170E+03  0.50400001928E-02 0. -1.
       -1   -1    0    0    0  501  0.00000000000E+00  0.00000000000E+00 -0.14423052041E+04  0.14423052041E+04  0.50400001928E-02 0.  1.
    10030    2    1    2    0    0  0.00000000000E+00  0.00000000000E+00 -0.12000435825E+04  0.16845668258E+04  0.11822270471E+04 0.  0.
        5    1    3    3  502    0  0.88411815772E+02 -0.53704643637E+03 -0.27149562255E+03  0.60824952696E+03  0.46999998093E+01 0. -1.
       -5    1    3    3    0  502 -0.88411815772E+02  0.53704643637E+03 -0.92854795993E+03  0.10763172989E+04  0.46999998093E+01 0.  1.
</event>
<event>
 5   0  0.3650180E-03  0.1173165E+04  0.7818609E-02  0.9136675E-01
       -2   -1    0    0    0  501  0.00000000000E+00  0.00000000000E+00  0.35365857285E+03  0.35365857286E+03  0.25500000920E-02 0.  1.
        2   -1    0    0  501    0  0.00000000000E+00  0.00000000000E+00 -0.97291247528E+03  0.97291247528E+03  0.25500000920E-02 0. -1.
    10030    2    1    2    0    0  0.00000000000E+00  0.00000000000E+00 -0.61925390242E+03  0.13265710481E+04  0.11731646731E+04 0.  0.
        3    1    3    3  502    0 -0.36853915819E+03 -0.26331077856E+03  0.11183849545E+03  0.46654210581E+03  0.10100000352E+00 0.  1.
       -3    1    3    3    0  502  0.36853915819E+03  0.26331077856E+03 -0.73109239788E+03  0.86002894234E+03  0.10100000352E+00 0. -1.
</event>
<event>
 5   0  0.2134992E-03  0.1249985E+04  0.7818609E-02  0.9070195E-01
        1   -1    0    0  501    0  0.00000000000E+00  0.00000000000E+00  0.32754912081E+03  0.32754912085E+03  0.50400001928E-02 0.  1.
       -1   -1    0    0    0  501  0.00000000000E+00  0.00000000000E+00 -0.11925412932E+04  0.11925412932E+04  0.50400001928E-02 0. -1.
    10030    2    1    2    0    0  0.00000000000E+00  0.00000000000E+00 -0.86499217239E+03  0.15200904141E+04  0.12499853634E+04 0.  0.
        4    1    3    3  502    0 -0.19515490532E+03  0.58285779333E+03 -0.57011064208E+03  0.83835338696E+03  0.12699999809E+01 0. -1.
       -4    1    3    3    0  502  0.19515490532E+03 -0.58285779333E+03 -0.29488153032E+03  0.68173702711E+03  0.12699999809E+01 0.  1.
</event>
<event>
 5   0  0.2025294E-03  0.1198503E+04  0.7818609E-02  0.9114167E-01
       -1   -1    0    0    0  501  0.00000000000E+00  0.00000000000E+00  0.62515546988E+03  0.62515546990E+03  0.50400001928E-02 0. -1.
        1   -1    0    0  501    0  0.00000000000E+00  0.00000000000E+00 -0.57442128543E+03  0.57442128545E+03  0.50400001928E-02 0.  1.
    10030    2    1    2    0    0  0.00000000000E+00  0.00000000000E+00  0.50734184451E+02  0.11995767554E+04  0.11985034145E+04 0.  0.
        5    1    3    3  502    0  0.29824666776E+02 -0.50288905513E+03  0.35014745748E+03  0.61352444490E+03  0.46999998093E+01 0. -1.
       -5    1    3    3    0  502 -0.29824666776E+02  0.50288905513E+03 -0.29941327303E+03  0.58605231045E+03  0.46999998093E+01 0.  1.
</event>
<event>
 5   0  0.3751091E-03  0.1191314E+04  0.7818609E-02  0.9120494E-01
       -2   -1    0    0    0  501  0.00000000000E+00  0.00000000000E+00  0.83880689259E+03  0.83880689259E+03  0.25500000920E-02 0.  1.
        2   -1    0    0  501    0  0.00000000000E+00  0.00000000000E+00 -0.42299021490E+03  0.42299021491E+03  0.25500000920E-02 0. -1.
    10030    2    1    2    0    0  0.00000000000E+00  0.00000000000E+00  0.41581667769E+03  0.12617971075E+04  0.11913137416E+04 0.  0.
        5    1    3    3  502    0  0.42562718117E+03 -0.40837181766E+03  0.12018945211E+03  0.60199138965E+03  0.46999998093E+01 0. -1.
       -5    1    3    3    0  502 -0.42562718117E+03  0.40837181766E+03  0.29562722557E+03  0.65980571785E+03  0.46999998093E+01 0.  1.
</event>
<event>
 5   0  0.2047109E-03  0.1209533E+04  0.7818609E-02  0.9104553E-01
       -1   -1    0    0    0  501  0.00000000000E+00  0.00000000000E+00  0.45116532360E+03  0.45116532363E+03  0.50400001928E-02 0. -1.
        1   -1    0    0  501    0  0.00000000000E+00  0.00000000000E+00 -0.81066176422E+03  0.81066176423E+03  0.50400001928E-02 0.  1.
    10030    2    1    2    0    0  0.00000000000E+00  0.00000000000E+00 -0.35949644061E+03  0.12618270879E+04  0.12095329300E+04 0.  0.
        1    1    3    3  502    0 -0.49356588353E+03  0.22739093908E+03 -0.45660588005E+03  0.70979070879E+03  0.50400001928E-02 0.  1.
       -1    1    3    3    0  502  0.49356588353E+03 -0.22739093908E+03  0.97109439439E+02  0.55203637907E+03  0.50400001928E-02 0. -1.
</event>
<event>
 5   0  0.3751091E-03  0.1166865E+04  0.7818609E-02  0.9142364E-01
       -2   -1    0    0    0  501  0.00000000000E+00  0.00000000000E+00  0.74613651622E+03  0.74613651623E+03  0.25500000920E-02 0.  1.
        2   -1    0    0  501    0  0.00000000000E+00  0.00000000000E+00 -0.45620790728E+03  0.45620790729E+03  0.25500000920E-02 0. -1.
    10030    2    1    2    0    0  0.00000000000E+00  0.00000000000E+00  0.28992860894E+03  0.12023444235E+04  0.11668648227E+04 0.  0.
        5    1    3    3  502    0  0.39532325042E+03 -0.16502753167E+03 -0.26312942776E+03  0.50276609302E+03  0.46999998093E+01 0. -1.
       -5    1    3    3    0  502 -0.39532325042E+03  0.16502753167E+03  0.55305803670E+03  0.69957833049E+03  0.46999998093E+01 0.  1.
</event>
<event>
 5   0  0.2096270E-03  0.1335555E+04  0.7818609E-02  0.9001835E-01
        1   -1    0    0  501    0  0.00000000000E+00  0.00000000000E+00  0.93759219219E+03  0.93759219220E+03  0.50400001928E-02 0. -1.
       -1   -1    0    0    0  501  0.00000000000E+00  0.00000000000E+00 -0.47560859054E+03  0.47560859056E+03  0.50400001928E-02 0.  1.
    10030    2    1    2    0    0  0.00000000000E+00  0.00000000000E+00  0.46198360165E+03  0.14132007828E+04  0.13355551670E+04 0.  0.
        2    1    3    3  502    0 -0.88674401913E+02  0.10116119341E+03  0.92310596657E+03  0.93285656032E+03  0.25500000920E-02 0. -1.
       -2    1    3    3    0  502  0.88674401913E+02 -0.10116119341E+03 -0.46112236492E+03  0.48034422245E+03  0.25500000920E-02 0.  1.
</event>
<event>
 5   0  0.2078258E-03  0.1111078E+04  0.7818609E-02  0.9194461E-01
       -1   -1    0    0    0  501  0.00000000000E+00  0.00000000000E+00  0.26348866722E+03  0.26348866727E+03  0.50400001928E-02 0.  1.
        1   -1    0    0  501    0  0.00000000000E+00  0.00000000000E+00 -0.11712975587E+04  0.11712975587E+04  0.50400001928E-02 0. -1.
    10030    2    1    2    0    0  0.00000000000E+00  0.00000000000E+00 -0.90780889145E+03  0.14347862259E+04  0.11110780939E+04 0.  0.
        3    1    3    3  502    0 -0.30969147335E+03 -0.84421894037E+02  0.13161488604E+03  0.34692701435E+03  0.10100000352E+00 0.  1.
       -3    1    3    3    0  502  0.30969147335E+03  0.84421894037E+02 -0.10394237775E+04  0.10878592116E+04  0.10100000352E+00 0. -1.
</event>
<event>
 5   0  0.2025294E-03  0.1200638E+04  0.7818609E-02  0.9112298E-01
       -1   -1    0    0    0  501  0.00000000000E+00  0.00000000000E+00  0.13224875384E+03  0.13224875393E+03  0.50400001928E-02 0. -1.
        1   -1    0    0  501    0  0.00000000000E+00  0.00000000000E+00 -0.27250372132E+04  0.27250372132E+04  0.50400001928E-02 0.  1.
    10030    2    1    2    0    0  0.00000000000E+00  0.00000000000E+00 -0.25927884593E+04  0.28572859671E+04  0.12006377901E+04 0.  0.
        5    1    3    3  502    0 -0.59415025747E+03 -0.51444007966E+02 -0.11332486004E+04  0.12805996622E+04  0.46999998093E+01 0. -1.
       -5    1    3    3    0  502  0.59415025747E+03  0.51444007966E+02 -0.14595398589E+04  0.15766863049E+04  0.46999998093E+01 0.  1.
</event>
<event>
 5   0  0.3706035E-03  0.1175336E+04  0.7818609E-02  0.9134723E-01
        2   -1    0    0  501    0  0.00000000000E+00  0.00000000000E+00  0.10382436398E+04  0.10382436398E+04  0.25500000920E-02 0. -1.
       -2   -1    0    0    0  501  0.00000000000E+00  0.00000000000E+00 -0.33263245563E+03  0.33263245564E+03  0.25500000920E-02 0.  1.
    10030    2    1    2    0    0  0.00000000000E+00  0.00000000000E+00  0.70561118419E+03  0.13708760955E+04  0.11753357503E+04 0.  0.
        2    1    3    3  502    0 -0.24766560656E+03 -0.67935365943E+02 -0.26371772797E+03  0.36810393460E+03  0.25500000920E-02 0.  1.
       -2    1    3    3    0  502  0.24766560656E+03  0.67935365943E+02  0.96932891216E+03  0.10027721608E+04  0.25500000920E-02 0. -1.
</event>
<event>
 5   0  0.3626049E-03  0.1217317E+04  0.7818609E-02  0.9097833E-01
        2   -1    0    0  501    0  0.00000000000E+00  0.00000000000E+00  0.77928249470E+03  0.77928249470E+03  0.25500000920E-02 0.  1.
       -2   -1    0    0    0  501  0.00000000000E+00  0.00000000000E+00 -0.47539268102E+03  0.47539268103E+03  0.25500000920E-02 0. -1.
    10030    2    1    2    0    0  0.00000000000E+00  0.00000000000E+00  0.30388981368E+03  0.12546751757E+04  0.12173170408E+04 0.  0.
        1    1    3    3  502    0 -0.45452229222E+02  0.46123917411E+03  0.55858755710E+03  0.72582886402E+03  0.50400001928E-02 0.  1.
       -1    1    3    3    0  502  0.45452229222E+02 -0.46123917411E+03 -0.25469774342E+03  0.52884631171E+03  0.50400001928E-02 0. -1.
</event>
<event>
 5   0  0.2047109E-03  0.1204439E+04  0.7818609E-02  0.9108980E-01
       -1   -1    0    0    0  501  0.00000000000E+00  0.00000000000E+00  0.46236499972E+03  0.46236499975E+03  0.50400001928E-02 0.  1.
        1   -1    0    0  501    0  0.00000000000E+00  0.00000000000E+00 -0.78437618221E+03  0.78437618222E+03  0.50400001928E-02 0. -1.
    10030    2    1    2    0    0  0.00000000000E+00  0.00000000000E+00 -0.32201118248E+03  0.12467411820E+04  0.12044386133E+04 0.  0.
        1    1    3    3  502    0  0.12307759494E+03  0.21461744709E+03  0.40733151859E+03  0.47657917394E+03  0.50400001928E-02 0.  1.
       -1    1    3    3    0  502 -0.12307759494E+03 -0.21461744709E+03 -0.72934270108E+03  0.77016200803E+03  0.50400001928E-02 0. -1.
</event>
<event>
 5   0  0.2078258E-03  0.1281522E+04  0.7818609E-02  0.9044348E-01
        1   -1    0    0  501    0  0.00000000000E+00  0.00000000000E+00  0.86576946756E+03  0.86576946758E+03  0.50400001928E-02 0. -1.
       -1   -1    0    0    0  501  0.00000000000E+00  0.00000000000E+00 -0.47423069980E+03  0.47423069982E+03  0.50400001928E-02 0.  1.
    10030    2    1    2    0    0  0.00000000000E+00  0.00000000000E+00  0.39153876777E+03  0.13400001674E+04  0.12815216900E+04 0.  0.
        3    1    3    3  502    0  0.12287527525E+03 -0.16534248000E+03 -0.43866133735E+03  0.48462382117E+03  0.10100000352E+00 0.  1.
       -3    1    3    3    0  502 -0.12287527525E+03  0.16534248000E+03  0.83020010511E+03  0.85537634623E+03  0.10100000352E+00 0. -1.
</event>
<event>
 5   0  0.2078258E-03  0.1187620E+04  0.7818609E-02  0.9123762E-01
       -1   -1    0    0    0  501  0.00000000000E+00  0.00000000000E+00  0.51575997845E+03  0.51575997848E+03  0.50400001928E-02 0.  1.
        1   -1    0    0  501    0  0.00000000000E+00  0.00000000000E+00 -0.68367120632E+03  0.68367120634E+03  0.50400001928E-02 0. -1.
    10030    2    1    2    0    0  0.00000000000E+00  0.00000000000E+00 -0.16791122787E+03  0.11994311848E+04  0.11876198831E+04 0.  0.
        3    1    3    3  502    0 -0.36553815543E+03  0.33275182246E+03  0.24835833500E+03  0.55319417133E+03  0.10100000352E+00 0.  1.
       -3    1    3    3    0  502  0.36553815543E+03 -0.33275182246E+03 -0.41626956287E+03  0.64623701349E+03  0.10100000352E+00 0. -1.
</event>
<event>
 5   0  0.2096270E-03  0.1307473E+04  0.7818609E-02  0.9023660E-01
        1   -1    0    0  501    0  0.00000000000E+00  0.00000000000E+00  0.37558113915E+03  0.37558113918E+03  0.50400001928E-02 0.  1.
       -1   -1    0    0    0  501  0.00000000000E+00  0.00000000000E+00 -0.11378935869E+04  0.11378935869E+04  0.50400001928E-02 0. -1.
    10030    2    1    2    0    0  0.00000000000E+00  0.00000000000E+00 -0.76231244773E+03  0.15134747261E+04  0.13074729360E+04 0.  0.
        2    1    3    3  502    0  0.55378758213E+03 -0.25095882378E+02 -0.78224750958E+03  0.95876047879E+03  0.25500000920E-02 0. -1.
       -2    1    3    3    0  502 -0.55378758213E+03  0.25095882378E+02  0.19935061857E+02  0.55471424728E+03  0.25500000920E-02 0.  1.
</event>
<event>
 5   0  0.3626049E-03  0.1159304E+04  0.7818609E-02  0.9149243E-01
        2   -1    0    0  501    0  0.00000000000E+00  0.00000000000E+00  0.57346632331E+03  0.57346632332E+03  0.25500000920E-02 0.  1.
       -2   -1    0    0    0  501  0.00000000000E+00  0.00000000000E+00 -0.58590461321E+03  0.58590461322E+03  0.25500000920E-02 0. -1.
    10030    2    1    2    0    0  0.00000000000E+00  0.00000000000E+00 -0.12438289899E+02  0.11593709365E+04  0.11593042126E+04 0.  0.
        1    1    3    3  502    0 -0.26850249536E+03  0.14167505288E+03  0.48760189752E+03  0.57438751824E+03  0.50400001928E-02 0.  1.
       -1    1    3    3    0  502  0.26850249536E+03 -0.14167505288E+03 -0.50004018742E+03  0.58498341830E+03  0.50400001928E-02 0. -1.
</event>
<event>
 5   0  0.3650180E-03  0.1230602E+04  0.7818609E-02  0.9086485E-01
        2   -1    0    0  501    0  0.00000000000E+00  0.00000000000E+00  0.37641166182E+03  0.37641166183E+03  0.25500000920E-02 0.  1.
       -2   -1    0    0    0  501  0.00000000000E+00  0.00000000000E+00 -0.10058006224E+04  0.10058006224E+04  0.25500000920E-02 0. -1.
    10030    2    1    2    0    0  0.00000000000E+00  0.00000000000E+00 -0.62938896060E+03  0.13822122843E+04  0.12306016151E+04 0.  0.
        3    1    3    3  502    0 -0.11708682381E+03 -0.17342583109E+03 -0.96460860989E+03  0.98704388133E+03  0.10100000352E+00 0. -1.
       -3    1    3    3    0  502  0.11708682381E+03  0.17342583109E+03  0.33521964929E+03  0.39516840292E+03  0.10100000352E+00 0.  1.
</event>
<event>
 5   0  0.2078258E-03  0.1188007E+04  0.7818609E-02  0.9123420E-01
       -1   -1    0    0    0  501  0.00000000000E+00  0.00000000000E+00  0.71544468680E+03  0.71544468682E+03  0.50400001928E-02 0. -1.
        1   -1    0    0  501    0  0.00000000000E+00  0.00000000000E+00 -0.49317564574E+03  0.49317564576E+03  0.50400001928E-02 0.  1.
    10030    2    1    2    0    0  0.00000000000E+00  0.00000000000E+00  0.22226904107E+03  0.12086203326E+04  0.11880065579E+04 0.  0.
        3    1    3    3  502    0  0.31282307772E+03  0.30133045496E+03  0.52335850100E+03  0.68011943937E+03  0.10100000352E+00 0. -1.
       -3    1    3    3    0  502 -0.31282307772E+03 -0.30133045496E+03 -0.30108945993E+03  0.52850089321E+03  0.10100000352E+00 0.  1.
</event>
<event>
 5   0  0.3725376E-03  0.1185910E+04  0.7818609E-02  0.9125280E-01
        2   -1    0    0  501    0  0.00000000000E+00  0.00000000000E+00  0.15055356145E+04  0.15055356145E+04  0.25500000920E-02 0.  1.
       -2   -1    0    0    0  501  0.00000000000E+00  0.00000000000E+00 -0.23353512080E+03  0.23353512082E+03  0.25500000920E-02 0. -1.
    10030    2    1    2    0    0  0.00000000000E+00  0.00000000000E+00  0.12720004937E+04  0.17390707354E+04  0.11859096789E+04 0.  0.
        4    1    3    3  502    0  0.38174031093E+02 -0.55682117251E+03  0.34239346805E+03  0.65478391449E+03  0.12699999809E+01 0. -1.
       -4    1    3    3    0  502 -0.38174031093E+02  0.55682117251E+03  0.92960702568E+03  0.10842868209E+04  0.12699999809E+01 0.  1.
</event>
<event>
 5   0  0.2078258E-03  0.1170693E+04  0.7818609E-02  0.9138902E-01
        1   -1    0    0  501    0  0.00000000000E+00  0.00000000000E+00  0.17085152410E+04  0.17085152410E+04  0.50400001928E-02 0. -1.
       -1   -1    0    0    0  501  0.00000000000E+00  0.00000000000E+00 -0.20054300311E+03  0.20054300317E+03  0.50400001928E-02 0.  1.
    10030    2    1    2    0    0  0.00000000000E+00  0.00000000000E+00  0.15079722379E+04  0.19090582442E+04  0.11706934310E+04 0.  0.
        3    1    3    3  502    0  0.79769969159E+02  0.10022457301E+03 -0.17740692271E+03  0.21881827950E+03  0.10100000352E+00 0.  1.
       -3    1    3    3    0  502 -0.79769969159E+02 -0.10022457301E+03  0.16853791606E+04  0.16902399647E+04  0.10100000352E+00 0. -1.
</event>
<event>
 5   0  0.2078258E-03  0.1191468E+04  0.7818609E-02  0.9120357E-01
        1   -1    0    0  501    0  0.00000000000E+00  0.00000000000E+00  0.74922064648E+03  0.74922064650E+03  0.50400001928E-02 0. -1.
       -1   -1    0    0    0  501  0.00000000000E+00  0.00000000000E+00 -0.47369128060E+03  0.47369128063E+03  0.50400001928E-02 0.  1.
    10030    2    1    2    0    0  0.00000000000E+00  0.00000000000E+00  0.27552936588E+03  0.12229119271E+04  0.11914684847E+04 0.  0.
        3    1    3    3  502    0  0.14000790174E+03  0.50216481405E+03  0.43369206291E+03  0.67813017087E+03  0.10100000352E+00 0. -1.
       -3    1    3    3    0  502 -0.14000790174E+03 -0.50216481405E+03 -0.15816269703E+03  0.54478175626E+03  0.10100000352E+00 0.  1.
</event>
<event>
 5   0  0.3751091E-03  0.1178838E+04  0.7818609E-02  0.9131584E-01
       -2   -1    0    0    0  501  0.00000000000E+00  0.00000000000E+00  0.37068369866E+03  0.37068369866E+03  0.25500000920E-02 0. -1.
        2   -1    0    0  501    0  0.00000000000E+00  0.00000000000E+00 -0.93722647629E+03  0.93722647629E+03  0.25500000920E-02 0.  1.
    10030    2    1    2    0    0  0.00000000000E+00  0.00000000000E+00 -0.56654277763E+03  0.13079101750E+04  0.11788376932E+04 0.  0.
        5    1    3    3  502    0  0.16185339901E+03  0.32228774523E+03  0.23395457859E+03  0.42991016310E+03  0.46999998093E+01 0. -1.
       -5    1    3    3    0  502 -0.16185339901E+03 -0.32228774523E+03 -0.80049735622E+03  0.87800001185E+03  0.46999998093E+01 0.  1.
</event>
<event>
 5   0  0.2134992E-03  0.1197624E+04  0.7818609E-02  0.9114938E-01
        1   -1    0    0  501    0  0.00000000000E+00  0.00000000000E+00  0.99669127844E+03  0.99669127846E+03  0.50400001928E-02 0.  1.
       -1   -1    0    0    0  501  0.00000000000E+00  0.00000000000E+00 -0.35976642421E+03  0.35976642424E+03  0.50400001928E-02 0. -1.
    10030    2    1    2    0    0  0.00000000000E+00  0.00000000000E+00  0.63692485424E+03  0.13564577027E+04  0.11976244108E+04 0.  0.
        4    1    3    3  502    0 -0.97171455496E+02  0.35390849820E+03  0.85437527064E+03  0.92986678231E+03  0.12699999809E+01 0.  1.
       -4    1    3    3    0  502  0.97171455496E+02 -0.35390849820E+03 -0.21745041640E+03  0.42659092039E+03  0.12699999809E+01 0. -1.
</event>
<event>
 5   0  0.2078258E-03  0.1206600E+04  0.7818609E-02  0.9107099E-01
       -1   -1    0    0    0  501  0.00000000000E+00  0.00000000000E+00  0.29582654424E+03  0.29582654428E+03  0.50400001928E-02 0.  1.
        1   -1    0    0  501    0  0.00000000000E+00  0.00000000000E+00 -0.12303532212E+04  0.12303532212E+04  0.50400001928E-02 0. -1.
    10030    2    1    2    0    0  0.00000000000E+00  0.00000000000E+00 -0.93452667695E+03  0.15261797655E+04  0.12066004171E+04 0.  0.
        3    1    3    3  502    0  0.36356450761E+03  0.29199868580E+03  0.16913086262E+02  0.46661380862E+03  0.10100000352E+00 0.  1.
       -3    1    3    3    0  502 -0.36356450761E+03 -0.29199868580E+03 -0.95143976321E+03  0.10595659569E+04  0.10100000352E+00 0. -1.
</event>
<event>
 5   0  0.3706035E-03  0.1191775E+04  0.7818609E-02  0.9120087E-01
        2   -1    0    0  501    0  0.00000000000E+00  0.00000000000E+00  0.35647711451E+03  0.35647711452E+03  0.25500000920E-02 0.  1.
       -2   -1    0    0    0  501  0.00000000000E+00  0.00000000000E+00 -0.99608595488E+03  0.99608595488E+03  0.25500000920E-02 0. -1.
    10030    2    1    2    0    0  0.00000000000E+00  0.00000000000E+00 -0.63960884037E+03  0.13525630694E+04  0.11917748898E+04 0.  0.
        2    1    3    3  502    0  0.14720246365E+03  0.34358293152E+03  0.20687930683E+03  0.42721990091E+03  0.25500000920E-02 0.  1.
       -2    1    3    3    0  502 -0.14720246365E+03 -0.34358293152E+03 -0.84648814719E+03  0.92534316849E+03  0.25500000920E-02 0. -1.
</event>
<event>
 5   0  0.2134992E-03  0.1005624E+04  0.7818609E-02  0.9302398E-01
       -1   -1    0    0    0  501  0.00000000000E+00  0.00000000000E+00  0.16035565183E+03  0.16035565191E+03  0.50400001928E-02 0. -1.
        1   -1    0    0  501    0  0.00000000000E+00  0.00000000000E+00 -0.15766193398E+04  0.15766193398E+04  0.50400001928E-02 0.  1.
    10030    2    1    2    0    0  0.00000000000E+00  0.00000000000E+00 -0.14162636880E+04  0.17369749917E+04  0.10056238303E+04 0.  0.
        4    1    3    3  502    0 -0.40371484480E+03 -0.21699646557E+02 -0.12244692870E+04  0.12894895107E+04  0.12699999809E+01 0.  1.
       -4    1    3    3    0  502  0.40371484480E+03  0.21699646557E+02 -0.19179440102E+03  0.44748548103E+03  0.12699999809E+01 0. -1.
</event>
<event>
 5   0  0.3626049E-03  0.1219158E+04  0.7818609E-02  0.9096251E-01
        2   -1    0    0  501    0  0.00000000000E+00  0.00000000000E+00  0.19340836367E+04  0.19340836367E+04  0.25500000920E-02 0. -1.
       -2   -1    0    0    0  501  0.00000000000E+00  0.00000000000E+00 -0.19212533848E+03  0.19212533849E+03  0.25500000920E-02 0.  1.
    10030    2    1    2    0    0  0.00000000000E+00  0.00000000000E+00  0.17419582982E+04  0.21262089752E+04  0.12191578624E+04 0.  0.
        1    1    3    3  502    0 -0.95738648633E+02  0.30787282162E+03 -0.31251101394E+02  0.32392621768E+03  0.50400001928E-02 0.  1.
       -1    1    3    3    0  502  0.95738648633E+02 -0.30787282162E+03  0.17732093996E+04  0.18022827575E+04  0.50400001928E-02 0. -1.
</event>
<event>
 5   0  0.2096270E-03  0.1205851E+04  0.7818609E-02  0.9107750E-01
       -1   -1    0    0    0  501  0.00000000000E+00  0.00000000000E+00  0.12557792633E+03  0.12557792643E+03  0.50400001928E-02 0. -1.
        1   -1    0    0  501    0  0.00000000000E+00  0.00000000000E+00 -0.28947709613E+04  0.28947709613E+04  0.50400001928E-02 0.  1.
    10030    2    1    2    0    0  0.00000000000E+00  0.00000000000E+00 -0.27691930350E+04  0.30203488877E+04  0.12058512921E+04 0.  0.
        2    1    3    3  502    0 -0.42781066267E+03 -0.34080979920E+03 -0.74923001683E+03  0.92764157973E+03  0.25500000920E-02 0. -1.
       -2    1    3    3    0  502  0.42781066267E+03  0.34080979920E+03 -0.20199630181E+04  0.20927073080E+04  0.25500000920E-02 0.  1.
</event>
<event>
 5   0  0.2134992E-03  0.1194577E+04  0.7818609E-02  0.9117617E-01
        1   -1    0    0  501    0  0.00000000000E+00  0.00000000000E+00  0.45989808633E+03  0.45989808636E+03  0.50400001928E-02 0.  1.
       -1   -1    0    0    0  501  0.00000000000E+00  0.00000000000E+00 -0.77572262040E+03  0.77572262042E+03  0.50400001928E-02 0. -1.
    10030    2    1    2    0    0  0.00000000000E+00  0.00000000000E+00 -0.31582453407E+03  0.12356207068E+04  0.11945766592E+04 0.  0.
        4    1    3    3  502    0 -0.32891946044E+03  0.39486782956E+03 -0.47274345107E+03  0.69828117381E+03  0.12699999809E+01 0. -1.
       -4    1    3    3    0  502  0.32891946044E+03 -0.39486782956E+03  0.15691891700E+03  0.53733953297E+03  0.12699999809E+01 0.  1.
</event>
<event>
 5   0  0.3650180E-03  0.1147742E+04  0.7818609E-02  0.9159869E-01
        2   -1    0    0  501    0  0.00000000000E+00  0.00000000000E+00  0.22747216122E+04  0.22747216122E+04  0.25500000920E-02 0.  1.
       -2   -1    0    0    0  501  0.00000000000E+00  0.00000000000E+00 -0.14477734646E+03  0.14477734648E+03  0.25500000920E-02 0. -1.
    10030    2    1    2    0    0  0.00000000000E+00  0.00000000000E+00  0.21299442657E+04  0.24194989587E+04  0.11477424083E+04 0.  0.
        3    1    3    3  502    0  0.41901156699E+03  0.33096976810E+03  0.15082469255E+04  0.15999751496E+04  0.10100000352E+00 0.  1.
       -3    1    3    3    0  502 -0.41901156699E+03 -0.33096976810E+03  0.62169734023E+03  0.81952380912E+03  0.10100000352E+00 0. -1.
</event>
<event>
 5   0  0.2078258E-03  0.1185993E+04  0.7818609E-02  0.9125206E-01
        1   -1    0    0  501    0  0.00000000000E+00  0.00000000000E+00  0.10450364023E+04  0.10450364023E+04  0.50400001928E-02 0.  1.
       -1   -1    0    0    0  501  0.00000000000E+00  0.00000000000E+00 -0.33649070704E+03  0.33649070708E+03  0.50400001928E-02 0. -1.
    10030    2    1    2    0    0  0.00000000000E+00  0.00000000000E+00  0.70854569528E+03  0.13815271094E+04  0.11859933186E+04 0.  0.
        3    1    3    3  502    0 -0.28381212890E+03 -0.42806997389E+03  0.90078895742E+01  0.51368704416E+03  0.10100000352E+00 0.  1.
       -3    1    3    3    0  502  0.28381212890E+03  0.42806997389E+03  0.69953780570E+03  0.86784006526E+03  0.10100000352E+00 0. -1.
</event>
<event>
 5   0  0.3706035E-03  0.1179978E+04  0.7818609E-02  0.9130564E-01
       -2   -1    0    0    0  501  0.00000000000E+00  0.00000000000E+00  0.73917502968E+03  0.73917502969E+03  0.25500000920E-02 0.  1.
        2   -1    0    0  501    0  0.00000000000E+00  0.00000000000E+00 -0.47091293375E+03  0.47091293376E+03  0.25500000920E-02 0. -1.
    10030    2    1    2    0    0  0.00000000000E+00  0.00000000000E+00  0.26826209593E+03  0.12100879634E+04  0.11799781045E+04 0.  0.
        2    1    3    3  502    0  0.33662975893E+03 -0.21870752197E+03  0.57752292334E+03  0.70333868211E+03  0.25500000920E-02 0. -1.
       -2    1    3    3    0  502 -0.33662975893E+03  0.21870752197E+03 -0.30926082741E+03  0.50674928134E+03  0.25500000920E-02 0.  1.
</event>
<event>
 5   0  0.3650180E-03  0.1213433E+04  0.7818609E-02  0.9101179E-01
       -2   -1    0    0    0  501  0.00000000000E+00  0.00000000000E+00  0.23713599543E+03  0.23713599544E+03  0.25500000920E-02 0.  1.
        2   -1    0    0  501    0  0.00000000000E+00  0.00000000000E+00 -0.15522939778E+04  0.15522939778E+04  0.25500000920E-02 0. -1.
    10030    2    1    2    0    0  0.00000000000E+00  0.00000000000E+00 -0.13151579824E+04  0.17894299733E+04  0.12134327796E+04 0.  0.
        3    1    3    3  502    0 -0.40556923449E+03  0.41744916070E+03 -0.91023916176E+03  0.10804098979E+04  0.10100000352E+00 0.  1.
       -3    1    3    3    0  502  0.40556923449E+03 -0.41744916070E+03 -0.40491882063E+03  0.70902007534E+03  0.10100000352E+00 0. -1.
</event>
<event>
 5   0  0.3706035E-03  0.1191606E+04  0.7818609E-02  0.9120235E-01
        2   -1    0    0  501    0  0.00000000000E+00  0.00000000000E+00  0.12725261562E+04  0.12725261562E+04  0.25500000920E-02 0. -1.
       -2   -1    0    0    0  501  0.00000000000E+00  0.00000000000E+00 -0.27895807789E+03  0.27895807791E+03  0.25500000920E-02 0.  1.
    10030    2    1    2    0    0  0.00000000000E+00  0.00000000000E+00  0.99356807827E+03  0.15514842341E+04  0.11916063958E+04 0.  0.
        2    1    3    3  502    0 -0.26072485013E+03  0.17244597509E+03  0.11571825212E+04  0.11986602727E+04  0.25500000920E-02 0. -1.
       -2    1    3    3    0  502  0.26072485013E+03 -0.17244597509E+03 -0.16361444295E+03  0.35282396142E+03  0.25500000920E-02 0.  1.
</event>
<event>
 5   0  0.3706035E-03  0.1138294E+04  0.7818609E-02  0.9168651E-01
        2   -1    0    0  501    0  0.00000000000E+00  0.00000000000E+00  0.92769930129E+03  0.92769930129E+03  0.25500000920E-02 0.  1.
       -2   -1    0    0    0  501  0.00000000000E+00  0.00000000000E+00 -0.34917382398E+03  0.34917382399E+03  0.25500000920E-02 0. -1.
    10030    2    1    2    0    0  0.00000000000E+00  0.00000000000E+00  0.57852547731E+03  0.12768731253E+04  0.11382940087E+04 0.  0.
        2    1    3    3  502    0 -0.84877772905E+02 -0.22482814396E+03 -0.28947000557E+03  0.37622442076E+03  0.25500000920E-02 0. -1.
       -2    1    3    3    0  502  0.84877772905E+02  0.22482814396E+03  0.86799548288E+03  0.90064870452E+03  0.25500000920E-02 0.  1.
</event>
<event>
 5   0  0.2025294E-03  0.1369199E+04  0.7818609E-02  0.8976421E-01
       -1   -1    0    0    0  501  0.00000000000E+00  0.00000000000E+00  0.10874184227E+04  0.10874184227E+04  0.50400001928E-02 0.  1.
        1   -1    0    0  501    0  0.00000000000E+00  0.00000000000E+00 -0.43099910198E+03  0.43099910201E+03  0.50400001928E-02 0. -1.
    10030    2    1    2    0    0  0.00000000000E+00  0.00000000000E+00  0.65641932068E+03  0.15184175247E+04  0.13691988368E+04 0.  0.
        5    1    3    3  502    0 -0.36079498984E+02  0.54987310350E+03 -0.12225038770E+03  0.56447268091E+03  0.46999998093E+01 0. -1.
       -5    1    3    3    0  502  0.36079498984E+02 -0.54987310350E+03  0.77866970837E+03  0.95394484376E+03  0.46999998093E+01 0.  1.
</event>
<event>
 5   0  0.2134992E-03  0.1193746E+04  0.7818609E-02  0.9118348E-01
        1   -1    0    0  501    0  0.00000000000E+00  0.00000000000E+00  0.90912153659E+03  0.90912153660E+03  0.50400001928E-02 0. -1.
       -1   -1    0    0    0  501  0.00000000000E+00  0.00000000000E+00 -0.39187004220E+03  0.39187004223E+03  0.50400001928E-02 0.  1.
    10030    2    1    2    0    0  0.00000000000E+00  0.00000000000E+00  0.51725149439E+03  0.13009915788E+04  0.11937461957E+04 0.  0.
        4    1    3    3  502    0  0.84838024406E+02 -0.55763995507E+03  0.45908558200E+02  0.56592315599E+03  0.12699999809E+01 0.  1.
       -4    1    3    3    0  502 -0.84838024406E+02  0.55763995507E+03  0.47134293619E+03  0.73506842285E+03  0.12699999809E+01 0. -1.
</event>
<event>
 5   0  0.3706035E-03  0.1179690E+04  0.7818609E-02  0.9130822E-01
        2   -1    0    0  501    0  0.00000000000E+00  0.00000000000E+00  0.20063401257E+04  0.20063401257E+04  0.25500000920E-02 0.  1.
       -2   -1    0    0    0  501  0.00000000000E+00  0.00000000000E+00 -0.17340881617E+03  0.17340881618E+03  0.25500000920E-02 0. -1.
    10030    2    1    2    0    0  0.00000000000E+00  0.00000000000E+00  0.18329313095E+04  0.21797489419E+04  0.11796899017E+04 0.  0.
        2    1    3    3  502    0 -0.26814904548E+03 -0.14277212270E+03  0.18506743583E+04  0.18754421798E+04  0.25500000920E-02 0.  1.
       -2    1    3    3    0  502  0.26814904548E+03  0.14277212270E+03 -0.17743048762E+02  0.30430676200E+03  0.25500000920E-02 0. -1.
</event>
<event>
 5   0  0.3706035E-03  0.1196849E+04  0.7818609E-02  0.9115619E-01
        2   -1    0    0  501    0  0.00000000000E+00  0.00000000000E+00  0.56317660125E+03  0.56317660126E+03  0.25500000920E-02 0.  1.
       -2   -1    0    0    0  501  0.00000000000E+00  0.00000000000E+00 -0.63587871914E+03  0.63587871915E+03  0.25500000920E-02 0. -1.
    10030    2    1    2    0    0  0.00000000000E+00  0.00000000000E+00 -0.72702117888E+02  0.11990553204E+04  0.11968492234E+04 0.  0.
        2    1    3    3  502    0 -0.22647164400E+03 -0.48588193454E+03  0.23011166814E+03  0.58337127086E+03  0.25500000920E-02 0.  1.
       -2    1    3    3    0  502  0.22647164400E+03  0.48588193454E+03 -0.30281378603E+03  0.61568404954E+03  0.25500000920E-02 0. -1.
</event>
<event>
 5   0  0.1397500E-03  0.1190381E+04  0.7818609E-02  0.9121318E-01
       -3   -1    0    0    0  501  0.00000000000E+00  0.00000000000E+00  0.32252551896E+03  0.32252553477E+03  0.10100000352E+00 0. -1.
        3   -1    0    0  501    0  0.00000000000E+00  0.00000000000E+00 -0.10983684828E+04  0.10983684875E+04  0.10100000352E+00 0.  1.
    10030    2    1    2    0    0  0.00000000000E+00  0.00000000000E+00 -0.77584296389E+03  0.14208940223E+04  0.11903812490E+04 0.  0.
        1    1    3    3  502    0 -0.36677136100E+03  0.13006688290E+03 -0.92547755997E+03  0.10039658058E+04  0.50400001928E-02 0.  1.
       -1    1    3    3    0  502  0.36677136100E+03 -0.13006688290E+03  0.14963459608E+03  0.41692821642E+03  0.50400001928E-02 0. -1.
</event>
<event>
 5   0  0.3650180E-03  0.1204971E+04  0.7818609E-02  0.9108517E-01
       -2   -1    0    0    0  501  0.00000000000E+00  0.00000000000E+00  0.71887537623E+03  0.71887537624E+03  0.25500000920E-02 0. -1.
        2   -1    0    0  501    0  0.00000000000E+00  0.00000000000E+00 -0.50493951356E+03  0.50493951357E+03  0.25500000920E-02 0.  1.
    10030    2    1    2    0    0  0.00000000000E+00  0.00000000000E+00  0.21393586267E+03  0.12238148898E+04  0.12049706765E+04 0.  0.
        3    1    3    3  502    0  0.55894595042E+03 -0.12079505847E+03 -0.85673198761E+02  0.57823172589E+03  0.10100000352E+00 0. -1.
       -3    1    3    3    0  502 -0.55894595042E+03  0.12079505847E+03  0.29960906143E+03  0.64558316391E+03  0.10100000352E+00 0.  1.
</event>
<event>
 5   0  0.1397500E-03  0.1164794E+04  0.7818609E-02  0.9144243E-01
        4   -1    0    0  501    0  0.00000000000E+00  0.00000000000E+00  0.10422869442E+04  0.10422877179E+04  0.12699999809E+01 0. -1.
       -4   -1    0    0    0  501  0.00000000000E+00  0.00000000000E+00 -0.32542306584E+03  0.32542554399E+03  0.12699999809E+01 0.  1.
    10030    2    1    2    0    0  0.00000000000E+00  0.00000000000E+00  0.71686387836E+03  0.13677132619E+04  0.11647942937E+04 0.  0.
        5    1    3    3  502    0  0.32804197059E+03 -0.21862317141E+03 -0.14491500936E+03  0.42003580262E+03  0.46999998093E+01 0.  1.
       -5    1    3    3    0  502 -0.32804197059E+03  0.21862317141E+03  0.86177888772E+03  0.94767745930E+03  0.46999998093E+01 0. -1.
</event>
<event>
 5   0  0.2047109E-03  0.1205956E+04  0.7818609E-02  0.9107659E-01
        1   -1    0    0  501    0  0.00000000000E+00  0.00000000000E+00  0.12627676838E+04  0.12627676838E+04  0.50400001928E-02 0. -1.
       -1   -1    0    0    0  501  0.00000000000E+00  0.00000000000E+00 -0.28792493507E+03  0.28792493512E+03  0.50400001928E-02 0.  1.
    10030    2    1    2    0    0  0.00000000000E+00  0.00000000000E+00  0.97484274876E+03  0.15506926190E+04  0.12059557263E+04 0.  0.
        1    1    3    3  502    0 -0.40113602147E+03 -0.44433314386E+03  0.58050439784E+03  0.83386294220E+03  0.50400001928E-02 0. -1.
       -1    1    3    3    0  502  0.40113602147E+03  0.44433314386E+03  0.39433835093E+03  0.71682967676E+03  0.50400001928E-02 0.  1.
</event>
<event>
 5   0  0.3706035E-03  0.1206553E+04  0.7818609E-02  0.9107140E-01
       -2   -1    0    0    0  501  0.00000000000E+00  0.00000000000E+00  0.17554779424E+03  0.17554779426E+03  0.25500000920E-02 0. -1.
        2   -1    0    0  501    0  0.00000000000E+00  0.00000000000E+00 -0.20731828959E+04  0.20731828959E+04  0.25500000920E-02 0.  1.
    10030    2    1    2    0    0  0.00000000000E+00  0.00000000000E+00 -0.18976351016E+04  0.22487306901E+04  0.12065532470E+04 0.  0.
        2    1    3    3  502    0  0.33936834678E+02 -0.54320496422E+03 -0.46381131676E+03  0.71508340735E+03  0.25500000920E-02 0. -1.
       -2    1    3    3    0  502 -0.33936834678E+02  0.54320496422E+03 -0.14338237849E+04  0.15336472828E+04  0.25500000920E-02 0.  1.
</event>
<event>
 5   0  0.3751091E-03  0.1216522E+04  0.7818609E-02  0.9098516E-01
        2   -1    0    0  501    0  0.00000000000E+00  0.00000000000E+00  0.13490627130E+04  0.13490627130E+04  0.25500000920E-02 0.  1.
       -2   -1    0    0    0  501  0.00000000000E+00  0.00000000000E+00 -0.27425094633E+03  0.27425094634E+03  0.25500000920E-02 0. -1.
    10030    2    1    2    0    0  0.00000000000E+00  0.00000000000E+00  0.10748117667E+04  0.16233136593E+04  0.12165224629E+04 0.  0.
        5    1    3    3  502    0  0.36555268038E+03 -0.17823290293E+03 -0.66121269931E+02  0.41205562992E+03  0.46999998093E+01 0. -1.
       -5    1    3    3    0  502 -0.36555268038E+03  0.17823290293E+03  0.11409330366E+04  0.12112580294E+04  0.46999998093E+01 0.  1.
</event>
<event>
 5   0  0.1397500E-03  0.1202153E+04  0.7818609E-02  0.9110974E-01
        4   -1    0    0  501    0  0.00000000000E+00  0.00000000000E+00  0.43780490139E+03  0.43780674342E+03  0.12699999809E+01 0. -1.
       -4   -1    0    0    0  501  0.00000000000E+00  0.00000000000E+00 -0.82523313656E+03  0.82523411380E+03  0.12699999809E+01 0.  1.
    10030    2    1    2    0    0  0.00000000000E+00  0.00000000000E+00 -0.38742823516E+03  0.12630408572E+04  0.12021528894E+04 0.  0.
        5    1    3    3  502    0 -0.45256768913E+03  0.38206929839E+03 -0.30125225128E+03  0.66450693820E+03  0.46999998093E+01 0. -1.
       -5    1    3    3    0  502  0.45256768913E+03 -0.38206929839E+03 -0.86175983880E+02  0.59853391902E+03  0.46999998093E+01 0.  1.
</event>
<event>
 5   0  0.2025294E-03  0.1200514E+04  0.7818609E-02  0.9112407E-01
        1   -1    0    0  501    0  0.00000000000E+00  0.00000000000E+00  0.60534689051E+03  0.60534689053E+03  0.50400001928E-02 0. -1.
       -1   -1    0    0    0  501  0.00000000000E+00  0.00000000000E+00 -0.59520997622E+03  0.59520997624E+03  0.50400001928E-02 0.  1.
    10030    2    1    2    0    0  0.00000000000E+00  0.00000000000E+00  0.10136914289E+02  0.12005568668E+04  0.12005140704E+04 0.  0.
        5    1    3    3  502    0 -0.28518839911E+03 -0.52555835744E+03 -0.47301417764E+02  0.59983624781E+03  0.46999998093E+01 0.  1.
       -5    1    3    3    0  502  0.28518839911E+03  0.52555835744E+03  0.57438332053E+02  0.60072061897E+03  0.46999998093E+01 0. -1.
</event>
<event>
 5   0  0.3725376E-03  0.1210850E+04  0.7818609E-02  0.9103412E-01
        2   -1    0    0  501    0  0.00000000000E+00  0.00000000000E+00  0.98424483397E+03  0.98424483398E+03  0.25500000920E-02 0.  1.
       -2   -1    0    0    0  501  0.00000000000E+00  0.00000000000E+00 -0.37240688328E+03  0.37240688329E+03  0.25500000920E-02 0. -1.
    10030    2    1    2    0    0  0.00000000000E+00  0.00000000000E+00  0.61183795070E+03  0.13566517173E+04  0.12108501988E+04 0.  0.
        4    1    3    3  502    0 -0.21403414073E+03 -0.39363536199E+03  0.76210511827E+03  0.88406178280E+03  0.12699999809E+01 0.  1.
       -4    1    3    3    0  502  0.21403414073E+03  0.39363536199E+03 -0.15026716758E+03  0.47258993447E+03  0.12699999809E+01 0. -1.
</event>
<event>
 5   0  0.2078258E-03  0.1149140E+04  0.7818609E-02  0.9158577E-01
       -1   -1    0    0    0  501  0.00000000000E+00  0.00000000000E+00  0.24301979088E+03  0.24301979093E+03  0.50400001928E-02 0.  1.
        1   -1    0    0  501    0  0.00000000000E+00  0.00000000000E+00 -0.13584524010E+04  0.13584524010E+04  0.50400001928E-02 0. -1.
    10030    2    1    2    0    0  0.00000000000E+00  0.00000000000E+00 -0.11154326101E+04  0.16014721920E+04  0.11491402325E+04 0.  0.
        3    1    3    3  502    0 -0.43528430419E+03 -0.28797351091E+03 -0.22286978034E+03  0.56751398014E+03  0.10100000352E+00 0.  1.
       -3    1    3    3    0  502  0.43528430419E+03  0.28797351091E+03 -0.89256282979E+03  0.10339582118E+04  0.10100000352E+00 0. -1.
</event>
<event>
 5   0  0.2096270E-03  0.1186015E+04  0.7818609E-02  0.9125186E-01
       -1   -1    0    0    0  501  0.00000000000E+00  0.00000000000E+00  0.65365113389E+03  0.65365113391E+03  0.50400001928E-02 0. -1.
        1   -1    0    0  501    0  0.00000000000E+00  0.00000000000E+00 -0.53799060736E+03  0.53799060738E+03  0.50400001928E-02 0.  1.
    10030    2    1    2    0    0  0.00000000000E+00  0.00000000000E+00  0.11566052653E+03  0.11916417413E+04  0.11860154646E+04 0.  0.
        2    1    3    3  502    0  0.54369689351E+03 -0.21907474681E+03 -0.32362575160E+02  0.58706677046E+03  0.25500000920E-02 0. -1.
       -2    1    3    3    0  502 -0.54369689351E+03  0.21907474681E+03  0.14802310169E+03  0.60457497082E+03  0.25500000920E-02 0.  1.
</event>
<event>
 5   0  0.3706035E-03  0.1212801E+04  0.7818609E-02  0.9101725E-01
        2   -1    0    0  501    0  0.00000000000E+00  0.00000000000E+00  0.23200010716E+04  0.23200010716E+04  0.25500000920E-02 0. -1.
       -2   -1    0    0    0  501  0.00000000000E+00  0.00000000000E+00 -0.15850072100E+03  0.15850072102E+03  0.25500000920E-02 0.  1.
    10030    2    1    2    0    0  0.00000000000E+00  0.00000000000E+00  0.21615003506E+04  0.24785017926E+04  0.12128014555E+04 0.  0.
        2    1    3    3  502    0 -0.36212135898E+03  0.25102438467E+03  0.22932738788E+03  0.49672544848E+03  0.25500000920E-02 0.  1.
       -2    1    3    3    0  502  0.36212135898E+03 -0.25102438467E+03  0.19321729627E+04  0.19817763441E+04  0.25500000920E-02 0. -1.
</event>
<event>
 5   0  0.3751091E-03  0.1186263E+04  0.7818609E-02  0.9124966E-01
       -2   -1    0    0    0  501  0.00000000000E+00  0.00000000000E+00  0.42405928205E+03  0.42405928206E+03  0.25500000920E-02 0.  1.
        2   -1    0    0  501    0  0.00000000000E+00  0.00000000000E+00 -0.82961323639E+03  0.82961323639E+03  0.25500000920E-02 0. -1.
    10030    2    1    2    0    0  0.00000000000E+00  0.00000000000E+00 -0.40555395434E+03  0.12536725184E+04  0.11862633660E+04 0.  0.
        5    1    3    3  502    0 -0.67483156042E+02  0.11384061303E+03  0.40823725349E+03  0.42917759338E+03  0.46999998093E+01 0.  1.
       -5    1    3    3    0  502  0.67483156042E+02 -0.11384061303E+03 -0.81379120783E+03  0.82449492507E+03  0.46999998093E+01 0. -1.
</event>
<event>
 5   0  0.2134992E-03  0.1206854E+04  0.7818609E-02  0.9106878E-01
        1   -1    0    0  501    0  0.00000000000E+00  0.00000000000E+00  0.62542320163E+03  0.62542320165E+03  0.50400001928E-02 0. -1.
       -1   -1    0    0    0  501  0.00000000000E+00  0.00000000000E+00 -0.58220429983E+03  0.58220429985E+03  0.50400001928E-02 0.  1.
    10030    2    1    2    0    0  0.00000000000E+00  0.00000000000E+00  0.43218901801E+02  0.12076275015E+04  0.12068538888E+04 0.  0.
        4    1    3    3  502    0  0.65362310948E+02  0.42028805116E+03  0.44991207843E+03  0.61914196179E+03  0.12699999809E+01 0. -1.
       -4    1    3    3    0  502 -0.65362310948E+02 -0.42028805116E+03 -0.40669317663E+03  0.58848553971E+03  0.12699999809E+01 0.  1.
</event>
<event>
 5   0  0.3751091E-03  0.1178706E+04  0.7818609E-02  0.9131702E-01
       -2   -1    0    0    0  501  0.00000000000E+00  0.00000000000E+00  0.15219481178E+03  0.15219481181E+03  0.25500000920E-02 0. -1.
        2   -1    0    0  501    0  0.00000000000E+00  0.00000000000E+00 -0.22821880959E+04  0.22821880959E+04  0.25500000920E-02 0.  1.
    10030    2    1    2    0    0  0.00000000000E+00  0.00000000000E+00 -0.21299932841E+04  0.24343829077E+04  0.11787063888E+04 0.  0.
        5    1    3    3  502    0 -0.12692678202E+03 -0.15624012098E+03 -0.22089451635E+04  0.22181032908E+04  0.46999998093E+01 0.  1.
       -5    1    3    3    0  502  0.12692678202E+03  0.15624012098E+03  0.78951879430E+02  0.21627961684E+03  0.46999998093E+01 0. -1.
</event>
<event>
 5   0  0.2078258E-03  0.1174210E+04  0.7818609E-02  0.9135735E-01
        1   -1    0    0  501    0  0.00000000000E+00  0.00000000000E+00  0.12879428482E+04  0.12879428482E+04  0.50400001928E-02 0. -1.
       -1   -1    0    0    0  501  0.00000000000E+00  0.00000000000E+00 -0.26763023021E+03  0.26763023026E+03  0.50400001928E-02 0.  1.
    10030    2    1    2    0    0  0.00000000000E+00  0.00000000000E+00  0.10203126180E+04  0.15555730784E+04  0.11742102725E+04 0.  0.
        3    1    3    3  502    0  0.29355174641E+02 -0.70276155985E+02  0.12813707975E+04  0.12836321884E+04  0.10100000352E+00 0. -1.
       -3    1    3    3    0  502 -0.29355174641E+02  0.70276155985E+02 -0.26105817950E+03  0.27194089001E+03  0.10100000352E+00 0.  1.
</event>
<event>
 5   0  0.3706035E-03  0.1220764E+04  0.7818609E-02  0.9094873E-01
       -2   -1    0    0    0  501  0.00000000000E+00  0.00000000000E+00  0.52045554321E+03  0.52045554322E+03  0.25500000920E-02 0.  1.
        2   -1    0    0  501    0  0.00000000000E+00  0.00000000000E+00 -0.71584647641E+03  0.71584647641E+03  0.25500000920E-02 0. -1.
    10030    2    1    2    0    0  0.00000000000E+00  0.00000000000E+00 -0.19539093319E+03  0.12363020196E+04  0.12207641324E+04 0.  0.
        2    1    3    3  502    0 -0.71560492373E+02  0.60048436511E+03 -0.13792373189E+02  0.60489057389E+03  0.25500000920E-02 0.  1.
       -2    1    3    3    0  502  0.71560492373E+02 -0.60048436511E+03 -0.18159856000E+03  0.63141144574E+03  0.25500000920E-02 0. -1.
</event>
<event>
 5   0  0.3650180E-03  0.1220684E+04  0.7818609E-02  0.9094942E-01
       -2   -1    0    0    0  501  0.00000000000E+00  0.00000000000E+00  0.17327307714E+03  0.17327307716E+03  0.25500000920E-02 0. -1.
        2   -1    0    0  501    0  0.00000000000E+00  0.00000000000E+00 -0.21498872871E+04  0.21498872871E+04  0.25500000920E-02 0.  1.
    10030    2    1    2    0    0  0.00000000000E+00  0.00000000000E+00 -0.19766142099E+04  0.23231603642E+04  0.12206843749E+04 0.  0.
        3    1    3    3  502    0  0.39718402989E+00 -0.39665193247E+03 -0.18711460039E+04  0.19127258798E+04  0.10100000352E+00 0.  1.
       -3    1    3    3    0  502 -0.39718402989E+00  0.39665193247E+03 -0.10546820601E+03  0.41043448438E+03  0.10100000352E+00 0. -1.
</event>
<event>
 5   0  0.3626049E-03  0.1213941E+04  0.7818609E-02  0.9100741E-01
       -2   -1    0    0    0  501  0.00000000000E+00  0.00000000000E+00  0.34558525339E+03  0.34558525340E+03  0.25500000920E-02 0. -1.
        2   -1    0    0  501    0  0.00000000000E+00  0.00000000000E+00 -0.10660551434E+04  0.10660551434E+04  0.25500000920E-02 0.  1.
    10030    2    1    2    0    0  0.00000000000E+00  0.00000000000E+00 -0.72046988996E+03  0.14116403968E+04  0.12139405864E+04 0.  0.
        1    1    3    3  502    0 -0.44081923670E+03 -0.23879365506E+03  0.37640801563E+02  0.50275325868E+03  0.50400001928E-02 0. -1.
       -1    1    3    3    0  502  0.44081923670E+03  0.23879365506E+03 -0.75811069152E+03  0.90888713808E+03  0.50400001928E-02 0.  1.
</event>
<event>
 5   0  0.2047109E-03  0.1450770E+04  0.7818609E-02  0.8917867E-01
       -1   -1    0    0    0  501  0.00000000000E+00  0.00000000000E+00  0.26693164380E+03  0.26693164384E+03  0.50400001928E-02 0.  1.
        1   -1    0    0  501    0  0.00000000000E+00  0.00000000000E+00 -0.19712289221E+04  0.19712289221E+04  0.50400001928E-02 0. -1.
    10030    2    1    2    0    0  0.00000000000E+00  0.00000000000E+00 -0.17042972783E+04  0.22381605659E+04  0.14507699701E+04 0.  0.
        1    1    3    3  502    0 -0.74565669551E+01 -0.15990817321E+03 -0.19436380276E+04  0.19502192202E+04  0.50400001928E-02 0. -1.
       -1    1    3    3    0  502  0.74565669551E+01  0.15990817321E+03  0.23934074937E+03  0.28794134574E+03  0.50400001928E-02 0.  1.
</event>
<event>
 5   0  0.3650180E-03  0.1191254E+04  0.7818609E-02  0.9120547E-01
       -2   -1    0    0    0  501  0.00000000000E+00  0.00000000000E+00  0.85825280026E+03  0.85825280027E+03  0.25500000920E-02 0. -1.
        2   -1    0    0  501    0  0.00000000000E+00  0.00000000000E+00 -0.41336480698E+03  0.41336480699E+03  0.25500000920E-02 0.  1.
    10030    2    1    2    0    0  0.00000000000E+00  0.00000000000E+00  0.44488799328E+03  0.12716176073E+04  0.11912539664E+04 0.  0.
        3    1    3    3  502    0  0.40162076897E+03 -0.43072647728E+03  0.12728442352E+03  0.60251628606E+03  0.10100000352E+00 0. -1.
       -3    1    3    3    0  502 -0.40162076897E+03  0.43072647728E+03  0.31760356977E+03  0.66910132120E+03  0.10100000352E+00 0.  1.
</event>
<event>
 5   0  0.2134992E-03  0.1195507E+04  0.7818609E-02  0.9116799E-01
        1   -1    0    0  501    0  0.00000000000E+00  0.00000000000E+00  0.10282442066E+04  0.10282442066E+04  0.50400001928E-02 0. -1.
       -1   -1    0    0    0  501  0.00000000000E+00  0.00000000000E+00 -0.34749434297E+03  0.34749434301E+03  0.50400001928E-02 0.  1.
    10030    2    1    2    0    0  0.00000000000E+00  0.00000000000E+00  0.68074986363E+03  0.13757385496E+04  0.11955066625E+04 0.  0.
        4    1    3    3  502    0  0.36411797921E+03  0.19855663611E+03 -0.15498690309E+03  0.44275184196E+03  0.12699999809E+01 0.  1.
       -4    1    3    3    0  502 -0.36411797921E+03 -0.19855663611E+03  0.83573676671E+03  0.93298670766E+03  0.12699999809E+01 0. -1.
</event>
<event>
 5   0  0.3751091E-03  0.1212418E+04  0.7818609E-02  0.9102056E-01
        2   -1    0    0  501    0  0.00000000000E+00  0.00000000000E+00  0.20393732126E+04  0.20393732126E+04  0.25500000920E-02 0. -1.
       -2   -1    0    0    0  501  0.00000000000E+00  0.00000000000E+00 -0.18019730714E+03  0.18019730716E+03  0.25500000920E-02 0.  1.
    10030    2    1    2    0    0  0.00000000000E+00  0.00000000000E+00  0.18591759054E+04  0.22195705197E+04  0.12124183456E+04 0.  0.
        5    1    3    3  502    0 -0.25194299946E+03 -0.36161528525E+03  0.16915331157E+04  0.17480123744E+04  0.46999998093E+01 0. -1.
       -5    1    3    3    0  502  0.25194299946E+03  0.36161528525E+03  0.16764278976E+03  0.47155814537E+03  0.46999998093E+01 0.  1.
</event>
<event>
 5   0  0.2134992E-03  0.1174795E+04  0.7818609E-02  0.9135209E-01
        1   -1    0    0  501    0  0.00000000000E+00  0.00000000000E+00  0.13866821757E+04  0.13866821758E+04  0.50400001928E-02 0.  1.
       -1   -1    0    0    0  501  0.00000000000E+00  0.00000000000E+00 -0.24882118647E+03  0.24882118652E+03  0.50400001928E-02 0. -1.
    10030    2    1    2    0    0  0.00000000000E+00  0.00000000000E+00  0.11378609893E+04  0.16355033623E+04  0.11747951383E+04 0.  0.
        4    1    3    3  502    0 -0.39416624733E+03  0.31432792314E+03  0.14927961664E+03  0.52578996819E+03  0.12699999809E+01 0. -1.
       -4    1    3    3    0  502  0.39416624733E+03 -0.31432792314E+03  0.98858137263E+03  0.11097133941E+04  0.12699999809E+01 0.  1.
</event>
<event>
 5   0  0.2078258E-03  0.1188391E+04  0.7818609E-02  0.9123079E-01
        1   -1    0    0  501    0  0.00000000000E+00  0.00000000000E+00  0.67990770841E+03  0.67990770843E+03  0.50400001928E-02 0.  1.
       -1   -1    0    0    0  501  0.00000000000E+00  0.00000000000E+00 -0.51928816787E+03  0.51928816790E+03  0.50400001928E-02 0. -1.
    10030    2    1    2    0    0  0.00000000000E+00  0.00000000000E+00  0.16061954054E+03  0.11991958763E+04  0.11883905557E+04 0.  0.
        3    1    3    3  502    0 -0.35652693837E+03 -0.28081617603E+03 -0.30671213988E+03  0.54776046722E+03  0.10100000352E+00 0. -1.
       -3    1    3    3    0  502  0.35652693837E+03  0.28081617603E+03  0.46733168042E+03  0.65143540910E+03  0.10100000352E+00 0.  1.
</event>
<event>
 5   0  0.3626049E-03  0.1199941E+04  0.7818609E-02  0.9112908E-01
       -2   -1    0    0    0  501  0.00000000000E+00  0.00000000000E+00  0.50134633306E+03  0.50134633307E+03  0.25500000920E-02 0. -1.
        2   -1    0    0  501    0  0.00000000000E+00  0.00000000000E+00 -0.71799635461E+03  0.71799635462E+03  0.25500000920E-02 0.  1.
    10030    2    1    2    0    0  0.00000000000E+00  0.00000000000E+00 -0.21665002155E+03  0.12193426877E+04  0.11999413978E+04 0.  0.
        1    1    3    3  502    0  0.57027779401E+03 -0.68079195074E+02 -0.28466260830E+03  0.64100260510E+03  0.50400001928E-02 0. -1.
       -1    1    3    3    0  502 -0.57027779401E+03  0.68079195074E+02  0.68012586751E+02  0.57834008259E+03  0.50400001928E-02 0.  1.
</event>
<event>
 5   0  0.3725376E-03  0.1010801E+04  0.7818609E-02  0.9296777E-01
        2   -1    0    0  501    0  0.00000000000E+00  0.00000000000E+00  0.21460751533E+04  0.21460751533E+04  0.25500000920E-02 0. -1.
       -2   -1    0    0    0  501  0.00000000000E+00  0.00000000000E+00 -0.11902188575E+03  0.11902188578E+03  0.25500000920E-02 0.  1.
    10030    2    1    2    0    0  0.00000000000E+00  0.00000000000E+00  0.20270532675E+04  0.22650970390E+04  0.10108014874E+04 0.  0.
        4    1    3    3  502    0 -0.13549710868E+03 -0.48683798760E+03  0.10305347265E+04  0.11477691964E+04  0.12699999809E+01 0. -1.
       -4    1    3    3    0  502  0.13549710868E+03  0.48683798760E+03  0.99651854096E+03  0.11173278427E+04  0.12699999809E+01 0.  1.
</event>
<event>
 5   0  0.3650180E-03  0.1219493E+04  0.7818609E-02  0.9095964E-01
       -2   -1    0    0    0  501  0.00000000000E+00  0.00000000000E+00  0.75620434917E+03  0.75620434918E+03  0.25500000920E-02 0. -1.
        2   -1    0    0  501    0  0.00000000000E+00  0.00000000000E+00 -0.49165375968E+03  0.49165375968E+03  0.25500000920E-02 0.  1.
    10030    2    1    2    0    0  0.00000000000E+00  0.00000000000E+00  0.26455058949E+03  0.12478581089E+04  0.12194928640E+04 0.  0.
        3    1    3    3  502    0 -0.23335193266E+03  0.44721750729E+03  0.48278336710E+03  0.69823807763E+03  0.10100000352E+00 0. -1.
       -3    1    3    3    0  502  0.23335193266E+03 -0.44721750729E+03 -0.21823277761E+03  0.54962003123E+03  0.10100000352E+00 0.  1.
</event>
<event>
 5   0  0.2096270E-03  0.1334685E+04  0.7818609E-02  0.9002503E-01
       -1   -1    0    0    0  501  0.00000000000E+00  0.00000000000E+00  0.76392861559E+03  0.76392861561E+03  0.50400001928E-02 0. -1.
        1   -1    0    0  501    0  0.00000000000E+00  0.00000000000E+00 -0.58296852084E+03  0.58296852086E+03  0.50400001928E-02 0.  1.
    10030    2    1    2    0    0  0.00000000000E+00  0.00000000000E+00  0.18096009475E+03  0.13468971365E+04  0.13346854837E+04 0.  0.
        2    1    3    3  502    0 -0.24823910504E+03  0.29878946452E+03  0.63807595458E+03  0.74701989344E+03  0.25500000920E-02 0. -1.
       -2    1    3    3    0  502  0.24823910504E+03 -0.29878946452E+03 -0.45711585984E+03  0.59987724302E+03  0.25500000920E-02 0.  1.
</event>
<event>
 5   0  0.2096270E-03  0.1192720E+04  0.7818609E-02  0.9119252E-01
       -1   -1    0    0    0  501  0.00000000000E+00  0.00000000000E+00  0.22053442870E+03  0.22053442876E+03  0.50400001928E-02 0.  1.
        1   -1    0    0  501    0  0.00000000000E+00  0.00000000000E+00 -0.16126524341E+04  0.16126524341E+04  0.50400001928E-02 0. -1.
    10030    2    1    2    0    0  0.00000000000E+00  0.00000000000E+00 -0.13921180054E+04  0.18331868628E+04  0.11927202242E+04 0.  0.
        2    1    3    3  502    0  0.31434731243E+03  0.42237735036E+03 -0.26562638440E+03  0.58972386337E+03  0.25500000920E-02 0.  1.
       -2    1    3    3    0  502 -0.31434731243E+03 -0.42237735036E+03 -0.11264916210E+04  0.12434629995E+04  0.25500000920E-02 0. -1.
</event>
<event>
 5   0  0.3751091E-03  0.1144973E+04  0.7818609E-02  0.9162434E-01
        2   -1    0    0  501    0  0.00000000000E+00  0.00000000000E+00  0.19753157471E+04  0.19753157471E+04  0.25500000920E-02 0.  1.
       -2   -1    0    0    0  501  0.00000000000E+00  0.00000000000E+00 -0.16591808478E+03  0.16591808480E+03  0.25500000920E-02 0. -1.
    10030    2    1    2    0    0  0.00000000000E+00  0.00000000000E+00  0.18093976623E+04  0.21412338319E+04  0.11449726732E+04 0.  0.
        5    1    3    3  502    0  0.51969018562E+03 -0.15995769204E+03  0.56987898085E+03  0.78768553058E+03  0.46999998093E+01 0. -1.
       -5    1    3    3    0  502 -0.51969018562E+03  0.15995769204E+03  0.12395186815E+04  0.13535483013E+04  0.46999998093E+01 0.  1.
</event>
<event>
 5   0  0.2047109E-03  0.1124490E+04  0.7818609E-02  0.9181646E-01
        1   -1    0    0  501    0  0.00000000000E+00  0.00000000000E+00  0.13173476152E+03  0.13173476162E+03  0.50400001928E-02 0. -1.
       -1   -1    0    0    0  501  0.00000000000E+00  0.00000000000E+00 -0.23996641027E+04  0.23996641027E+04  0.50400001928E-02 0.  1.
    10030    2    1    2    0    0  0.00000000000E+00  0.00000000000E+00 -0.22679293412E+04  0.25313988643E+04  0.11244895347E+04 0.  0.
        1    1    3    3  502    0 -0.27192577116E+03  0.24637648798E+03 -0.17497797120E+03  0.40652464782E+03  0.50400001928E-02 0. -1.
       -1    1    3    3    0  502  0.27192577116E+03 -0.24637648798E+03 -0.20929513700E+04  0.21248742165E+04  0.50400001928E-02 0.  1.
</event>
<event>
 5   0  0.3650180E-03  0.1205226E+04  0.7818609E-02  0.9108295E-01
        2   -1    0    0  501    0  0.00000000000E+00  0.00000000000E+00  0.14495112383E+04  0.14495112383E+04  0.25500000920E-02 0.  1.
       -2   -1    0    0    0  501  0.00000000000E+00  0.00000000000E+00 -0.25052729839E+03  0.25052729841E+03  0.25500000920E-02 0. -1.
    10030    2    1    2    0    0  0.00000000000E+00  0.00000000000E+00  0.11989839399E+04  0.17000385367E+04  0.12052255134E+04 0.  0.
        3    1    3    3  502    0 -0.53865639763E+02 -0.59808449139E+03  0.52846435140E+03  0.79992571335E+03  0.10100000352E+00 0. -1.
       -3    1    3    3    0  502  0.53865639763E+02  0.59808449139E+03  0.67051958849E+03  0.90011282334E+03  0.10100000352E+00 0.  1.
</event>
<event>
 5   0  0.2096270E-03  0.1322965E+04  0.7818609E-02  0.9011549E-01
       -1   -1    0    0    0  501  0.00000000000E+00  0.00000000000E+00  0.75721977067E+03  0.75721977069E+03  0.50400001928E-02 0.  1.
        1   -1    0    0  501    0  0.00000000000E+00  0.00000000000E+00 -0.57784953968E+03  0.57784953970E+03  0.50400001928E-02 0. -1.
    10030    2    1    2    0    0  0.00000000000E+00  0.00000000000E+00  0.17937023100E+03  0.13350693104E+04  0.13229649972E+04 0.  0.
        2    1    3    3  502    0 -0.15665739347E+03 -0.60693683848E+03 -0.12354227728E+03  0.63888696897E+03  0.25500000920E-02 0.  1.
       -2    1    3    3    0  502  0.15665739347E+03  0.60693683848E+03  0.30291250828E+03  0.69618234142E+03  0.25500000920E-02 0. -1.
</event>
<event>
 5   0  0.2134992E-03  0.1168811E+04  0.7818609E-02  0.9140603E-01
        1   -1    0    0  501    0  0.00000000000E+00  0.00000000000E+00  0.55403378759E+03  0.55403378761E+03  0.50400001928E-02 0.  1.
       -1   -1    0    0    0  501  0.00000000000E+00  0.00000000000E+00 -0.61644256323E+03  0.61644256325E+03  0.50400001928E-02 0. -1.
    10030    2    1    2    0    0  0.00000000000E+00  0.00000000000E+00 -0.62408775643E+02  0.11704763509E+04  0.11688113760E+04 0.  0.
        4    1    3    3  502    0 -0.74452911148E+02 -0.63700396938E+02  0.54574773777E+03  0.55447559254E+03  0.12699999809E+01 0.  1.
       -4    1    3    3    0  502  0.74452911148E+02  0.63700396938E+02 -0.60815651341E+03  0.61600075832E+03  0.12699999809E+01 0. -1.
</event>
<event>
 5   0  0.1397500E-03  0.1196259E+04  0.7818609E-02  0.9116137E-01
       -3   -1    0    0    0  501  0.00000000000E+00  0.00000000000E+00  0.95529429438E+03  0.95529429972E+03  0.10100000352E+00 0. -1.
        3   -1    0    0  501    0  0.00000000000E+00  0.00000000000E+00 -0.37450149159E+03  0.37450150521E+03  0.10100000352E+00 0.  1.
    10030    2    1    2    0    0  0.00000000000E+00  0.00000000000E+00  0.58079280279E+03  0.13297958049E+04  0.11962594213E+04 0.  0.
        2    1    3    3  502    0  0.47515779824E+03  0.24196878530E+03 -0.10843222324E+02  0.53333048082E+03  0.25500000920E-02 0.  1.
       -2    1    3    3    0  502 -0.47515779824E+03 -0.24196878530E+03  0.59163602511E+03  0.79646532411E+03  0.25500000920E-02 0. -1.
</event>
<event>
 5   0  0.3725376E-03  0.1267169E+04  0.7818609E-02  0.9056014E-01
        2   -1    0    0  501    0  0.00000000000E+00  0.00000000000E+00  0.13462615419E+04  0.13462615419E+04  0.25500000920E-02 0. -1.
       -2   -1    0    0    0  501  0.00000000000E+00  0.00000000000E+00 -0.29818060784E+03  0.29818060785E+03  0.25500000920E-02 0.  1.
    10030    2    1    2    0    0  0.00000000000E+00  0.00000000000E+00  0.10480809341E+04  0.16444421498E+04  0.12671686311E+04 0.  0.
        4    1    3    3  502    0  0.47130252636E+03 -0.32384808216E+03  0.87807054958E+03  0.10478612287E+04  0.12699999809E+01 0. -1.
       -4    1    3    3    0  502 -0.47130252636E+03  0.32384808216E+03  0.17001038452E+03  0.59658092110E+03  0.12699999809E+01 0.  1.
</event>
<event>
 5   0  0.2025294E-03  0.1205935E+04  0.7818609E-02  0.9107677E-01
        1   -1    0    0  501    0  0.00000000000E+00  0.00000000000E+00  0.88066272660E+03  0.88066272661E+03  0.50400001928E-02 0.  1.
       -1   -1    0    0    0  501  0.00000000000E+00  0.00000000000E+00 -0.41283666566E+03  0.41283666569E+03  0.50400001928E-02 0. -1.
    10030    2    1    2    0    0  0.00000000000E+00  0.00000000000E+00  0.46782606093E+03  0.12934993923E+04  0.12059350955E+04 0.  0.
        5    1    3    3  502    0 -0.29894230216E+03 -0.61680495330E+02  0.79164687419E+03  0.84846794102E+03  0.46999998093E+01 0.  1.
       -5    1    3    3    0  502  0.29894230216E+03  0.61680495330E+02 -0.32382081326E+03  0.44503145128E+03  0.46999998093E+01 0. -1.
</event>
<event>
 5   0  0.3706035E-03  0.1192164E+04  0.7818609E-02  0.9119743E-01
        2   -1    0    0  501    0  0.00000000000E+00  0.00000000000E+00  0.15915272923E+04  0.15915272924E+04  0.25500000920E-02 0.  1.
       -2   -1    0    0    0  501  0.00000000000E+00  0.00000000000E+00 -0.22325330876E+03  0.22325330877E+03  0.25500000920E-02 0. -1.
    10030    2    1    2    0    0  0.00000000000E+00  0.00000000000E+00  0.13682739836E+04  0.18147806011E+04  0.11921639720E+04 0.  0.
        2    1    3    3  502    0  0.27030463223E+03  0.52754058811E+03  0.58846376879E+03  0.83525641183E+03  0.25500000920E-02 0.  1.
       -2    1    3    3    0  502 -0.27030463223E+03 -0.52754058811E+03  0.77981021480E+03  0.97952418930E+03  0.25500000920E-02 0. -1.
</event>
<event>
 5   0  0.2096270E-03  0.1227677E+04  0.7818609E-02  0.9088970E-01
        1   -1    0    0  501    0  0.00000000000E+00  0.00000000000E+00  0.12021449281E+04  0.12021449281E+04  0.50400001928E-02 0. -1.
       -1   -1    0    0    0  501  0.00000000000E+00  0.00000000000E+00 -0.31343790429E+03  0.31343790433E+03  0.50400001928E-02 0.  1.
    10030    2    1    2    0    0  0.00000000000E+00  0.00000000000E+00  0.88870702383E+03  0.15155828325E+04  0.12276771350E+04 0.  0.
        2    1    3    3  502    0 -0.19747219316E+03  0.57586438628E+03  0.54142363885E+03  0.81471136924E+03  0.25500000920E-02 0. -1.
       -2    1    3    3    0  502  0.19747219316E+03 -0.57586438628E+03  0.34728338498E+03  0.70087146321E+03  0.25500000920E-02 0.  1.
</event>
<event>
 5   0  0.2047109E-03  0.1166027E+04  0.7818609E-02  0.9143124E-01
        1   -1    0    0  501    0  0.00000000000E+00  0.00000000000E+00  0.36891751295E+03  0.36891751298E+03  0.50400001928E-02 0.  1.
       -1   -1    0    0    0  501  0.00000000000E+00  0.00000000000E+00 -0.92135763161E+03  0.92135763162E+03  0.50400001928E-02 0. -1.
    10030    2    1    2    0    0  0.00000000000E+00  0.00000000000E+00 -0.55244011866E+03  0.12902751446E+04  0.11660273856E+04 0.  0.
        1    1    3    3  502    0  0.17857722560E+03 -0.48218877153E+03  0.27849756736E+02  0.51494800307E+03  0.50400001928E-02 0.  1.
       -1    1    3    3    0  502 -0.17857722560E+03  0.48218877153E+03 -0.58028987539E+03  0.77532714153E+03  0.50400001928E-02 0. -1.
</event>
<event>
 5   0  0.3706035E-03  0.1054395E+04  0.7818609E-02  0.9250818E-01
       -2   -1    0    0    0  501  0.00000000000E+00  0.00000000000E+00  0.63900521005E+03  0.63900521006E+03  0.25500000920E-02 0.  1.
        2   -1    0    0  501    0  0.00000000000E+00  0.00000000000E+00 -0.43495322980E+03  0.43495322980E+03  0.25500000920E-02 0. -1.
    10030    2    1    2    0    0  0.00000000000E+00  0.00000000000E+00  0.20405198026E+03  0.10739584399E+04  0.10543953338E+04 0.  0.
        2    1    3    3  502    0  0.45135229326E+03 -0.19904355815E+03 -0.87436388936E+02  0.50098138966E+03  0.25500000920E-02 0. -1.
       -2    1    3    3    0  502 -0.45135229326E+03  0.19904355815E+03  0.29148836919E+03  0.57297705020E+03  0.25500000920E-02 0.  1.
</event>
<event>
 5   0  0.3626049E-03  0.1200096E+04  0.7818609E-02  0.9112772E-01
        2   -1    0    0  501    0  0.00000000000E+00  0.00000000000E+00  0.74099309244E+03  0.74099309245E+03  0.25500000920E-02 0.  1.
       -2   -1    0    0    0  501  0.00000000000E+00  0.00000000000E+00 -0.48591248128E+03  0.48591248129E+03  0.25500000920E-02 0. -1.
    10030    2    1    2    0    0  0.00000000000E+00  0.00000000000E+00  0.25508061116E+03  0.12269055737E+04  0.12000963164E+04 0.  0.
        1    1    3    3  502    0  0.35170976334E+03 -0.19974576865E+03 -0.32559899860E+03  0.51924256147E+03  0.50400001928E-02 0. -1.
       -1    1    3    3    0  502 -0.35170976334E+03  0.19974576865E+03  0.58067960976E+03  0.70766301227E+03  0.50400001928E-02 0.  1.
</event>
<event>
 5   0  0.2096270E-03  0.9725056E+03  0.7818609E-02  0.9339225E-01
        1   -1    0    0  501    0  0.00000000000E+00  0.00000000000E+00  0.65394687441E+03  0.65394687443E+03  0.50400001928E-02 0.  1.
       -1   -1    0    0    0  501  0.00000000000E+00  0.00000000000E+00 -0.36156111932E+03  0.36156111935E+03  0.50400001928E-02 0. -1.
    10030    2    1    2    0    0  0.00000000000E+00  0.00000000000E+00  0.29238575510E+03  0.10155079938E+04  0.97250555559E+03 0.  0.
        2    1    3    3  502    0 -0.28239251366E+03 -0.33375189205E+03 -0.76070888355E+02  0.44375966162E+03  0.25500000920E-02 0. -1.
       -2    1    3    3    0  502  0.28239251366E+03  0.33375189205E+03  0.36845664345E+03  0.57174833216E+03  0.25500000920E-02 0.  1.
</event>
<event>
 5   0  0.2047109E-03  0.1201243E+04  0.7818609E-02  0.9111770E-01
        1   -1    0    0  501    0  0.00000000000E+00  0.00000000000E+00  0.28581761880E+03  0.28581761884E+03  0.50400001928E-02 0. -1.
       -1   -1    0    0    0  501  0.00000000000E+00  0.00000000000E+00 -0.12621542738E+04  0.12621542738E+04  0.50400001928E-02 0.  1.
    10030    2    1    2    0    0  0.00000000000E+00  0.00000000000E+00 -0.97633665499E+03  0.15479718926E+04  0.12012425719E+04 0.  0.
        1    1    3    3  502    0 -0.76211393826E+02  0.17027572544E+02 -0.12555845921E+04  0.12580106449E+04  0.50400001928E-02 0.  1.
       -1    1    3    3    0  502  0.76211393826E+02 -0.17027572544E+02  0.27924793711E+03  0.28996124772E+03  0.50400001928E-02 0. -1.
</event>
<event>
 5   0  0.2134992E-03  0.1199102E+04  0.7818609E-02  0.9113643E-01
       -1   -1    0    0    0  501  0.00000000000E+00  0.00000000000E+00  0.40553585916E+03  0.40553585919E+03  0.50400001928E-02 0. -1.
        1   -1    0    0  501    0  0.00000000000E+00  0.00000000000E+00 -0.88638584257E+03  0.88638584259E+03  0.50400001928E-02 0.  1.
    10030    2    1    2    0    0  0.00000000000E+00  0.00000000000E+00 -0.48084998342E+03  0.12919217018E+04  0.11991017375E+04 0.  0.
        4    1    3    3  502    0  0.54125959847E+03  0.16147400810E+03 -0.23804840949E+02  0.56533537973E+03  0.12699999809E+01 0. -1.
       -4    1    3    3    0  502 -0.54125959847E+03 -0.16147400810E+03 -0.45704514247E+03  0.72658632204E+03  0.12699999809E+01 0.  1.
</event>
<event>
 5   0  0.3725376E-03  0.1214676E+04  0.7818609E-02  0.9100107E-01
        2   -1    0    0  501    0  0.00000000000E+00  0.00000000000E+00  0.95387245591E+03  0.95387245592E+03  0.25500000920E-02 0.  1.
       -2   -1    0    0    0  501  0.00000000000E+00  0.00000000000E+00 -0.38669684508E+03  0.38669684509E+03  0.25500000920E-02 0. -1.
    10030    2    1    2    0    0  0.00000000000E+00  0.00000000000E+00  0.56717561083E+03  0.13405693010E+04  0.12146760380E+04 0.  0.
        4    1    3    3  502    0 -0.33140355768E+02  0.36562517775E+03 -0.25037243705E+03  0.44437374351E+03  0.12699999809E+01 0. -1.
       -4    1    3    3    0  502  0.33140355768E+02 -0.36562517775E+03  0.81754804788E+03  0.89619555750E+03  0.12699999809E+01 0.  1.
</event>
<event>
 5   0  0.2078258E-03  0.1205263E+04  0.7818609E-02  0.9108262E-01
       -1   -1    0    0    0  501  0.00000000000E+00  0.00000000000E+00  0.61644766755E+03  0.61644766757E+03  0.50400001928E-02 0. -1.
        1   -1    0    0  501    0  0.00000000000E+00  0.00000000000E+00 -0.58912494668E+03  0.58912494670E+03  0.50400001928E-02 0.  1.
    10030    2    1    2    0    0  0.00000000000E+00  0.00000000000E+00  0.27322720877E+02  0.12055726143E+04  0.12052629577E+04 0.  0.
        3    1    3    3  502    0  0.50804402711E+03 -0.32130483431E+02  0.33627110311E+03  0.61009783350E+03  0.10100000352E+00 0. -1.
       -3    1    3    3    0  502 -0.50804402711E+03  0.32130483431E+02 -0.30894838224E+03  0.59547478077E+03  0.10100000352E+00 0.  1.
</event>
<event>
 5   0  0.2047109E-03  0.1207801E+04  0.7818609E-02  0.9106055E-01
       -1   -1    0    0    0  501  0.00000000000E+00  0.00000000000E+00  0.36559408943E+03  0.36559408947E+03  0.50400001928E-02 0. -1.
        1   -1    0    0  501    0  0.00000000000E+00  0.00000000000E+00 -0.99754369078E+03  0.99754369079E+03  0.50400001928E-02 0.  1.
    10030    2    1    2    0    0  0.00000000000E+00  0.00000000000E+00 -0.63194960135E+03  0.13631377803E+04  0.12078014362E+04 0.  0.
        1    1    3    3  502    0  0.59614871278E+03  0.57288976241E+01 -0.20731138289E+03  0.63119261523E+03  0.50400001928E-02 0.  1.
       -1    1    3    3    0  502 -0.59614871278E+03 -0.57288976241E+01 -0.42463821846E+03  0.73194516503E+03  0.50400001928E-02 0. -1.
</event>
<event>
 5   0  0.2047109E-03  0.1278753E+04  0.7818609E-02  0.9046586E-01
       -1   -1    0    0    0  501  0.00000000000E+00  0.00000000000E+00  0.46080373857E+03  0.46080373860E+03  0.50400001928E-02 0.  1.
        1   -1    0    0  501    0  0.00000000000E+00  0.00000000000E+00 -0.88715077556E+03  0.88715077557E+03  0.50400001928E-02 0. -1.
    10030    2    1    2    0    0  0.00000000000E+00  0.00000000000E+00 -0.42634703699E+03  0.13479545142E+04  0.12787531335E+04 0.  0.
        1    1    3    3  502    0 -0.21869310397E+03 -0.39206507771E+03 -0.69306937678E+03  0.82576440946E+03  0.50400001928E-02 0. -1.
       -1    1    3    3    0  502  0.21869310397E+03  0.39206507771E+03  0.26672233980E+03  0.52219010471E+03  0.50400001928E-02 0.  1.
</event>
<event>
 5   0  0.3725376E-03  0.1186809E+04  0.7818609E-02  0.9124482E-01
       -2   -1    0    0    0  501  0.00000000000E+00  0.00000000000E+00  0.26166386596E+03  0.26166386598E+03  0.25500000920E-02 0.  1.
        2   -1    0    0  501    0  0.00000000000E+00  0.00000000000E+00 -0.13457300962E+04  0.13457300962E+04  0.25500000920E-02 0. -1.
    10030    2    1    2    0    0  0.00000000000E+00  0.00000000000E+00 -0.10840662302E+04  0.16073939622E+04  0.11868090656E+04 0.  0.
        4    1    3    3  502    0 -0.41571003586E+03  0.11793626886E+03  0.87921643981E+01  0.43220679366E+03  0.12699999809E+01 0.  1.
       -4    1    3    3    0  502  0.41571003586E+03 -0.11793626886E+03 -0.10928583946E+04  0.11751871685E+04  0.12699999809E+01 0. -1.
</event>
<event>
 5   0  0.3650180E-03  0.1276737E+04  0.7818609E-02  0.9048219E-01
       -2   -1    0    0    0  501  0.00000000000E+00  0.00000000000E+00  0.16186855903E+03  0.16186855905E+03  0.25500000920E-02 0. -1.
        2   -1    0    0  501    0  0.00000000000E+00  0.00000000000E+00 -0.25175648813E+04  0.25175648813E+04  0.25500000920E-02 0.  1.
    10030    2    1    2    0    0  0.00000000000E+00  0.00000000000E+00 -0.23556963222E+04  0.26794334403E+04  0.12767374039E+04 0.  0.
        3    1    3    3  502    0 -0.12176888724E+03  0.54695481518E+03 -0.53603188881E+03  0.77544659892E+03  0.10100000352E+00 0. -1.
       -3    1    3    3    0  502  0.12176888724E+03 -0.54695481518E+03 -0.18196644334E+04  0.19039868414E+04  0.10100000352E+00 0.  1.
</event>
<event>
 5   0  0.3751091E-03  0.1178751E+04  0.7818609E-02  0.9131662E-01
       -2   -1    0    0    0  501  0.00000000000E+00  0.00000000000E+00  0.20363745836E+03  0.20363745838E+03  0.25500000920E-02 0. -1.
        2   -1    0    0  501    0  0.00000000000E+00  0.00000000000E+00 -0.17057939491E+04  0.17057939491E+04  0.25500000920E-02 0.  1.
    10030    2    1    2    0    0  0.00000000000E+00  0.00000000000E+00 -0.15021564908E+04  0.19094314075E+04  0.11787511091E+04 0.  0.
        5    1    3    3  502    0  0.40205569865E+03 -0.71868737342E+02 -0.62816396995E+02  0.41325765565E+03  0.46999998093E+01 0. -1.
       -5    1    3    3    0  502 -0.40205569865E+03  0.71868737342E+02 -0.14393400938E+04  0.14961737519E+04  0.46999998093E+01 0.  1.
</event>
<event>
 5   0  0.3650180E-03  0.1205114E+04  0.7818609E-02  0.9108392E-01
       -2   -1    0    0    0  501  0.00000000000E+00  0.00000000000E+00  0.30523830555E+03  0.30523830556E+03  0.25500000920E-02 0. -1.
        2   -1    0    0  501    0  0.00000000000E+00  0.00000000000E+00 -0.11894795547E+04  0.11894795547E+04  0.25500000920E-02 0.  1.
    10030    2    1    2    0    0  0.00000000000E+00  0.00000000000E+00 -0.88424124914E+03  0.14947178602E+04  0.12051136440E+04 0.  0.
        3    1    3    3  502    0  0.44664960674E+03  0.24043985045E+02  0.58635182094E+02  0.45112313086E+03  0.10100000352E+00 0. -1.
       -3    1    3    3    0  502 -0.44664960674E+03 -0.24043985045E+02 -0.94287643124E+03  0.10435947294E+04  0.10100000352E+00 0.  1.
</event>
<event>
 5   0  0.2025294E-03  0.1211318E+04  0.7818609E-02  0.9103007E-01
       -1   -1    0    0    0  501  0.00000000000E+00  0.00000000000E+00  0.78588624370E+03  0.78588624371E+03  0.50400001928E-02 0.  1.
        1   -1    0    0  501    0  0.00000000000E+00  0.00000000000E+00 -0.46676358238E+03  0.46676358241E+03  0.50400001928E-02 0. -1.
    10030    2    1    2    0    0  0.00000000000E+00  0.00000000000E+00  0.31912266132E+03  0.12526498261E+04  0.12113184197E+04 0.  0.
        5    1    3    3  502    0 -0.18826610985E+02 -0.47531106570E+03  0.54722009546E+03  0.72508411466E+03  0.46999998093E+01 0.  1.
       -5    1    3    3    0  502  0.18826610985E+02  0.47531106570E+03 -0.22809743414E+03  0.52756571147E+03  0.46999998093E+01 0. -1.
</event>
<event>
 5   0  0.3751091E-03  0.1208094E+04  0.7818609E-02  0.9105801E-01
       -2   -1    0    0    0  501  0.00000000000E+00  0.00000000000E+00  0.18372180999E+03  0.18372181001E+03  0.25500000920E-02 0.  1.
        2   -1    0    0  501    0  0.00000000000E+00  0.00000000000E+00 -0.19860080238E+04  0.19860080238E+04  0.25500000920E-02 0. -1.
    10030    2    1    2    0    0  0.00000000000E+00  0.00000000000E+00 -0.18022862138E+04  0.21697298338E+04  0.12080943487E+04 0.  0.
        5    1    3    3  502    0 -0.38398479476E+03  0.46563306318E+03 -0.94485726430E+03  0.11211760843E+04  0.46999998093E+01 0.  1.
       -5    1    3    3    0  502  0.38398479476E+03 -0.46563306318E+03 -0.85742894949E+03  0.10485537495E+04  0.46999998093E+01 0. -1.
</event>
<event>
 5   0  0.3706035E-03  0.1287280E+04  0.7818609E-02  0.9039713E-01
       -2   -1    0    0    0  501  0.00000000000E+00  0.00000000000E+00  0.29510910183E+03  0.29510910184E+03  0.25500000920E-02 0.  1.
        2   -1    0    0  501    0  0.00000000000E+00  0.00000000000E+00 -0.14037947062E+04  0.14037947062E+04  0.25500000920E-02 0. -1.
    10030    2    1    2    0    0  0.00000000000E+00  0.00000000000E+00 -0.11086856043E+04  0.16989038080E+04  0.12872802258E+04 0.  0.
        2    1    3    3  502    0  0.18673582914E+03 -0.48641114874E+03 -0.10530776436E+04  0.11749206778E+04  0.25500000920E-02 0. -1.
       -2    1    3    3    0  502 -0.18673582914E+03  0.48641114874E+03 -0.55607960727E+02  0.52398313027E+03  0.25500000920E-02 0.  1.
</event>
<event>
 5   0  0.3751091E-03  0.1201987E+04  0.7818609E-02  0.9111119E-01
       -2   -1    0    0    0  501  0.00000000000E+00  0.00000000000E+00  0.78021052602E+03  0.78021052603E+03  0.25500000920E-02 0.  1.
        2   -1    0    0  501    0  0.00000000000E+00  0.00000000000E+00 -0.46294307411E+03  0.46294307412E+03  0.25500000920E-02 0. -1.
    10030    2    1    2    0    0  0.00000000000E+00  0.00000000000E+00  0.31726745191E+03  0.12431536001E+04  0.12019867876E+04 0.  0.
        5    1    3    3  502    0  0.24830629104E+03 -0.10358129346E+03 -0.39715926894E+03  0.47973187660E+03  0.46999998093E+01 0. -1.
       -5    1    3    3    0  502 -0.24830629104E+03  0.10358129346E+03  0.71442672085E+03  0.76342172355E+03  0.46999998093E+01 0.  1.
</event>
<event>
 5   0  0.2047109E-03  0.1249765E+04  0.7818609E-02  0.9070379E-01
        1   -1    0    0  501    0  0.00000000000E+00  0.00000000000E+00  0.74024276384E+03  0.74024276386E+03  0.50400001928E-02 0.  1.
       -1   -1    0    0    0  501  0.00000000000E+00  0.00000000000E+00 -0.52750028607E+03  0.52750028610E+03  0.50400001928E-02 0. -1.
    10030    2    1    2    0    0  0.00000000000E+00  0.00000000000E+00  0.21274247777E+03  0.12677430500E+04  0.12497652095E+04 0.  0.
        1    1    3    3  502    0  0.45300321565E+03 -0.43014641102E+03  0.90642664652E+02  0.63123208172E+03  0.50400001928E-02 0. -1.
       -1    1    3    3    0  502 -0.45300321565E+03  0.43014641102E+03  0.12209981312E+03  0.63651096824E+03  0.50400001928E-02 0.  1.
</event>
<event>
 5   0  0.3706035E-03  0.1190368E+04  0.7818609E-02  0.9121330E-01
        2   -1    0    0  501    0  0.00000000000E+00  0.00000000000E+00  0.13367619066E+04  0.13367619066E+04  0.25500000920E-02 0. -1.
       -2   -1    0    0    0  501  0.00000000000E+00  0.00000000000E+00 -0.26500139273E+03  0.26500139275E+03  0.25500000920E-02 0.  1.
    10030    2    1    2    0    0  0.00000000000E+00  0.00000000000E+00  0.10717605139E+04  0.16017632994E+04  0.11903676189E+04 0.  0.
        2    1    3    3  502    0 -0.64626719804E+02 -0.47940851003E+03  0.10024666057E+04  0.11130806026E+04  0.25500000920E-02 0. -1.
       -2    1    3    3    0  502  0.64626719804E+02  0.47940851003E+03  0.69293908223E+02  0.48868269677E+03  0.25500000920E-02 0.  1.
</event>
<event>
 5   0  0.2025294E-03  0.1120100E+04  0.7818609E-02  0.9185819E-01
        1   -1    0    0  501    0  0.00000000000E+00  0.00000000000E+00  0.29715535350E+03  0.29715535355E+03  0.50400001928E-02 0.  1.
       -1   -1    0    0    0  501  0.00000000000E+00  0.00000000000E+00 -0.10555294874E+04  0.10555294874E+04  0.50400001928E-02 0. -1.
    10030    2    1    2    0    0  0.00000000000E+00  0.00000000000E+00 -0.75837413388E+03  0.13526848409E+04  0.11201004205E+04 0.  0.
        5    1    3    3  502    0 -0.11962399399E+03 -0.29176038360E+03  0.17973277094E+03  0.36298757599E+03  0.46999998093E+01 0.  1.
       -5    1    3    3    0  502  0.11962399399E+03  0.29176038360E+03 -0.93810690483E+03  0.98969726495E+03  0.46999998093E+01 0. -1.
</event>
<event>
 5   0  0.2078258E-03  0.1209900E+04  0.7818609E-02  0.9104235E-01
        1   -1    0    0  501    0  0.00000000000E+00  0.00000000000E+00  0.36987119850E+03  0.36987119854E+03  0.50400001928E-02 0.  1.
       -1   -1    0    0    0  501  0.00000000000E+00  0.00000000000E+00 -0.98943760450E+03  0.98943760452E+03  0.50400001928E-02 0. -1.
    10030    2    1    2    0    0  0.00000000000E+00  0.00000000000E+00 -0.61956640600E+03  0.13593088031E+04  0.12098999507E+04 0.  0.
        3    1    3    3  502    0  0.54976931512E+03 -0.23336668376E+03 -0.41788448874E+03  0.72892644695E+03  0.10100000352E+00 0. -1.
       -3    1    3    3    0  502 -0.54976931512E+03  0.23336668376E+03 -0.20168191727E+03  0.63038235610E+03  0.10100000352E+00 0.  1.
</event>
<event>
 5   0  0.3725376E-03  0.1236275E+04  0.7818609E-02  0.9081685E-01
       -2   -1    0    0    0  501  0.00000000000E+00  0.00000000000E+00  0.22536985431E+03  0.22536985432E+03  0.25500000920E-02 0.  1.
        2   -1    0    0  501    0  0.00000000000E+00  0.00000000000E+00 -0.16954074827E+04  0.16954074827E+04  0.25500000920E-02 0. -1.
    10030    2    1    2    0    0  0.00000000000E+00  0.00000000000E+00 -0.14700376284E+04  0.19207773370E+04  0.12362746254E+04 0.  0.
        4    1    3    3  502    0 -0.16318191544E+03 -0.22011939424E+03 -0.15958920476E+04  0.16192448628E+04  0.12699999809E+01 0. -1.
       -4    1    3    3    0  502  0.16318191544E+03  0.22011939424E+03  0.12585441923E+03  0.30153247418E+03  0.12699999809E+01 0.  1.
</event>
<event>
 5   0  0.2025294E-03  0.1239936E+04  0.7818609E-02  0.9078602E-01
        1   -1    0    0  501    0  0.00000000000E+00  0.00000000000E+00  0.84949561551E+03  0.84949561553E+03  0.50400001928E-02 0. -1.
       -1   -1    0    0    0  501  0.00000000000E+00  0.00000000000E+00 -0.45245686757E+03  0.45245686760E+03  0.50400001928E-02 0.  1.
    10030    2    1    2    0    0  0.00000000000E+00  0.00000000000E+00  0.39703874794E+03  0.13019524831E+04  0.12399356842E+04 0.  0.
        5    1    3    3  502    0 -0.19706358181E+03 -0.47997110924E+03  0.55480102897E+03  0.75962661402E+03  0.46999998093E+01 0. -1.
       -5    1    3    3    0  502  0.19706358181E+03  0.47997110924E+03 -0.15776228103E+03  0.54232586910E+03  0.46999998093E+01 0.  1.
</event>
<event>
 5   0  0.2047109E-03  0.1192822E+04  0.7818609E-02  0.9119163E-01
       -1   -1    0    0    0  501  0.00000000000E+00  0.00000000000E+00  0.12131398143E+04  0.12131398143E+04  0.50400001928E-02 0.  1.
        1   -1    0    0  501    0  0.00000000000E+00  0.00000000000E+00 -0.29321122969E+03  0.29321122973E+03  0.50400001928E-02 0. -1.
    10030    2    1    2    0    0  0.00000000000E+00  0.00000000000E+00  0.91992858464E+03  0.15063510441E+04  0.11928222278E+04 0.  0.
        1    1    3    3  502    0 -0.26266795665E+03 -0.47937037881E+03  0.15868665535E+03  0.56918526874E+03  0.50400001928E-02 0. -1.
       -1    1    3    3    0  502  0.26266795665E+03  0.47937037881E+03  0.76124192929E+03  0.93716577534E+03  0.50400001928E-02 0.  1.
</event>
<event>
 5   0  0.2078258E-03  0.1204325E+04  0.7818609E-02  0.9109079E-01
       -1   -1    0    0    0  501  0.00000000000E+00  0.00000000000E+00  0.60093337856E+03  0.60093337858E+03  0.50400001928E-02 0. -1.
        1   -1    0    0  501    0  0.00000000000E+00  0.00000000000E+00 -0.60339433928E+03  0.60339433930E+03  0.50400001928E-02 0.  1.
    10030    2    1    2    0    0  0.00000000000E+00  0.00000000000E+00 -0.24609607197E+01  0.12043277179E+04  0.12043252035E+04 0.  0.
        3    1    3    3  502    0  0.54092500918E+03  0.23447969753E+03  0.12132259933E+03  0.60191343017E+03  0.10100000352E+00 0. -1.
       -3    1    3    3    0  502 -0.54092500918E+03 -0.23447969753E+03 -0.12378356005E+03  0.60241428772E+03  0.10100000352E+00 0.  1.
</event>
<event>
 5   0  0.3751091E-03  0.1197071E+04  0.7818609E-02  0.9115424E-01
       -2   -1    0    0    0  501  0.00000000000E+00  0.00000000000E+00  0.64178694959E+03  0.64178694960E+03  0.25500000920E-02 0. -1.
        2   -1    0    0  501    0  0.00000000000E+00  0.00000000000E+00 -0.55819932416E+03  0.55819932416E+03  0.25500000920E-02 0.  1.
    10030    2    1    2    0    0  0.00000000000E+00  0.00000000000E+00  0.83587625438E+02  0.11999862738E+04  0.11970714958E+04 0.  0.
        5    1    3    3  502    0 -0.27870217046E+03  0.44514116725E+03 -0.24595459162E+03  0.57994940274E+03  0.46999998093E+01 0. -1.
       -5    1    3    3    0  502  0.27870217046E+03 -0.44514116725E+03  0.32954221706E+03  0.62003687102E+03  0.46999998093E+01 0.  1.
</event>
<event>
 5   0  0.2134992E-03  0.1221356E+04  0.7818609E-02  0.9094366E-01
       -1   -1    0    0    0  501  0.00000000000E+00  0.00000000000E+00  0.14231885664E+03  0.14231885673E+03  0.50400001928E-02 0. -1.
        1   -1    0    0  501    0  0.00000000000E+00  0.00000000000E+00 -0.26203687719E+04  0.26203687719E+04  0.50400001928E-02 0.  1.
    10030    2    1    2    0    0  0.00000000000E+00  0.00000000000E+00 -0.24780499153E+04  0.27626876286E+04  0.12213564389E+04 0.  0.
        4    1    3    3  502    0 -0.59899684142E+03  0.11728954660E+03 -0.11953844473E+04  0.13421995543E+04  0.12699999809E+01 0.  1.
       -4    1    3    3    0  502  0.59899684142E+03 -0.11728954660E+03 -0.12826654680E+04  0.14204880744E+04  0.12699999809E+01 0. -1.
</event>
<event>
 5   0  0.2025294E-03  0.1204927E+04  0.7818609E-02  0.9108555E-01
       -1   -1    0    0    0  501  0.00000000000E+00  0.00000000000E+00  0.31650194941E+03  0.31650194945E+03  0.50400001928E-02 0. -1.
        1   -1    0    0  501    0  0.00000000000E+00  0.00000000000E+00 -0.11467925609E+04  0.11467925609E+04  0.50400001928E-02 0.  1.
    10030    2    1    2    0    0  0.00000000000E+00  0.00000000000E+00 -0.83029061147E+03  0.14632945103E+04  0.12049266884E+04 0.  0.
        5    1    3    3  502    0  0.26428698149E+02  0.42829262785E+03 -0.92867233201E+03  0.10230285633E+04  0.46999998093E+01 0.  1.
       -5    1    3    3    0  502 -0.26428698149E+02 -0.42829262785E+03  0.98381720544E+02  0.44026594700E+03  0.46999998093E+01 0. -1.
</event>
<event>
 5   0  0.3751091E-03  0.1209645E+04  0.7818609E-02  0.9104456E-01
        2   -1    0    0  501    0  0.00000000000E+00  0.00000000000E+00  0.39913103502E+03  0.39913103503E+03  0.25500000920E-02 0.  1.
       -2   -1    0    0    0  501  0.00000000000E+00  0.00000000000E+00 -0.91651637797E+03  0.91651637798E+03  0.25500000920E-02 0. -1.
    10030    2    1    2    0    0  0.00000000000E+00  0.00000000000E+00 -0.51738534295E+03  0.13156474130E+04  0.12096447918E+04 0.  0.
        5    1    3    3  502    0 -0.10192033633E+03 -0.21166629966E+03 -0.86484356291E+03  0.89619576861E+03  0.46999998093E+01 0. -1.
       -5    1    3    3    0  502  0.10192033633E+03  0.21166629966E+03  0.34745821996E+03  0.41945164439E+03  0.46999998093E+01 0.  1.
</event>
<event>
 5   0  0.2025294E-03  0.1147321E+04  0.7818609E-02  0.9160258E-01
        1   -1    0    0  501    0  0.00000000000E+00  0.00000000000E+00  0.13694462169E+04  0.13694462169E+04  0.50400001928E-02 0.  1.
       -1   -1    0    0    0  501  0.00000000000E+00  0.00000000000E+00 -0.24030623270E+03  0.24030623275E+03  0.50400001928E-02 0. -1.
    10030    2    1    2    0    0  0.00000000000E+00  0.00000000000E+00  0.11291399842E+04  0.16097524497E+04  0.11473211605E+04 0.  0.
        5    1    3    3  502    0 -0.30403713298E+03 -0.46427859968E+03  0.76823596107E+03  0.94773507809E+03  0.46999998093E+01 0.  1.
       -5    1    3    3    0  502  0.30403713298E+03  0.46427859968E+03  0.36090402312E+03  0.66201737157E+03  0.46999998093E+01 0. -1.
</event>
<event>
 5   0  0.3725376E-03  0.1200538E+04  0.7818609E-02  0.9112386E-01
       -2   -1    0    0    0  501  0.00000000000E+00  0.00000000000E+00  0.38202947996E+03  0.38202947997E+03  0.25500000920E-02 0.  1.
        2   -1    0    0  501    0  0.00000000000E+00  0.00000000000E+00 -0.94318057816E+03  0.94318057817E+03  0.25500000920E-02 0. -1.
    10030    2    1    2    0    0  0.00000000000E+00  0.00000000000E+00 -0.56115109820E+03  0.13252100581E+04  0.12005378558E+04 0.  0.
        4    1    3    3  502    0  0.48946283255E+02 -0.59311976306E+03 -0.36703136916E+03  0.69921415233E+03  0.12699999809E+01 0.  1.
       -4    1    3    3    0  502 -0.48946283255E+02  0.59311976306E+03 -0.19411972904E+03  0.62599590580E+03  0.12699999809E+01 0. -1.
</event>
<event>
 5   0  0.2134992E-03  0.1196041E+04  0.7818609E-02  0.9116329E-01
       -1   -1    0    0    0  501  0.00000000000E+00  0.00000000000E+00  0.24195715368E+03  0.24195715374E+03  0.50400001928E-02 0.  1.
        1   -1    0    0  501    0  0.00000000000E+00  0.00000000000E+00 -0.14780663556E+04  0.14780663556E+04  0.50400001928E-02 0. -1.
    10030    2    1    2    0    0  0.00000000000E+00  0.00000000000E+00 -0.12361092019E+04  0.17200235094E+04  0.11960413512E+04 0.  0.
        4    1    3    3  502    0 -0.75568183190E+02  0.58799739692E+02  0.23086024382E+03  0.24993204031E+03  0.12699999809E+01 0.  1.
       -4    1    3    3    0  502  0.75568183190E+02 -0.58799739692E+02 -0.14669694458E+04  0.14700914691E+04  0.12699999809E+01 0. -1.
</event>
<event>
 5   0  0.2096270E-03  0.1207039E+04  0.7818609E-02  0.9106718E-01
        1   -1    0    0  501    0  0.00000000000E+00  0.00000000000E+00  0.12135203829E+04  0.12135203829E+04  0.50400001928E-02 0.  1.
       -1   -1    0    0    0  501  0.00000000000E+00  0.00000000000E+00 -0.30014784965E+03  0.30014784970E+03  0.50400001928E-02 0. -1.
    10030    2    1    2    0    0  0.00000000000E+00  0.00000000000E+00  0.91337253321E+03  0.15136682326E+04  0.12070385801E+04 0.  0.
        2    1    3    3  502    0  0.14607105598E+03 -0.43220783821E+03  0.95214132877E+03  0.10557999236E+04  0.25500000920E-02 0.  1.
       -2    1    3    3    0  502 -0.14607105598E+03  0.43220783821E+03 -0.38768795561E+02  0.45786830893E+03  0.25500000920E-02 0. -1.
</event>
<event>
 5   0  0.2078258E-03  0.1213715E+04  0.7818609E-02  0.9100936E-01
        1   -1    0    0  501    0  0.00000000000E+00  0.00000000000E+00  0.12035190631E+04  0.12035190631E+04  0.50400001928E-02 0.  1.
       -1   -1    0    0    0  501  0.00000000000E+00  0.00000000000E+00 -0.30599937155E+03  0.30599937159E+03  0.50400001928E-02 0. -1.
    10030    2    1    2    0    0  0.00000000000E+00  0.00000000000E+00  0.89751969156E+03  0.15095184347E+04  0.12137150852E+04 0.  0.
        3    1    3    3  502    0 -0.35742997367E+03 -0.21853102148E+03  0.99481274692E+03  0.10794278137E+04  0.10100000352E+00 0. -1.
       -3    1    3    3    0  502  0.35742997367E+03  0.21853102148E+03 -0.97293055365E+02  0.43009062098E+03  0.10100000352E+00 0.  1.
</event>
<event>
 5   0  0.3650180E-03  0.1213884E+04  0.7818609E-02  0.9100790E-01
        2   -1    0    0  501    0  0.00000000000E+00  0.00000000000E+00  0.10100122562E+04  0.10100122562E+04  0.25500000920E-02 0.  1.
       -2   -1    0    0    0  501  0.00000000000E+00  0.00000000000E+00 -0.36472698827E+03  0.36472698828E+03  0.25500000920E-02 0. -1.
    10030    2    1    2    0    0  0.00000000000E+00  0.00000000000E+00  0.64528526795E+03  0.13747392445E+04  0.12138842257E+04 0.  0.
        3    1    3    3  502    0  0.30743655220E+03  0.22252354474E+03 -0.21377250289E+03  0.43558312041E+03  0.10100000352E+00 0. -1.
       -3    1    3    3    0  502 -0.30743655220E+03 -0.22252354474E+03  0.85905777084E+03  0.93915612410E+03  0.10100000352E+00 0.  1.
</event>
<event>
 5   0  0.2096270E-03  0.1198976E+04  0.7818609E-02  0.9113753E-01
        1   -1    0    0  501    0  0.00000000000E+00  0.00000000000E+00  0.16636367742E+04  0.16636367742E+04  0.50400001928E-02 0.  1.
       -1   -1    0    0    0  501  0.00000000000E+00  0.00000000000E+00 -0.21602439703E+03  0.21602439709E+03  0.50400001928E-02 0. -1.
    10030    2    1    2    0    0  0.00000000000E+00  0.00000000000E+00  0.14476123772E+04  0.18796611713E+04  0.11989764486E+04 0.  0.
        2    1    3    3  502    0  0.47797680277E+03 -0.11032573104E+03  0.12640507105E+04  0.13558974112E+04  0.25500000920E-02 0. -1.
       -2    1    3    3    0  502 -0.47797680277E+03  0.11032573104E+03  0.18356166663E+03  0.52376376008E+03  0.25500000920E-02 0.  1.
</event>
<event>
 5   0  0.2096270E-03  0.1154490E+04  0.7818609E-02  0.9153651E-01
       -1   -1    0    0    0  501  0.00000000000E+00  0.00000000000E+00  0.19659188152E+03  0.19659188159E+03  0.50400001928E-02 0.  1.
        1   -1    0    0  501    0  0.00000000000E+00  0.00000000000E+00 -0.16949428906E+04  0.16949428906E+04  0.50400001928E-02 0. -1.
    10030    2    1    2    0    0  0.00000000000E+00  0.00000000000E+00 -0.14983510091E+04  0.18915347722E+04  0.11544903846E+04 0.  0.
        2    1    3    3  502    0 -0.22185544359E+03 -0.18312711865E+03  0.70779984988E+02  0.29625189572E+03  0.25500000920E-02 0.  1.
       -2    1    3    3    0  502  0.22185544359E+03  0.18312711865E+03 -0.15691309941E+04  0.15952828765E+04  0.25500000920E-02 0. -1.
</event>
<event>
 5   0  0.3751091E-03  0.1194471E+04  0.7818609E-02  0.9117710E-01
        2   -1    0    0  501    0  0.00000000000E+00  0.00000000000E+00  0.15880827964E+04  0.15880827964E+04  0.25500000920E-02 0.  1.
       -2   -1    0    0    0  501  0.00000000000E+00  0.00000000000E+00 -0.22460428168E+03  0.22460428169E+03  0.25500000920E-02 0. -1.
    10030    2    1    2    0    0  0.00000000000E+00  0.00000000000E+00  0.13634785148E+04  0.18126870781E+04  0.11944709218E+04 0.  0.
        5    1    3    3  502    0  0.27197239216E+03 -0.19493643959E+03 -0.68955309865E+02  0.34168131692E+03  0.46999998093E+01 0. -1.
       -5    1    3    3    0  502 -0.27197239216E+03  0.19493643959E+03  0.14324338246E+04  0.14710057612E+04  0.46999998093E+01 0.  1.
</event>
<event>
 5   0  0.3725376E-03  0.1203877E+04  0.7818609E-02  0.9109470E-01
       -2   -1    0    0    0  501  0.00000000000E+00  0.00000000000E+00  0.79107447272E+03  0.79107447273E+03  0.25500000920E-02 0.  1.
        2   -1    0    0  501    0  0.00000000000E+00  0.00000000000E+00 -0.45802235106E+03  0.45802235107E+03  0.25500000920E-02 0. -1.
    10030    2    1    2    0    0  0.00000000000E+00  0.00000000000E+00  0.33305212166E+03  0.12490968238E+04  0.12038767210E+04 0.  0.
        4    1    3    3  502    0 -0.40173075823E+02 -0.38318394602E+03  0.64637396923E+03  0.75249234781E+03  0.12699999809E+01 0.  1.
       -4    1    3    3    0  502  0.40173075823E+02  0.38318394602E+03 -0.31332184757E+03  0.49660447599E+03  0.12699999809E+01 0. -1.
</event>
<event>
 5   0  0.2096270E-03  0.1223464E+04  0.7818609E-02  0.9092563E-01
       -1   -1    0    0    0  501  0.00000000000E+00  0.00000000000E+00  0.33410529987E+03  0.33410529990E+03  0.50400001928E-02 0.  1.
        1   -1    0    0  501    0  0.00000000000E+00  0.00000000000E+00 -0.11200534397E+04  0.11200534397E+04  0.50400001928E-02 0. -1.
    10030    2    1    2    0    0  0.00000000000E+00  0.00000000000E+00 -0.78594813986E+03  0.14541587396E+04  0.12234635922E+04 0.  0.
        2    1    3    3  502    0  0.51192603284E+03 -0.17812319627E+03 -0.55918220605E+02  0.54490639889E+03  0.25500000920E-02 0.  1.
       -2    1    3    3    0  502 -0.51192603284E+03  0.17812319627E+03 -0.73002991925E+03  0.90925234075E+03  0.25500000920E-02 0. -1.
</event>
<event>
 5   0  0.2078258E-03  0.1200019E+04  0.7818609E-02  0.9112840E-01
       -1   -1    0    0    0  501  0.00000000000E+00  0.00000000000E+00  0.27469142380E+03  0.27469142385E+03  0.50400001928E-02 0.  1.
        1   -1    0    0  501    0  0.00000000000E+00  0.00000000000E+00 -0.13106022190E+04  0.13106022190E+04  0.50400001928E-02 0. -1.
    10030    2    1    2    0    0  0.00000000000E+00  0.00000000000E+00 -0.10359107952E+04  0.15852936428E+04  0.12000186492E+04 0.  0.
        3    1    3    3  502    0  0.51941594157E+03  0.28455638576E+03 -0.64498263243E+03  0.87565282125E+03  0.10100000352E+00 0.  1.
       -3    1    3    3    0  502 -0.51941594157E+03 -0.28455638576E+03 -0.39092816273E+03  0.70964082158E+03  0.10100000352E+00 0. -1.
</event>
<event>
 5   0  0.2078258E-03  0.1200108E+04  0.7818609E-02  0.9112762E-01
        1   -1    0    0  501    0  0.00000000000E+00  0.00000000000E+00  0.64093359824E+03  0.64093359826E+03  0.50400001928E-02 0.  1.
       -1   -1    0    0    0  501  0.00000000000E+00  0.00000000000E+00 -0.56178179611E+03  0.56178179613E+03  0.50400001928E-02 0. -1.
    10030    2    1    2    0    0  0.00000000000E+00  0.00000000000E+00  0.79151802135E+02  0.12027153944E+04  0.12001080419E+04 0.  0.
        3    1    3    3  502    0  0.43162067526E+03  0.41495105095E+03  0.79462317969E+02  0.60398265884E+03  0.10100000352E+00 0. -1.
       -3    1    3    3    0  502 -0.43162067526E+03 -0.41495105095E+03 -0.31051583455E+00  0.59873273555E+03  0.10100000352E+00 0.  1.
</event>
<event>
 5   0  0.3706035E-03  0.1215923E+04  0.7818609E-02  0.9099032E-01
       -2   -1    0    0    0  501  0.00000000000E+00  0.00000000000E+00  0.29601416947E+03  0.29601416948E+03  0.25500000920E-02 0.  1.
        2   -1    0    0  501    0  0.00000000000E+00  0.00000000000E+00 -0.12486473517E+04  0.12486473517E+04  0.25500000920E-02 0. -1.
    10030    2    1    2    0    0  0.00000000000E+00  0.00000000000E+00 -0.95263318222E+03  0.15446615212E+04  0.12159232028E+04 0.  0.
        2    1    3    3  502    0 -0.81127180701E+02 -0.41204545559E+03 -0.10347760980E+04  0.11167473528E+04  0.25500000920E-02 0. -1.
       -2    1    3    3    0  502  0.81127180701E+02  0.41204545559E+03  0.82142915759E+02  0.42791416842E+03  0.25500000920E-02 0.  1.
</event>
<event>
 5   0  0.2047109E-03  0.1197419E+04  0.7818609E-02  0.9115119E-01
       -1   -1    0    0    0  501  0.00000000000E+00  0.00000000000E+00  0.25685123942E+03  0.25685123947E+03  0.50400001928E-02 0. -1.
        1   -1    0    0  501    0  0.00000000000E+00  0.00000000000E+00 -0.13955664713E+04  0.13955664713E+04  0.50400001928E-02 0.  1.
    10030    2    1    2    0    0  0.00000000000E+00  0.00000000000E+00 -0.11387152319E+04  0.16524177108E+04  0.11974188539E+04 0.  0.
        1    1    3    3  502    0  0.36732490754E+03  0.22166873866E+03 -0.11456362213E+04  0.12233343651E+04  0.50400001928E-02 0. -1.
       -1    1    3    3    0  502 -0.36732490754E+03 -0.22166873866E+03  0.69209893853E+01  0.42908334566E+03  0.50400001928E-02 0.  1.
</event>
<event>
 5   0  0.3751091E-03  0.1126646E+04  0.7818609E-02  0.9179604E-01
        2   -1    0    0  501    0  0.00000000000E+00  0.00000000000E+00  0.45159827453E+03  0.45159827454E+03  0.25500000920E-02 0. -1.
       -2   -1    0    0    0  501  0.00000000000E+00  0.00000000000E+00 -0.70268767268E+03  0.70268767268E+03  0.25500000920E-02 0.  1.
    10030    2    1    2    0    0  0.00000000000E+00  0.00000000000E+00 -0.25108939814E+03  0.11542859472E+04  0.11266455352E+04 0.  0.
        5    1    3    3  502    0  0.13193591453E+03  0.63253073528E+02  0.43176982628E+03  0.45591151525E+03  0.46999998093E+01 0. -1.
       -5    1    3    3    0  502 -0.13193591453E+03 -0.63253073528E+02 -0.68285922442E+03  0.69837443197E+03  0.46999998093E+01 0.  1.
</event>
<event>
 5   0  0.2078258E-03  0.1200310E+04  0.7818609E-02  0.9112585E-01
        1   -1    0    0  501    0  0.00000000000E+00  0.00000000000E+00  0.16866134492E+04  0.16866134492E+04  0.50400001928E-02 0.  1.
       -1   -1    0    0    0  501  0.00000000000E+00  0.00000000000E+00 -0.21355571768E+03  0.21355571774E+03  0.50400001928E-02 0. -1.
    10030    2    1    2    0    0  0.00000000000E+00  0.00000000000E+00  0.14730577315E+04  0.19001691670E+04  0.12003098694E+04 0.  0.
        3    1    3    3  502    0 -0.19256415069E+03  0.55226783025E+03  0.52351843194E+03  0.78495367203E+03  0.10100000352E+00 0. -1.
       -3    1    3    3    0  502  0.19256415069E+03 -0.55226783025E+03  0.94953929960E+03  0.11152154949E+04  0.10100000352E+00 0.  1.
</event>
<event>
 5   0  0.3706035E-03  0.1206496E+04  0.7818609E-02  0.9107189E-01
       -2   -1    0    0    0  501  0.00000000000E+00  0.00000000000E+00  0.29861682450E+03  0.29861682451E+03  0.25500000920E-02 0.  1.
        2   -1    0    0  501    0  0.00000000000E+00  0.00000000000E+00 -0.12186463838E+04  0.12186463838E+04  0.25500000920E-02 0. -1.
    10030    2    1    2    0    0  0.00000000000E+00  0.00000000000E+00 -0.92002955929E+03  0.15172632083E+04  0.12064962716E+04 0.  0.
        2    1    3    3  502    0 -0.46224327422E+02  0.28159157015E+03  0.20837086456E+03  0.35333966382E+03  0.25500000920E-02 0.  1.
       -2    1    3    3    0  502  0.46224327422E+02 -0.28159157015E+03 -0.11284004238E+04  0.11639235445E+04  0.25500000920E-02 0. -1.
</event>
<event>
 5   0  0.1397500E-03  0.1193665E+04  0.7818609E-02  0.9118420E-01
       -3   -1    0    0    0  501  0.00000000000E+00  0.00000000000E+00  0.46681811636E+03  0.46681812728E+03  0.10100000352E+00 0. -1.
        3   -1    0    0  501    0  0.00000000000E+00  0.00000000000E+00 -0.76305710476E+03  0.76305711144E+03  0.10100000352E+00 0.  1.
    10030    2    1    2    0    0  0.00000000000E+00  0.00000000000E+00 -0.29623898840E+03  0.12298752387E+04  0.11936647622E+04 0.  0.
        4    1    3    3  502    0  0.12466927479E+03 -0.35610207408E+03 -0.62459389187E+03  0.72970559673E+03  0.12699999809E+01 0.  1.
       -4    1    3    3    0  502 -0.12466927479E+03  0.35610207408E+03  0.32835490347E+03  0.50016964199E+03  0.12699999809E+01 0. -1.
</event>
<event>
 5   0  0.3751091E-03  0.1195378E+04  0.7818609E-02  0.9116912E-01
       -2   -1    0    0    0  501  0.00000000000E+00  0.00000000000E+00  0.41300238812E+03  0.41300238813E+03  0.25500000920E-02 0. -1.
        2   -1    0    0  501    0  0.00000000000E+00  0.00000000000E+00 -0.86496371968E+03  0.86496371968E+03  0.25500000920E-02 0.  1.
    10030    2    1    2    0    0  0.00000000000E+00  0.00000000000E+00 -0.45196133156E+03  0.12779661078E+04  0.11953779015E+04 0.  0.
        5    1    3    3  502    0  0.14231405970E+03 -0.54648170146E+03 -0.16716236824E+02  0.56497527750E+03  0.46999998093E+01 0. -1.
       -5    1    3    3    0  502 -0.14231405970E+03  0.54648170146E+03 -0.43524509473E+03  0.71299083031E+03  0.46999998093E+01 0.  1.
</event>
<event>
 5   0  0.2047109E-03  0.1217143E+04  0.7818609E-02  0.9097982E-01
        1   -1    0    0  501    0  0.00000000000E+00  0.00000000000E+00  0.68728942795E+03  0.68728942796E+03  0.50400001928E-02 0.  1.
       -1   -1    0    0    0  501  0.00000000000E+00  0.00000000000E+00 -0.53886948723E+03  0.53886948726E+03  0.50400001928E-02 0. -1.
    10030    2    1    2    0    0  0.00000000000E+00  0.00000000000E+00  0.14841994071E+03  0.12261589152E+04  0.12171430510E+04 0.  0.
        1    1    3    3  502    0 -0.28544912983E+03  0.68902456438E+02 -0.46277743563E+03  0.54808002078E+03  0.50400001928E-02 0. -1.
       -1    1    3    3    0  502  0.28544912983E+03 -0.68902456438E+02  0.61119737634E+03  0.67807889445E+03  0.50400001928E-02 0.  1.
</event>
<event>
 5   0  0.2134992E-03  0.1204237E+04  0.7818609E-02  0.9109156E-01
       -1   -1    0    0    0  501  0.00000000000E+00  0.00000000000E+00  0.54348545952E+03  0.54348545954E+03  0.50400001928E-02 0. -1.
        1   -1    0    0  501    0  0.00000000000E+00  0.00000000000E+00 -0.66707716144E+03  0.66707716146E+03  0.50400001928E-02 0.  1.
    10030    2    1    2    0    0  0.00000000000E+00  0.00000000000E+00 -0.12359170192E+03  0.12105626210E+04  0.12042370824E+04 0.  0.
        4    1    3    3  502    0  0.24764764755E+03  0.27030855424E+03 -0.54195432583E+03  0.65430281676E+03  0.12699999809E+01 0.  1.
       -4    1    3    3    0  502 -0.24764764755E+03 -0.27030855424E+03  0.41836262391E+03  0.55625980424E+03  0.12699999809E+01 0. -1.
</event>
<event>
 5   0  0.3650180E-03  0.1201725E+04  0.7818609E-02  0.9111348E-01
       -2   -1    0    0    0  501  0.00000000000E+00  0.00000000000E+00  0.14427777572E+03  0.14427777574E+03  0.25500000920E-02 0. -1.
        2   -1    0    0  501    0  0.00000000000E+00  0.00000000000E+00 -0.25023663932E+04  0.25023663932E+04  0.25500000920E-02 0.  1.
    10030    2    1    2    0    0  0.00000000000E+00  0.00000000000E+00 -0.23580886175E+04  0.26466441690E+04  0.12017251887E+04 0.  0.
        3    1    3    3  502    0 -0.23923906677E+03 -0.49965571109E+03 -0.66657446672E+03  0.86672526823E+03  0.10100000352E+00 0. -1.
       -3    1    3    3    0  502  0.23923906677E+03  0.49965571109E+03 -0.16915141508E+04  0.17799189007E+04  0.10100000352E+00 0.  1.
</event>
<event>
 5   0  0.2025294E-03  0.1320502E+04  0.7818609E-02  0.9013463E-01
       -1   -1    0    0    0  501  0.00000000000E+00  0.00000000000E+00  0.27753242420E+03  0.27753242425E+03  0.50400001928E-02 0.  1.
        1   -1    0    0  501    0  0.00000000000E+00  0.00000000000E+00 -0.15707413780E+04  0.15707413780E+04  0.50400001928E-02 0. -1.
    10030    2    1    2    0    0  0.00000000000E+00  0.00000000000E+00 -0.12932089538E+04  0.18482738023E+04  0.13205024233E+04 0.  0.
        5    1    3    3  502    0 -0.48096601998E+03 -0.10062030129E+03 -0.29386325557E+02  0.49227878639E+03  0.46999998093E+01 0.  1.
       -5    1    3    3    0  502  0.48096601998E+03  0.10062030129E+03 -0.12638226283E+04  0.13559950159E+04  0.46999998093E+01 0. -1.
</event>
<event>
 5   0  0.3626049E-03  0.1202192E+04  0.7818609E-02  0.9110940E-01
        2   -1    0    0  501    0  0.00000000000E+00  0.00000000000E+00  0.50954065629E+03  0.50954065630E+03  0.25500000920E-02 0. -1.
       -2   -1    0    0    0  501  0.00000000000E+00  0.00000000000E+00 -0.70910212150E+03  0.70910212150E+03  0.25500000920E-02 0.  1.
    10030    2    1    2    0    0  0.00000000000E+00  0.00000000000E+00 -0.19956146521E+03  0.12186427778E+04  0.12021919320E+04 0.  0.
        1    1    3    3  502    0  0.13892336610E+03 -0.12357886823E+03  0.47965734773E+03  0.51443426167E+03  0.50400001928E-02 0. -1.
       -1    1    3    3    0  502 -0.13892336610E+03  0.12357886823E+03 -0.67921881293E+03  0.70420851613E+03  0.50400001928E-02 0.  1.
</event>
<event>
 5   0  0.2047109E-03  0.1202537E+04  0.7818609E-02  0.9110638E-01
        1   -1    0    0  501    0  0.00000000000E+00  0.00000000000E+00  0.29121484704E+03  0.29121484708E+03  0.50400001928E-02 0. -1.
       -1   -1    0    0    0  501  0.00000000000E+00  0.00000000000E+00 -0.12414342131E+04  0.12414342131E+04  0.50400001928E-02 0.  1.
    10030    2    1    2    0    0  0.00000000000E+00  0.00000000000E+00 -0.95021936609E+03  0.15326490602E+04  0.12025374415E+04 0.  0.
        1    1    3    3  502    0 -0.51931073232E+03 -0.98734772323E+02 -0.10994041284E+03  0.53992507477E+03  0.50400001928E-02 0. -1.
       -1    1    3    3    0  502  0.51931073232E+03  0.98734772323E+02 -0.84027895325E+03  0.99272398544E+03  0.50400001928E-02 0.  1.
</event>
<event>
 5   0  0.3706035E-03  0.1239919E+04  0.7818609E-02  0.9078615E-01
       -2   -1    0    0    0  501  0.00000000000E+00  0.00000000000E+00  0.46290165443E+03  0.46290165443E+03  0.25500000920E-02 0.  1.
        2   -1    0    0  501    0  0.00000000000E+00  0.00000000000E+00 -0.83030605885E+03  0.83030605885E+03  0.25500000920E-02 0. -1.
    10030    2    1    2    0    0  0.00000000000E+00  0.00000000000E+00 -0.36740440443E+03  0.12932077133E+04  0.12399194302E+04 0.  0.
        2    1    3    3  502    0 -0.39924905518E+03  0.47347241278E+03 -0.15468353587E+03  0.63835956169E+03  0.25500000920E-02 0.  1.
       -2    1    3    3    0  502  0.39924905518E+03 -0.47347241278E+03 -0.21272086856E+03  0.65484815160E+03  0.25500000920E-02 0. -1.
</event>
<event>
 5   0  0.2078258E-03  0.1202120E+04  0.7818609E-02  0.9111003E-01
        1   -1    0    0  501    0  0.00000000000E+00  0.00000000000E+00  0.10524247848E+04  0.10524247848E+04  0.50400001928E-02 0. -1.
       -1   -1    0    0    0  501  0.00000000000E+00  0.00000000000E+00 -0.34327663991E+03  0.34327663995E+03  0.50400001928E-02 0.  1.
    10030    2    1    2    0    0  0.00000000000E+00  0.00000000000E+00  0.70914814485E+03  0.13957014247E+04  0.12021195347E+04 0.  0.
        3    1    3    3  502    0  0.21787627125E+03  0.26456010359E+03 -0.21871182958E+03  0.40656732848E+03  0.10100000352E+00 0.  1.
       -3    1    3    3    0  502 -0.21787627125E+03 -0.26456010359E+03  0.92785997443E+03  0.98913409624E+03  0.10100000352E+00 0. -1.
</event>
<event>
 5   0  0.3725376E-03  0.1212502E+04  0.7818609E-02  0.9101984E-01
        2   -1    0    0  501    0  0.00000000000E+00  0.00000000000E+00  0.13403020889E+04  0.13403020889E+04  0.25500000920E-02 0.  1.
       -2   -1    0    0    0  501  0.00000000000E+00  0.00000000000E+00 -0.27422174103E+03  0.27422174104E+03  0.25500000920E-02 0. -1.
    10030    2    1    2    0    0  0.00000000000E+00  0.00000000000E+00  0.10660803479E+04  0.16145238299E+04  0.12125015008E+04 0.  0.
        4    1    3    3  502    0  0.20230870075E+03  0.46132513861E+03  0.98221114061E+03  0.11038523595E+04  0.12699999809E+01 0.  1.
       -4    1    3    3    0  502 -0.20230870075E+03 -0.46132513861E+03  0.83869207270E+02  0.51067147046E+03  0.12699999809E+01 0. -1.
</event>
<event>
 5   0  0.3626049E-03  0.1172204E+04  0.7818609E-02  0.9137540E-01
        2   -1    0    0  501    0  0.00000000000E+00  0.00000000000E+00  0.87713444344E+03  0.87713444345E+03  0.25500000920E-02 0.  1.
       -2   -1    0    0    0  501  0.00000000000E+00  0.00000000000E+00 -0.39163398284E+03  0.39163398285E+03  0.25500000920E-02 0. -1.
    10030    2    1    2    0    0  0.00000000000E+00  0.00000000000E+00  0.48550046060E+03  0.12687684263E+04  0.11722041726E+04 0.  0.
        1    1    3    3  502    0  0.64578768016E+02  0.52242436149E+02  0.87073115968E+03  0.87468419551E+03  0.50400001928E-02 0.  1.
       -1    1    3    3    0  502 -0.64578768016E+02 -0.52242436149E+02 -0.38523069908E+03  0.39408423078E+03  0.50400001928E-02 0. -1.
</event>
<event>
 5   0  0.2078258E-03  0.1186723E+04  0.7818609E-02  0.9124558E-01
       -1   -1    0    0    0  501  0.00000000000E+00  0.00000000000E+00  0.22258716860E+03  0.22258716865E+03  0.50400001928E-02 0.  1.
        1   -1    0    0  501    0  0.00000000000E+00  0.00000000000E+00 -0.15817519595E+04  0.15817519595E+04  0.50400001928E-02 0. -1.
    10030    2    1    2    0    0  0.00000000000E+00  0.00000000000E+00 -0.13591647909E+04  0.18043391281E+04  0.11867226974E+04 0.  0.
        3    1    3    3  502    0 -0.17886070479E+03  0.42798422900E+03 -0.11698714164E+03  0.47838023946E+03  0.10100000352E+00 0.  1.
       -3    1    3    3    0  502  0.17886070479E+03 -0.42798422900E+03 -0.12421776492E+04  0.13259588887E+04  0.10100000352E+00 0. -1.
</event>
<event>
 5   0  0.2025294E-03  0.1184197E+04  0.7818609E-02  0.9126803E-01
        1   -1    0    0  501    0  0.00000000000E+00  0.00000000000E+00  0.53734896304E+03  0.53734896306E+03  0.50400001928E-02 0. -1.
       -1   -1    0    0    0  501  0.00000000000E+00  0.00000000000E+00 -0.65242605891E+03  0.65242605893E+03  0.50400001928E-02 0.  1.
    10030    2    1    2    0    0  0.00000000000E+00  0.00000000000E+00 -0.11507709587E+03  0.11897750220E+04  0.11841967172E+04 0.  0.
        5    1    3    3  502    0  0.36687963793E+03 -0.46225842230E+03 -0.96183954268E+01  0.59025259105E+03  0.46999998093E+01 0.  1.
       -5    1    3    3    0  502 -0.36687963793E+03  0.46225842230E+03 -0.10545870045E+03  0.59952243095E+03  0.46999998093E+01 0. -1.
</event>
<event>
 5   0  0.2078258E-03  0.1082728E+04  0.7818609E-02  0.9222191E-01
        1   -1    0    0  501    0  0.00000000000E+00  0.00000000000E+00  0.89229268144E+03  0.89229268145E+03  0.50400001928E-02 0. -1.
       -1   -1    0    0    0  501  0.00000000000E+00  0.00000000000E+00 -0.32845186058E+03  0.32845186062E+03  0.50400001928E-02 0.  1.
    10030    2    1    2    0    0  0.00000000000E+00  0.00000000000E+00  0.56384082086E+03  0.12207445421E+04  0.10827283896E+04 0.  0.
        3    1    3    3  502    0 -0.10996904261E+03  0.51189994372E+03  0.12675308238E+03  0.53870316206E+03  0.10100000352E+00 0.  1.
       -3    1    3    3    0  502  0.10996904261E+03 -0.51189994372E+03  0.43708773847E+03  0.68204138001E+03  0.10100000352E+00 0. -1.
</event>
<event>
 5   0  0.2025294E-03  0.1229166E+04  0.7818609E-02  0.9087704E-01
       -1   -1    0    0    0  501  0.00000000000E+00  0.00000000000E+00  0.54636943370E+03  0.54636943373E+03  0.50400001928E-02 0.  1.
        1   -1    0    0  501    0  0.00000000000E+00  0.00000000000E+00 -0.69131296797E+03  0.69131296798E+03  0.50400001928E-02 0. -1.
    10030    2    1    2    0    0  0.00000000000E+00  0.00000000000E+00 -0.14494353426E+03  0.12376824017E+04  0.12291660178E+04 0.  0.
        5    1    3    3  502    0 -0.24865927705E+03 -0.36352624821E+03 -0.50405246672E+03  0.66938311034E+03  0.46999998093E+01 0. -1.
       -5    1    3    3    0  502  0.24865927705E+03  0.36352624821E+03  0.35910893246E+03  0.56829929137E+03  0.46999998093E+01 0.  1.
</event>
<event>
 5   0  0.3706035E-03  0.1198900E+04  0.7818609E-02  0.9113820E-01
       -2   -1    0    0    0  501  0.00000000000E+00  0.00000000000E+00  0.50473443014E+03  0.50473443014E+03  0.25500000920E-02 0.  1.
        2   -1    0    0  501    0  0.00000000000E+00  0.00000000000E+00 -0.71193955784E+03  0.71193955785E+03  0.25500000920E-02 0. -1.
    10030    2    1    2    0    0  0.00000000000E+00  0.00000000000E+00 -0.20720512770E+03  0.12166739880E+04  0.11989001744E+04 0.  0.
        2    1    3    3  502    0 -0.32888892106E+03 -0.10557801649E+03  0.39358485778E+03  0.52366370911E+03  0.25500000920E-02 0.  1.
       -2    1    3    3    0  502  0.32888892106E+03  0.10557801649E+03 -0.60078998548E+03  0.69301027887E+03  0.25500000920E-02 0. -1.
</event>
<event>
 5   0  0.2078258E-03  0.1198290E+04  0.7818609E-02  0.9114355E-01
       -1   -1    0    0    0  501  0.00000000000E+00  0.00000000000E+00  0.31199330883E+03  0.31199330887E+03  0.50400001928E-02 0.  1.
        1   -1    0    0  501    0  0.00000000000E+00  0.00000000000E+00 -0.11505839490E+04  0.11505839491E+04  0.50400001928E-02 0. -1.
    10030    2    1    2    0    0  0.00000000000E+00  0.00000000000E+00 -0.83859064021E+03  0.14625772579E+04  0.11982896034E+04 0.  0.
        3    1    3    3  502    0  0.59558702690E+02 -0.92078644052E+02 -0.11382304400E+04  0.11435008791E+04  0.10100000352E+00 0. -1.
       -3    1    3    3    0  502 -0.59558702690E+02  0.92078644052E+02  0.29963979975E+03  0.31907637887E+03  0.10100000352E+00 0.  1.
</event>
<event>
 5   0  0.3626049E-03  0.1419847E+04  0.7818609E-02  0.8939576E-01
       -2   -1    0    0    0  501  0.00000000000E+00  0.00000000000E+00  0.45245718140E+03  0.45245718141E+03  0.25500000920E-02 0. -1.
        2   -1    0    0  501    0  0.00000000000E+00  0.00000000000E+00 -0.11138983995E+04  0.11138983995E+04  0.25500000920E-02 0.  1.
    10030    2    1    2    0    0  0.00000000000E+00  0.00000000000E+00 -0.66144121811E+03  0.15663555809E+04  0.14198469357E+04 0.  0.
        1    1    3    3  502    0  0.65148716895E+03 -0.12309928108E+03 -0.61068303056E+03  0.90140042609E+03  0.50400001928E-02 0. -1.
       -1    1    3    3    0  502 -0.65148716895E+03  0.12309928108E+03 -0.50758187550E+02  0.66495515483E+03  0.50400001928E-02 0.  1.
</event>
<event>
 5   0  0.3725376E-03  0.1203500E+04  0.7818609E-02  0.9109799E-01
       -2   -1    0    0    0  501  0.00000000000E+00  0.00000000000E+00  0.45162900404E+03  0.45162900404E+03  0.25500000920E-02 0. -1.
        2   -1    0    0  501    0  0.00000000000E+00  0.00000000000E+00 -0.80177099335E+03  0.80177099335E+03  0.25500000920E-02 0.  1.
    10030    2    1    2    0    0  0.00000000000E+00  0.00000000000E+00 -0.35014198931E+03  0.12533999974E+04  0.12034999546E+04 0.  0.
        4    1    3    3  502    0  0.54566598739E+03  0.61380009528E+02  0.81269592612E+02  0.55509029441E+03  0.12699999809E+01 0.  1.
       -4    1    3    3    0  502 -0.54566598739E+03 -0.61380009528E+02 -0.43141158192E+03  0.69830970299E+03  0.12699999809E+01 0. -1.
</event>
<event>
 5   0  0.2078258E-03  0.1192052E+04  0.7818609E-02  0.9119842E-01
        1   -1    0    0  501    0  0.00000000000E+00  0.00000000000E+00  0.43382876910E+03  0.43382876913E+03  0.50400001928E-02 0.  1.
       -1   -1    0    0    0  501  0.00000000000E+00  0.00000000000E+00 -0.81886409372E+03  0.81886409374E+03  0.50400001928E-02 0. -1.
    10030    2    1    2    0    0  0.00000000000E+00  0.00000000000E+00 -0.38503532462E+03  0.12526928629E+04  0.11920516799E+04 0.  0.
        3    1    3    3  502    0  0.22654339802E+03  0.46915046384E+02  0.38471958333E+03  0.44892326823E+03  0.10100000352E+00 0.  1.
       -3    1    3    3    0  502 -0.22654339802E+03 -0.46915046384E+02 -0.76975490795E+03  0.80376959464E+03  0.10100000352E+00 0. -1.
</event>
<event>
 5   0  0.3650180E-03  0.1173130E+04  0.7818609E-02  0.9136706E-01
        2   -1    0    0  501    0  0.00000000000E+00  0.00000000000E+00  0.79159297412E+03  0.79159297412E+03  0.25500000920E-02 0.  1.
       -2   -1    0    0    0  501  0.00000000000E+00  0.00000000000E+00 -0.43464098136E+03  0.43464098137E+03  0.25500000920E-02 0. -1.
    10030    2    1    2    0    0  0.00000000000E+00  0.00000000000E+00  0.35695199275E+03  0.12262339555E+04  0.11731304226E+04 0.  0.
        3    1    3    3  502    0  0.55745418346E+03  0.25831062704E+02  0.36730890161E+03  0.66808551089E+03  0.10100000352E+00 0. -1.
       -3    1    3    3    0  502 -0.55745418346E+03 -0.25831062704E+02 -0.10356908852E+02  0.55814844461E+03  0.10100000352E+00 0.  1.
</event>
<event>
 5   0  0.3650180E-03  0.1184891E+04  0.7818609E-02  0.9126185E-01
        2   -1    0    0  501    0  0.00000000000E+00  0.00000000000E+00  0.88173751387E+03  0.88173751387E+03  0.25500000920E-02 0. -1.
       -2   -1    0    0    0  501  0.00000000000E+00  0.00000000000E+00 -0.39806844696E+03  0.39806844697E+03  0.25500000920E-02 0.  1.
    10030    2    1    2    0    0  0.00000000000E+00  0.00000000000E+00  0.48366906691E+03  0.12798059608E+04  0.11848913584E+04 0.  0.
        3    1    3    3  502    0 -0.31437866467E+03 -0.50212439930E+03  0.23601645052E+03  0.63770418871E+03  0.10100000352E+00 0. -1.
       -3    1    3    3    0  502  0.31437866467E+03  0.50212439930E+03  0.24765261639E+03  0.64210177214E+03  0.10100000352E+00 0.  1.
</event>
<event>
 5   0  0.2096270E-03  0.1120558E+04  0.7818609E-02  0.9185383E-01
       -1   -1    0    0    0  501  0.00000000000E+00  0.00000000000E+00  0.37473351935E+03  0.37473351939E+03  0.50400001928E-02 0.  1.
        1   -1    0    0  501    0  0.00000000000E+00  0.00000000000E+00 -0.83769575386E+03  0.83769575387E+03  0.50400001928E-02 0. -1.
    10030    2    1    2    0    0  0.00000000000E+00  0.00000000000E+00 -0.46296223451E+03  0.12124292733E+04  0.11205582145E+04 0.  0.
        2    1    3    3  502    0 -0.12298450075E+03 -0.53387782200E+03 -0.10455173587E+03  0.55774705891E+03  0.25500000920E-02 0.  1.
       -2    1    3    3    0  502  0.12298450075E+03  0.53387782200E+03 -0.35841049863E+03  0.65468221435E+03  0.25500000920E-02 0. -1.
</event>
<event>
 5   0  0.2025294E-03  0.1197121E+04  0.7818609E-02  0.9115381E-01
        1   -1    0    0  501    0  0.00000000000E+00  0.00000000000E+00  0.54511261295E+03  0.54511261297E+03  0.50400001928E-02 0.  1.
       -1   -1    0    0    0  501  0.00000000000E+00  0.00000000000E+00 -0.65724842502E+03  0.65724842504E+03  0.50400001928E-02 0. -1.
    10030    2    1    2    0    0  0.00000000000E+00  0.00000000000E+00 -0.11213581207E+03  0.12023610380E+04  0.11971205559E+04 0.  0.
        5    1    3    3  502    0 -0.60397336957E+02  0.57133972941E+03 -0.22465797456E+03  0.61690373661E+03  0.46999998093E+01 0. -1.
       -5    1    3    3    0  502  0.60397336957E+02 -0.57133972941E+03  0.11252216248E+03  0.58545730140E+03  0.46999998093E+01 0.  1.
</event>
<event>
 5   0  0.2047109E-03  0.1197730E+04  0.7818609E-02  0.9114846E-01
       -1   -1    0    0    0  501  0.00000000000E+00  0.00000000000E+00  0.49284490010E+03  0.49284490013E+03  0.50400001928E-02 0.  1.
        1   -1    0    0  501    0  0.00000000000E+00  0.00000000000E+00 -0.72769191909E+03  0.72769191910E+03  0.50400001928E-02 0. -1.
    10030    2    1    2    0    0  0.00000000000E+00  0.00000000000E+00 -0.23484701899E+03  0.12205368192E+04  0.11977299382E+04 0.  0.
        1    1    3    3  502    0  0.30893024753E+03  0.17471170437E+02 -0.63992082219E+03  0.71080362853E+03  0.50400001928E-02 0. -1.
       -1    1    3    3    0  502 -0.30893024753E+03 -0.17471170437E+02  0.40507380320E+03  0.50973319070E+03  0.50400001928E-02 0.  1.
</event>
<event>
 5   0  0.3751091E-03  0.1211098E+04  0.7818609E-02  0.9103197E-01
       -2   -1    0    0    0  501  0.00000000000E+00  0.00000000000E+00  0.30908381638E+03  0.30908381639E+03  0.25500000920E-02 0. -1.
        2   -1    0    0  501    0  0.00000000000E+00  0.00000000000E+00 -0.11863761678E+04  0.11863761678E+04  0.25500000920E-02 0.  1.
    10030    2    1    2    0    0  0.00000000000E+00  0.00000000000E+00 -0.87729235139E+03  0.14954599842E+04  0.12110981357E+04 0.  0.
        5    1    3    3  502    0 -0.25353727480E+03  0.54658773627E+03 -0.51302441359E+03  0.79136302801E+03  0.46999998093E+01 0.  1.
       -5    1    3    3    0  502  0.25353727480E+03 -0.54658773627E+03 -0.36426793780E+03  0.70409695615E+03  0.46999998093E+01 0. -1.
</event>
<event>
 5   0  0.3650180E-03  0.1201737E+04  0.7818609E-02  0.9111337E-01
       -2   -1    0    0    0  501  0.00000000000E+00  0.00000000000E+00  0.13417187814E+03  0.13417187816E+03  0.25500000920E-02 0. -1.
        2   -1    0    0  501    0  0.00000000000E+00  0.00000000000E+00 -0.26908989414E+04  0.26908989414E+04  0.25500000920E-02 0.  1.
    10030    2    1    2    0    0  0.00000000000E+00  0.00000000000E+00 -0.25567270633E+04  0.28250708196E+04  0.12017370176E+04 0.  0.
        3    1    3    3  502    0 -0.51515760357E+03  0.53112921057E+02 -0.19946304156E+04  0.20607665670E+04  0.10100000352E+00 0.  1.
       -3    1    3    3    0  502  0.51515760357E+03 -0.53112921057E+02 -0.56209664774E+03  0.76430425257E+03  0.10100000352E+00 0. -1.
</event>
<event>
 5   0  0.3725376E-03  0.1195896E+04  0.7818609E-02  0.9116457E-01
        2   -1    0    0  501    0  0.00000000000E+00  0.00000000000E+00  0.25119988045E+04  0.25119988045E+04  0.25500000920E-02 0. -1.
       -2   -1    0    0    0  501  0.00000000000E+00  0.00000000000E+00 -0.14233348091E+03  0.14233348094E+03  0.25500000920E-02 0.  1.
    10030    2    1    2    0    0  0.00000000000E+00  0.00000000000E+00  0.23696653236E+04  0.26543322855E+04  0.11958955371E+04 0.  0.
        4    1    3    3  502    0 -0.29326464188E+03  0.47288375342E+03  0.69897884889E+03  0.89341828866E+03  0.12699999809E+01 0.  1.
       -4    1    3    3    0  502  0.29326464188E+03 -0.47288375342E+03  0.16706864747E+04  0.17609139968E+04  0.12699999809E+01 0. -1.
</event>
<event>
 5   0  0.3650180E-03  0.1205321E+04  0.7818609E-02  0.9108211E-01
       -2   -1    0    0    0  501  0.00000000000E+00  0.00000000000E+00  0.30082710728E+03  0.30082710729E+03  0.25500000920E-02 0. -1.
        2   -1    0    0  501    0  0.00000000000E+00  0.00000000000E+00 -0.12073377202E+04  0.12073377202E+04  0.25500000920E-02 0.  1.
    10030    2    1    2    0    0  0.00000000000E+00  0.00000000000E+00 -0.90651061293E+03  0.15081648275E+04  0.12053213910E+04 0.  0.
        3    1    3    3  502    0  0.44406069681E+03  0.28836017564E+03 -0.93079744376E+02  0.53759217104E+03  0.10100000352E+00 0. -1.
       -3    1    3    3    0  502 -0.44406069681E+03 -0.28836017564E+03 -0.81343086855E+03  0.97057265646E+03  0.10100000352E+00 0.  1.
</event>
<event>
 5   0  0.2025294E-03  0.1195297E+04  0.7818609E-02  0.9116983E-01
        1   -1    0    0  501    0  0.00000000000E+00  0.00000000000E+00  0.66118671561E+03  0.66118671563E+03  0.50400001928E-02 0. -1.
       -1   -1    0    0    0  501  0.00000000000E+00  0.00000000000E+00 -0.54021611147E+03  0.54021611149E+03  0.50400001928E-02 0.  1.
    10030    2    1    2    0    0  0.00000000000E+00  0.00000000000E+00  0.12097060414E+03  0.12014028271E+04  0.11952969781E+04 0.  0.
        5    1    3    3  502    0 -0.14593440670E+03  0.28236958857E+03 -0.44819498793E+03  0.54948182209E+03  0.46999998093E+01 0.  1.
       -5    1    3    3    0  502  0.14593440670E+03 -0.28236958857E+03  0.56916559207E+03  0.65192100503E+03  0.46999998093E+01 0. -1.
</event>
<event>
 5   0  0.2134992E-03  0.1195953E+04  0.7818609E-02  0.9116407E-01
        1   -1    0    0  501    0  0.00000000000E+00  0.00000000000E+00  0.60717300695E+03  0.60717300697E+03  0.50400001928E-02 0.  1.
       -1   -1    0    0    0  501  0.00000000000E+00  0.00000000000E+00 -0.58891899511E+03  0.58891899513E+03  0.50400001928E-02 0. -1.
    10030    2    1    2    0    0  0.00000000000E+00  0.00000000000E+00  0.18254011833E+02  0.11960920021E+04  0.11959527033E+04 0.  0.
        4    1    3    3  502    0  0.40484757180E+03 -0.42463031321E+03  0.12473305130E+03  0.59981030858E+03  0.12699999809E+01 0.  1.
       -4    1    3    3    0  502 -0.40484757180E+03  0.42463031321E+03 -0.10647903947E+03  0.59628169353E+03  0.12699999809E+01 0. -1.
</event>
<event>
 5   0  0.2025294E-03  0.1193364E+04  0.7818609E-02  0.9118685E-01
        1   -1    0    0  501    0  0.00000000000E+00  0.00000000000E+00  0.59478605978E+03  0.59478605980E+03  0.50400001928E-02 0.  1.
       -1   -1    0    0    0  501  0.00000000000E+00  0.00000000000E+00 -0.59858442616E+03  0.59858442618E+03  0.50400001928E-02 0. -1.
    10030    2    1    2    0    0  0.00000000000E+00  0.00000000000E+00 -0.37983663758E+01  0.11933704860E+04  0.11933644411E+04 0.  0.
        5    1    3    3  502    0 -0.24421547519E+03  0.53055183226E+03 -0.12388806804E+03  0.59707352013E+03  0.46999998093E+01 0. -1.
       -5    1    3    3    0  502  0.24421547519E+03 -0.53055183226E+03  0.12008970166E+03  0.59629696585E+03  0.46999998093E+01 0.  1.
</event>
<event>
 5   0  0.2134992E-03  0.1172266E+04  0.7818609E-02  0.9137484E-01
        1   -1    0    0  501    0  0.00000000000E+00  0.00000000000E+00  0.59372459319E+03  0.59372459321E+03  0.50400001928E-02 0. -1.
       -1   -1    0    0    0  501  0.00000000000E+00  0.00000000000E+00 -0.57863894305E+03  0.57863894307E+03  0.50400001928E-02 0.  1.
    10030    2    1    2    0    0  0.00000000000E+00  0.00000000000E+00  0.15085650137E+02  0.11723635363E+04  0.11722664733E+04 0.  0.
        4    1    3    3  502    0  0.13414015910E+02 -0.33636216821E+03 -0.47232094910E+03  0.58000701365E+03  0.12699999809E+01 0.  1.
       -4    1    3    3    0  502 -0.13414015910E+02  0.33636216821E+03  0.48740659923E+03  0.59235652263E+03  0.12699999809E+01 0. -1.
</event>
<event>
 5   0  0.3650180E-03  0.1186224E+04  0.7818609E-02  0.9125001E-01
       -2   -1    0    0    0  501  0.00000000000E+00  0.00000000000E+00  0.40960480250E+03  0.40960480250E+03  0.25500000920E-02 0. -1.
        2   -1    0    0  501    0  0.00000000000E+00  0.00000000000E+00 -0.85883264646E+03  0.85883264646E+03  0.25500000920E-02 0.  1.
    10030    2    1    2    0    0  0.00000000000E+00  0.00000000000E+00 -0.44922784396E+03  0.12684374490E+04  0.11862242225E+04 0.  0.
        3    1    3    3  502    0 -0.36291623454E+03 -0.40533244417E+03 -0.47715912256E+03  0.72365974190E+03  0.10100000352E+00 0. -1.
       -3    1    3    3    0  502  0.36291623454E+03  0.40533244417E+03  0.27931278606E+02  0.54477770707E+03  0.10100000352E+00 0.  1.
</event>
<event>
 5   0  0.2078258E-03  0.1201815E+04  0.7818609E-02  0.9111270E-01
       -1   -1    0    0    0  501  0.00000000000E+00  0.00000000000E+00  0.63591583277E+03  0.63591583279E+03  0.50400001928E-02 0. -1.
        1   -1    0    0  501    0  0.00000000000E+00  0.00000000000E+00 -0.56782598741E+03  0.56782598743E+03  0.50400001928E-02 0.  1.
    10030    2    1    2    0    0  0.00000000000E+00  0.00000000000E+00  0.68089845364E+02  0.12037418202E+04  0.12018145209E+04 0.  0.
        3    1    3    3  502    0 -0.64393190518E+02  0.11999085278E+02  0.63232942797E+03  0.63571296724E+03  0.10100000352E+00 0. -1.
       -3    1    3    3    0  502  0.64393190518E+02 -0.11999085278E+02 -0.56423958261E+03  0.56802885298E+03  0.10100000352E+00 0.  1.
</event>
<event>
 5   0  0.1397500E-03  0.1202133E+04  0.7818609E-02  0.9110992E-01
        4   -1    0    0  501    0  0.00000000000E+00  0.00000000000E+00  0.32319765876E+03  0.32320015397E+03  0.12699999809E+01 0. -1.
       -4   -1    0    0    0  501  0.00000000000E+00  0.00000000000E+00 -0.11178256135E+04  0.11178263350E+04  0.12699999809E+01 0.  1.
    10030    2    1    2    0    0  0.00000000000E+00  0.00000000000E+00 -0.79462795477E+03  0.14410264889E+04  0.12021330024E+04 0.  0.
        2    1    3    3  502    0 -0.75969221444E+02 -0.51717450707E+03 -0.75299428399E+03  0.91664670680E+03  0.25500000920E-02 0.  1.
       -2    1    3    3    0  502  0.75969221444E+02  0.51717450707E+03 -0.41633670787E+02  0.52437978215E+03  0.25500000920E-02 0. -1.
</event>
<event>
 5   0  0.3650180E-03  0.1183174E+04  0.7818609E-02  0.9127713E-01
       -2   -1    0    0    0  501  0.00000000000E+00  0.00000000000E+00  0.44496415196E+03  0.44496415196E+03  0.25500000920E-02 0.  1.
        2   -1    0    0  501    0  0.00000000000E+00  0.00000000000E+00 -0.78652456907E+03  0.78652456907E+03  0.25500000920E-02 0. -1.
    10030    2    1    2    0    0  0.00000000000E+00  0.00000000000E+00 -0.34156041711E+03  0.12314887210E+04  0.11831741002E+04 0.  0.
        3    1    3    3  502    0 -0.21388189636E+03 -0.17221781705E+03  0.37461202262E+03  0.46447671609E+03  0.10100000352E+00 0.  1.
       -3    1    3    3    0  502  0.21388189636E+03  0.17221781705E+03 -0.71617243973E+03  0.76701200494E+03  0.10100000352E+00 0. -1.
</event>
<event>
 5   0  0.2078258E-03  0.1180813E+04  0.7818609E-02  0.9129819E-01
       -1   -1    0    0    0  501  0.00000000000E+00  0.00000000000E+00  0.39026893218E+03  0.39026893222E+03  0.50400001928E-02 0. -1.
        1   -1    0    0  501    0  0.00000000000E+00  0.00000000000E+00 -0.89317797576E+03  0.89317797577E+03  0.50400001928E-02 0.  1.
    10030    2    1    2    0    0  0.00000000000E+00  0.00000000000E+00 -0.50290904357E+03  0.12834469080E+04  0.11808126268E+04 0.  0.
        3    1    3    3  502    0  0.40652090234E+03 -0.42497510954E+03 -0.30810494074E+03  0.66392149572E+03  0.10100000352E+00 0. -1.
       -3    1    3    3    0  502 -0.40652090234E+03  0.42497510954E+03 -0.19480410283E+03  0.61952541227E+03  0.10100000352E+00 0.  1.
</event>
<event>
 5   0  0.3725376E-03  0.1207067E+04  0.7818609E-02  0.9106693E-01
       -2   -1    0    0    0  501  0.00000000000E+00  0.00000000000E+00  0.28707827453E+03  0.28707827455E+03  0.25500000920E-02 0.  1.
        2   -1    0    0  501    0  0.00000000000E+00  0.00000000000E+00 -0.12688276942E+04  0.12688276942E+04  0.25500000920E-02 0. -1.
    10030    2    1    2    0    0  0.00000000000E+00  0.00000000000E+00 -0.98174941971E+03  0.15559059688E+04  0.12070672975E+04 0.  0.
        4    1    3    3  502    0 -0.11896501070E+03  0.41656264367E+03 -0.10325205545E+04  0.11197220272E+04  0.12699999809E+01 0. -1.
       -4    1    3    3    0  502  0.11896501070E+03 -0.41656264367E+03  0.50771134783E+02  0.43618394158E+03  0.12699999809E+01 0.  1.
</event>
<event>
 5   0  0.1397500E-03  0.1166365E+04  0.7818609E-02  0.9142817E-01
        4   -1    0    0  501    0  0.00000000000E+00  0.00000000000E+00  0.10095432678E+04  0.10095440666E+04  0.12699999809E+01 0. -1.
       -4   -1    0    0    0  501  0.00000000000E+00  0.00000000000E+00 -0.33688497667E+03  0.33688737050E+03  0.12699999809E+01 0.  1.
    10030    2    1    2    0    0  0.00000000000E+00  0.00000000000E+00  0.67265829113E+03  0.13464314371E+04  0.11663654823E+04 0.  0.
        4    1    3    3  502    0 -0.53283740184E+03  0.63774661749E+02  0.59986624224E+03  0.80487516160E+03  0.12699999809E+01 0. -1.
       -4    1    3    3    0  502  0.53283740184E+03 -0.63774661749E+02  0.72792048883E+02  0.54155627552E+03  0.12699999809E+01 0.  1.
</event>
<event>
 5   0  0.2096270E-03  0.1248442E+04  0.7818609E-02  0.9071481E-01
       -1   -1    0    0    0  501  0.00000000000E+00  0.00000000000E+00  0.83927811472E+03  0.83927811474E+03  0.50400001928E-02 0.  1.
        1   -1    0    0  501    0  0.00000000000E+00  0.00000000000E+00 -0.46427034874E+03  0.46427034877E+03  0.50400001928E-02 0. -1.
    10030    2    1    2    0    0  0.00000000000E+00  0.00000000000E+00  0.37500776599E+03  0.13035484635E+04  0.12484421381E+04 0.  0.
        2    1    3    3  502    0  0.60546516149E+03  0.38123888528E+01  0.28982418526E+02  0.60617041884E+03  0.25500000920E-02 0.  1.
       -2    1    3    3    0  502 -0.60546516149E+03 -0.38123888528E+01  0.34602534746E+03  0.69737804466E+03  0.25500000920E-02 0. -1.
</event>
<event>
 5   0  0.2134992E-03  0.1135373E+04  0.7818609E-02  0.9171385E-01
        1   -1    0    0  501    0  0.00000000000E+00  0.00000000000E+00  0.65938381976E+03  0.65938381978E+03  0.50400001928E-02 0. -1.
       -1   -1    0    0    0  501  0.00000000000E+00  0.00000000000E+00 -0.48874078526E+03  0.48874078529E+03  0.50400001928E-02 0.  1.
    10030    2    1    2    0    0  0.00000000000E+00  0.00000000000E+00  0.17064303450E+03  0.11481246051E+04  0.11353726540E+04 0.  0.
        4    1    3    3  502    0 -0.43170908993E+02  0.45772619786E+03  0.42206184348E+03  0.62411121783E+03  0.12699999809E+01 0. -1.
       -4    1    3    3    0  502  0.43170908993E+02 -0.45772619786E+03 -0.25141880899E+03  0.52401338724E+03  0.12699999809E+01 0.  1.
</event>
<event>
 5   0  0.2078258E-03  0.1169283E+04  0.7818609E-02  0.9140177E-01
        1   -1    0    0  501    0  0.00000000000E+00  0.00000000000E+00  0.58331089097E+03  0.58331089100E+03  0.50400001928E-02 0. -1.
       -1   -1    0    0    0  501  0.00000000000E+00  0.00000000000E+00 -0.58597465372E+03  0.58597465374E+03  0.50400001928E-02 0.  1.
    10030    2    1    2    0    0  0.00000000000E+00  0.00000000000E+00 -0.26637627474E+01  0.11692855447E+04  0.11692825106E+04 0.  0.
        3    1    3    3  502    0 -0.37325599941E+03 -0.11659003938E+03 -0.43595020716E+03  0.58563288134E+03  0.10100000352E+00 0.  1.
       -3    1    3    3    0  502  0.37325599941E+03  0.11659003938E+03  0.43328644442E+03  0.58365266340E+03  0.10100000352E+00 0. -1.
</event>
<event>
 5   0  0.2025294E-03  0.1211410E+04  0.7818609E-02  0.9102927E-01
        1   -1    0    0  501    0  0.00000000000E+00  0.00000000000E+00  0.21148834009E+04  0.21148834009E+04  0.50400001928E-02 0.  1.
       -1   -1    0    0    0  501  0.00000000000E+00  0.00000000000E+00 -0.17347473054E+03  0.17347473062E+03  0.50400001928E-02 0. -1.
    10030    2    1    2    0    0  0.00000000000E+00  0.00000000000E+00  0.19414086703E+04  0.22883581315E+04  0.12114104642E+04 0.  0.
        5    1    3    3  502    0  0.47315412155E+03  0.28721219995E+03  0.50610530672E+03  0.75002022775E+03  0.46999998093E+01 0. -1.
       -5    1    3    3    0  502 -0.47315412155E+03 -0.28721219995E+03  0.14353033636E+04  0.15383379038E+04  0.46999998093E+01 0.  1.
</event>
<event>
 5   0  0.3650180E-03  0.1122047E+04  0.7818609E-02  0.9183966E-01
        2   -1    0    0  501    0  0.00000000000E+00  0.00000000000E+00  0.48569888617E+03  0.48569888617E+03  0.25500000920E-02 0. -1.
       -2   -1    0    0    0  501  0.00000000000E+00  0.00000000000E+00 -0.64802955751E+03  0.64802955752E+03  0.25500000920E-02 0.  1.
    10030    2    1    2    0    0  0.00000000000E+00  0.00000000000E+00 -0.16233067135E+03  0.11337284437E+04  0.11220467625E+04 0.  0.
        3    1    3    3  502    0 -0.36789675011E+03 -0.40130336392E+03  0.55725097209E+02  0.54726383518E+03  0.10100000352E+00 0. -1.
       -3    1    3    3    0  502  0.36789675011E+03  0.40130336392E+03 -0.21805576856E+03  0.58646460851E+03  0.10100000352E+00 0.  1.
</event>
<event>
 5   0  0.2047109E-03  0.9798724E+03  0.7818609E-02  0.9330900E-01
       -1   -1    0    0    0  501  0.00000000000E+00  0.00000000000E+00  0.53966691611E+03  0.53966691613E+03  0.50400001928E-02 0. -1.
        1   -1    0    0  501    0  0.00000000000E+00  0.00000000000E+00 -0.44478820957E+03  0.44478820960E+03  0.50400001928E-02 0.  1.
    10030    2    1    2    0    0  0.00000000000E+00  0.00000000000E+00  0.94878706541E+02  0.98445512573E+03  0.97987240273E+03 0.  0.
        1    1    3    3  502    0 -0.37577651572E+03  0.17678163531E+03 -0.21373362780E+03  0.46705652766E+03  0.50400001928E-02 0.  1.
       -1    1    3    3    0  502  0.37577651572E+03 -0.17678163531E+03  0.30861233434E+03  0.51739859807E+03  0.50400001928E-02 0. -1.
</event>
<event>
 5   0  0.3626049E-03  0.1202379E+04  0.7818609E-02  0.9110776E-01
       -2   -1    0    0    0  501  0.00000000000E+00  0.00000000000E+00  0.11600106311E+04  0.11600106311E+04  0.25500000920E-02 0.  1.
        2   -1    0    0  501    0  0.00000000000E+00  0.00000000000E+00 -0.31157390626E+03  0.31157390627E+03  0.25500000920E-02 0. -1.
    10030    2    1    2    0    0  0.00000000000E+00  0.00000000000E+00  0.84843672482E+03  0.14715845374E+04  0.12023793805E+04 0.  0.
        1    1    3    3  502    0 -0.21153333310E+03 -0.29200375780E+03 -0.16454510525E+03  0.39634282795E+03  0.50400001928E-02 0. -1.
       -1    1    3    3    0  502  0.21153333310E+03  0.29200375780E+03  0.10129818301E+04  0.10752417094E+04  0.50400001928E-02 0.  1.
</event>
<event>
 5   0  0.2078258E-03  0.1192831E+04  0.7818609E-02  0.9119155E-01
        1   -1    0    0  501    0  0.00000000000E+00  0.00000000000E+00  0.19591281126E+04  0.19591281126E+04  0.50400001928E-02 0. -1.
       -1   -1    0    0    0  501  0.00000000000E+00  0.00000000000E+00 -0.18156616593E+03  0.18156616600E+03  0.50400001928E-02 0.  1.
    10030    2    1    2    0    0  0.00000000000E+00  0.00000000000E+00  0.17775619467E+04  0.21406942786E+04  0.11928308850E+04 0.  0.
        3    1    3    3  502    0  0.23741797769E+03  0.54687271914E+03  0.85905809440E+03  0.10456662406E+04  0.10100000352E+00 0. -1.
       -3    1    3    3    0  502 -0.23741797769E+03 -0.54687271914E+03  0.91850385225E+03  0.10950280379E+04  0.10100000352E+00 0.  1.
</event>
<event>
 5   0  0.2096270E-03  0.1207397E+04  0.7818609E-02  0.9106407E-01
       -1   -1    0    0    0  501  0.00000000000E+00  0.00000000000E+00  0.53552838756E+03  0.53552838759E+03  0.50400001928E-02 0. -1.
        1   -1    0    0  501    0  0.00000000000E+00  0.00000000000E+00 -0.68054611942E+03  0.68054611944E+03  0.50400001928E-02 0.  1.
    10030    2    1    2    0    0  0.00000000000E+00  0.00000000000E+00 -0.14501773185E+03  0.12160745070E+04  0.12073968130E+04 0.  0.
        2    1    3    3  502    0  0.47649197186E+03  0.36912738172E+03 -0.38321682545E+02  0.60396040809E+03  0.25500000920E-02 0. -1.
       -2    1    3    3    0  502 -0.47649197186E+03 -0.36912738172E+03 -0.10669604931E+03  0.61211409894E+03  0.25500000920E-02 0.  1.
</event>
<event>
 5   0  0.2025294E-03  0.1206167E+04  0.7818609E-02  0.9107475E-01
       -1   -1    0    0    0  501  0.00000000000E+00  0.00000000000E+00  0.30567281589E+03  0.30567281593E+03  0.50400001928E-02 0. -1.
        1   -1    0    0  501    0  0.00000000000E+00  0.00000000000E+00 -0.11898670351E+04  0.11898670352E+04  0.50400001928E-02 0.  1.
    10030    2    1    2    0    0  0.00000000000E+00  0.00000000000E+00 -0.88419421925E+03  0.14955398511E+04  0.12061674962E+04 0.  0.
        5    1    3    3  502    0 -0.24961778024E+02  0.44320901431E+03  0.64039490592E+02  0.44853145607E+03  0.46999998093E+01 0. -1.
       -5    1    3    3    0  502  0.24961778024E+02 -0.44320901431E+03 -0.94823370985E+03  0.10470083950E+04  0.46999998093E+01 0.  1.
</event>
<event>
 5   0  0.3751091E-03  0.1208277E+04  0.7818609E-02  0.9105643E-01
       -2   -1    0    0    0  501  0.00000000000E+00  0.00000000000E+00  0.21010790746E+03  0.21010790747E+03  0.25500000920E-02 0.  1.
        2   -1    0    0  501    0  0.00000000000E+00  0.00000000000E+00 -0.17371220509E+04  0.17371220509E+04  0.25500000920E-02 0. -1.
    10030    2    1    2    0    0  0.00000000000E+00  0.00000000000E+00 -0.15270141434E+04  0.19472299584E+04  0.12082765894E+04 0.  0.
        5    1    3    3  502    0 -0.57646396006E+03 -0.18004190003E+03 -0.73879124215E+03  0.95423287121E+03  0.46999998093E+01 0. -1.
       -5    1    3    3    0  502  0.57646396006E+03  0.18004190003E+03 -0.78822290129E+03  0.99299708717E+03  0.46999998093E+01 0.  1.
</event>
<event>
 5   0  0.3751091E-03  0.1178260E+04  0.7818609E-02  0.9132101E-01
        2   -1    0    0  501    0  0.00000000000E+00  0.00000000000E+00  0.89746287738E+03  0.89746287738E+03  0.25500000920E-02 0. -1.
       -2   -1    0    0    0  501  0.00000000000E+00  0.00000000000E+00 -0.38672794782E+03  0.38672794783E+03  0.25500000920E-02 0.  1.
    10030    2    1    2    0    0  0.00000000000E+00  0.00000000000E+00  0.51073492956E+03  0.12841908252E+04  0.11782596943E+04 0.  0.
        5    1    3    3  502    0 -0.50835284130E+03 -0.29309867197E+03  0.19849945587E+03  0.61947846351E+03  0.46999998093E+01 0. -1.
       -5    1    3    3    0  502  0.50835284130E+03  0.29309867197E+03  0.31223547370E+03  0.66471236170E+03  0.46999998093E+01 0.  1.
</event>
<event>
 5   0  0.3751091E-03  0.1191096E+04  0.7818609E-02  0.9120686E-01
        2   -1    0    0  501    0  0.00000000000E+00  0.00000000000E+00  0.55114684964E+03  0.55114684965E+03  0.25500000920E-02 0.  1.
       -2   -1    0    0    0  501  0.00000000000E+00  0.00000000000E+00 -0.64352576980E+03  0.64352576980E+03  0.25500000920E-02 0. -1.
    10030    2    1    2    0    0  0.00000000000E+00  0.00000000000E+00 -0.92378920157E+02  0.11946726194E+04  0.11910956312E+04 0.  0.
        5    1    3    3  502    0  0.38997728694E+03  0.26905230351E+03 -0.40808277256E+03  0.62531997058E+03  0.46999998093E+01 0. -1.
       -5    1    3    3    0  502 -0.38997728694E+03 -0.26905230351E+03  0.31570385240E+03  0.56935264887E+03  0.46999998093E+01 0.  1.
</event>
<event>
 5   0  0.2134992E-03  0.1294568E+04  0.7818609E-02  0.9033884E-01
        1   -1    0    0  501    0  0.00000000000E+00  0.00000000000E+00  0.88132910429E+03  0.88132910430E+03  0.50400001928E-02 0.  1.
       -1   -1    0    0    0  501  0.00000000000E+00  0.00000000000E+00 -0.47539187790E+03  0.47539187792E+03  0.50400001928E-02 0. -1.
    10030    2    1    2    0    0  0.00000000000E+00  0.00000000000E+00  0.40593722639E+03  0.13567209822E+04  0.12945681874E+04 0.  0.
        4    1    3    3  502    0 -0.25227007961E+03 -0.59515338345E+02  0.82456587775E+03  0.86434528298E+03  0.12699999809E+01 0.  1.
       -4    1    3    3    0  502  0.25227007961E+03  0.59515338345E+02 -0.41862865136E+03  0.49237569924E+03  0.12699999809E+01 0. -1.
</event>
<event>
 5   0  0.3706035E-03  0.1297733E+04  0.7818609E-02  0.9031365E-01
        2   -1    0    0  501    0  0.00000000000E+00  0.00000000000E+00  0.13210613359E+04  0.13210613359E+04  0.25500000920E-02 0.  1.
       -2   -1    0    0    0  501  0.00000000000E+00  0.00000000000E+00 -0.31870409588E+03  0.31870409589E+03  0.25500000920E-02 0. -1.
    10030    2    1    2    0    0  0.00000000000E+00  0.00000000000E+00  0.10023572400E+04  0.16397654318E+04  0.12977328827E+04 0.  0.
        2    1    3    3  502    0 -0.41552262391E+03  0.63751944286E+02 -0.12336384162E+03  0.43811185650E+03  0.25500000920E-02 0. -1.
       -2    1    3    3    0  502  0.41552262391E+03 -0.63751944286E+02  0.11257210817E+04  0.12016535753E+04  0.25500000920E-02 0.  1.
</event>
<event>
 5   0  0.3650180E-03  0.1213664E+04  0.7818609E-02  0.9100980E-01
       -2   -1    0    0    0  501  0.00000000000E+00  0.00000000000E+00  0.45640638535E+03  0.45640638535E+03  0.25500000920E-02 0. -1.
        2   -1    0    0  501    0  0.00000000000E+00  0.00000000000E+00 -0.80683589714E+03  0.80683589714E+03  0.25500000920E-02 0.  1.
    10030    2    1    2    0    0  0.00000000000E+00  0.00000000000E+00 -0.35042951179E+03  0.12632422825E+04  0.12136639657E+04 0.  0.
        3    1    3    3  502    0 -0.17752839584E+02 -0.60551313914E+03 -0.13792209406E+03  0.62127597670E+03  0.10100000352E+00 0.  1.
       -3    1    3    3    0  502  0.17752839584E+02  0.60551313914E+03 -0.21250741772E+03  0.64196630580E+03  0.10100000352E+00 0. -1.
</event>
<event>
 5   0  0.2047109E-03  0.1183621E+04  0.7818609E-02  0.9127315E-01
        1   -1    0    0  501    0  0.00000000000E+00  0.00000000000E+00  0.49785699721E+03  0.49785699723E+03  0.50400001928E-02 0. -1.
       -1   -1    0    0    0  501  0.00000000000E+00  0.00000000000E+00 -0.70349415492E+03  0.70349415494E+03  0.50400001928E-02 0.  1.
    10030    2    1    2    0    0  0.00000000000E+00  0.00000000000E+00 -0.20563715772E+03  0.12013511522E+04  0.11836206952E+04 0.  0.
        1    1    3    3  502    0  0.16226163685E+03  0.48050587044E+03 -0.41238702820E+03  0.65366489226E+03  0.50400001928E-02 0.  1.
       -1    1    3    3    0  502 -0.16226163685E+03 -0.48050587044E+03  0.20674987049E+03  0.54768625991E+03  0.50400001928E-02 0. -1.
</event>
<event>
 5   0  0.3650180E-03  0.1154762E+04  0.7818609E-02  0.9153401E-01
        2   -1    0    0  501    0  0.00000000000E+00  0.00000000000E+00  0.67174574691E+03  0.67174574691E+03  0.25500000920E-02 0.  1.
       -2   -1    0    0    0  501  0.00000000000E+00  0.00000000000E+00 -0.49627262276E+03  0.49627262277E+03  0.25500000920E-02 0. -1.
    10030    2    1    2    0    0  0.00000000000E+00  0.00000000000E+00  0.17547312414E+03  0.11680183697E+04  0.11547623542E+04 0.  0.
        3    1    3    3  502    0 -0.23642882820E+02 -0.15040298441E+03  0.65107609722E+03  0.66864051492E+03  0.10100000352E+00 0.  1.
       -3    1    3    3    0  502  0.23642882820E+02  0.15040298441E+03 -0.47560297308E+03  0.49937785476E+03  0.10100000352E+00 0. -1.
</event>
<event>
 5   0  0.2134992E-03  0.1199731E+04  0.7818609E-02  0.9113092E-01
        1   -1    0    0  501    0  0.00000000000E+00  0.00000000000E+00  0.49870065818E+03  0.49870065821E+03  0.50400001928E-02 0.  1.
       -1   -1    0    0    0  501  0.00000000000E+00  0.00000000000E+00 -0.72155250123E+03  0.72155250125E+03  0.50400001928E-02 0. -1.
    10030    2    1    2    0    0  0.00000000000E+00  0.00000000000E+00 -0.22285184305E+03  0.12202531595E+04  0.11997311487E+04 0.  0.
        4    1    3    3  502    0 -0.16506339907E+03  0.36591510281E+03 -0.56480554331E+03  0.69292618859E+03  0.12699999809E+01 0. -1.
       -4    1    3    3    0  502  0.16506339907E+03 -0.36591510281E+03  0.34195370026E+03  0.52732697086E+03  0.12699999809E+01 0.  1.
</event>
<event>
 5   0  0.3751091E-03  0.1198200E+04  0.7818609E-02  0.9114433E-01
       -2   -1    0    0    0  501  0.00000000000E+00  0.00000000000E+00  0.23721645977E+03  0.23721645978E+03  0.25500000920E-02 0. -1.
        2   -1    0    0  501    0  0.00000000000E+00  0.00000000000E+00 -0.15130528419E+04  0.15130528419E+04  0.25500000920E-02 0.  1.
    10030    2    1    2    0    0  0.00000000000E+00  0.00000000000E+00 -0.12758363821E+04  0.17502693017E+04  0.11982003816E+04 0.  0.
        5    1    3    3  502    0 -0.37591330488E+03  0.11590272584E+02 -0.13190935420E+04  0.13716686954E+04  0.46999998093E+01 0.  1.
       -5    1    3    3    0  502  0.37591330488E+03 -0.11590272584E+02  0.43257159927E+02  0.37860060630E+03  0.46999998093E+01 0. -1.
</event>
<event>
 5   0  0.2078258E-03  0.1192966E+04  0.7818609E-02  0.9119035E-01
       -1   -1    0    0    0  501  0.00000000000E+00  0.00000000000E+00  0.58370663098E+03  0.58370663100E+03  0.50400001928E-02 0.  1.
        1   -1    0    0  501    0  0.00000000000E+00  0.00000000000E+00 -0.60953937605E+03  0.60953937607E+03  0.50400001928E-02 0. -1.
    10030    2    1    2    0    0  0.00000000000E+00  0.00000000000E+00 -0.25832745069E+02  0.11932460071E+04  0.11929663460E+04 0.  0.
        3    1    3    3  502    0  0.25348004313E+03 -0.42249554965E+03 -0.34920575325E+03  0.60390337807E+03  0.10100000352E+00 0. -1.
       -3    1    3    3    0  502 -0.25348004313E+03  0.42249554965E+03  0.32337300818E+03  0.58934262900E+03  0.10100000352E+00 0.  1.
</event>
<event>
 5   0  0.3706035E-03  0.1190386E+04  0.7818609E-02  0.9121313E-01
       -2   -1    0    0    0  501  0.00000000000E+00  0.00000000000E+00  0.12789325302E+04  0.12789325302E+04  0.25500000920E-02 0. -1.
        2   -1    0    0  501    0  0.00000000000E+00  0.00000000000E+00 -0.27699267624E+03  0.27699267625E+03  0.25500000920E-02 0.  1.
    10030    2    1    2    0    0  0.00000000000E+00  0.00000000000E+00  0.10019398539E+04  0.15559252064E+04  0.11903863982E+04 0.  0.
        2    1    3    3  502    0 -0.45953986738E+03 -0.37815251289E+03  0.48937213915E+03  0.77049419420E+03  0.25500000920E-02 0.  1.
       -2    1    3    3    0  502  0.45953986738E+03  0.37815251289E+03  0.51256771478E+03  0.78543101222E+03  0.25500000920E-02 0. -1.
</event>
<event>
 5   0  0.2025294E-03  0.1193465E+04  0.7818609E-02  0.9118596E-01
       -1   -1    0    0    0  501  0.00000000000E+00  0.00000000000E+00  0.14675644269E+03  0.14675644278E+03  0.50400001928E-02 0. -1.
        1   -1    0    0  501    0  0.00000000000E+00  0.00000000000E+00 -0.24263971915E+04  0.24263971915E+04  0.50400001928E-02 0.  1.
    10030    2    1    2    0    0  0.00000000000E+00  0.00000000000E+00 -0.22796407488E+04  0.25731536343E+04  0.11934645709E+04 0.  0.
        5    1    3    3  502    0 -0.18282683909E+03  0.42768372099E+03 -0.33388838792E+03  0.57257537834E+03  0.46999998093E+01 0. -1.
       -5    1    3    3    0  502  0.18282683909E+03 -0.42768372099E+03 -0.19457523609E+04  0.20005782560E+04  0.46999998093E+01 0.  1.
</event>
<event>
 5   0  0.2096270E-03  0.1219942E+04  0.7818609E-02  0.9095578E-01
       -1   -1    0    0    0  501  0.00000000000E+00  0.00000000000E+00  0.75425245421E+03  0.75425245423E+03  0.50400001928E-02 0.  1.
        1   -1    0    0  501    0  0.00000000000E+00  0.00000000000E+00 -0.49328942702E+03  0.49328942705E+03  0.50400001928E-02 0. -1.
    10030    2    1    2    0    0  0.00000000000E+00  0.00000000000E+00  0.26096302719E+03  0.12475418813E+04  0.12199422298E+04 0.  0.
        2    1    3    3  502    0  0.14770942417E+03 -0.48512640997E+03 -0.21615482948E+03  0.55126093454E+03  0.25500000920E-02 0. -1.
       -2    1    3    3    0  502 -0.14770942417E+03  0.48512640997E+03  0.47711785667E+03  0.69628094674E+03  0.25500000920E-02 0.  1.
</event>
<event>
 5   0  0.2025294E-03  0.1192772E+04  0.7818609E-02  0.9119207E-01
        1   -1    0    0  501    0  0.00000000000E+00  0.00000000000E+00  0.37501217544E+03  0.37501217547E+03  0.50400001928E-02 0.  1.
       -1   -1    0    0    0  501  0.00000000000E+00  0.00000000000E+00 -0.94843897096E+03  0.94843897097E+03  0.50400001928E-02 0. -1.
    10030    2    1    2    0    0  0.00000000000E+00  0.00000000000E+00 -0.57342679552E+03  0.13234511464E+04  0.11927718337E+04 0.  0.
        5    1    3    3  502    0  0.45768598262E+03 -0.91090374422E+02 -0.69871738950E+03  0.84023924889E+03  0.46999998093E+01 0. -1.
       -5    1    3    3    0  502 -0.45768598262E+03  0.91090374422E+02  0.12529059398E+03  0.48321189755E+03  0.46999998093E+01 0.  1.
</event>
<event>
 5   0  0.3751091E-03  0.1193787E+04  0.7818609E-02  0.9118312E-01
       -2   -1    0    0    0  501  0.00000000000E+00  0.00000000000E+00  0.18175694192E+03  0.18175694194E+03  0.25500000920E-02 0. -1.
        2   -1    0    0  501    0  0.00000000000E+00  0.00000000000E+00 -0.19602094673E+04  0.19602094673E+04  0.25500000920E-02 0.  1.
    10030    2    1    2    0    0  0.00000000000E+00  0.00000000000E+00 -0.17784525254E+04  0.21419664092E+04  0.11937867118E+04 0.  0.
        5    1    3    3  502    0 -0.49835962393E+02 -0.46295038974E+03 -0.15592646634E+04  0.16273091491E+04  0.46999998093E+01 0.  1.
       -5    1    3    3    0  502  0.49835962393E+02  0.46295038974E+03 -0.21918786201E+03  0.51465726009E+03  0.46999998093E+01 0. -1.
</event>
<event>
 5   0  0.2025294E-03  0.1206231E+04  0.7818609E-02  0.9107420E-01
        1   -1    0    0  501    0  0.00000000000E+00  0.00000000000E+00  0.43874408836E+03  0.43874408839E+03  0.50400001928E-02 0.  1.
       -1   -1    0    0    0  501  0.00000000000E+00  0.00000000000E+00 -0.82906766394E+03  0.82906766395E+03  0.50400001928E-02 0. -1.
    10030    2    1    2    0    0  0.00000000000E+00  0.00000000000E+00 -0.39032357557E+03  0.12678117523E+04  0.12062313815E+04 0.  0.
        5    1    3    3  502    0 -0.45224218848E+03  0.19253140005E+03 -0.56248165038E+03  0.74699332932E+03  0.46999998093E+01 0. -1.
       -5    1    3    3    0  502  0.45224218848E+03 -0.19253140005E+03  0.17215807480E+03  0.52081842302E+03  0.46999998093E+01 0.  1.
</event>
<event>
 5   0  0.3626049E-03  0.1172475E+04  0.7818609E-02  0.9137297E-01
        2   -1    0    0  501    0  0.00000000000E+00  0.00000000000E+00  0.35924252215E+03  0.35924252216E+03  0.25500000920E-02 0. -1.
       -2   -1    0    0    0  501  0.00000000000E+00  0.00000000000E+00 -0.95666346325E+03  0.95666346325E+03  0.25500000920E-02 0.  1.
    10030    2    1    2    0    0  0.00000000000E+00  0.00000000000E+00 -0.59742094110E+03  0.13159059854E+04  0.11724746401E+04 0.  0.
        1    1    3    3  502    0  0.31251470958E+02  0.36341310364E+03 -0.81379668592E+03  0.89180198720E+03  0.50400001928E-02 0.  1.
       -1    1    3    3    0  502 -0.31251470958E+02 -0.36341310364E+03  0.21637574482E+03  0.42410399822E+03  0.50400001928E-02 0. -1.
</event>
<event>
 5   0  0.3751091E-03  0.1160842E+04  0.7818609E-02  0.9147839E-01
       -2   -1    0    0    0  501  0.00000000000E+00  0.00000000000E+00  0.25653259333E+03  0.25653259334E+03  0.25500000920E-02 0. -1.
        2   -1    0    0  501    0  0.00000000000E+00  0.00000000000E+00 -0.13132393874E+04  0.13132393874E+04  0.25500000920E-02 0.  1.
    10030    2    1    2    0    0  0.00000000000E+00  0.00000000000E+00 -0.10567067941E+04  0.15697719808E+04  0.11608422903E+04 0.  0.
        5    1    3    3  502    0 -0.54177982026E+02 -0.57777033047E+03 -0.54271595545E+03  0.79455428185E+03  0.46999998093E+01 0.  1.
       -5    1    3    3    0  502  0.54177982026E+02  0.57777033047E+03 -0.51399083863E+03  0.77521769891E+03  0.46999998093E+01 0. -1.
</event>
<event>
 5   0  0.3751091E-03  0.1198432E+04  0.7818609E-02  0.9114230E-01
        2   -1    0    0  501    0  0.00000000000E+00  0.00000000000E+00  0.66529647732E+03  0.66529647732E+03  0.25500000920E-02 0.  1.
       -2   -1    0    0    0  501  0.00000000000E+00  0.00000000000E+00 -0.53969902777E+03  0.53969902778E+03  0.25500000920E-02 0. -1.
    10030    2    1    2    0    0  0.00000000000E+00  0.00000000000E+00  0.12559744955E+03  0.12049955051E+04  0.11984320790E+04 0.  0.
        5    1    3    3  502    0 -0.18123414457E+03  0.39059992282E+03 -0.35616502829E+03  0.55882889352E+03  0.46999998093E+01 0. -1.
       -5    1    3    3    0  502  0.18123414457E+03 -0.39059992282E+03  0.48176247784E+03  0.64616661157E+03  0.46999998093E+01 0.  1.
</event>
<event>
 5   0  0.2025294E-03  0.1209079E+04  0.7818609E-02  0.9104947E-01
        1   -1    0    0  501    0  0.00000000000E+00  0.00000000000E+00  0.51731179782E+03  0.51731179784E+03  0.50400001928E-02 0.  1.
       -1   -1    0    0    0  501  0.00000000000E+00  0.00000000000E+00 -0.70647494832E+03  0.70647494834E+03  0.50400001928E-02 0. -1.
    10030    2    1    2    0    0  0.00000000000E+00  0.00000000000E+00 -0.18916315050E+03  0.12237867462E+04  0.12090786999E+04 0.  0.
        5    1    3    3  502    0 -0.71228477578E+01  0.43598510534E+03  0.32921455140E+03  0.54638636320E+03  0.46999998093E+01 0.  1.
       -5    1    3    3    0  502  0.71228477578E+01 -0.43598510534E+03 -0.51837770190E+03  0.67740038298E+03  0.46999998093E+01 0. -1.
</event>
<event>
 5   0  0.2025294E-03  0.1196533E+04  0.7818609E-02  0.9115897E-01
       -1   -1    0    0    0  501  0.00000000000E+00  0.00000000000E+00  0.40573089373E+03  0.40573089376E+03  0.50400001928E-02 0. -1.
        1   -1    0    0  501    0  0.00000000000E+00  0.00000000000E+00 -0.88216742944E+03  0.88216742945E+03  0.50400001928E-02 0.  1.
    10030    2    1    2    0    0  0.00000000000E+00  0.00000000000E+00 -0.47643653571E+03  0.12878983232E+04  0.11965326232E+04 0.  0.
        5    1    3    3  502    0 -0.30653803100E+03 -0.39583101551E+03 -0.59071996812E+03  0.77435129498E+03  0.46999998093E+01 0.  1.
       -5    1    3    3    0  502  0.30653803100E+03  0.39583101551E+03  0.11428343242E+03  0.51354702824E+03  0.46999998093E+01 0. -1.
</event>
<event>
 5   0  0.3751091E-03  0.1210969E+04  0.7818609E-02  0.9103309E-01
        2   -1    0    0  501    0  0.00000000000E+00  0.00000000000E+00  0.41412285966E+03  0.41412285967E+03  0.25500000920E-02 0. -1.
       -2   -1    0    0    0  501  0.00000000000E+00  0.00000000000E+00 -0.88527203315E+03  0.88527203315E+03  0.25500000920E-02 0.  1.
    10030    2    1    2    0    0  0.00000000000E+00  0.00000000000E+00 -0.47114917349E+03  0.12993948928E+04  0.12109688451E+04 0.  0.
        5    1    3    3  502    0 -0.14235650305E+03  0.14483366765E+03  0.37646804774E+03  0.42777616368E+03  0.46999998093E+01 0. -1.
       -5    1    3    3    0  502  0.14235650305E+03 -0.14483366765E+03 -0.84761722124E+03  0.87161872914E+03  0.46999998093E+01 0.  1.
</event>
<event>
 5   0  0.2134992E-03  0.1199217E+04  0.7818609E-02  0.9113542E-01
       -1   -1    0    0    0  501  0.00000000000E+00  0.00000000000E+00  0.59357964198E+03  0.59357964200E+03  0.50400001928E-02 0.  1.
        1   -1    0    0  501    0  0.00000000000E+00  0.00000000000E+00 -0.60569842325E+03  0.60569842327E+03  0.50400001928E-02 0. -1.
    10030    2    1    2    0    0  0.00000000000E+00  0.00000000000E+00 -0.12118781273E+02  0.11992780653E+04  0.11992168332E+04 0.  0.
        4    1    3    3  502    0 -0.42308272439E+03 -0.34340461514E+03  0.24415913814E+03  0.59711055846E+03  0.12699999809E+01 0.  1.
       -4    1    3    3    0  502  0.42308272439E+03  0.34340461514E+03 -0.25627791942E+03  0.60216750681E+03  0.12699999809E+01 0. -1.
</event>
<event>
 5   0  0.3626049E-03  0.1196646E+04  0.7818609E-02  0.9115797E-01
        2   -1    0    0  501    0  0.00000000000E+00  0.00000000000E+00  0.53038820881E+03  0.53038820881E+03  0.25500000920E-02 0. -1.
       -2   -1    0    0    0  501  0.00000000000E+00  0.00000000000E+00 -0.67495950376E+03  0.67495950376E+03  0.25500000920E-02 0.  1.
    10030    2    1    2    0    0  0.00000000000E+00  0.00000000000E+00 -0.14457129495E+03  0.12053477126E+04  0.11966462505E+04 0.  0.
        1    1    3    3  502    0  0.56029425572E+03 -0.34814224728E+02  0.13621926698E+03  0.57766544986E+03  0.50400001928E-02 0. -1.
       -1    1    3    3    0  502 -0.56029425572E+03  0.34814224728E+02 -0.28079056192E+03  0.62768226272E+03  0.50400001928E-02 0.  1.
</event>
<event>
 5   0  0.2025294E-03  0.1199559E+04  0.7818609E-02  0.9113243E-01
        1   -1    0    0  501    0  0.00000000000E+00  0.00000000000E+00  0.12838801350E+04  0.12838801350E+04  0.50400001928E-02 0. -1.
       -1   -1    0    0    0  501  0.00000000000E+00  0.00000000000E+00 -0.28019385637E+03  0.28019385641E+03  0.50400001928E-02 0.  1.
    10030    2    1    2    0    0  0.00000000000E+00  0.00000000000E+00  0.10036862786E+04  0.15640739914E+04  0.11995587958E+04 0.  0.
        5    1    3    3  502    0 -0.37073972978E+03 -0.46455019193E+03  0.39705828898E+03  0.71479521746E+03  0.46999998093E+01 0.  1.
       -5    1    3    3    0  502  0.37073972978E+03  0.46455019193E+03  0.60662798960E+03  0.84927877391E+03  0.46999998093E+01 0. -1.
</event>
<event>
 5   0  0.2047109E-03  0.8762421E+03  0.7818609E-02  0.9455777E-01
        1   -1    0    0  501    0  0.00000000000E+00  0.00000000000E+00  0.19405723069E+04  0.19405723069E+04  0.50400001928E-02 0.  1.
       -1   -1    0    0    0  501  0.00000000000E+00  0.00000000000E+00 -0.98914150702E+02  0.98914150831E+02  0.50400001928E-02 0. -1.
    10030    2    1    2    0    0  0.00000000000E+00  0.00000000000E+00  0.18416581562E+04  0.20394864577E+04  0.87624211665E+03 0.  0.
        1    1    3    3  502    0 -0.90479793141E+02  0.41141049505E+03  0.64050934417E+03  0.76661425006E+03  0.50400001928E-02 0. -1.
       -1    1    3    3    0  502  0.90479793141E+02 -0.41141049505E+03  0.12011488120E+04  0.12728722076E+04  0.50400001928E-02 0.  1.
</event>
<event>
 5   0  0.2047109E-03  0.1200145E+04  0.7818609E-02  0.9112730E-01
       -1   -1    0    0    0  501  0.00000000000E+00  0.00000000000E+00  0.36253316482E+03  0.36253316486E+03  0.50400001928E-02 0. -1.
        1   -1    0    0  501    0  0.00000000000E+00  0.00000000000E+00 -0.99325237545E+03  0.99325237547E+03  0.50400001928E-02 0.  1.
    10030    2    1    2    0    0  0.00000000000E+00  0.00000000000E+00 -0.63071921063E+03  0.13557855403E+04  0.12001448699E+04 0.  0.
        1    1    3    3  502    0  0.44597906867E+03  0.38655458665E+03 -0.19282576625E+03  0.62088932533E+03  0.50400001928E-02 0. -1.
       -1    1    3    3    0  502 -0.44597906867E+03 -0.38655458665E+03 -0.43789344438E+03  0.73489621499E+03  0.50400001928E-02 0.  1.
</event>
<event>
 5   0  0.2134992E-03  0.1084675E+04  0.7818609E-02  0.9220259E-01
        1   -1    0    0  501    0  0.00000000000E+00  0.00000000000E+00  0.12723491157E+04  0.12723491157E+04  0.50400001928E-02 0. -1.
       -1   -1    0    0    0  501  0.00000000000E+00  0.00000000000E+00 -0.23117081763E+03  0.23117081768E+03  0.50400001928E-02 0.  1.
    10030    2    1    2    0    0  0.00000000000E+00  0.00000000000E+00  0.10411782981E+04  0.15035199334E+04  0.10846750397E+04 0.  0.
        4    1    3    3  502    0 -0.16534030303E+03  0.12814490298E+03 -0.17299722138E+03  0.27145567496E+03  0.12699999809E+01 0.  1.
       -4    1    3    3    0  502  0.16534030303E+03 -0.12814490298E+03  0.12141755194E+04  0.12320642584E+04  0.12699999809E+01 0. -1.
</event>
<event>
 5   0  0.3725376E-03  0.1204064E+04  0.7818609E-02  0.9109307E-01
       -2   -1    0    0    0  501  0.00000000000E+00  0.00000000000E+00  0.46360089953E+03  0.46360089954E+03  0.25500000920E-02 0. -1.
        2   -1    0    0  501    0  0.00000000000E+00  0.00000000000E+00 -0.78179821069E+03  0.78179821069E+03  0.25500000920E-02 0.  1.
    10030    2    1    2    0    0  0.00000000000E+00  0.00000000000E+00 -0.31819731115E+03  0.12453991102E+04  0.12040637088E+04 0.  0.
        4    1    3    3  502    0  0.19388208540E+03  0.46529280340E+03  0.18137202955E+03  0.53570988599E+03  0.12699999809E+01 0. -1.
       -4    1    3    3    0  502 -0.19388208540E+03 -0.46529280340E+03 -0.49956934070E+03  0.70968922424E+03  0.12699999809E+01 0.  1.
</event>
<event>
 5   0  0.3650180E-03  0.1193869E+04  0.7818609E-02  0.9118240E-01
       -2   -1    0    0    0  501  0.00000000000E+00  0.00000000000E+00  0.18162757432E+03  0.18162757434E+03  0.25500000920E-02 0.  1.
        2   -1    0    0  501    0  0.00000000000E+00  0.00000000000E+00 -0.19618752067E+04  0.19618752067E+04  0.25500000920E-02 0. -1.
    10030    2    1    2    0    0  0.00000000000E+00  0.00000000000E+00 -0.17802476324E+04  0.21435027811E+04  0.11938687280E+04 0.  0.
        3    1    3    3  502    0 -0.44924729977E+03  0.35096919541E+03 -0.57233794245E+03  0.80782005610E+03  0.10100000352E+00 0.  1.
       -3    1    3    3    0  502  0.44924729977E+03 -0.35096919541E+03 -0.12079096900E+04  0.13356827250E+04  0.10100000352E+00 0. -1.
</event>
<event>
 5   0  0.2134992E-03  0.1206317E+04  0.7818609E-02  0.9107345E-01
        1   -1    0    0  501    0  0.00000000000E+00  0.00000000000E+00  0.21677203647E+04  0.21677203647E+04  0.50400001928E-02 0.  1.
       -1   -1    0    0    0  501  0.00000000000E+00  0.00000000000E+00 -0.16782618452E+03  0.16782618460E+03  0.50400001928E-02 0. -1.
    10030    2    1    2    0    0  0.00000000000E+00  0.00000000000E+00  0.19998941802E+04  0.23355465493E+04  0.12063171026E+04 0.  0.
        4    1    3    3  502    0 -0.27880373517E+03 -0.50538394853E+03  0.66096886482E+03  0.87751120297E+03  0.12699999809E+01 0. -1.
       -4    1    3    3    0  502  0.27880373517E+03  0.50538394853E+03  0.13389253154E+04  0.14580353464E+04  0.12699999809E+01 0.  1.
</event>
<event>
 5   0  0.3751091E-03  0.1064385E+04  0.7818609E-02  0.9240617E-01
        2   -1    0    0  501    0  0.00000000000E+00  0.00000000000E+00  0.56718935949E+03  0.56718935950E+03  0.25500000920E-02 0.  1.
       -2   -1    0    0    0  501  0.00000000000E+00  0.00000000000E+00 -0.49935515953E+03  0.49935515954E+03  0.25500000920E-02 0. -1.
    10030    2    1    2    0    0  0.00000000000E+00  0.00000000000E+00  0.67834199956E+02  0.10665445190E+04  0.10643851429E+04 0.  0.
        5    1    3    3  502    0  0.42476071683E+03  0.25901892783E+03  0.22322993293E+03  0.54531290511E+03  0.46999998093E+01 0.  1.
       -5    1    3    3    0  502 -0.42476071683E+03 -0.25901892783E+03 -0.15539573297E+03  0.52123161392E+03  0.46999998093E+01 0. -1.
</event>
<event>
 5   0  0.3650180E-03  0.1195420E+04  0.7818609E-02  0.9116875E-01
       -2   -1    0    0    0  501  0.00000000000E+00  0.00000000000E+00  0.54942802830E+03  0.54942802830E+03  0.25500000920E-02 0. -1.
        2   -1    0    0  501    0  0.00000000000E+00  0.00000000000E+00 -0.65023442956E+03  0.65023442957E+03  0.25500000920E-02 0.  1.
    10030    2    1    2    0    0  0.00000000000E+00  0.00000000000E+00 -0.10080640127E+03  0.11996624579E+04  0.11954196260E+04 0.  0.
        3    1    3    3  502    0 -0.56108982655E+03  0.44374434556E+02 -0.25227911365E+03  0.61679465407E+03  0.10100000352E+00 0.  1.
       -3    1    3    3    0  502  0.56108982655E+03 -0.44374434556E+02  0.15147271239E+03  0.58286780380E+03  0.10100000352E+00 0. -1.
</event>
<event>
 5   0  0.3725376E-03  0.1286518E+04  0.7818609E-02  0.9040326E-01
       -2   -1    0    0    0  501  0.00000000000E+00  0.00000000000E+00  0.36739219411E+03  0.36739219412E+03  0.25500000920E-02 0.  1.
        2   -1    0    0  501    0  0.00000000000E+00  0.00000000000E+00 -0.11262678223E+04  0.11262678223E+04  0.25500000920E-02 0. -1.
    10030    2    1    2    0    0  0.00000000000E+00  0.00000000000E+00 -0.75887562820E+03  0.14936600164E+04  0.12865177906E+04 0.  0.
        4    1    3    3  502    0  0.86079084044E+02  0.17568695605E+03 -0.10908867777E+04  0.11082919696E+04  0.12699999809E+01 0. -1.
       -4    1    3    3    0  502 -0.86079084044E+02 -0.17568695605E+03  0.33201114949E+03  0.38536804684E+03  0.12699999809E+01 0.  1.
</event>
<event>
 5   0  0.3706035E-03  0.1186102E+04  0.7818609E-02  0.9125109E-01
        2   -1    0    0  501    0  0.00000000000E+00  0.00000000000E+00  0.12707455850E+04  0.12707455850E+04  0.25500000920E-02 0. -1.
       -2   -1    0    0    0  501  0.00000000000E+00  0.00000000000E+00 -0.27677395779E+03  0.27677395780E+03  0.25500000920E-02 0.  1.
    10030    2    1    2    0    0  0.00000000000E+00  0.00000000000E+00  0.99397162723E+03  0.15475195428E+04  0.11861016566E+04 0.  0.
        2    1    3    3  502    0 -0.13292766202E+03  0.33322382833E+03 -0.11913804454E+03  0.37802348705E+03  0.25500000920E-02 0.  1.
       -2    1    3    3    0  502  0.13292766202E+03 -0.33322382833E+03  0.11131096718E+04  0.11694960558E+04  0.25500000920E-02 0. -1.
</event>
<event>
 5   0  0.3706035E-03  0.1178949E+04  0.7818609E-02  0.9131485E-01
       -2   -1    0    0    0  501  0.00000000000E+00  0.00000000000E+00  0.46722249430E+03  0.46722249431E+03  0.25500000920E-02 0.  1.
        2   -1    0    0  501    0  0.00000000000E+00  0.00000000000E+00 -0.74371409976E+03  0.74371409977E+03  0.25500000920E-02 0. -1.
    10030    2    1    2    0    0  0.00000000000E+00  0.00000000000E+00 -0.27649160546E+03  0.12109365941E+04  0.11789486108E+04 0.  0.
        2    1    3    3  502    0 -0.46609874061E+03 -0.16999337031E+03 -0.46521323457E+03  0.68012435303E+03  0.25500000920E-02 0. -1.
       -2    1    3    3    0  502  0.46609874061E+03  0.16999337031E+03  0.18872162911E+03  0.53081224105E+03  0.25500000920E-02 0.  1.
</event>
<event>
 5   0  0.3706035E-03  0.1142388E+04  0.7818609E-02  0.9164835E-01
        2   -1    0    0  501    0  0.00000000000E+00  0.00000000000E+00  0.71789062922E+03  0.71789062923E+03  0.25500000920E-02 0. -1.
       -2   -1    0    0    0  501  0.00000000000E+00  0.00000000000E+00 -0.45447395447E+03  0.45447395448E+03  0.25500000920E-02 0.  1.
    10030    2    1    2    0    0  0.00000000000E+00  0.00000000000E+00  0.26341667475E+03  0.11723645837E+04  0.11423880132E+04 0.  0.
        2    1    3    3  502    0  0.33073467727E+03  0.37643710116E+02  0.60806527969E+03  0.69321415164E+03  0.25500000920E-02 0. -1.
       -2    1    3    3    0  502 -0.33073467727E+03 -0.37643710116E+02 -0.34464860494E+03  0.47915043207E+03  0.25500000920E-02 0.  1.
</event>
<event>
 5   0  0.3650180E-03  0.1213136E+04  0.7818609E-02  0.9101436E-01
       -2   -1    0    0    0  501  0.00000000000E+00  0.00000000000E+00  0.65622030730E+03  0.65622030730E+03  0.25500000920E-02 0.  1.
        2   -1    0    0  501    0  0.00000000000E+00  0.00000000000E+00 -0.56067245899E+03  0.56067245899E+03  0.25500000920E-02 0. -1.
    10030    2    1    2    0    0  0.00000000000E+00  0.00000000000E+00  0.95547848311E+02  0.12168927663E+04  0.12131358594E+04 0.  0.
        3    1    3    3  502    0 -0.33893889664E+03 -0.28748820033E+03 -0.36629444890E+03  0.57593460956E+03  0.10100000352E+00 0. -1.
       -3    1    3    3    0  502  0.33893889664E+03  0.28748820033E+03  0.46184229721E+03  0.64095815674E+03  0.10100000352E+00 0.  1.
</event>
<event>
 5   0  0.3725376E-03  0.1180416E+04  0.7818609E-02  0.9130173E-01
       -2   -1    0    0    0  501  0.00000000000E+00  0.00000000000E+00  0.90193430869E+03  0.90193430869E+03  0.25500000920E-02 0.  1.
        2   -1    0    0  501    0  0.00000000000E+00  0.00000000000E+00 -0.38622078596E+03  0.38622078597E+03  0.25500000920E-02 0. -1.
    10030    2    1    2    0    0  0.00000000000E+00  0.00000000000E+00  0.51571352273E+03  0.12881550947E+04  0.11804164987E+04 0.  0.
        4    1    3    3  502    0 -0.25486477753E+03  0.53228080440E+03  0.26667212510E+03  0.64760678252E+03  0.12699999809E+01 0. -1.
       -4    1    3    3    0  502  0.25486477753E+03 -0.53228080440E+03  0.24904139762E+03  0.64054831214E+03  0.12699999809E+01 0.  1.
</event>
<event>
 5   0  0.3626049E-03  0.1117748E+04  0.7818609E-02  0.9188064E-01
       -2   -1    0    0    0  501  0.00000000000E+00  0.00000000000E+00  0.33398749258E+03  0.33398749259E+03  0.25500000920E-02 0.  1.
        2   -1    0    0  501    0  0.00000000000E+00  0.00000000000E+00 -0.93518443608E+03  0.93518443609E+03  0.25500000920E-02 0. -1.
    10030    2    1    2    0    0  0.00000000000E+00  0.00000000000E+00 -0.60119694350E+03  0.12691719287E+04  0.11177475653E+04 0.  0.
        1    1    3    3  502    0  0.15290065696E+03 -0.53673986236E+03 -0.33412116159E+03  0.65046540369E+03  0.50400001928E-02 0. -1.
       -1    1    3    3    0  502 -0.15290065696E+03  0.53673986236E+03 -0.26707578191E+03  0.61870652499E+03  0.50400001928E-02 0.  1.
</event>
<event>
 5   0  0.2047109E-03  0.1190183E+04  0.7818609E-02  0.9121493E-01
        1   -1    0    0  501    0  0.00000000000E+00  0.00000000000E+00  0.78452616841E+03  0.78452616842E+03  0.50400001928E-02 0. -1.
       -1   -1    0    0    0  501  0.00000000000E+00  0.00000000000E+00 -0.45139881089E+03  0.45139881092E+03  0.50400001928E-02 0.  1.
    10030    2    1    2    0    0  0.00000000000E+00  0.00000000000E+00  0.33312735752E+03  0.12359249793E+04  0.11901834809E+04 0.  0.
        1    1    3    3  502    0 -0.17794317802E+03 -0.56779373127E+03  0.17589130213E+03  0.62047662813E+03  0.50400001928E-02 0. -1.
       -1    1    3    3    0  502  0.17794317802E+03  0.56779373127E+03  0.15723605539E+03  0.61544835121E+03  0.50400001928E-02 0.  1.
</event>
<event>
 5   0  0.2078258E-03  0.1169345E+04  0.7818609E-02  0.9140120E-01
        1   -1    0    0  501    0  0.00000000000E+00  0.00000000000E+00  0.94498382847E+03  0.94498382849E+03  0.50400001928E-02 0.  1.
       -1   -1    0    0    0  501  0.00000000000E+00  0.00000000000E+00 -0.36174391028E+03  0.36174391031E+03  0.50400001928E-02 0. -1.
    10030    2    1    2    0    0  0.00000000000E+00  0.00000000000E+00  0.58323991820E+03  0.13067277388E+04  0.11693453644E+04 0.  0.
        3    1    3    3  502    0  0.15545175818E+03  0.22398898209E+02  0.92096948047E+03  0.93426535520E+03  0.10100000352E+00 0.  1.
       -3    1    3    3    0  502 -0.15545175818E+03 -0.22398898209E+02 -0.33772956228E+03  0.37246238360E+03  0.10100000352E+00 0. -1.
</event>
<event>
 5   0  0.2047109E-03  0.1203569E+04  0.7818609E-02  0.9109738E-01
       -1   -1    0    0    0  501  0.00000000000E+00  0.00000000000E+00  0.19804356175E+03  0.19804356181E+03  0.50400001928E-02 0.  1.
        1   -1    0    0  501    0  0.00000000000E+00  0.00000000000E+00 -0.18286111900E+04  0.18286111900E+04  0.50400001928E-02 0. -1.
    10030    2    1    2    0    0  0.00000000000E+00  0.00000000000E+00 -0.16305676282E+04  0.20266547518E+04  0.12035691475E+04 0.  0.
        1    1    3    3  502    0  0.40727165340E+03 -0.39205834376E+02 -0.72207562220E+02  0.41547711030E+03  0.50400001928E-02 0.  1.
       -1    1    3    3    0  502 -0.40727165340E+03  0.39205834376E+02 -0.15583600660E+04  0.16111776415E+04  0.50400001928E-02 0. -1.
</event>
<event>
 5   0  0.3725376E-03  0.1211969E+04  0.7818609E-02  0.9102444E-01
        2   -1    0    0  501    0  0.00000000000E+00  0.00000000000E+00  0.10245008877E+04  0.10245008877E+04  0.25500000920E-02 0. -1.
       -2   -1    0    0    0  501  0.00000000000E+00  0.00000000000E+00 -0.35843514182E+03  0.35843514183E+03  0.25500000920E-02 0.  1.
    10030    2    1    2    0    0  0.00000000000E+00  0.00000000000E+00  0.66606574589E+03  0.13829360295E+04  0.12119688461E+04 0.  0.
        4    1    3    3  502    0 -0.22613840531E+03 -0.42832875917E+03 -0.82495871066E+02  0.49133622494E+03  0.12699999809E+01 0.  1.
       -4    1    3    3    0  502  0.22613840531E+03  0.42832875917E+03  0.74856161695E+03  0.89159980460E+03  0.12699999809E+01 0. -1.
</event>
<event>
 5   0  0.3706035E-03  0.1202097E+04  0.7818609E-02  0.9111023E-01
        2   -1    0    0  501    0  0.00000000000E+00  0.00000000000E+00  0.52330444470E+03  0.52330444471E+03  0.25500000920E-02 0. -1.
       -2   -1    0    0    0  501  0.00000000000E+00  0.00000000000E+00 -0.69034255932E+03  0.69034255933E+03  0.25500000920E-02 0.  1.
    10030    2    1    2    0    0  0.00000000000E+00  0.00000000000E+00 -0.16703811462E+03  0.12136470040E+04  0.12020970504E+04 0.  0.
        2    1    3    3  502    0 -0.39754190653E+03 -0.32704558060E+03  0.22972145766E+03  0.56371120918E+03  0.25500000920E-02 0. -1.
       -2    1    3    3    0  502  0.39754190653E+03  0.32704558060E+03 -0.39675957228E+03  0.64993579486E+03  0.25500000920E-02 0.  1.
</event>
<event>
 5   0  0.3706035E-03  0.1208774E+04  0.7818609E-02  0.9105211E-01
       -2   -1    0    0    0  501  0.00000000000E+00  0.00000000000E+00  0.22117438953E+03  0.22117438955E+03  0.25500000920E-02 0.  1.
        2   -1    0    0  501    0  0.00000000000E+00  0.00000000000E+00 -0.16515638157E+04  0.16515638157E+04  0.25500000920E-02 0. -1.
    10030    2    1    2    0    0  0.00000000000E+00  0.00000000000E+00 -0.14303894261E+04  0.18727382052E+04  0.12087739552E+04 0.  0.
        2    1    3    3  502    0 -0.19395062230E+02  0.31895918009E+03  0.79594973163E+02  0.32931214183E+03  0.25500000920E-02 0.  1.
       -2    1    3    3    0  502  0.19395062230E+02 -0.31895918009E+03 -0.15099843993E+04  0.15434260634E+04  0.25500000920E-02 0. -1.
</event>
<event>
 5   0  0.3626049E-03  0.9990331E+03  0.7818609E-02  0.9309606E-01
       -2   -1    0    0    0  501  0.00000000000E+00  0.00000000000E+00  0.22934346049E+03  0.22934346051E+03  0.25500000920E-02 0.  1.
        2   -1    0    0  501    0  0.00000000000E+00  0.00000000000E+00 -0.10879611343E+04  0.10879611343E+04  0.25500000920E-02 0. -1.
    10030    2    1    2    0    0  0.00000000000E+00  0.00000000000E+00 -0.85861767378E+03  0.13173045948E+04  0.99903307538E+03 0.  0.
        1    1    3    3  502    0 -0.36261694613E+03  0.21400560690E+03 -0.78367895729E+03  0.88963034881E+03  0.50400001928E-02 0. -1.
       -1    1    3    3    0  502  0.36261694613E+03 -0.21400560690E+03 -0.74938716487E+02  0.42767424596E+03  0.50400001928E-02 0.  1.
</event>
<event>
 5   0  0.3751091E-03  0.1257742E+04  0.7818609E-02  0.9063764E-01
       -2   -1    0    0    0  501  0.00000000000E+00  0.00000000000E+00  0.44967788317E+03  0.44967788318E+03  0.25500000920E-02 0. -1.
        2   -1    0    0  501    0  0.00000000000E+00  0.00000000000E+00 -0.87947153501E+03  0.87947153501E+03  0.25500000920E-02 0.  1.
    10030    2    1    2    0    0  0.00000000000E+00  0.00000000000E+00 -0.42979365183E+03  0.13291494182E+04  0.12577422601E+04 0.  0.
        5    1    3    3  502    0 -0.37205710680E+03 -0.16687562288E+03  0.29101310458E+03  0.50098371357E+03  0.46999998093E+01 0. -1.
       -5    1    3    3    0  502  0.37205710680E+03  0.16687562288E+03 -0.72080675641E+03  0.82816570462E+03  0.46999998093E+01 0.  1.
</event>
<event>
 5   0  0.2096270E-03  0.1165436E+04  0.7818609E-02  0.9143660E-01
       -1   -1    0    0    0  501  0.00000000000E+00  0.00000000000E+00  0.24347664292E+03  0.24347664298E+03  0.50400001928E-02 0.  1.
        1   -1    0    0  501    0  0.00000000000E+00  0.00000000000E+00 -0.13946320154E+04  0.13946320154E+04  0.50400001928E-02 0. -1.
    10030    2    1    2    0    0  0.00000000000E+00  0.00000000000E+00 -0.11511553725E+04  0.16381086584E+04  0.11654360922E+04 0.  0.
        2    1    3    3  502    0 -0.28177745758E+03 -0.47320471477E+03 -0.30800434262E+03  0.63102132512E+03  0.25500000920E-02 0.  1.
       -2    1    3    3    0  502  0.28177745758E+03  0.47320471477E+03 -0.84315102988E+03  0.10070873333E+04  0.25500000920E-02 0. -1.
</event>
<event>
 5   0  0.2078258E-03  0.1208235E+04  0.7818609E-02  0.9105679E-01
        1   -1    0    0  501    0  0.00000000000E+00  0.00000000000E+00  0.15342919614E+04  0.15342919614E+04  0.50400001928E-02 0.  1.
       -1   -1    0    0    0  501  0.00000000000E+00  0.00000000000E+00 -0.23786742707E+03  0.23786742712E+03  0.50400001928E-02 0. -1.
    10030    2    1    2    0    0  0.00000000000E+00  0.00000000000E+00  0.12964245343E+04  0.17721593885E+04  0.12082352110E+04 0.  0.
        3    1    3    3  502    0  0.33518387980E+03  0.50242023192E+03  0.62833013231E+03  0.87153490355E+03  0.10100000352E+00 0.  1.
       -3    1    3    3    0  502 -0.33518387980E+03 -0.50242023192E+03  0.66809440200E+03  0.90062448496E+03  0.10100000352E+00 0. -1.
</event>
<event>
 5   0  0.2047109E-03  0.1187621E+04  0.7818609E-02  0.9123761E-01
        1   -1    0    0  501    0  0.00000000000E+00  0.00000000000E+00  0.20349190627E+04  0.20349190627E+04  0.50400001928E-02 0.  1.
       -1   -1    0    0    0  501  0.00000000000E+00  0.00000000000E+00 -0.17328011834E+03  0.17328011842E+03  0.50400001928E-02 0. -1.
    10030    2    1    2    0    0  0.00000000000E+00  0.00000000000E+00  0.18616389444E+04  0.22081991811E+04  0.11876211788E+04 0.  0.
        1    1    3    3  502    0 -0.13912958551E+03  0.69421406425E+01  0.20041082160E+04  0.20089437464E+04  0.50400001928E-02 0.  1.
       -1    1    3    3    0  502  0.13912958551E+03 -0.69421406425E+01 -0.14246927162E+03  0.19925543471E+03  0.50400001928E-02 0. -1.
</event>
<event>
 5   0  0.2096270E-03  0.1190052E+04  0.7818609E-02  0.9121609E-01
        1   -1    0    0  501    0  0.00000000000E+00  0.00000000000E+00  0.37943256845E+03  0.37943256848E+03  0.50400001928E-02 0.  1.
       -1   -1    0    0    0  501  0.00000000000E+00  0.00000000000E+00 -0.93311990646E+03  0.93311990647E+03  0.50400001928E-02 0. -1.
    10030    2    1    2    0    0  0.00000000000E+00  0.00000000000E+00 -0.55368733801E+03  0.13125524750E+04  0.11900522389E+04 0.  0.
        2    1    3    3  502    0 -0.17222801003E+03  0.37280244773E+03 -0.75176260615E+03  0.85661611500E+03  0.25500000920E-02 0. -1.
       -2    1    3    3    0  502  0.17222801003E+03 -0.37280244773E+03  0.19807526814E+03  0.45593635995E+03  0.25500000920E-02 0.  1.
</event>
<event>
 5   0  0.3650180E-03  0.1206813E+04  0.7818609E-02  0.9106914E-01
       -2   -1    0    0    0  501  0.00000000000E+00  0.00000000000E+00  0.42687473896E+03  0.42687473896E+03  0.25500000920E-02 0. -1.
        2   -1    0    0  501    0  0.00000000000E+00  0.00000000000E+00 -0.85294255986E+03  0.85294255987E+03  0.25500000920E-02 0.  1.
    10030    2    1    2    0    0  0.00000000000E+00  0.00000000000E+00 -0.42606782091E+03  0.12798172988E+04  0.12068133784E+04 0.  0.
        3    1    3    3  502    0  0.41587519185E+03 -0.40879437158E+03 -0.48624606642E+02  0.58517465428E+03  0.10100000352E+00 0. -1.
       -3    1    3    3    0  502 -0.41587519185E+03  0.40879437158E+03 -0.37744321427E+03  0.69464264455E+03  0.10100000352E+00 0.  1.
</event>
<event>
 5   0  0.2096270E-03  0.1188789E+04  0.7818609E-02  0.9122727E-01
        1   -1    0    0  501    0  0.00000000000E+00  0.00000000000E+00  0.88611880152E+03  0.88611880153E+03  0.50400001928E-02 0. -1.
       -1   -1    0    0    0  501  0.00000000000E+00  0.00000000000E+00 -0.39871027358E+03  0.39871027361E+03  0.50400001928E-02 0.  1.
    10030    2    1    2    0    0  0.00000000000E+00  0.00000000000E+00  0.48740852794E+03  0.12848290751E+04  0.11887887446E+04 0.  0.
        2    1    3    3  502    0 -0.43894594247E+03 -0.42806111255E+02 -0.18698518580E+03  0.47902960585E+03  0.25500000920E-02 0.  1.
       -2    1    3    3    0  502  0.43894594247E+03  0.42806111255E+02  0.67439371374E+03  0.80579946929E+03  0.25500000920E-02 0. -1.
</event>
<event>
 5   0  0.3751091E-03  0.1188326E+04  0.7818609E-02  0.9123137E-01
       -2   -1    0    0    0  501  0.00000000000E+00  0.00000000000E+00  0.40357072786E+03  0.40357072787E+03  0.25500000920E-02 0. -1.
        2   -1    0    0  501    0  0.00000000000E+00  0.00000000000E+00 -0.87476457470E+03  0.87476457470E+03  0.25500000920E-02 0.  1.
    10030    2    1    2    0    0  0.00000000000E+00  0.00000000000E+00 -0.47119384684E+03  0.12783353026E+04  0.11883255044E+04 0.  0.
        5    1    3    3  502    0 -0.13362468760E+03  0.57851415831E+03 -0.21219859941E+03  0.63054303904E+03  0.46999998093E+01 0. -1.
       -5    1    3    3    0  502  0.13362468760E+03 -0.57851415831E+03 -0.25899524742E+03  0.64779226352E+03  0.46999998093E+01 0.  1.
</event>
<event>
 5   0  0.3626049E-03  0.1205445E+04  0.7818609E-02  0.9108104E-01
       -2   -1    0    0    0  501  0.00000000000E+00  0.00000000000E+00  0.22245263540E+03  0.22245263541E+03  0.25500000920E-02 0. -1.
        2   -1    0    0  501    0  0.00000000000E+00  0.00000000000E+00 -0.16330417128E+04  0.16330417128E+04  0.25500000920E-02 0.  1.
    10030    2    1    2    0    0  0.00000000000E+00  0.00000000000E+00 -0.14105890774E+04  0.18554943482E+04  0.12054450344E+04 0.  0.
        1    1    3    3  502    0 -0.31437929895E+03  0.11013544134E+03 -0.14784728996E+04  0.15155349795E+04  0.50400001928E-02 0.  1.
       -1    1    3    3    0  502  0.31437929895E+03 -0.11013544134E+03  0.67883822231E+02  0.33995936874E+03  0.50400001928E-02 0. -1.
</event>
<event>
 5   0  0.2025294E-03  0.1200734E+04  0.7818609E-02  0.9112214E-01
        1   -1    0    0  501    0  0.00000000000E+00  0.00000000000E+00  0.12416672035E+04  0.12416672035E+04  0.50400001928E-02 0. -1.
       -1   -1    0    0    0  501  0.00000000000E+00  0.00000000000E+00 -0.29028764487E+03  0.29028764491E+03  0.50400001928E-02 0.  1.
    10030    2    1    2    0    0  0.00000000000E+00  0.00000000000E+00  0.95137955863E+03  0.15319548484E+04  0.12007341892E+04 0.  0.
        5    1    3    3  502    0 -0.10080578618E+03  0.13322925514E+03  0.12113873135E+04  0.12228626882E+04  0.46999998093E+01 0. -1.
       -5    1    3    3    0  502  0.10080578618E+03 -0.13322925514E+03 -0.26000775483E+03  0.30909216024E+03  0.46999998093E+01 0.  1.
</event>
<event>
 5   0  0.2078258E-03  0.1205621E+04  0.7818609E-02  0.9107951E-01
        1   -1    0    0  501    0  0.00000000000E+00  0.00000000000E+00  0.48384073205E+03  0.48384073208E+03  0.50400001928E-02 0.  1.
       -1   -1    0    0    0  501  0.00000000000E+00  0.00000000000E+00 -0.75103321534E+03  0.75103321535E+03  0.50400001928E-02 0. -1.
    10030    2    1    2    0    0  0.00000000000E+00  0.00000000000E+00 -0.26719248328E+03  0.12348739474E+04  0.12056209367E+04 0.  0.
        3    1    3    3  502    0  0.20758964021E+03  0.35763009205E+03 -0.58285909239E+03  0.71464499806E+03  0.10100000352E+00 0. -1.
       -3    1    3    3    0  502 -0.20758964021E+03 -0.35763009205E+03  0.31566660911E+03  0.52022894938E+03  0.10100000352E+00 0.  1.
</event>
<event>
 5   0  0.2047109E-03  0.9059786E+03  0.7818609E-02  0.9418139E-01
        1   -1    0    0  501    0  0.00000000000E+00  0.00000000000E+00  0.19816803002E+03  0.19816803008E+03  0.50400001928E-02 0.  1.
       -1   -1    0    0    0  501  0.00000000000E+00  0.00000000000E+00 -0.10354814867E+04  0.10354814867E+04  0.50400001928E-02 0. -1.
    10030    2    1    2    0    0  0.00000000000E+00  0.00000000000E+00 -0.83731345670E+03  0.12336495168E+04  0.90597864521E+03 0.  0.
        1    1    3    3  502    0 -0.17814807616E+03 -0.18771472648E+03  0.87597125284E+02  0.27321568762E+03  0.50400001928E-02 0.  1.
       -1    1    3    3    0  502  0.17814807616E+03  0.18771472648E+03 -0.92491058199E+03  0.96043382920E+03  0.50400001928E-02 0. -1.
</event>
<event>
 5   0  0.2025294E-03  0.1197607E+04  0.7818609E-02  0.9114954E-01
        1   -1    0    0  501    0  0.00000000000E+00  0.00000000000E+00  0.53454546737E+03  0.53454546739E+03  0.50400001928E-02 0. -1.
       -1   -1    0    0    0  501  0.00000000000E+00  0.00000000000E+00 -0.67078559128E+03  0.67078559129E+03  0.50400001928E-02 0.  1.
    10030    2    1    2    0    0  0.00000000000E+00  0.00000000000E+00 -0.13624012391E+03  0.12053310587E+04  0.11976066089E+04 0.  0.
        5    1    3    3  502    0 -0.48540575012E+02  0.49771184544E+03 -0.39959222438E+03  0.64013225531E+03  0.46999998093E+01 0.  1.
       -5    1    3    3    0  502  0.48540575012E+02 -0.49771184544E+03  0.26335210047E+03  0.56519880337E+03  0.46999998093E+01 0. -1.
</event>
<event>
 5   0  0.3706035E-03  0.1237890E+04  0.7818609E-02  0.9080323E-01
       -2   -1    0    0    0  501  0.00000000000E+00  0.00000000000E+00  0.87162508297E+03  0.87162508297E+03  0.25500000920E-02 0.  1.
        2   -1    0    0  501    0  0.00000000000E+00  0.00000000000E+00 -0.43951593253E+03  0.43951593254E+03  0.25500000920E-02 0. -1.
    10030    2    1    2    0    0  0.00000000000E+00  0.00000000000E+00  0.43210915044E+03  0.13111410155E+04  0.12378903201E+04 0.  0.
        2    1    3    3  502    0  0.19432169129E+03 -0.23979845456E+02 -0.40585018737E+03  0.45061105988E+03  0.25500000920E-02 0. -1.
       -2    1    3    3    0  502 -0.19432169129E+03  0.23979845456E+02  0.83795933781E+03  0.86052995562E+03  0.25500000920E-02 0.  1.
</event>
<event>
 5   0  0.2096270E-03  0.1212228E+04  0.7818609E-02  0.9102220E-01
       -1   -1    0    0    0  501  0.00000000000E+00  0.00000000000E+00  0.87980025230E+03  0.87980025231E+03  0.50400001928E-02 0. -1.
        1   -1    0    0  501    0  0.00000000000E+00  0.00000000000E+00 -0.41756549725E+03  0.41756549728E+03  0.50400001928E-02 0.  1.
    10030    2    1    2    0    0  0.00000000000E+00  0.00000000000E+00  0.46223475505E+03  0.12973657496E+04  0.12122280806E+04 0.  0.
        2    1    3    3  502    0  0.19389002676E+03 -0.24233535027E+02  0.84516746183E+03  0.86746103384E+03  0.25500000920E-02 0. -1.
       -2    1    3    3    0  502 -0.19389002676E+03  0.24233535027E+02 -0.38293270678E+03  0.42990471575E+03  0.25500000920E-02 0.  1.
</event>
<event>
 5   0  0.3751091E-03  0.1197067E+04  0.7818609E-02  0.9115427E-01
        2   -1    0    0  501    0  0.00000000000E+00  0.00000000000E+00  0.63787270712E+03  0.63787270713E+03  0.25500000920E-02 0. -1.
       -2   -1    0    0    0  501  0.00000000000E+00  0.00000000000E+00 -0.56162075650E+03  0.56162075650E+03  0.25500000920E-02 0.  1.
    10030    2    1    2    0    0  0.00000000000E+00  0.00000000000E+00  0.76251950623E+02  0.11994934636E+04  0.11970673370E+04 0.  0.
        5    1    3    3  502    0 -0.24323565953E+03  0.53339851913E+03  0.15896431652E+03  0.60742844039E+03  0.46999998093E+01 0. -1.
       -5    1    3    3    0  502  0.24323565953E+03 -0.53339851913E+03 -0.82712365895E+02  0.59206502324E+03  0.46999998093E+01 0.  1.
</event>
<event>
 5   0  0.2047109E-03  0.1169450E+04  0.7818609E-02  0.9140025E-01
       -1   -1    0    0    0  501  0.00000000000E+00  0.00000000000E+00  0.25041310301E+03  0.25041310306E+03  0.50400001928E-02 0. -1.
        1   -1    0    0  501    0  0.00000000000E+00  0.00000000000E+00 -0.13653576613E+04  0.13653576613E+04  0.50400001928E-02 0.  1.
    10030    2    1    2    0    0  0.00000000000E+00  0.00000000000E+00 -0.11149445583E+04  0.16157707644E+04  0.11694502105E+04 0.  0.
        1    1    3    3  502    0 -0.73480821641E+02  0.10831948248E+03 -0.13448562486E+04  0.13512108906E+04  0.50400001928E-02 0.  1.
       -1    1    3    3    0  502  0.73480821641E+02 -0.10831948248E+03  0.22991169032E+03  0.26455987376E+03  0.50400001928E-02 0. -1.
</event>
<event>
 5   0  0.3650180E-03  0.1210274E+04  0.7818609E-02  0.9103911E-01
        2   -1    0    0  501    0  0.00000000000E+00  0.00000000000E+00  0.83150099025E+03  0.83150099025E+03  0.25500000920E-02 0. -1.
       -2   -1    0    0    0  501  0.00000000000E+00  0.00000000000E+00 -0.44039715450E+03  0.44039715450E+03  0.25500000920E-02 0.  1.
    10030    2    1    2    0    0  0.00000000000E+00  0.00000000000E+00  0.39110383575E+03  0.12718981448E+04  0.12102738039E+04 0.  0.
        3    1    3    3  502    0 -0.59583502757E+03 -0.80240842071E+02  0.26784930381E+03  0.65818024322E+03  0.10100000352E+00 0. -1.
       -3    1    3    3    0  502  0.59583502757E+03  0.80240842071E+02  0.12325453194E+03  0.61371790154E+03  0.10100000352E+00 0.  1.
</event>
<event>
 5   0  0.3751091E-03  0.1168770E+04  0.7818609E-02  0.9140640E-01
       -2   -1    0    0    0  501  0.00000000000E+00  0.00000000000E+00  0.62462093978E+03  0.62462093978E+03  0.25500000920E-02 0. -1.
        2   -1    0    0  501    0  0.00000000000E+00  0.00000000000E+00 -0.54674107645E+03  0.54674107646E+03  0.25500000920E-02 0.  1.
    10030    2    1    2    0    0  0.00000000000E+00  0.00000000000E+00  0.77879863328E+02  0.11713620162E+04  0.11687701656E+04 0.  0.
        5    1    3    3  502    0  0.19102993293E+03  0.20078015281E+03 -0.47667031678E+03  0.55139984216E+03  0.46999998093E+01 0.  1.
       -5    1    3    3    0  502 -0.19102993293E+03 -0.20078015281E+03  0.55455018011E+03  0.61996217408E+03  0.46999998093E+01 0. -1.
</event>
<event>
 5   0  0.3751091E-03  0.1209233E+04  0.7818609E-02  0.9104813E-01
       -2   -1    0    0    0  501  0.00000000000E+00  0.00000000000E+00  0.25692154724E+03  0.25692154726E+03  0.25500000920E-02 0. -1.
        2   -1    0    0  501    0  0.00000000000E+00  0.00000000000E+00 -0.14228520804E+04  0.14228520804E+04  0.25500000920E-02 0.  1.
    10030    2    1    2    0    0  0.00000000000E+00  0.00000000000E+00 -0.11659305332E+04  0.16797736277E+04  0.12092334068E+04 0.  0.
        5    1    3    3  502    0  0.26914689847E+03 -0.20524958351E+03 -0.12788753112E+04  0.13229178342E+04  0.46999998093E+01 0.  1.
       -5    1    3    3    0  502 -0.26914689847E+03  0.20524958351E+03  0.11294477798E+03  0.35685579350E+03  0.46999998093E+01 0. -1.
</event>
<event>
 5   0  0.3650180E-03  0.1191766E+04  0.7818609E-02  0.9120094E-01
       -2   -1    0    0    0  501  0.00000000000E+00  0.00000000000E+00  0.44728558537E+03  0.44728558538E+03  0.25500000920E-02 0. -1.
        2   -1    0    0  501    0  0.00000000000E+00  0.00000000000E+00 -0.79384760510E+03  0.79384760511E+03  0.25500000920E-02 0.  1.
    10030    2    1    2    0    0  0.00000000000E+00  0.00000000000E+00 -0.34656201974E+03  0.12411331905E+04  0.11917660689E+04 0.  0.
        3    1    3    3  502    0  0.13813987271E+03  0.14344135502E+03 -0.75816667529E+03  0.78388440761E+03  0.10100000352E+00 0.  1.
       -3    1    3    3    0  502 -0.13813987271E+03 -0.14344135502E+03  0.41160465556E+03  0.45724878288E+03  0.10100000352E+00 0. -1.
</event>
<event>
 5   0  0.2047109E-03  0.1193156E+04  0.7818609E-02  0.9118868E-01
        1   -1    0    0  501    0  0.00000000000E+00  0.00000000000E+00  0.35823619663E+03  0.35823619666E+03  0.50400001928E-02 0.  1.
       -1   -1    0    0    0  501  0.00000000000E+00  0.00000000000E+00 -0.99349341900E+03  0.99349341901E+03  0.50400001928E-02 0. -1.
    10030    2    1    2    0    0  0.00000000000E+00  0.00000000000E+00 -0.63525722237E+03  0.13517296157E+04  0.11931559895E+04 0.  0.
        1    1    3    3  502    0 -0.30017086838E+03 -0.40816704806E+03 -0.67445233777E+03  0.84355725668E+03  0.50400001928E-02 0. -1.
       -1    1    3    3    0  502  0.30017086838E+03  0.40816704806E+03  0.39195115397E+02  0.50817235899E+03  0.50400001928E-02 0.  1.
</event>
<event>
 5   0  0.2134992E-03  0.1205284E+04  0.7818609E-02  0.9108244E-01
       -1   -1    0    0    0  501  0.00000000000E+00  0.00000000000E+00  0.10387136744E+04  0.10387136744E+04  0.50400001928E-02 0. -1.
        1   -1    0    0  501    0  0.00000000000E+00  0.00000000000E+00 -0.34964136849E+03  0.34964136853E+03  0.50400001928E-02 0.  1.
    10030    2    1    2    0    0  0.00000000000E+00  0.00000000000E+00  0.68907230591E+03  0.13883550429E+04  0.12052838182E+04 0.  0.
        4    1    3    3  502    0 -0.22695245601E+03  0.40230359429E+03  0.79039377694E+03  0.91546683981E+03  0.12699999809E+01 0. -1.
       -4    1    3    3    0  502  0.22695245601E+03 -0.40230359429E+03 -0.10132147103E+03  0.47288820313E+03  0.12699999809E+01 0.  1.
</event>
<event>
 5   0  0.2025294E-03  0.1053590E+04  0.7818609E-02  0.9251645E-01
        1   -1    0    0  501    0  0.00000000000E+00  0.00000000000E+00  0.62450217364E+03  0.62450217366E+03  0.50400001928E-02 0. -1.
       -1   -1    0    0    0  501  0.00000000000E+00  0.00000000000E+00 -0.44437503647E+03  0.44437503650E+03  0.50400001928E-02 0.  1.
    10030    2    1    2    0    0  0.00000000000E+00  0.00000000000E+00  0.18012713717E+03  0.10688772102E+04  0.10535903876E+04 0.  0.
        5    1    3    3  502    0  0.40373863105E+03  0.21788352625E+03  0.35268820282E+03  0.57869609609E+03  0.46999998093E+01 0. -1.
       -5    1    3    3    0  502 -0.40373863105E+03 -0.21788352625E+03 -0.17256106565E+03  0.49018111407E+03  0.46999998093E+01 0.  1.
</event>
<event>
 5   0  0.3706035E-03  0.1185469E+04  0.7818609E-02  0.9125671E-01
       -2   -1    0    0    0  501  0.00000000000E+00  0.00000000000E+00  0.34632510500E+03  0.34632510501E+03  0.25500000920E-02 0. -1.
        2   -1    0    0  501    0  0.00000000000E+00  0.00000000000E+00 -0.10144643222E+04  0.10144643222E+04  0.25500000920E-02 0.  1.
    10030    2    1    2    0    0  0.00000000000E+00  0.00000000000E+00 -0.66813921715E+03  0.13607894272E+04  0.11854694646E+04 0.  0.
        2    1    3    3  502    0  0.18297979376E+03  0.43279307217E+03 -0.74881099323E+03  0.88403017586E+03  0.25500000920E-02 0.  1.
       -2    1    3    3    0  502 -0.18297979376E+03 -0.43279307217E+03  0.80671776084E+02  0.47675925131E+03  0.25500000920E-02 0. -1.
</event>
<event>
 5   0  0.2078258E-03  0.1083683E+04  0.7818609E-02  0.9221243E-01
        1   -1    0    0  501    0  0.00000000000E+00  0.00000000000E+00  0.10755081557E+04  0.10755081557E+04  0.50400001928E-02 0. -1.
       -1   -1    0    0    0  501  0.00000000000E+00  0.00000000000E+00 -0.27298002335E+03  0.27298002339E+03  0.50400001928E-02 0.  1.
    10030    2    1    2    0    0  0.00000000000E+00  0.00000000000E+00  0.80252813235E+03  0.13484881791E+04  0.10836830560E+04 0.  0.
        3    1    3    3  502    0 -0.52493484355E+03  0.28679379841E+02  0.56452220522E+03  0.77140419184E+03  0.10100000352E+00 0.  1.
       -3    1    3    3    0  502  0.52493484355E+03 -0.28679379841E+02  0.23800592713E+03  0.57708398726E+03  0.10100000352E+00 0. -1.
</event>
<event>
 5   0  0.2134992E-03  0.1202508E+04  0.7818609E-02  0.9110664E-01
       -1   -1    0    0    0  501  0.00000000000E+00  0.00000000000E+00  0.14935999885E+03  0.14935999893E+03  0.50400001928E-02 0.  1.
        1   -1    0    0  501    0  0.00000000000E+00  0.00000000000E+00 -0.24203710199E+04  0.24203710199E+04  0.50400001928E-02 0. -1.
    10030    2    1    2    0    0  0.00000000000E+00  0.00000000000E+00 -0.22710110211E+04  0.25697310189E+04  0.12025083997E+04 0.  0.
        4    1    3    3  502    0  0.53831879622E+03 -0.23974598102E+03 -0.88049942165E+03  0.10595027637E+04  0.12699999809E+01 0.  1.
       -4    1    3    3    0  502 -0.53831879622E+03  0.23974598102E+03 -0.13905115994E+04  0.15102282552E+04  0.12699999809E+01 0. -1.
</event>
<event>
 5   0  0.3725376E-03  0.1182182E+04  0.7818609E-02  0.9128597E-01
       -2   -1    0    0    0  501  0.00000000000E+00  0.00000000000E+00  0.27495461359E+03  0.27495461361E+03  0.25500000920E-02 0. -1.
        2   -1    0    0  501    0  0.00000000000E+00  0.00000000000E+00 -0.12707142570E+04  0.12707142570E+04  0.25500000920E-02 0.  1.
    10030    2    1    2    0    0  0.00000000000E+00  0.00000000000E+00 -0.99575964338E+03  0.15456688706E+04  0.11821822999E+04 0.  0.
        4    1    3    3  502    0 -0.37803981362E+03 -0.35022375650E+03 -0.11935323270E+03  0.52897787038E+03  0.12699999809E+01 0.  1.
       -4    1    3    3    0  502  0.37803981362E+03  0.35022375650E+03 -0.87640641068E+03  0.10166910002E+04  0.12699999809E+01 0. -1.
</event>
<event>
 5   0  0.2134992E-03  0.1211511E+04  0.7818609E-02  0.9102841E-01
        1   -1    0    0  501    0  0.00000000000E+00  0.00000000000E+00  0.12332661829E+04  0.12332661829E+04  0.50400001928E-02 0. -1.
       -1   -1    0    0    0  501  0.00000000000E+00  0.00000000000E+00 -0.29753466590E+03  0.29753466595E+03  0.50400001928E-02 0.  1.
    10030    2    1    2    0    0  0.00000000000E+00  0.00000000000E+00  0.93573151696E+03  0.15308008488E+04  0.12115105311E+04 0.  0.
        4    1    3    3  502    0 -0.31748211544E+03  0.30219120256E+03 -0.60447241303E+02  0.44245892284E+03  0.12699999809E+01 0.  1.
       -4    1    3    3    0  502  0.31748211544E+03 -0.30219120256E+03  0.99617875826E+03  0.10883419260E+04  0.12699999809E+01 0. -1.
</event>
<event>
 5   0  0.2134992E-03  0.1199067E+04  0.7818609E-02  0.9113673E-01
       -1   -1    0    0    0  501  0.00000000000E+00  0.00000000000E+00  0.15958659311E+03  0.15958659319E+03  0.50400001928E-02 0.  1.
        1   -1    0    0  501    0  0.00000000000E+00  0.00000000000E+00 -0.22523237579E+04  0.22523237579E+04  0.50400001928E-02 0. -1.
    10030    2    1    2    0    0  0.00000000000E+00  0.00000000000E+00 -0.20927371648E+04  0.24119103511E+04  0.11990674297E+04 0.  0.
        4    1    3    3  502    0  0.43541745477E+03  0.26344976324E+03 -0.16838705854E+04  0.17590951932E+04  0.12699999809E+01 0. -1.
       -4    1    3    3    0  502 -0.43541745477E+03 -0.26344976324E+03 -0.40886657938E+03  0.65281515784E+03  0.12699999809E+01 0.  1.
</event>
<event>
 5   0  0.2047109E-03  0.1192390E+04  0.7818609E-02  0.9119543E-01
        1   -1    0    0  501    0  0.00000000000E+00  0.00000000000E+00  0.26382560416E+04  0.26382560416E+04  0.50400001928E-02 0.  1.
       -1   -1    0    0    0  501  0.00000000000E+00  0.00000000000E+00 -0.13472867128E+03  0.13472867137E+03  0.50400001928E-02 0. -1.
    10030    2    1    2    0    0  0.00000000000E+00  0.00000000000E+00  0.25035273703E+04  0.27729847129E+04  0.11923904245E+04 0.  0.
        1    1    3    3  502    0  0.26546754302E+03  0.10020529215E+03  0.24711567086E+04  0.24873941376E+04  0.50400001928E-02 0.  1.
       -1    1    3    3    0  502 -0.26546754302E+03 -0.10020529215E+03  0.32370661632E+02  0.28559057535E+03  0.50400001928E-02 0. -1.
</event>
<event>
 5   0  0.3626049E-03  0.1178551E+04  0.7818609E-02  0.9131841E-01
       -2   -1    0    0    0  501  0.00000000000E+00  0.00000000000E+00  0.22920456205E+03  0.22920456206E+03  0.25500000920E-02 0.  1.
        2   -1    0    0  501    0  0.00000000000E+00  0.00000000000E+00 -0.15150028297E+04  0.15150028297E+04  0.25500000920E-02 0. -1.
    10030    2    1    2    0    0  0.00000000000E+00  0.00000000000E+00 -0.12857982676E+04  0.17442073917E+04  0.11785509070E+04 0.  0.
        1    1    3    3  502    0 -0.58870065499E+03  0.12952874174E+01 -0.68136159695E+03  0.90045753080E+03  0.50400001928E-02 0.  1.
       -1    1    3    3    0  502  0.58870065499E+03 -0.12952874174E+01 -0.60443667069E+03  0.84374986095E+03  0.50400001928E-02 0. -1.
</event>
<event>
 5   0  0.2078258E-03  0.1215960E+04  0.7818609E-02  0.9099000E-01
        1   -1    0    0  501    0  0.00000000000E+00  0.00000000000E+00  0.77831280086E+03  0.77831280088E+03  0.50400001928E-02 0. -1.
       -1   -1    0    0    0  501  0.00000000000E+00  0.00000000000E+00 -0.47492450557E+03  0.47492450560E+03  0.50400001928E-02 0.  1.
    10030    2    1    2    0    0  0.00000000000E+00  0.00000000000E+00  0.30338829529E+03  0.12532373065E+04  0.12159602332E+04 0.  0.
        3    1    3    3  502    0 -0.19004402703E+02 -0.41754913823E+03 -0.30335132826E+03  0.51645957123E+03  0.10100000352E+00 0.  1.
       -3    1    3    3    0  502  0.19004402703E+02  0.41754913823E+03  0.60673962355E+03  0.73677773524E+03  0.10100000352E+00 0. -1.
</event>
<event>
 5   0  0.3706035E-03  0.1196906E+04  0.7818609E-02  0.9115569E-01
       -2   -1    0    0    0  501  0.00000000000E+00  0.00000000000E+00  0.19191207025E+03  0.19191207026E+03  0.25500000920E-02 0. -1.
        2   -1    0    0  501    0  0.00000000000E+00  0.00000000000E+00 -0.18661985465E+04  0.18661985465E+04  0.25500000920E-02 0.  1.
    10030    2    1    2    0    0  0.00000000000E+00  0.00000000000E+00 -0.16742864762E+04  0.20581106167E+04  0.11969060557E+04 0.  0.
        2    1    3    3  502    0 -0.99174672345E+02 -0.11451999234E+03  0.15839464712E+03  0.21917871366E+03  0.25500000920E-02 0. -1.
       -2    1    3    3    0  502  0.99174672345E+02  0.11451999234E+03 -0.18326811233E+04  0.18389319031E+04  0.25500000920E-02 0.  1.
</event>
<event>
 5   0  0.3650180E-03  0.1174173E+04  0.7818609E-02  0.9135768E-01
        2   -1    0    0  501    0  0.00000000000E+00  0.00000000000E+00  0.13629833251E+04  0.13629833251E+04  0.25500000920E-02 0. -1.
       -2   -1    0    0    0  501  0.00000000000E+00  0.00000000000E+00 -0.25287939337E+03  0.25287939338E+03  0.25500000920E-02 0.  1.
    10030    2    1    2    0    0  0.00000000000E+00  0.00000000000E+00  0.11101039317E+04  0.16158627185E+04  0.11741727240E+04 0.  0.
        3    1    3    3  502    0  0.11672432244E+03 -0.43982795618E+03  0.10655302270E+04  0.11586318973E+04  0.10100000352E+00 0. -1.
       -3    1    3    3    0  502 -0.11672432244E+03  0.43982795618E+03  0.44573704688E+02  0.45723082118E+03  0.10100000352E+00 0.  1.
</event>
<event>
 5   0  0.1397500E-03  0.1190287E+04  0.7818609E-02  0.9121401E-01
        3   -1    0    0  501    0  0.00000000000E+00  0.00000000000E+00  0.11738196560E+04  0.11738196604E+04  0.10100000352E+00 0.  1.
       -3   -1    0    0    0  501  0.00000000000E+00  0.00000000000E+00 -0.30174638691E+03  0.30174640382E+03  0.10100000352E+00 0. -1.
    10030    2    1    2    0    0  0.00000000000E+00  0.00000000000E+00  0.87207326913E+03  0.14755660642E+04  0.11902871179E+04 0.  0.
        1    1    3    3  502    0 -0.48715254528E+03  0.77023411376E+01  0.85974157912E+03  0.98819659549E+03  0.50400001928E-02 0.  1.
       -1    1    3    3    0  502  0.48715254528E+03 -0.77023411376E+01  0.12331690002E+02  0.48736946872E+03  0.50400001928E-02 0. -1.
</event>
<event>
 5   0  0.2025294E-03  0.1185295E+04  0.7818609E-02  0.9125826E-01
       -1   -1    0    0    0  501  0.00000000000E+00  0.00000000000E+00  0.14784005660E+03  0.14784005668E+03  0.50400001928E-02 0. -1.
        1   -1    0    0  501    0  0.00000000000E+00  0.00000000000E+00 -0.23757490962E+04  0.23757490962E+04  0.50400001928E-02 0.  1.
    10030    2    1    2    0    0  0.00000000000E+00  0.00000000000E+00 -0.22279090396E+04  0.25235891529E+04  0.11852946991E+04 0.  0.
        5    1    3    3  502    0  0.79498308314E+02 -0.35456132360E+02  0.13411536162E+03  0.15995667716E+03  0.46999998093E+01 0. -1.
       -5    1    3    3    0  502 -0.79498308314E+02  0.35456132360E+02 -0.23620244012E+04  0.23636324757E+04  0.46999998093E+01 0.  1.
</event>
<event>
 5   0  0.3725376E-03  0.1191759E+04  0.7818609E-02  0.9120100E-01
        2   -1    0    0  501    0  0.00000000000E+00  0.00000000000E+00  0.59293593802E+03  0.59293593803E+03  0.25500000920E-02 0. -1.
       -2   -1    0    0    0  501  0.00000000000E+00  0.00000000000E+00 -0.59883790179E+03  0.59883790179E+03  0.25500000920E-02 0.  1.
    10030    2    1    2    0    0  0.00000000000E+00  0.00000000000E+00 -0.59019637672E+01  0.11917738398E+04  0.11917592257E+04 0.  0.
        4    1    3    3  502    0  0.49402488031E+03 -0.22583920074E+03  0.24201522980E+03  0.59467378563E+03  0.12699999809E+01 0. -1.
       -4    1    3    3    0  502 -0.49402488031E+03  0.22583920074E+03 -0.24791719357E+03  0.59710005420E+03  0.12699999809E+01 0.  1.
</event>
<event>
 5   0  0.3725376E-03  0.1185812E+04  0.7818609E-02  0.9125366E-01
       -2   -1    0    0    0  501  0.00000000000E+00  0.00000000000E+00  0.51249600414E+03  0.51249600414E+03  0.25500000920E-02 0.  1.
        2   -1    0    0  501    0  0.00000000000E+00  0.00000000000E+00 -0.68593249191E+03  0.68593249191E+03  0.25500000920E-02 0. -1.
    10030    2    1    2    0    0  0.00000000000E+00  0.00000000000E+00 -0.17343648777E+03  0.11984284961E+04  0.11858122300E+04 0.  0.
        4    1    3    3  502    0  0.43758453392E+03 -0.39879916424E+03 -0.11891707049E+03  0.60387405995E+03  0.12699999809E+01 0. -1.
       -4    1    3    3    0  502 -0.43758453392E+03  0.39879916424E+03 -0.54519417280E+02  0.59455443610E+03  0.12699999809E+01 0.  1.
</event>
<event>
 5   0  0.3706035E-03  0.1201483E+04  0.7818609E-02  0.9111559E-01
        2   -1    0    0  501    0  0.00000000000E+00  0.00000000000E+00  0.15625421976E+04  0.15625421976E+04  0.25500000920E-02 0.  1.
       -2   -1    0    0    0  501  0.00000000000E+00  0.00000000000E+00 -0.23096367405E+03  0.23096367407E+03  0.25500000920E-02 0. -1.
    10030    2    1    2    0    0  0.00000000000E+00  0.00000000000E+00  0.13315785236E+04  0.17935058717E+04  0.12014832281E+04 0.  0.
        2    1    3    3  502    0  0.58232522216E+03 -0.28260529410E+02  0.88205248444E+03  0.10573163704E+04  0.25500000920E-02 0. -1.
       -2    1    3    3    0  502 -0.58232522216E+03  0.28260529410E+02  0.44952603912E+03  0.73618950124E+03  0.25500000920E-02 0.  1.
</event>
<event>
 5   0  0.2025294E-03  0.1204425E+04  0.7818609E-02  0.9108992E-01
       -1   -1    0    0    0  501  0.00000000000E+00  0.00000000000E+00  0.33154875519E+03  0.33154875523E+03  0.50400001928E-02 0.  1.
        1   -1    0    0  501    0  0.00000000000E+00  0.00000000000E+00 -0.10938355508E+04  0.10938355508E+04  0.50400001928E-02 0. -1.
    10030    2    1    2    0    0  0.00000000000E+00  0.00000000000E+00 -0.76228679563E+03  0.14253843061E+04  0.12044248674E+04 0.  0.
        5    1    3    3  502    0  0.37168010637E+03  0.39460140031E+03 -0.70767753326E+02  0.54670515958E+03  0.46999998093E+01 0.  1.
       -5    1    3    3    0  502 -0.37168010637E+03 -0.39460140031E+03 -0.69151904231E+03  0.87867914649E+03  0.46999998093E+01 0. -1.
</event>
<event>
 5   0  0.3650180E-03  0.1197575E+04  0.7818609E-02  0.9114982E-01
       -2   -1    0    0    0  501  0.00000000000E+00  0.00000000000E+00  0.50909393040E+03  0.50909393040E+03  0.25500000920E-02 0. -1.
        2   -1    0    0  501    0  0.00000000000E+00  0.00000000000E+00 -0.70428344142E+03  0.70428344143E+03  0.25500000920E-02 0.  1.
    10030    2    1    2    0    0  0.00000000000E+00  0.00000000000E+00 -0.19518951103E+03  0.12133773718E+04  0.11975749251E+04 0.  0.
        3    1    3    3  502    0  0.15600868830E+03 -0.71108428523E+02 -0.67888225273E+03  0.70019728842E+03  0.10100000352E+00 0.  1.
       -3    1    3    3    0  502 -0.15600868830E+03  0.71108428523E+02  0.48369274170E+03  0.51318008341E+03  0.10100000352E+00 0. -1.
</event>
<event>
 5   0  0.1397500E-03  0.1194797E+04  0.7818609E-02  0.9117423E-01
       -3   -1    0    0    0  501  0.00000000000E+00  0.00000000000E+00  0.74542606295E+03  0.74542606979E+03  0.10100000352E+00 0.  1.
        3   -1    0    0  501    0  0.00000000000E+00  0.00000000000E+00 -0.47876612312E+03  0.47876613377E+03  0.10100000352E+00 0. -1.
    10030    2    1    2    0    0  0.00000000000E+00  0.00000000000E+00  0.26665993983E+03  0.12241922036E+04  0.11947966470E+04 0.  0.
        2    1    3    3  502    0  0.26654026147E+03 -0.44901024071E+03  0.43069589732E+03  0.67686990125E+03  0.25500000920E-02 0.  1.
       -2    1    3    3    0  502 -0.26654026147E+03  0.44901024071E+03 -0.16403595749E+03  0.54732230231E+03  0.25500000920E-02 0. -1.
</event>
<event>
 5   0  0.2078258E-03  0.1184343E+04  0.7818609E-02  0.9126672E-01
       -1   -1    0    0    0  501  0.00000000000E+00  0.00000000000E+00  0.43658336482E+03  0.43658336485E+03  0.50400001928E-02 0.  1.
        1   -1    0    0  501    0  0.00000000000E+00  0.00000000000E+00 -0.80320781839E+03  0.80320781840E+03  0.50400001928E-02 0. -1.
    10030    2    1    2    0    0  0.00000000000E+00  0.00000000000E+00 -0.36662445357E+03  0.12397911832E+04  0.11843431463E+04 0.  0.
        3    1    3    3  502    0  0.21910285765E+03 -0.33095592955E+03 -0.64335164382E+03  0.75593600082E+03  0.10100000352E+00 0. -1.
       -3    1    3    3    0  502 -0.21910285765E+03  0.33095592955E+03  0.27672719025E+03  0.48385518243E+03  0.10100000352E+00 0.  1.
</event>
<event>
 5   0  0.1397500E-03  0.1243034E+04  0.7818609E-02  0.9076001E-01
        3   -1    0    0  501    0  0.00000000000E+00  0.00000000000E+00  0.11123906683E+04  0.11123906729E+04  0.10100000352E+00 0.  1.
       -3   -1    0    0    0  501  0.00000000000E+00  0.00000000000E+00 -0.34725515658E+03  0.34725517127E+03  0.10100000352E+00 0. -1.
    10030    2    1    2    0    0  0.00000000000E+00  0.00000000000E+00  0.76513551176E+03  0.14596458442E+04  0.12430340458E+04 0.  0.
        4    1    3    3  502    0 -0.18511634491E+03  0.19260457947E+03  0.10415332441E+04  0.10752477374E+04  0.12699999809E+01 0.  1.
       -4    1    3    3    0  502  0.18511634491E+03 -0.19260457947E+03 -0.27639773236E+03  0.38439810684E+03  0.12699999809E+01 0. -1.
</event>
<event>
 5   0  0.3725376E-03  0.1209767E+04  0.7818609E-02  0.9104350E-01
       -2   -1    0    0    0  501  0.00000000000E+00  0.00000000000E+00  0.19552487994E+03  0.19552487996E+03  0.25500000920E-02 0. -1.
        2   -1    0    0  501    0  0.00000000000E+00  0.00000000000E+00 -0.18712910466E+04  0.18712910466E+04  0.25500000920E-02 0.  1.
    10030    2    1    2    0    0  0.00000000000E+00  0.00000000000E+00 -0.16757661667E+04  0.20668159266E+04  0.12097668490E+04 0.  0.
        4    1    3    3  502    0  0.40643971037E+03  0.13591814456E+03 -0.15671602508E+04  0.16247030020E+04  0.12699999809E+01 0.  1.
       -4    1    3    3    0  502 -0.40643971037E+03 -0.13591814456E+03 -0.10860591587E+03  0.44211292455E+03  0.12699999809E+01 0. -1.
</event>
<event>
 5   0  0.2134992E-03  0.1188397E+04  0.7818609E-02  0.9123074E-01
        1   -1    0    0  501    0  0.00000000000E+00  0.00000000000E+00  0.19585759733E+04  0.19585759733E+04  0.50400001928E-02 0. -1.
       -1   -1    0    0    0  501  0.00000000000E+00  0.00000000000E+00 -0.18026960394E+03  0.18026960401E+03  0.50400001928E-02 0.  1.
    10030    2    1    2    0    0  0.00000000000E+00  0.00000000000E+00  0.17783063694E+04  0.21388455773E+04  0.11883967605E+04 0.  0.
        4    1    3    3  502    0 -0.47255270436E+03  0.34480659040E+03  0.10768175697E+04  0.12254531139E+04  0.12699999809E+01 0. -1.
       -4    1    3    3    0  502  0.47255270436E+03 -0.34480659040E+03  0.70148879969E+03  0.91339246338E+03  0.12699999809E+01 0.  1.
</event>
<event>
 5   0  0.2078258E-03  0.1201903E+04  0.7818609E-02  0.9111193E-01
       -1   -1    0    0    0  501  0.00000000000E+00  0.00000000000E+00  0.75227785994E+03  0.75227785995E+03  0.50400001928E-02 0.  1.
        1   -1    0    0  501    0  0.00000000000E+00  0.00000000000E+00 -0.48006537407E+03  0.48006537409E+03  0.50400001928E-02 0. -1.
    10030    2    1    2    0    0  0.00000000000E+00  0.00000000000E+00  0.27221248587E+03  0.12323432340E+04  0.12019027453E+04 0.  0.
        3    1    3    3  502    0 -0.52461598925E+02 -0.91588929993E+02 -0.47048689208E+03  0.48218116645E+03  0.10100000352E+00 0. -1.
       -3    1    3    3    0  502  0.52461598925E+02  0.91588929993E+02  0.74269937795E+03  0.75016206760E+03  0.10100000352E+00 0.  1.
</event>
<event>
 5   0  0.3706035E-03  0.1207834E+04  0.7818609E-02  0.9106027E-01
        2   -1    0    0  501    0  0.00000000000E+00  0.00000000000E+00  0.74033250729E+03  0.74033250729E+03  0.25500000920E-02 0.  1.
       -2   -1    0    0    0  501  0.00000000000E+00  0.00000000000E+00 -0.49263782635E+03  0.49263782636E+03  0.25500000920E-02 0. -1.
    10030    2    1    2    0    0  0.00000000000E+00  0.00000000000E+00  0.24769468093E+03  0.12329703337E+04  0.12078340899E+04 0.  0.
        2    1    3    3  502    0  0.18177329969E+03  0.10151125931E+03 -0.45484512441E+03  0.50023010250E+03  0.25500000920E-02 0. -1.
       -2    1    3    3    0  502 -0.18177329969E+03 -0.10151125931E+03  0.70253980534E+03  0.73274023115E+03  0.25500000920E-02 0.  1.
</event>
<event>
 5   0  0.2078258E-03  0.1226872E+04  0.7818609E-02  0.9089655E-01
        1   -1    0    0  501    0  0.00000000000E+00  0.00000000000E+00  0.50987550058E+03  0.50987550060E+03  0.50400001928E-02 0. -1.
       -1   -1    0    0    0  501  0.00000000000E+00  0.00000000000E+00 -0.73803102850E+03  0.73803102851E+03  0.50400001928E-02 0.  1.
    10030    2    1    2    0    0  0.00000000000E+00  0.00000000000E+00 -0.22815552792E+03  0.12479065291E+04  0.12268723489E+04 0.  0.
        3    1    3    3  502    0  0.48319436349E+03  0.37247992781E+03 -0.17909423263E+03  0.63584026602E+03  0.10100000352E+00 0. -1.
       -3    1    3    3    0  502 -0.48319436349E+03 -0.37247992781E+03 -0.49061295290E+02  0.61206626310E+03  0.10100000352E+00 0.  1.
</event>
<event>
 5   0  0.3725376E-03  0.1197339E+04  0.7818609E-02  0.9115189E-01
       -2   -1    0    0    0  501  0.00000000000E+00  0.00000000000E+00  0.42092979773E+03  0.42092979774E+03  0.25500000920E-02 0. -1.
        2   -1    0    0  501    0  0.00000000000E+00  0.00000000000E+00 -0.85146021735E+03  0.85146021735E+03  0.25500000920E-02 0.  1.
    10030    2    1    2    0    0  0.00000000000E+00  0.00000000000E+00 -0.43053041961E+03  0.12723900151E+04  0.11973386774E+04 0.  0.
        4    1    3    3  502    0 -0.10266123299E+03 -0.12744960447E+03 -0.82722658682E+03  0.84326043977E+03  0.12699999809E+01 0.  1.
       -4    1    3    3    0  502  0.10266123299E+03  0.12744960447E+03  0.39669616720E+03  0.42912957532E+03  0.12699999809E+01 0. -1.
</event>
<event>
 5   0  0.3626049E-03  0.1226628E+04  0.7818609E-02  0.9089864E-01
       -2   -1    0    0    0  501  0.00000000000E+00  0.00000000000E+00  0.39262319255E+03  0.39262319256E+03  0.25500000920E-02 0.  1.
        2   -1    0    0  501    0  0.00000000000E+00  0.00000000000E+00 -0.95805286662E+03  0.95805286662E+03  0.25500000920E-02 0. -1.
    10030    2    1    2    0    0  0.00000000000E+00  0.00000000000E+00 -0.56542967406E+03  0.13506760592E+04  0.12266275313E+04 0.  0.
        1    1    3    3  502    0 -0.46692247696E+03  0.12699930086E+03  0.13223484826E+03  0.50162882396E+03  0.50400001928E-02 0.  1.
       -1    1    3    3    0  502  0.46692247696E+03 -0.12699930086E+03 -0.69766452232E+03  0.84904723522E+03  0.50400001928E-02 0. -1.
</event>
<event>
 5   0  0.3650180E-03  0.1194628E+04  0.7818609E-02  0.9117571E-01
       -2   -1    0    0    0  501  0.00000000000E+00  0.00000000000E+00  0.29496427359E+03  0.29496427360E+03  0.25500000920E-02 0. -1.
        2   -1    0    0  501    0  0.00000000000E+00  0.00000000000E+00 -0.12095846719E+04  0.12095846719E+04  0.25500000920E-02 0.  1.
    10030    2    1    2    0    0  0.00000000000E+00  0.00000000000E+00 -0.91462039829E+03  0.15045489455E+04  0.11946284177E+04 0.  0.
        3    1    3    3  502    0  0.41544220815E+02 -0.41084931908E+03 -0.10008541175E+04  0.10826966611E+04  0.10100000352E+00 0.  1.
       -3    1    3    3    0  502 -0.41544220815E+02  0.41084931908E+03  0.86233719236E+02  0.42185228434E+03  0.10100000352E+00 0. -1.
</event>
<event>
 5   0  0.3650180E-03  0.1213182E+04  0.7818609E-02  0.9101396E-01
       -2   -1    0    0    0  501  0.00000000000E+00  0.00000000000E+00  0.55491691760E+03  0.55491691761E+03  0.25500000920E-02 0.  1.
        2   -1    0    0  501    0  0.00000000000E+00  0.00000000000E+00 -0.66307652033E+03  0.66307652034E+03  0.25500000920E-02 0. -1.
    10030    2    1    2    0    0  0.00000000000E+00  0.00000000000E+00 -0.10815960273E+03  0.12179934379E+04  0.12131815673E+04 0.  0.
        3    1    3    3  502    0 -0.50644217481E+03 -0.13023626205E+03 -0.36271937647E+03  0.63640436567E+03  0.10100000352E+00 0. -1.
       -3    1    3    3    0  502  0.50644217481E+03  0.13023626205E+03  0.25455977374E+03  0.58158907227E+03  0.10100000352E+00 0.  1.
</event>
<event>
 5   0  0.3751091E-03  0.1207542E+04  0.7818609E-02  0.9106280E-01
       -2   -1    0    0    0  501  0.00000000000E+00  0.00000000000E+00  0.32940756264E+03  0.32940756265E+03  0.25500000920E-02 0.  1.
        2   -1    0    0  501    0  0.00000000000E+00  0.00000000000E+00 -0.11066521765E+04  0.11066521766E+04  0.25500000920E-02 0. -1.
    10030    2    1    2    0    0  0.00000000000E+00  0.00000000000E+00 -0.77724461391E+03  0.14360597392E+04  0.12075422911E+04 0.  0.
        5    1    3    3  502    0  0.14872414699E+02 -0.38744560118E+03  0.16175671031E+03  0.42014593407E+03  0.46999998093E+01 0.  1.
       -5    1    3    3    0  502 -0.14872414699E+02  0.38744560118E+03 -0.93900132421E+03  0.10159138051E+04  0.46999998093E+01 0. -1.
</event>
<event>
 5   0  0.2078258E-03  0.1171466E+04  0.7818609E-02  0.9138205E-01
        1   -1    0    0  501    0  0.00000000000E+00  0.00000000000E+00  0.10363518486E+04  0.10363518486E+04  0.50400001928E-02 0. -1.
       -1   -1    0    0    0  501  0.00000000000E+00  0.00000000000E+00 -0.33104903518E+03  0.33104903522E+03  0.50400001928E-02 0.  1.
    10030    2    1    2    0    0  0.00000000000E+00  0.00000000000E+00  0.70530281345E+03  0.13674008839E+04  0.11714662259E+04 0.  0.
        3    1    3    3  502    0  0.25945049364E+03 -0.33635733874E+03  0.82337903432E+03  0.92650087012E+03  0.10100000352E+00 0. -1.
       -3    1    3    3    0  502 -0.25945049364E+03  0.33635733874E+03 -0.11807622087E+03  0.44090001373E+03  0.10100000352E+00 0.  1.
</event>
<event>
 5   0  0.2134992E-03  0.1479257E+04  0.7818609E-02  0.8898365E-01
       -1   -1    0    0    0  501  0.00000000000E+00  0.00000000000E+00  0.67915764386E+03  0.67915764388E+03  0.50400001928E-02 0.  1.
        1   -1    0    0  501    0  0.00000000000E+00  0.00000000000E+00 -0.80548329883E+03  0.80548329885E+03  0.50400001928E-02 0. -1.
    10030    2    1    2    0    0  0.00000000000E+00  0.00000000000E+00 -0.12632565497E+03  0.14846409427E+04  0.14792567586E+04 0.  0.
        4    1    3    3  502    0  0.18486268232E+03 -0.69630981658E+02 -0.77851643716E+03  0.80318873296E+03  0.12699999809E+01 0. -1.
       -4    1    3    3    0  502 -0.18486268232E+03  0.69630981658E+02  0.65219078219E+03  0.68145220977E+03  0.12699999809E+01 0.  1.
</event>
<event>
 5   0  0.3725376E-03  0.1152967E+04  0.7818609E-02  0.9155050E-01
       -2   -1    0    0    0  501  0.00000000000E+00  0.00000000000E+00  0.47610791187E+03  0.47610791187E+03  0.25500000920E-02 0. -1.
        2   -1    0    0  501    0  0.00000000000E+00  0.00000000000E+00 -0.69802127306E+03  0.69802127306E+03  0.25500000920E-02 0.  1.
    10030    2    1    2    0    0  0.00000000000E+00  0.00000000000E+00 -0.22191336119E+03  0.11741291849E+04  0.11529673903E+04 0.  0.
        4    1    3    3  502    0  0.51507672283E+03 -0.14218387596E+03 -0.33128756780E+03  0.62870768284E+03  0.12699999809E+01 0.  1.
       -4    1    3    3    0  502 -0.51507672283E+03  0.14218387596E+03  0.10937420661E+03  0.54542150210E+03  0.12699999809E+01 0. -1.
</event>
<event>
 5   0  0.2078258E-03  0.1189810E+04  0.7818609E-02  0.9121823E-01
       -1   -1    0    0    0  501  0.00000000000E+00  0.00000000000E+00  0.21559872168E+03  0.21559872174E+03  0.50400001928E-02 0.  1.
        1   -1    0    0  501    0  0.00000000000E+00  0.00000000000E+00 -0.16415316768E+04  0.16415316768E+04  0.50400001928E-02 0. -1.
    10030    2    1    2    0    0  0.00000000000E+00  0.00000000000E+00 -0.14259329551E+04  0.18571303986E+04  0.11898102894E+04 0.  0.
        3    1    3    3  502    0  0.12412678706E+03  0.30204695648E+03 -0.14891285391E+04  0.15245142306E+04  0.10100000352E+00 0. -1.
       -3    1    3    3    0  502 -0.12412678706E+03 -0.30204695648E+03  0.63195583912E+02  0.33261616800E+03  0.10100000352E+00 0.  1.
</event>
<event>
 5   0  0.2096270E-03  0.1221644E+04  0.7818609E-02  0.9094120E-01
        1   -1    0    0  501    0  0.00000000000E+00  0.00000000000E+00  0.16882036267E+04  0.16882036267E+04  0.50400001928E-02 0.  1.
       -1   -1    0    0    0  501  0.00000000000E+00  0.00000000000E+00 -0.22100623570E+03  0.22100623576E+03  0.50400001928E-02 0. -1.
    10030    2    1    2    0    0  0.00000000000E+00  0.00000000000E+00  0.14671973910E+04  0.19092098625E+04  0.12216440213E+04 0.  0.
        2    1    3    3  502    0  0.43255959842E+02 -0.60928847892E+03  0.73358338332E+03  0.95459316407E+03  0.25500000920E-02 0. -1.
       -2    1    3    3    0  502 -0.43255959842E+02  0.60928847892E+03  0.73361400772E+03  0.95461669844E+03  0.25500000920E-02 0.  1.
</event>
<event>
 5   0  0.2078258E-03  0.1198101E+04  0.7818609E-02  0.9114520E-01
        1   -1    0    0  501    0  0.00000000000E+00  0.00000000000E+00  0.11441984501E+04  0.11441984501E+04  0.50400001928E-02 0.  1.
       -1   -1    0    0    0  501  0.00000000000E+00  0.00000000000E+00 -0.31363587666E+03  0.31363587670E+03  0.50400001928E-02 0. -1.
    10030    2    1    2    0    0  0.00000000000E+00  0.00000000000E+00  0.83056257345E+03  0.14578343268E+04  0.11981013046E+04 0.  0.
        3    1    3    3  502    0  0.15514120363E+03  0.16038803078E+03  0.10917411689E+04  0.11143123007E+04  0.10100000352E+00 0.  1.
       -3    1    3    3    0  502 -0.15514120363E+03 -0.16038803078E+03 -0.26117859545E+03  0.34352202608E+03  0.10100000352E+00 0. -1.
</event>
<event>
 5   0  0.2078258E-03  0.1208135E+04  0.7818609E-02  0.9105766E-01
        1   -1    0    0  501    0  0.00000000000E+00  0.00000000000E+00  0.18775715356E+04  0.18775715356E+04  0.50400001928E-02 0. -1.
       -1   -1    0    0    0  501  0.00000000000E+00  0.00000000000E+00 -0.19434534531E+03  0.19434534538E+03  0.50400001928E-02 0.  1.
    10030    2    1    2    0    0  0.00000000000E+00  0.00000000000E+00  0.16832261903E+04  0.20719168810E+04  0.12081345761E+04 0.  0.
        3    1    3    3  502    0 -0.58795950190E+03 -0.12383155878E+03  0.94825411866E+03  0.11225936552E+04  0.10100000352E+00 0. -1.
       -3    1    3    3    0  502  0.58795950190E+03  0.12383155878E+03  0.73497207159E+03  0.94932322580E+03  0.10100000352E+00 0.  1.
</event>
<event>
 5   0  0.2025294E-03  0.1191655E+04  0.7818609E-02  0.9120192E-01
       -1   -1    0    0    0  501  0.00000000000E+00  0.00000000000E+00  0.44141980643E+03  0.44141980645E+03  0.50400001928E-02 0. -1.
        1   -1    0    0  501    0  0.00000000000E+00  0.00000000000E+00 -0.80424659543E+03  0.80424659544E+03  0.50400001928E-02 0.  1.
    10030    2    1    2    0    0  0.00000000000E+00  0.00000000000E+00 -0.36282678900E+03  0.12456664019E+04  0.11916549442E+04 0.  0.
        5    1    3    3  502    0  0.34825396387E+03 -0.14700484245E+03  0.30000040486E+03  0.48261120994E+03  0.46999998093E+01 0. -1.
       -5    1    3    3    0  502 -0.34825396387E+03  0.14700484245E+03 -0.66282719386E+03  0.76305519195E+03  0.46999998093E+01 0.  1.
</event>
<event>
 5   0  0.2096270E-03  0.1195751E+04  0.7818609E-02  0.9116584E-01
        1   -1    0    0  501    0  0.00000000000E+00  0.00000000000E+00  0.11375197832E+04  0.11375197832E+04  0.50400001928E-02 0. -1.
       -1   -1    0    0    0  501  0.00000000000E+00  0.00000000000E+00 -0.31424064125E+03  0.31424064129E+03  0.50400001928E-02 0.  1.
    10030    2    1    2    0    0  0.00000000000E+00  0.00000000000E+00  0.82327914192E+03  0.14517604245E+04  0.11957507201E+04 0.  0.
        2    1    3    3  502    0  0.63675801692E+02 -0.46127396527E+03  0.86692960552E+03  0.98407073917E+03  0.25500000920E-02 0. -1.
       -2    1    3    3    0  502 -0.63675801692E+02  0.46127396527E+03 -0.43650463592E+02  0.46768968530E+03  0.25500000920E-02 0.  1.
</event>
<event>
 5   0  0.1397500E-03  0.1205820E+04  0.7818609E-02  0.9107777E-01
       -3   -1    0    0    0  501  0.00000000000E+00  0.00000000000E+00  0.45524009520E+03  0.45524010641E+03  0.10100000352E+00 0.  1.
        3   -1    0    0  501    0  0.00000000000E+00  0.00000000000E+00 -0.79848093957E+03  0.79848094596E+03  0.10100000352E+00 0. -1.
    10030    2    1    2    0    0  0.00000000000E+00  0.00000000000E+00 -0.34324084437E+03  0.12537210524E+04  0.12058201358E+04 0.  0.
        3    1    3    3  502    0  0.11913822958E+03  0.58752868067E+02  0.43983562134E+03  0.45945750756E+03  0.10100000352E+00 0.  1.
       -3    1    3    3    0  502 -0.11913822958E+03 -0.58752868067E+02 -0.78307646571E+03  0.79426354481E+03  0.10100000352E+00 0. -1.
</event>
<event>
 5   0  0.2096270E-03  0.1214116E+04  0.7818609E-02  0.9100590E-01
        1   -1    0    0  501    0  0.00000000000E+00  0.00000000000E+00  0.59586114172E+03  0.59586114174E+03  0.50400001928E-02 0. -1.
       -1   -1    0    0    0  501  0.00000000000E+00  0.00000000000E+00 -0.61846480091E+03  0.61846480093E+03  0.50400001928E-02 0.  1.
    10030    2    1    2    0    0  0.00000000000E+00  0.00000000000E+00 -0.22603659191E+02  0.12143259427E+04  0.12141155504E+04 0.  0.
        2    1    3    3  502    0  0.53468044722E+03 -0.86628936279E+02 -0.28545038465E+03  0.61226601681E+03  0.25500000920E-02 0.  1.
       -2    1    3    3    0  502 -0.53468044722E+03  0.86628936279E+02  0.26284672546E+03  0.60205992586E+03  0.25500000920E-02 0. -1.
</event>
<event>
 5   0  0.3751091E-03  0.1192377E+04  0.7818609E-02  0.9119555E-01
       -2   -1    0    0    0  501  0.00000000000E+00  0.00000000000E+00  0.35312578001E+03  0.35312578002E+03  0.25500000920E-02 0.  1.
        2   -1    0    0  501    0  0.00000000000E+00  0.00000000000E+00 -0.10065557356E+04  0.10065557356E+04  0.25500000920E-02 0. -1.
    10030    2    1    2    0    0  0.00000000000E+00  0.00000000000E+00 -0.65342995557E+03  0.13596815156E+04  0.11923770868E+04 0.  0.
        5    1    3    3  502    0  0.49037692728E+03  0.43302135717E+02  0.56731815176E+02  0.49556553010E+03  0.46999998093E+01 0.  1.
       -5    1    3    3    0  502 -0.49037692728E+03 -0.43302135717E+02 -0.71016177074E+03  0.86411598550E+03  0.46999998093E+01 0. -1.
</event>
<event>
 5   0  0.2078258E-03  0.1251375E+04  0.7818609E-02  0.9069040E-01
       -1   -1    0    0    0  501  0.00000000000E+00  0.00000000000E+00  0.21210507148E+03  0.21210507154E+03  0.50400001928E-02 0. -1.
        1   -1    0    0  501    0  0.00000000000E+00  0.00000000000E+00 -0.18457122199E+04  0.18457122199E+04  0.50400001928E-02 0.  1.
    10030    2    1    2    0    0  0.00000000000E+00  0.00000000000E+00 -0.16336071484E+04  0.20578172914E+04  0.12513751195E+04 0.  0.
        3    1    3    3  502    0 -0.59683122887E+03  0.59055601103E+02 -0.52360394574E+03  0.79615085378E+03  0.10100000352E+00 0. -1.
       -3    1    3    3    0  502  0.59683122887E+03 -0.59055601103E+02 -0.11100032027E+04  0.12616664376E+04  0.10100000352E+00 0.  1.
</event>
<event>
 5   0  0.3751091E-03  0.1459689E+04  0.7818609E-02  0.8911711E-01
        2   -1    0    0  501    0  0.00000000000E+00  0.00000000000E+00  0.17859977106E+04  0.17859977106E+04  0.25500000920E-02 0. -1.
       -2   -1    0    0    0  501  0.00000000000E+00  0.00000000000E+00 -0.29824934140E+03  0.29824934141E+03  0.25500000920E-02 0.  1.
    10030    2    1    2    0    0  0.00000000000E+00  0.00000000000E+00  0.14877483692E+04  0.20842470520E+04  0.14596885160E+04 0.  0.
        5    1    3    3  502    0 -0.76800812781E+02  0.14768048412E+03  0.17585096458E+04  0.17663765609E+04  0.46999998093E+01 0. -1.
       -5    1    3    3    0  502  0.76800812781E+02 -0.14768048412E+03 -0.27076127663E+03  0.31787049117E+03  0.46999998093E+01 0.  1.
</event>
<event>
 5   0  0.2078258E-03  0.1182938E+04  0.7818609E-02  0.9127923E-01
       -1   -1    0    0    0  501  0.00000000000E+00  0.00000000000E+00  0.26347694242E+03  0.26347694247E+03  0.50400001928E-02 0. -1.
        1   -1    0    0  501    0  0.00000000000E+00  0.00000000000E+00 -0.13277656841E+04  0.13277656841E+04  0.50400001928E-02 0.  1.
    10030    2    1    2    0    0  0.00000000000E+00  0.00000000000E+00 -0.10642887417E+04  0.15912426266E+04  0.11829381095E+04 0.  0.
        3    1    3    3  502    0  0.23102062061E+03  0.45177544191E+03 -0.94095848173E+03  0.10690530630E+04  0.10100000352E+00 0.  1.
       -3    1    3    3    0  502 -0.23102062061E+03 -0.45177544191E+03 -0.12333025998E+03  0.52218956356E+03  0.10100000352E+00 0. -1.
</event>
<event>
 5   0  0.3725376E-03  0.1207477E+04  0.7818609E-02  0.9106337E-01
        2   -1    0    0  501    0  0.00000000000E+00  0.00000000000E+00  0.35709830341E+03  0.35709830342E+03  0.25500000920E-02 0.  1.
       -2   -1    0    0    0  501  0.00000000000E+00  0.00000000000E+00 -0.10207284150E+04  0.10207284150E+04  0.25500000920E-02 0. -1.
    10030    2    1    2    0    0  0.00000000000E+00  0.00000000000E+00 -0.66363011156E+03  0.13778267184E+04  0.12074773459E+04 0.  0.
        4    1    3    3  502    0 -0.31085914201E+03 -0.24911682363E+03 -0.84947529728E+03  0.93824436666E+03  0.12699999809E+01 0. -1.
       -4    1    3    3    0  502  0.31085914201E+03  0.24911682363E+03  0.18584518572E+03  0.43958235172E+03  0.12699999809E+01 0.  1.
</event>
<event>
 5   0  0.2134992E-03  0.1181783E+04  0.7818609E-02  0.9128953E-01
        1   -1    0    0  501    0  0.00000000000E+00  0.00000000000E+00  0.43206205709E+03  0.43206205712E+03  0.50400001928E-02 0. -1.
       -1   -1    0    0    0  501  0.00000000000E+00  0.00000000000E+00 -0.80810831642E+03  0.80810831644E+03  0.50400001928E-02 0.  1.
    10030    2    1    2    0    0  0.00000000000E+00  0.00000000000E+00 -0.37604625933E+03  0.12401703736E+04  0.11817832992E+04 0.  0.
        4    1    3    3  502    0  0.46044740245E+03 -0.10341329502E+03  0.18513653376E+03  0.50693517243E+03  0.12699999809E+01 0. -1.
       -4    1    3    3    0  502 -0.46044740245E+03  0.10341329502E+03 -0.56118279309E+03  0.73323520113E+03  0.12699999809E+01 0.  1.
</event>
<event>
 5   0  0.3725376E-03  0.1195006E+04  0.7818609E-02  0.9117239E-01
        2   -1    0    0  501    0  0.00000000000E+00  0.00000000000E+00  0.16971088600E+04  0.16971088600E+04  0.25500000920E-02 0.  1.
       -2   -1    0    0    0  501  0.00000000000E+00  0.00000000000E+00 -0.21036369362E+03  0.21036369364E+03  0.25500000920E-02 0. -1.
    10030    2    1    2    0    0  0.00000000000E+00  0.00000000000E+00  0.14867451663E+04  0.19074725536E+04  0.11950064239E+04 0.  0.
        4    1    3    3  502    0 -0.28722217639E+03  0.49125238261E+03  0.10341400666E+04  0.11803697609E+04  0.12699999809E+01 0.  1.
       -4    1    3    3    0  502  0.28722217639E+03 -0.49125238261E+03  0.45260509969E+03  0.72710279273E+03  0.12699999809E+01 0. -1.
</event>
<event>
 5   0  0.3706035E-03  0.1152140E+04  0.7818609E-02  0.9155812E-01
       -2   -1    0    0    0  501  0.00000000000E+00  0.00000000000E+00  0.38021519450E+03  0.38021519451E+03  0.25500000920E-02 0. -1.
        2   -1    0    0  501    0  0.00000000000E+00  0.00000000000E+00 -0.87281260227E+03  0.87281260227E+03  0.25500000920E-02 0.  1.
    10030    2    1    2    0    0  0.00000000000E+00  0.00000000000E+00 -0.49259740777E+03  0.12530277968E+04  0.11521399452E+04 0.  0.
        2    1    3    3  502    0 -0.66025361982E+02  0.46800308790E+03 -0.60448671154E+03  0.76732680336E+03  0.25500000920E-02 0.  1.
       -2    1    3    3    0  502  0.66025361982E+02 -0.46800308790E+03  0.11188930377E+03  0.48570099343E+03  0.25500000920E-02 0. -1.
</event>
<event>
 5   0  0.2047109E-03  0.1269778E+04  0.7818609E-02  0.9053881E-01
        1   -1    0    0  501    0  0.00000000000E+00  0.00000000000E+00  0.59016137540E+03  0.59016137542E+03  0.50400001928E-02 0.  1.
       -1   -1    0    0    0  501  0.00000000000E+00  0.00000000000E+00 -0.68300600279E+03  0.68300600281E+03  0.50400001928E-02 0. -1.
    10030    2    1    2    0    0  0.00000000000E+00  0.00000000000E+00 -0.92844627394E+02  0.12731673782E+04  0.12697775585E+04 0.  0.
        1    1    3    3  502    0  0.12834992231E+03  0.35604872961E+03  0.46468291672E+03  0.59931178324E+03  0.50400001928E-02 0.  1.
       -1    1    3    3    0  502 -0.12834992231E+03 -0.35604872961E+03 -0.55752754412E+03  0.67385559498E+03  0.50400001928E-02 0. -1.
</event>
<event>
 5   0  0.1397500E-03  0.1198207E+04  0.7818609E-02  0.9114428E-01
       -3   -1    0    0    0  501  0.00000000000E+00  0.00000000000E+00  0.14071500204E+04  0.14071500240E+04  0.10100000352E+00 0.  1.
        3   -1    0    0  501    0  0.00000000000E+00  0.00000000000E+00 -0.25507218586E+03  0.25507220585E+03  0.10100000352E+00 0. -1.
    10030    2    1    2    0    0  0.00000000000E+00  0.00000000000E+00  0.11520778346E+04  0.16622222299E+04  0.11982067454E+04 0.  0.
        4    1    3    3  502    0  0.24771459503E+03  0.22183811973E+03  0.12673732968E+04  0.13102714827E+04  0.12699999809E+01 0.  1.
       -4    1    3    3    0  502 -0.24771459503E+03 -0.22183811973E+03 -0.11529546224E+03  0.35195074722E+03  0.12699999809E+01 0. -1.
</event>
<event>
 5   0  0.2047109E-03  0.9124172E+03  0.7818609E-02  0.9410191E-01
       -1   -1    0    0    0  501  0.00000000000E+00  0.00000000000E+00  0.96064422439E+02  0.96064422571E+02  0.50400001928E-02 0. -1.
        1   -1    0    0  501    0  0.00000000000E+00  0.00000000000E+00 -0.21665283169E+04  0.21665283169E+04  0.50400001928E-02 0.  1.
    10030    2    1    2    0    0  0.00000000000E+00  0.00000000000E+00 -0.20704638945E+04  0.22625927395E+04  0.91241721075E+03 0.  0.
        1    1    3    3  502    0  0.83648316061E+02  0.38974263467E+03 -0.15854407414E+04  0.16347839938E+04  0.50400001928E-02 0.  1.
       -1    1    3    3    0  502 -0.83648316061E+02 -0.38974263467E+03 -0.48502315310E+03  0.62780874566E+03  0.50400001928E-02 0. -1.
</event>
<event>
 5   0  0.3751091E-03  0.1192284E+04  0.7818609E-02  0.9119637E-01
        2   -1    0    0  501    0  0.00000000000E+00  0.00000000000E+00  0.10345124871E+04  0.10345124871E+04  0.25500000920E-02 0. -1.
       -2   -1    0    0    0  501  0.00000000000E+00  0.00000000000E+00 -0.34352923279E+03  0.34352923280E+03  0.25500000920E-02 0.  1.
    10030    2    1    2    0    0  0.00000000000E+00  0.00000000000E+00  0.69098325431E+03  0.13780417199E+04  0.11922839947E+04 0.  0.
        5    1    3    3  502    0 -0.31345798965E+03 -0.37064401113E+02 -0.23899754697E+03  0.39594393361E+03  0.46999998093E+01 0.  1.
       -5    1    3    3    0  502  0.31345798965E+03  0.37064401113E+02  0.92998080128E+03  0.98209778630E+03  0.46999998093E+01 0. -1.
</event>
<event>
 5   0  0.3650180E-03  0.1207706E+04  0.7818609E-02  0.9106138E-01
       -2   -1    0    0    0  501  0.00000000000E+00  0.00000000000E+00  0.83300938040E+03  0.83300938040E+03  0.25500000920E-02 0. -1.
        2   -1    0    0  501    0  0.00000000000E+00  0.00000000000E+00 -0.43773623366E+03  0.43773623367E+03  0.25500000920E-02 0.  1.
    10030    2    1    2    0    0  0.00000000000E+00  0.00000000000E+00  0.39527314674E+03  0.12707456141E+04  0.12077059059E+04 0.  0.
        3    1    3    3  502    0 -0.36648680339E+03 -0.47791819988E+03  0.24374152420E+03  0.64971403221E+03  0.10100000352E+00 0.  1.
       -3    1    3    3    0  502  0.36648680339E+03  0.47791819988E+03  0.15153162253E+03  0.62103158186E+03  0.10100000352E+00 0. -1.
</event>
<event>
 5   0  0.3751091E-03  0.1219054E+04  0.7818609E-02  0.9096341E-01
       -2   -1    0    0    0  501  0.00000000000E+00  0.00000000000E+00  0.39180851166E+03  0.39180851167E+03  0.25500000920E-02 0.  1.
        2   -1    0    0  501    0  0.00000000000E+00  0.00000000000E+00 -0.94822577575E+03  0.94822577576E+03  0.25500000920E-02 0. -1.
    10030    2    1    2    0    0  0.00000000000E+00  0.00000000000E+00 -0.55641726409E+03  0.13400342874E+04  0.12190536164E+04 0.  0.
        5    1    3    3  502    0  0.53240712481E+03 -0.27926290483E+03 -0.38843862061E+03  0.71578751633E+03  0.46999998093E+01 0.  1.
       -5    1    3    3    0  502 -0.53240712481E+03  0.27926290483E+03 -0.16797864348E+03  0.62424677110E+03  0.46999998093E+01 0. -1.
</event>
<event>
 5   0  0.2096270E-03  0.1165841E+04  0.7818609E-02  0.9143293E-01
        1   -1    0    0  501    0  0.00000000000E+00  0.00000000000E+00  0.14791833813E+04  0.14791833813E+04  0.50400001928E-02 0.  1.
       -1   -1    0    0    0  501  0.00000000000E+00  0.00000000000E+00 -0.22971885959E+03  0.22971885965E+03  0.50400001928E-02 0. -1.
    10030    2    1    2    0    0  0.00000000000E+00  0.00000000000E+00  0.12494645217E+04  0.17089022410E+04  0.11658410175E+04 0.  0.
        2    1    3    3  502    0  0.10706567900E+03  0.92331183021E+01 -0.21507367297E+03  0.24042669341E+03  0.25500000920E-02 0. -1.
       -2    1    3    3    0  502 -0.10706567900E+03 -0.92331183021E+01  0.14645381947E+04  0.14684755476E+04  0.25500000920E-02 0.  1.
</event>
<event>
 5   0  0.3725376E-03  0.1190703E+04  0.7818609E-02  0.9121033E-01
       -2   -1    0    0    0  501  0.00000000000E+00  0.00000000000E+00  0.35297563935E+03  0.35297563936E+03  0.25500000920E-02 0.  1.
        2   -1    0    0  501    0  0.00000000000E+00  0.00000000000E+00 -0.10041583163E+04  0.10041583163E+04  0.25500000920E-02 0. -1.
    10030    2    1    2    0    0  0.00000000000E+00  0.00000000000E+00 -0.65118267696E+03  0.13571339557E+04  0.11907030255E+04 0.  0.
        4    1    3    3  502    0  0.28991959503E+03  0.51424690081E+03 -0.41342479813E+03  0.72071140076E+03  0.12699999809E+01 0. -1.
       -4    1    3    3    0  502 -0.28991959503E+03 -0.51424690081E+03 -0.23775787884E+03  0.63642255493E+03  0.12699999809E+01 0.  1.
</event>
<event>
 5   0  0.2047109E-03  0.1213115E+04  0.7818609E-02  0.9101454E-01
        1   -1    0    0  501    0  0.00000000000E+00  0.00000000000E+00  0.14404055241E+04  0.14404055241E+04  0.50400001928E-02 0.  1.
       -1   -1    0    0    0  501  0.00000000000E+00  0.00000000000E+00 -0.25542232677E+03  0.25542232682E+03  0.50400001928E-02 0. -1.
    10030    2    1    2    0    0  0.00000000000E+00  0.00000000000E+00  0.11849831973E+04  0.16958278509E+04  0.12131145544E+04 0.  0.
        1    1    3    3  502    0  0.38691681159E+03  0.29166628626E+03  0.11025627758E+04  0.12043332248E+04  0.50400001928E-02 0.  1.
       -1    1    3    3    0  502 -0.38691681159E+03 -0.29166628626E+03  0.82420421501E+02  0.49149462615E+03  0.50400001928E-02 0. -1.
</event>
<event>
 5   0  0.3650180E-03  0.1205301E+04  0.7818609E-02  0.9108229E-01
        2   -1    0    0  501    0  0.00000000000E+00  0.00000000000E+00  0.59004495509E+03  0.59004495510E+03  0.25500000920E-02 0. -1.
       -2   -1    0    0    0  501  0.00000000000E+00  0.00000000000E+00 -0.61552568101E+03  0.61552568102E+03  0.25500000920E-02 0.  1.
    10030    2    1    2    0    0  0.00000000000E+00  0.00000000000E+00 -0.25480725920E+02  0.12055706361E+04  0.12053013280E+04 0.  0.
        3    1    3    3  502    0  0.75525313264E+02 -0.50101587636E+03  0.31362509743E+03  0.59588731590E+03  0.10100000352E+00 0. -1.
       -3    1    3    3    0  502 -0.75525313264E+02  0.50101587636E+03 -0.33910582335E+03  0.60968332021E+03  0.10100000352E+00 0.  1.
</event>
<event>
 5   0  0.2047109E-03  0.1183757E+04  0.7818609E-02  0.9127194E-01
        1   -1    0    0  501    0  0.00000000000E+00  0.00000000000E+00  0.15807399642E+04  0.15807399642E+04  0.50400001928E-02 0. -1.
       -1   -1    0    0    0  501  0.00000000000E+00  0.00000000000E+00 -0.22161790592E+03  0.22161790597E+03  0.50400001928E-02 0.  1.
    10030    2    1    2    0    0  0.00000000000E+00  0.00000000000E+00  0.13591220582E+04  0.18023578701E+04  0.11837572060E+04 0.  0.
        1    1    3    3  502    0 -0.14445391583E+03  0.21839838697E+03  0.14877531016E+04  0.15106204290E+04  0.50400001928E-02 0. -1.
       -1    1    3    3    0  502  0.14445391583E+03 -0.21839838697E+03 -0.12863104334E+03  0.29173744114E+03  0.50400001928E-02 0.  1.
</event>
<event>
 5   0  0.3751091E-03  0.1195416E+04  0.7818609E-02  0.9116879E-01
       -2   -1    0    0    0  501  0.00000000000E+00  0.00000000000E+00  0.29012134880E+03  0.29012134881E+03  0.25500000920E-02 0.  1.
        2   -1    0    0  501    0  0.00000000000E+00  0.00000000000E+00 -0.12313974935E+04  0.12313974935E+04  0.25500000920E-02 0. -1.
    10030    2    1    2    0    0  0.00000000000E+00  0.00000000000E+00 -0.94127614472E+03  0.15215188423E+04  0.11954157465E+04 0.  0.
        5    1    3    3  502    0  0.34185373286E+03  0.48857093605E+03 -0.52260610320E+03  0.79290905110E+03  0.46999998093E+01 0.  1.
       -5    1    3    3    0  502 -0.34185373286E+03 -0.48857093605E+03 -0.41867004152E+03  0.72860979123E+03  0.46999998093E+01 0. -1.
</event>
<event>
 5   0  0.1397500E-03  0.1217607E+04  0.7818609E-02  0.9097584E-01
        3   -1    0    0  501    0  0.00000000000E+00  0.00000000000E+00  0.12946439483E+04  0.12946439523E+04  0.10100000352E+00 0.  1.
       -3   -1    0    0    0  501  0.00000000000E+00  0.00000000000E+00 -0.28628827345E+03  0.28628829127E+03  0.10100000352E+00 0. -1.
    10030    2    1    2    0    0  0.00000000000E+00  0.00000000000E+00  0.10083556749E+04  0.15809322435E+04  0.12176065011E+04 0.  0.
        1    1    3    3  502    0  0.18180245538E+03 -0.10384236133E+03 -0.23807408118E+03  0.31704043424E+03  0.50400001928E-02 0. -1.
       -1    1    3    3    0  502 -0.18180245538E+03  0.10384236133E+03  0.12464297560E+04  0.12638918093E+04  0.50400001928E-02 0.  1.
</event>
<event>
 5   0  0.2134992E-03  0.1178962E+04  0.7818609E-02  0.9131473E-01
       -1   -1    0    0    0  501  0.00000000000E+00  0.00000000000E+00  0.22354879074E+03  0.22354879079E+03  0.50400001928E-02 0. -1.
        1   -1    0    0  501    0  0.00000000000E+00  0.00000000000E+00 -0.15544168883E+04  0.15544168883E+04  0.50400001928E-02 0.  1.
    10030    2    1    2    0    0  0.00000000000E+00  0.00000000000E+00 -0.13308680975E+04  0.17779656791E+04  0.11789622822E+04 0.  0.
        4    1    3    3  502    0  0.16113909176E+03 -0.24185929192E+03  0.10799719432E+03  0.31004311130E+03  0.12699999809E+01 0. -1.
       -4    1    3    3    0  502 -0.16113909176E+03  0.24185929192E+03 -0.14388652918E+04  0.14679225678E+04  0.12699999809E+01 0.  1.
</event>
<event>
 5   0  0.3706035E-03  0.1243105E+04  0.7818609E-02  0.9075942E-01
       -2   -1    0    0    0  501  0.00000000000E+00  0.00000000000E+00  0.42190559550E+03  0.42190559551E+03  0.25500000920E-02 0.  1.
        2   -1    0    0  501    0  0.00000000000E+00  0.00000000000E+00 -0.91567277135E+03  0.91567277136E+03  0.25500000920E-02 0. -1.
    10030    2    1    2    0    0  0.00000000000E+00  0.00000000000E+00 -0.49376717585E+03  0.13375783669E+04  0.12431049286E+04 0.  0.
        2    1    3    3  502    0  0.29253761728E+03 -0.34615248445E+03 -0.70456569908E+03  0.83774257642E+03  0.25500000920E-02 0. -1.
       -2    1    3    3    0  502 -0.29253761728E+03  0.34615248445E+03  0.21079852323E+03  0.49983579045E+03  0.25500000920E-02 0.  1.
</event>
<event>
 5   0  0.3650180E-03  0.1239678E+04  0.7818609E-02  0.9078818E-01
       -2   -1    0    0    0  501  0.00000000000E+00  0.00000000000E+00  0.21263020008E+03  0.21263020009E+03  0.25500000920E-02 0.  1.
        2   -1    0    0  501    0  0.00000000000E+00  0.00000000000E+00 -0.18068955226E+04  0.18068955227E+04  0.25500000920E-02 0. -1.
    10030    2    1    2    0    0  0.00000000000E+00  0.00000000000E+00 -0.15942653226E+04  0.20195257227E+04  0.12396782752E+04 0.  0.
        3    1    3    3  502    0 -0.32786707310E+03  0.48812190869E+03 -0.11165336214E+04  0.12619061587E+04  0.10100000352E+00 0. -1.
       -3    1    3    3    0  502  0.32786707310E+03 -0.48812190869E+03 -0.47773170117E+03  0.75761956407E+03  0.10100000352E+00 0.  1.
</event>
<event>
 5   0  0.2025294E-03  0.1235724E+04  0.7818609E-02  0.9082149E-01
       -1   -1    0    0    0  501  0.00000000000E+00  0.00000000000E+00  0.42117577142E+03  0.42117577145E+03  0.50400001928E-02 0.  1.
        1   -1    0    0  501    0  0.00000000000E+00  0.00000000000E+00 -0.90639998285E+03  0.90639998287E+03  0.50400001928E-02 0. -1.
    10030    2    1    2    0    0  0.00000000000E+00  0.00000000000E+00 -0.48522421143E+03  0.13275757543E+04  0.12357244224E+04 0.  0.
        5    1    3    3  502    0  0.53084674082E+03  0.29078258504E+03 -0.37584135623E+03  0.71248269387E+03  0.46999998093E+01 0. -1.
       -5    1    3    3    0  502 -0.53084674082E+03 -0.29078258504E+03 -0.10938285520E+03  0.61509306045E+03  0.46999998093E+01 0.  1.
</event>
<event>
 5   0  0.1397500E-03  0.1320087E+04  0.7818609E-02  0.9013786E-01
        4   -1    0    0  501    0  0.00000000000E+00  0.00000000000E+00  0.77877494352E+03  0.77877597905E+03  0.12699999809E+01 0. -1.
       -4   -1    0    0    0  501  0.00000000000E+00  0.00000000000E+00 -0.55941130060E+03  0.55941274221E+03  0.12699999809E+01 0.  1.
    10030    2    1    2    0    0  0.00000000000E+00  0.00000000000E+00  0.21936364291E+03  0.13381887213E+04  0.13200866054E+04 0.  0.
        1    1    3    3  502    0 -0.58425189736E+03 -0.23884331877E+03  0.30535925446E+03  0.70117093836E+03  0.50400001928E-02 0. -1.
       -1    1    3    3    0  502  0.58425189736E+03  0.23884331877E+03 -0.85995611549E+02  0.63701778289E+03  0.50400001928E-02 0.  1.
</event>
<event>
 5   0  0.3626049E-03  0.1267868E+04  0.7818609E-02  0.9055442E-01
       -2   -1    0    0    0  501  0.00000000000E+00  0.00000000000E+00  0.54062686033E+03  0.54062686034E+03  0.25500000920E-02 0.  1.
        2   -1    0    0  501    0  0.00000000000E+00  0.00000000000E+00 -0.74334450476E+03  0.74334450477E+03  0.25500000920E-02 0. -1.
    10030    2    1    2    0    0  0.00000000000E+00  0.00000000000E+00 -0.20271764443E+03  0.12839713651E+04  0.12678675101E+04 0.  0.
        1    1    3    3  502    0  0.36637691545E+03 -0.81364621195E+01  0.42248668770E+03  0.55927922141E+03  0.50400001928E-02 0.  1.
       -1    1    3    3    0  502 -0.36637691545E+03  0.81364621195E+01 -0.62520433213E+03  0.72469214370E+03  0.50400001928E-02 0. -1.
</event>
<event>
 5   0  0.3706035E-03  0.1211296E+04  0.7818609E-02  0.9103026E-01
        2   -1    0    0  501    0  0.00000000000E+00  0.00000000000E+00  0.70789076356E+03  0.70789076356E+03  0.25500000920E-02 0.  1.
       -2   -1    0    0    0  501  0.00000000000E+00  0.00000000000E+00 -0.51817278195E+03  0.51817278196E+03  0.25500000920E-02 0. -1.
    10030    2    1    2    0    0  0.00000000000E+00  0.00000000000E+00  0.18971798160E+03  0.12260635455E+04  0.12112963738E+04 0.  0.
        2    1    3    3  502    0 -0.41541134030E+03 -0.31816611796E+03 -0.21384018979E+03  0.56526443992E+03  0.25500000920E-02 0. -1.
       -2    1    3    3    0  502  0.41541134030E+03  0.31816611796E+03  0.40355817139E+03  0.66079910560E+03  0.25500000920E-02 0.  1.
</event>
<event>
 5   0  0.2096270E-03  0.1194248E+04  0.7818609E-02  0.9117906E-01
        1   -1    0    0  501    0  0.00000000000E+00  0.00000000000E+00  0.11731163855E+04  0.11731163855E+04  0.50400001928E-02 0. -1.
       -1   -1    0    0    0  501  0.00000000000E+00  0.00000000000E+00 -0.30394016643E+03  0.30394016647E+03  0.50400001928E-02 0.  1.
    10030    2    1    2    0    0  0.00000000000E+00  0.00000000000E+00  0.86917621902E+03  0.14770565519E+04  0.11942481978E+04 0.  0.
        2    1    3    3  502    0 -0.16923729521E+03  0.44097217720E+03 -0.17244135137E+02  0.47264689078E+03  0.25500000920E-02 0.  1.
       -2    1    3    3    0  502  0.16923729521E+03 -0.44097217720E+03  0.88642035416E+03  0.10044096612E+04  0.25500000920E-02 0. -1.
</event>
<event>
 5   0  0.3725376E-03  0.1209064E+04  0.7818609E-02  0.9104959E-01
        2   -1    0    0  501    0  0.00000000000E+00  0.00000000000E+00  0.20448403330E+04  0.20448403330E+04  0.25500000920E-02 0.  1.
       -2   -1    0    0    0  501  0.00000000000E+00  0.00000000000E+00 -0.17872259511E+03  0.17872259512E+03  0.25500000920E-02 0. -1.
    10030    2    1    2    0    0  0.00000000000E+00  0.00000000000E+00  0.18661177379E+04  0.22235629282E+04  0.12090643836E+04 0.  0.
        4    1    3    3  502    0 -0.24778355352E+03  0.50846147084E+03  0.54065043288E+03  0.78245399877E+03  0.12699999809E+01 0. -1.
       -4    1    3    3    0  502  0.24778355352E+03 -0.50846147084E+03  0.13254673050E+04  0.14411089294E+04  0.12699999809E+01 0.  1.
</event>
<event>
 5   0  0.3751091E-03  0.1185263E+04  0.7818609E-02  0.9125855E-01
       -2   -1    0    0    0  501  0.00000000000E+00  0.00000000000E+00  0.29836714294E+03  0.29836714295E+03  0.25500000920E-02 0.  1.
        2   -1    0    0  501    0  0.00000000000E+00  0.00000000000E+00 -0.11771133023E+04  0.11771133024E+04  0.25500000920E-02 0. -1.
    10030    2    1    2    0    0  0.00000000000E+00  0.00000000000E+00 -0.87874615941E+03  0.14754804453E+04  0.11852627269E+04 0.  0.
        5    1    3    3  502    0 -0.27774510492E+03 -0.52113550094E+03 -0.37756392897E+03  0.70092878676E+03  0.46999998093E+01 0.  1.
       -5    1    3    3    0  502  0.27774510492E+03  0.52113550094E+03 -0.50118223043E+03  0.77455165854E+03  0.46999998093E+01 0. -1.
</event>
<event>
 5   0  0.3725376E-03  0.1218218E+04  0.7818609E-02  0.9097058E-01
       -2   -1    0    0    0  501  0.00000000000E+00  0.00000000000E+00  0.20445440060E+03  0.20445440061E+03  0.25500000920E-02 0. -1.
        2   -1    0    0  501    0  0.00000000000E+00  0.00000000000E+00 -0.18146541873E+04  0.18146541873E+04  0.25500000920E-02 0.  1.
    10030    2    1    2    0    0  0.00000000000E+00  0.00000000000E+00 -0.16101997867E+04  0.20191085879E+04  0.12182184273E+04 0.  0.
        4    1    3    3  502    0  0.34990186564E+03  0.23602725030E+03 -0.77203819660E+02  0.42907134737E+03  0.12699999809E+01 0. -1.
       -4    1    3    3    0  502 -0.34990186564E+03 -0.23602725030E+03 -0.15329959670E+04  0.15900372406E+04  0.12699999809E+01 0.  1.
</event>
<event>
 5   0  0.3706035E-03  0.1207803E+04  0.7818609E-02  0.9106054E-01
        2   -1    0    0  501    0  0.00000000000E+00  0.00000000000E+00  0.62692004731E+03  0.62692004732E+03  0.25500000920E-02 0. -1.
       -2   -1    0    0    0  501  0.00000000000E+00  0.00000000000E+00 -0.58172780786E+03  0.58172780786E+03  0.25500000920E-02 0.  1.
    10030    2    1    2    0    0  0.00000000000E+00  0.00000000000E+00  0.45192239457E+02  0.12086478552E+04  0.12078026740E+04 0.  0.
        2    1    3    3  502    0 -0.16546898605E+03  0.47801501537E+03  0.35270342524E+03  0.61666688450E+03  0.25500000920E-02 0. -1.
       -2    1    3    3    0  502  0.16546898605E+03 -0.47801501537E+03 -0.30751118578E+03  0.59198097068E+03  0.25500000920E-02 0.  1.
</event>
<event>
 5   0  0.1397500E-03  0.1212673E+04  0.7818609E-02  0.9101836E-01
        4   -1    0    0  501    0  0.00000000000E+00  0.00000000000E+00  0.62828230704E+03  0.62828359062E+03  0.12699999809E+01 0. -1.
       -4   -1    0    0    0  501  0.00000000000E+00  0.00000000000E+00 -0.58515476423E+03  0.58515614241E+03  0.12699999809E+01 0.  1.
    10030    2    1    2    0    0  0.00000000000E+00  0.00000000000E+00  0.43127542810E+02  0.12134397330E+04  0.12126730807E+04 0.  0.
        2    1    3    3  502    0  0.24861596770E+03 -0.46261350664E+03 -0.28165064418E+03  0.59594315274E+03  0.25500000920E-02 0.  1.
       -2    1    3    3    0  502 -0.24861596770E+03  0.46261350664E+03  0.32477818699E+03  0.61749658029E+03  0.25500000920E-02 0. -1.
</event>
<event>
 5   0  0.2047109E-03  0.1205944E+04  0.7818609E-02  0.9107670E-01
       -1   -1    0    0    0  501  0.00000000000E+00  0.00000000000E+00  0.27223712611E+03  0.27223712616E+03  0.50400001928E-02 0.  1.
        1   -1    0    0  501    0  0.00000000000E+00  0.00000000000E+00 -0.13355086264E+04  0.13355086264E+04  0.50400001928E-02 0. -1.
    10030    2    1    2    0    0  0.00000000000E+00  0.00000000000E+00 -0.10632715003E+04  0.16077457525E+04  0.12059436643E+04 0.  0.
        1    1    3    3  502    0  0.15173455039E+03 -0.26395884893E+03 -0.12255035326E+04  0.12627575208E+04  0.50400001928E-02 0. -1.
       -1    1    3    3    0  502 -0.15173455039E+03  0.26395884893E+03  0.16223203238E+03  0.34498823178E+03  0.50400001928E-02 0.  1.
</event>
<event>
 5   0  0.3650180E-03  0.1197560E+04  0.7818609E-02  0.9114995E-01
        2   -1    0    0  501    0  0.00000000000E+00  0.00000000000E+00  0.64181339736E+03  0.64181339737E+03  0.25500000920E-02 0.  1.
       -2   -1    0    0    0  501  0.00000000000E+00  0.00000000000E+00 -0.55863215230E+03  0.55863215230E+03  0.25500000920E-02 0. -1.
    10030    2    1    2    0    0  0.00000000000E+00  0.00000000000E+00  0.83181245068E+02  0.12004455497E+04  0.11975601856E+04 0.  0.
        3    1    3    3  502    0 -0.75888163143E+02 -0.20912516424E+03 -0.51566716666E+03  0.56160928109E+03  0.10100000352E+00 0. -1.
       -3    1    3    3    0  502  0.75888163143E+02  0.20912516424E+03  0.59884841173E+03  0.63883626859E+03  0.10100000352E+00 0.  1.
</event>
<event>
 5   0  0.2047109E-03  0.1198627E+04  0.7818609E-02  0.9114059E-01
       -1   -1    0    0    0  501  0.00000000000E+00  0.00000000000E+00  0.93931051170E+03  0.93931051171E+03  0.50400001928E-02 0. -1.
        1   -1    0    0  501    0  0.00000000000E+00  0.00000000000E+00 -0.38238342319E+03  0.38238342322E+03  0.50400001928E-02 0.  1.
    10030    2    1    2    0    0  0.00000000000E+00  0.00000000000E+00  0.55692708852E+03  0.13216939349E+04  0.11986271629E+04 0.  0.
        1    1    3    3  502    0  0.15845588688E+03 -0.53807018799E+03  0.45726436485E+02  0.56277766685E+03  0.50400001928E-02 0. -1.
       -1    1    3    3    0  502 -0.15845588688E+03  0.53807018799E+03  0.51120065203E+03  0.75891626808E+03  0.50400001928E-02 0.  1.
</event>
<event>
 5   0  0.3706035E-03  0.1195865E+04  0.7818609E-02  0.9116484E-01
       -2   -1    0    0    0  501  0.00000000000E+00  0.00000000000E+00  0.13391375478E+04  0.13391375478E+04  0.25500000920E-02 0. -1.
        2   -1    0    0  501    0  0.00000000000E+00  0.00000000000E+00 -0.26698009348E+03  0.26698009349E+03  0.25500000920E-02 0.  1.
    10030    2    1    2    0    0  0.00000000000E+00  0.00000000000E+00  0.10721574543E+04  0.16061176413E+04  0.11958646541E+04 0.  0.
        2    1    3    3  502    0 -0.10410400440E+03 -0.16192467330E+03 -0.22422336098E+03  0.29552218051E+03  0.25500000920E-02 0.  1.
       -2    1    3    3    0  502  0.10410400440E+03  0.16192467330E+03  0.12963808153E+04  0.13105954608E+04  0.25500000920E-02 0. -1.
</event>
<event>
 5   0  0.3751091E-03  0.1225532E+04  0.7818609E-02  0.9090797E-01
       -2   -1    0    0    0  501  0.00000000000E+00  0.00000000000E+00  0.58991101370E+03  0.58991101370E+03  0.25500000920E-02 0.  1.
        2   -1    0    0  501    0  0.00000000000E+00  0.00000000000E+00 -0.63650651266E+03  0.63650651266E+03  0.25500000920E-02 0. -1.
    10030    2    1    2    0    0  0.00000000000E+00  0.00000000000E+00 -0.46595498961E+02  0.12264175264E+04  0.12255320512E+04 0.  0.
        5    1    3    3  502    0 -0.44897737998E+03 -0.24526049932E+03 -0.36077532143E+03  0.62603060853E+03  0.46999998093E+01 0. -1.
       -5    1    3    3    0  502  0.44897737998E+03  0.24526049932E+03  0.31417982247E+03  0.60038691784E+03  0.46999998093E+01 0.  1.
</event>
<event>
 5   0  0.2047109E-03  0.1202284E+04  0.7818609E-02  0.9110860E-01
       -1   -1    0    0    0  501  0.00000000000E+00  0.00000000000E+00  0.64676601671E+03  0.64676601673E+03  0.50400001928E-02 0. -1.
        1   -1    0    0  501    0  0.00000000000E+00  0.00000000000E+00 -0.55873601720E+03  0.55873601722E+03  0.50400001928E-02 0.  1.
    10030    2    1    2    0    0  0.00000000000E+00  0.00000000000E+00  0.88029999507E+02  0.12055020340E+04  0.12022836076E+04 0.  0.
        1    1    3    3  502    0 -0.48359996452E+03  0.35646117781E+03  0.64998784947E+02  0.60428332679E+03  0.50400001928E-02 0. -1.
       -1    1    3    3    0  502  0.48359996452E+03 -0.35646117781E+03  0.23031214560E+02  0.60121870716E+03  0.50400001928E-02 0.  1.
</event>
<event>
 5   0  0.2134992E-03  0.1174367E+04  0.7818609E-02  0.9135594E-01
       -1   -1    0    0    0  501  0.00000000000E+00  0.00000000000E+00  0.28775731898E+03  0.28775731902E+03  0.50400001928E-02 0. -1.
        1   -1    0    0  501    0  0.00000000000E+00  0.00000000000E+00 -0.11981779093E+04  0.11981779093E+04  0.50400001928E-02 0.  1.
    10030    2    1    2    0    0  0.00000000000E+00  0.00000000000E+00 -0.91042059035E+03  0.14859352284E+04  0.11743670004E+04 0.  0.
        4    1    3    3  502    0  0.48471578855E+03 -0.10822834217E+03 -0.58863831778E+02  0.50012931658E+03  0.12699999809E+01 0. -1.
       -4    1    3    3    0  502 -0.48471578855E+03  0.10822834217E+03 -0.85155675857E+03  0.98580591177E+03  0.12699999809E+01 0.  1.
</event>
<event>
 5   0  0.2025294E-03  0.1188851E+04  0.7818609E-02  0.9122672E-01
        1   -1    0    0  501    0  0.00000000000E+00  0.00000000000E+00  0.39370946184E+03  0.39370946187E+03  0.50400001928E-02 0. -1.
       -1   -1    0    0    0  501  0.00000000000E+00  0.00000000000E+00 -0.89746779326E+03  0.89746779327E+03  0.50400001928E-02 0.  1.
    10030    2    1    2    0    0  0.00000000000E+00  0.00000000000E+00 -0.50375833142E+03  0.12911772551E+04  0.11888508097E+04 0.  0.
        5    1    3    3  502    0 -0.10353852429E+03  0.12020828907E+03  0.37026952686E+03  0.40285465281E+03  0.46999998093E+01 0. -1.
       -5    1    3    3    0  502  0.10353852429E+03 -0.12020828907E+03 -0.87402785828E+03  0.88832260233E+03  0.46999998093E+01 0.  1.
</event>
<event>
 5   0  0.1397500E-03  0.1176801E+04  0.7818609E-02  0.9133408E-01
       -3   -1    0    0    0  501  0.00000000000E+00  0.00000000000E+00  0.69501651853E+03  0.69501652587E+03  0.10100000352E+00 0.  1.
        3   -1    0    0  501    0  0.00000000000E+00  0.00000000000E+00 -0.49813950511E+03  0.49813951535E+03  0.10100000352E+00 0. -1.
    10030    2    1    2    0    0  0.00000000000E+00  0.00000000000E+00  0.19687701342E+03  0.11931560412E+04  0.11768010793E+04 0.  0.
        1    1    3    3  502    0  0.33880089965E+02 -0.40957001622E+03 -0.32850727296E+03  0.52612972459E+03  0.50400001928E-02 0. -1.
       -1    1    3    3    0  502 -0.33880089965E+02  0.40957001622E+03  0.52538428637E+03  0.66702631663E+03  0.50400001928E-02 0.  1.
</event>
<event>
 5   0  0.1397500E-03  0.1200092E+04  0.7818609E-02  0.9112776E-01
       -3   -1    0    0    0  501  0.00000000000E+00  0.00000000000E+00  0.27093884886E+03  0.27093886769E+03  0.10100000352E+00 0.  1.
        3   -1    0    0  501    0  0.00000000000E+00  0.00000000000E+00 -0.13289175296E+04  0.13289175334E+04  0.10100000352E+00 0. -1.
    10030    2    1    2    0    0  0.00000000000E+00  0.00000000000E+00 -0.10579786807E+04  0.15998564011E+04  0.12000923362E+04 0.  0.
        2    1    3    3  502    0  0.45773030699E+03  0.20591234944E+03 -0.90603558973E+02  0.51002542534E+03  0.25500000920E-02 0.  1.
       -2    1    3    3    0  502 -0.45773030699E+03 -0.20591234944E+03 -0.96737512177E+03  0.10898309758E+04  0.25500000920E-02 0. -1.
</event>
<event>
 5   0  0.2078258E-03  0.1144472E+04  0.7818609E-02  0.9162899E-01
       -1   -1    0    0    0  501  0.00000000000E+00  0.00000000000E+00  0.27750262525E+03  0.27750262529E+03  0.50400001928E-02 0. -1.
        1   -1    0    0  501    0  0.00000000000E+00  0.00000000000E+00 -0.11800031721E+04  0.11800031722E+04  0.50400001928E-02 0.  1.
    10030    2    1    2    0    0  0.00000000000E+00  0.00000000000E+00 -0.90250054689E+03  0.14575057974E+04  0.11444718924E+04 0.  0.
        3    1    3    3  502    0  0.26772260848E+03 -0.57451599717E+02 -0.10911572320E+04  0.11249889762E+04  0.10100000352E+00 0.  1.
       -3    1    3    3    0  502 -0.26772260848E+03  0.57451599717E+02  0.18865668509E+03  0.33251682127E+03  0.10100000352E+00 0. -1.
</event>
<event>
 5   0  0.3751091E-03  0.1198120E+04  0.7818609E-02  0.9114504E-01
       -2   -1    0    0    0  501  0.00000000000E+00  0.00000000000E+00  0.23094154380E+03  0.23094154381E+03  0.25500000920E-02 0.  1.
        2   -1    0    0  501    0  0.00000000000E+00  0.00000000000E+00 -0.15539551073E+04  0.15539551073E+04  0.25500000920E-02 0. -1.
    10030    2    1    2    0    0  0.00000000000E+00  0.00000000000E+00 -0.13230135635E+04  0.17848966512E+04  0.11981198463E+04 0.  0.
        5    1    3    3  502    0 -0.41554991447E+03  0.32737846201E+03 -0.24280459687E+03  0.58209496739E+03  0.46999998093E+01 0.  1.
       -5    1    3    3    0  502  0.41554991447E+03 -0.32737846201E+03 -0.10802089667E+04  0.12028016838E+04  0.46999998093E+01 0. -1.
</event>
<event>
 5   0  0.1397500E-03  0.1147816E+04  0.7818609E-02  0.9159801E-01
       -3   -1    0    0    0  501  0.00000000000E+00  0.00000000000E+00  0.51362090714E+03  0.51362091707E+03  0.10100000352E+00 0.  1.
        3   -1    0    0  501    0  0.00000000000E+00  0.00000000000E+00 -0.64127119904E+03  0.64127120700E+03  0.10100000352E+00 0. -1.
    10030    2    1    2    0    0  0.00000000000E+00  0.00000000000E+00 -0.12765029190E+03  0.11548921241E+04  0.11478158481E+04 0.  0.
        2    1    3    3  502    0  0.23362126350E+03 -0.33000776403E+03 -0.47362749643E+03  0.62274153905E+03  0.25500000920E-02 0. -1.
       -2    1    3    3    0  502 -0.23362126350E+03  0.33000776403E+03  0.34597720453E+03  0.53215058502E+03  0.25500000920E-02 0.  1.
</event>
<event>
 5   0  0.3751091E-03  0.1148041E+04  0.7818609E-02  0.9159592E-01
        2   -1    0    0  501    0  0.00000000000E+00  0.00000000000E+00  0.12225981692E+04  0.12225981692E+04  0.25500000920E-02 0.  1.
       -2   -1    0    0    0  501  0.00000000000E+00  0.00000000000E+00 -0.26950775207E+03  0.26950775208E+03  0.25500000920E-02 0. -1.
    10030    2    1    2    0    0  0.00000000000E+00  0.00000000000E+00  0.95309041711E+03  0.14921059213E+04  0.11480412611E+04 0.  0.
        5    1    3    3  502    0  0.26030038588E+03  0.29790113467E+02  0.11403251657E+04  0.11700458603E+04  0.46999998093E+01 0.  1.
       -5    1    3    3    0  502 -0.26030038588E+03 -0.29790113467E+02 -0.18723474861E+03  0.32206006092E+03  0.46999998093E+01 0. -1.
</event>
<event>
 5   0  0.2047109E-03  0.1202813E+04  0.7818609E-02  0.9110398E-01
        1   -1    0    0  501    0  0.00000000000E+00  0.00000000000E+00  0.54628413918E+03  0.54628413920E+03  0.50400001928E-02 0. -1.
       -1   -1    0    0    0  501  0.00000000000E+00  0.00000000000E+00 -0.66209045894E+03  0.66209045896E+03  0.50400001928E-02 0.  1.
    10030    2    1    2    0    0  0.00000000000E+00  0.00000000000E+00 -0.11580631976E+03  0.12083745982E+04  0.12028125647E+04 0.  0.
        1    1    3    3  502    0 -0.51832095477E+03 -0.21372864064E+03  0.16071047934E+03  0.58323614615E+03  0.50400001928E-02 0. -1.
       -1    1    3    3    0  502  0.51832095477E+03  0.21372864064E+03 -0.27651679909E+03  0.62513845201E+03  0.50400001928E-02 0.  1.
</event>
<event>
 5   0  0.2025294E-03  0.1253605E+04  0.7818609E-02  0.9067188E-01
       -1   -1    0    0    0  501  0.00000000000E+00  0.00000000000E+00  0.28031791508E+03  0.28031791513E+03  0.50400001928E-02 0.  1.
        1   -1    0    0  501    0  0.00000000000E+00  0.00000000000E+00 -0.14015561023E+04  0.14015561023E+04  0.50400001928E-02 0. -1.
    10030    2    1    2    0    0  0.00000000000E+00  0.00000000000E+00 -0.11212381872E+04  0.16818740174E+04  0.12536048572E+04 0.  0.
        5    1    3    3  502    0  0.54778498135E+03 -0.17439558635E+03 -0.89569638475E+03  0.10643196465E+04  0.46999998093E+01 0.  1.
       -5    1    3    3    0  502 -0.54778498135E+03  0.17439558635E+03 -0.22554180242E+03  0.61755437086E+03  0.46999998093E+01 0. -1.
</event>
<event>
 5   0  0.3650180E-03  0.1208189E+04  0.7818609E-02  0.9105719E-01
       -2   -1    0    0    0  501  0.00000000000E+00  0.00000000000E+00  0.30051996202E+03  0.30051996203E+03  0.25500000920E-02 0. -1.
        2   -1    0    0  501    0  0.00000000000E+00  0.00000000000E+00 -0.12143289699E+04  0.12143289699E+04  0.25500000920E-02 0.  1.
    10030    2    1    2    0    0  0.00000000000E+00  0.00000000000E+00 -0.91380900788E+03  0.15148489319E+04  0.12081888858E+04 0.  0.
        3    1    3    3  502    0  0.14096559074E+03 -0.56239772251E+03 -0.66956470812E+03  0.88570841963E+03  0.10100000352E+00 0. -1.
       -3    1    3    3    0  502 -0.14096559074E+03  0.56239772251E+03 -0.24424429976E+03  0.62914051230E+03  0.10100000352E+00 0.  1.
</event>
<event>
 5   0  0.3751091E-03  0.1190023E+04  0.7818609E-02  0.9121634E-01
       -2   -1    0    0    0  501  0.00000000000E+00  0.00000000000E+00  0.22301413351E+03  0.22301413353E+03  0.25500000920E-02 0. -1.
        2   -1    0    0  501    0  0.00000000000E+00  0.00000000000E+00 -0.15875178766E+04  0.15875178766E+04  0.25500000920E-02 0.  1.
    10030    2    1    2    0    0  0.00000000000E+00  0.00000000000E+00 -0.13645037431E+04  0.18105320101E+04  0.11900234009E+04 0.  0.
        5    1    3    3  502    0 -0.19783123723E+03  0.43455436104E+03 -0.14210906768E+03  0.49818848666E+03  0.46999998093E+01 0. -1.
       -5    1    3    3    0  502  0.19783123723E+03 -0.43455436104E+03 -0.12223946754E+04  0.13123435235E+04  0.46999998093E+01 0.  1.
</event>
<event>
 5   0  0.1397500E-03  0.1198482E+04  0.7818609E-02  0.9114187E-01
       -3   -1    0    0    0  501  0.00000000000E+00  0.00000000000E+00  0.76948310380E+03  0.76948311042E+03  0.10100000352E+00 0.  1.
        3   -1    0    0  501    0  0.00000000000E+00  0.00000000000E+00 -0.46666336691E+03  0.46666337784E+03  0.10100000352E+00 0. -1.
    10030    2    1    2    0    0  0.00000000000E+00  0.00000000000E+00  0.30281973689E+03  0.12361464883E+04  0.11984816842E+04 0.  0.
        4    1    3    3  502    0 -0.15223365876E+03 -0.40011223823E+03 -0.28108054436E+03  0.51212574175E+03  0.12699999809E+01 0. -1.
       -4    1    3    3    0  502  0.15223365876E+03  0.40011223823E+03  0.58390028125E+03  0.72402074651E+03  0.12699999809E+01 0.  1.
</event>
<event>
 5   0  0.3725376E-03  0.1203912E+04  0.7818609E-02  0.9109440E-01
       -2   -1    0    0    0  501  0.00000000000E+00  0.00000000000E+00  0.86774389137E+03  0.86774389137E+03  0.25500000920E-02 0. -1.
        2   -1    0    0  501    0  0.00000000000E+00  0.00000000000E+00 -0.41757806823E+03  0.41757806824E+03  0.25500000920E-02 0.  1.
    10030    2    1    2    0    0  0.00000000000E+00  0.00000000000E+00  0.45016582313E+03  0.12853219596E+04  0.12039116544E+04 0.  0.
        4    1    3    3  502    0  0.47637536073E+03 -0.27792966627E+03  0.48257856743E+03  0.73284518853E+03  0.12699999809E+01 0. -1.
       -4    1    3    3    0  502 -0.47637536073E+03  0.27792966627E+03 -0.32412744299E+02  0.55247677109E+03  0.12699999809E+01 0.  1.
</event>
<event>
 5   0  0.2047109E-03  0.1192563E+04  0.7818609E-02  0.9119391E-01
        1   -1    0    0  501    0  0.00000000000E+00  0.00000000000E+00  0.19777592379E+04  0.19777592379E+04  0.50400001928E-02 0. -1.
       -1   -1    0    0    0  501  0.00000000000E+00  0.00000000000E+00 -0.17977491203E+03  0.17977491210E+03  0.50400001928E-02 0.  1.
    10030    2    1    2    0    0  0.00000000000E+00  0.00000000000E+00  0.17979843259E+04  0.21575341500E+04  0.11925627750E+04 0.  0.
        1    1    3    3  502    0  0.15384486305E+03  0.33277578384E+03  0.17497648662E+04  0.17877597857E+04  0.50400001928E-02 0. -1.
       -1    1    3    3    0  502 -0.15384486305E+03 -0.33277578384E+03  0.48219459652E+02  0.36977436432E+03  0.50400001928E-02 0.  1.
</event>
<event>
 5   0  0.2134992E-03  0.1206927E+04  0.7818609E-02  0.9106815E-01
       -1   -1    0    0    0  501  0.00000000000E+00  0.00000000000E+00  0.64878555161E+03  0.64878555163E+03  0.50400001928E-02 0.  1.
        1   -1    0    0  501    0  0.00000000000E+00  0.00000000000E+00 -0.56130727031E+03  0.56130727033E+03  0.50400001928E-02 0. -1.
    10030    2    1    2    0    0  0.00000000000E+00  0.00000000000E+00  0.87478281309E+02  0.12100928220E+04  0.12069267534E+04 0.  0.
        4    1    3    3  502    0 -0.46769749963E+03 -0.32601273944E+03  0.24209941913E+03  0.61938598554E+03  0.12699999809E+01 0.  1.
       -4    1    3    3    0  502  0.46769749963E+03  0.32601273944E+03 -0.15462113782E+03  0.59070683642E+03  0.12699999809E+01 0. -1.
</event>
<event>
 5   0  0.2134992E-03  0.1097058E+04  0.7818609E-02  0.9208064E-01
       -1   -1    0    0    0  501  0.00000000000E+00  0.00000000000E+00  0.26374055145E+03  0.26374055150E+03  0.50400001928E-02 0.  1.
        1   -1    0    0  501    0  0.00000000000E+00  0.00000000000E+00 -0.11408327078E+04  0.11408327078E+04  0.50400001928E-02 0. -1.
    10030    2    1    2    0    0  0.00000000000E+00  0.00000000000E+00 -0.87709215634E+03  0.14045732593E+04  0.10970576056E+04 0.  0.
        4    1    3    3  502    0  0.11898837297E+03  0.85604282974E+02 -0.11152909667E+04  0.11248830515E+04  0.12699999809E+01 0. -1.
       -4    1    3    3    0  502 -0.11898837297E+03 -0.85604282974E+02  0.23819881040E+03  0.27969020781E+03  0.12699999809E+01 0.  1.
</event>
<event>
 5   0  0.2134992E-03  0.1218160E+04  0.7818609E-02  0.9097108E-01
       -1   -1    0    0    0  501  0.00000000000E+00  0.00000000000E+00  0.28335899878E+03  0.28335899883E+03  0.50400001928E-02 0.  1.
        1   -1    0    0  501    0  0.00000000000E+00  0.00000000000E+00 -0.13092167766E+04  0.13092167767E+04  0.50400001928E-02 0. -1.
    10030    2    1    2    0    0  0.00000000000E+00  0.00000000000E+00 -0.10258577779E+04  0.15925757755E+04  0.12181598500E+04 0.  0.
        4    1    3    3  502    0  0.27461138388E+03  0.30947005229E+03 -0.10972971615E+04  0.11727087443E+04  0.12699999809E+01 0. -1.
       -4    1    3    3    0  502 -0.27461138388E+03 -0.30947005229E+03  0.71439383656E+02  0.41986703116E+03  0.12699999809E+01 0.  1.
</event>
<event>
 5   0  0.2047109E-03  0.1208137E+04  0.7818609E-02  0.9105764E-01
       -1   -1    0    0    0  501  0.00000000000E+00  0.00000000000E+00  0.14171991032E+04  0.14171991033E+04  0.50400001928E-02 0. -1.
        1   -1    0    0  501    0  0.00000000000E+00  0.00000000000E+00 -0.25747881915E+03  0.25747881920E+03  0.50400001928E-02 0.  1.
    10030    2    1    2    0    0  0.00000000000E+00  0.00000000000E+00  0.11597202841E+04  0.16746779225E+04  0.12081369983E+04 0.  0.
        1    1    3    3  502    0 -0.55480631503E+03 -0.22324675207E+03  0.69788456803E+03  0.91907128659E+03  0.50400001928E-02 0. -1.
       -1    1    3    3    0  502  0.55480631503E+03  0.22324675207E+03  0.46183571606E+03  0.75560663587E+03  0.50400001928E-02 0.  1.
</event>
<event>
 5   0  0.2025294E-03  0.1182216E+04  0.7818609E-02  0.9128567E-01
       -1   -1    0    0    0  501  0.00000000000E+00  0.00000000000E+00  0.71025550027E+03  0.71025550029E+03  0.50400001928E-02 0.  1.
        1   -1    0    0  501    0  0.00000000000E+00  0.00000000000E+00 -0.49194778763E+03  0.49194778766E+03  0.50400001928E-02 0. -1.
    10030    2    1    2    0    0  0.00000000000E+00  0.00000000000E+00  0.21830771264E+03  0.12022032880E+04  0.11822159228E+04 0.  0.
        5    1    3    3  502    0  0.35707670410E+03  0.15494876723E+03  0.56150435907E+03  0.68324382788E+03  0.46999998093E+01 0.  1.
       -5    1    3    3    0  502 -0.35707670410E+03 -0.15494876723E+03 -0.34319664644E+03  0.51895946007E+03  0.46999998093E+01 0. -1.
</event>
<event>
 5   0  0.3725376E-03  0.1206352E+04  0.7818609E-02  0.9107315E-01
        2   -1    0    0  501    0  0.00000000000E+00  0.00000000000E+00  0.12243658292E+04  0.12243658292E+04  0.25500000920E-02 0. -1.
       -2   -1    0    0    0  501  0.00000000000E+00  0.00000000000E+00 -0.29715068389E+03  0.29715068390E+03  0.25500000920E-02 0.  1.
    10030    2    1    2    0    0  0.00000000000E+00  0.00000000000E+00  0.92721514529E+03  0.15215165131E+04  0.12063517621E+04 0.  0.
        4    1    3    3  502    0 -0.27985878909E+03 -0.37812455526E+03  0.93975477608E+03  0.10509232956E+04  0.12699999809E+01 0. -1.
       -4    1    3    3    0  502  0.27985878909E+03  0.37812455526E+03 -0.12539630790E+02  0.47059321751E+03  0.12699999809E+01 0.  1.
</event>
<event>
 5   0  0.2025294E-03  0.1243373E+04  0.7818609E-02  0.9075717E-01
        1   -1    0    0  501    0  0.00000000000E+00  0.00000000000E+00  0.15729362626E+04  0.15729362626E+04  0.50400001928E-02 0. -1.
       -1   -1    0    0    0  501  0.00000000000E+00  0.00000000000E+00 -0.24571515453E+03  0.24571515458E+03  0.50400001928E-02 0.  1.
    10030    2    1    2    0    0  0.00000000000E+00  0.00000000000E+00  0.13272211081E+04  0.18186514172E+04  0.12433732776E+04 0.  0.
        5    1    3    3  502    0  0.31695164754E+02  0.46974846172E+03  0.12573990672E+04  0.13426625432E+04  0.46999998093E+01 0. -1.
       -5    1    3    3    0  502 -0.31695164754E+02 -0.46974846172E+03  0.69822040873E+02  0.47598887397E+03  0.46999998093E+01 0.  1.
</event>
<event>
 5   0  0.3725376E-03  0.1221769E+04  0.7818609E-02  0.9094012E-01
       -2   -1    0    0    0  501  0.00000000000E+00  0.00000000000E+00  0.17856367807E+03  0.17856367809E+03  0.25500000920E-02 0. -1.
        2   -1    0    0  501    0  0.00000000000E+00  0.00000000000E+00 -0.20898996722E+04  0.20898996722E+04  0.25500000920E-02 0.  1.
    10030    2    1    2    0    0  0.00000000000E+00  0.00000000000E+00 -0.19113359942E+04  0.22684633503E+04  0.12217694910E+04 0.  0.
        4    1    3    3  502    0 -0.25984515844E+03  0.54299122900E+03 -0.76253892342E+03  0.97150718153E+03  0.12699999809E+01 0. -1.
       -4    1    3    3    0  502  0.25984515844E+03 -0.54299122900E+03 -0.11487970707E+04  0.12969561688E+04  0.12699999809E+01 0.  1.
</event>
<event>
 5   0  0.2047109E-03  0.1137038E+04  0.7818609E-02  0.9169826E-01
       -1   -1    0    0    0  501  0.00000000000E+00  0.00000000000E+00  0.50379034669E+03  0.50379034671E+03  0.50400001928E-02 0. -1.
        1   -1    0    0  501    0  0.00000000000E+00  0.00000000000E+00 -0.64156419287E+03  0.64156419289E+03  0.50400001928E-02 0.  1.
    10030    2    1    2    0    0  0.00000000000E+00  0.00000000000E+00 -0.13777384618E+03  0.11453545396E+04  0.11370379891E+04 0.  0.
        1    1    3    3  502    0  0.47716983539E+03  0.16795498349E+03  0.19246000757E+03  0.54124004178E+03  0.50400001928E-02 0. -1.
       -1    1    3    3    0  502 -0.47716983539E+03 -0.16795498349E+03 -0.33023385375E+03  0.60411449782E+03  0.50400001928E-02 0.  1.
</event>
<event>
 5   0  0.3626049E-03  0.1225334E+04  0.7818609E-02  0.9090966E-01
       -2   -1    0    0    0  501  0.00000000000E+00  0.00000000000E+00  0.44542242915E+03  0.44542242916E+03  0.25500000920E-02 0. -1.
        2   -1    0    0  501    0  0.00000000000E+00  0.00000000000E+00 -0.84270816294E+03  0.84270816294E+03  0.25500000920E-02 0.  1.
    10030    2    1    2    0    0  0.00000000000E+00  0.00000000000E+00 -0.39728573379E+03  0.12881305921E+04  0.12253344311E+04 0.  0.
        1    1    3    3  502    0  0.27517485798E+03 -0.46515699707E+03 -0.50199470152E+03  0.73762518583E+03  0.50400001928E-02 0.  1.
       -1    1    3    3    0  502 -0.27517485798E+03  0.46515699707E+03  0.10470896774E+03  0.55050540627E+03  0.50400001928E-02 0. -1.
</event>
<event>
 5   0  0.2078258E-03  0.1178899E+04  0.7818609E-02  0.9131529E-01
        1   -1    0    0  501    0  0.00000000000E+00  0.00000000000E+00  0.87736046786E+03  0.87736046788E+03  0.50400001928E-02 0. -1.
       -1   -1    0    0    0  501  0.00000000000E+00  0.00000000000E+00 -0.39601846547E+03  0.39601846551E+03  0.50400001928E-02 0.  1.
    10030    2    1    2    0    0  0.00000000000E+00  0.00000000000E+00  0.48134200239E+03  0.12733789334E+04  0.11788993955E+04 0.  0.
        3    1    3    3  502    0  0.24274469683E+03 -0.49312927056E+03  0.10650245069E+02  0.54974076003E+03  0.10100000352E+00 0. -1.
       -3    1    3    3    0  502 -0.24274469683E+03  0.49312927056E+03  0.47069175732E+03  0.72363817335E+03  0.10100000352E+00 0.  1.
</event>
<event>
 5   0  0.3706035E-03  0.1153512E+04  0.7818609E-02  0.9154550E-01
        2   -1    0    0  501    0  0.00000000000E+00  0.00000000000E+00  0.34241965733E+03  0.34241965734E+03  0.25500000920E-02 0.  1.
       -2   -1    0    0    0  501  0.00000000000E+00  0.00000000000E+00 -0.97146067994E+03  0.97146067994E+03  0.25500000920E-02 0. -1.
    10030    2    1    2    0    0  0.00000000000E+00  0.00000000000E+00 -0.62904102261E+03  0.13138803373E+04  0.11535115659E+04 0.  0.
        2    1    3    3  502    0  0.39946011952E+02  0.13685541520E+03  0.32203348495E+03  0.35217986027E+03  0.25500000920E-02 0.  1.
       -2    1    3    3    0  502 -0.39946011952E+02 -0.13685541520E+03 -0.95107450757E+03  0.96170047701E+03  0.25500000920E-02 0. -1.
</event>
<event>
 5   0  0.2047109E-03  0.1303069E+04  0.7818609E-02  0.9027135E-01
        1   -1    0    0  501    0  0.00000000000E+00  0.00000000000E+00  0.26089912833E+03  0.26089912837E+03  0.50400001928E-02 0. -1.
       -1   -1    0    0    0  501  0.00000000000E+00  0.00000000000E+00 -0.16270549524E+04  0.16270549524E+04  0.50400001928E-02 0.  1.
    10030    2    1    2    0    0  0.00000000000E+00  0.00000000000E+00 -0.13661558240E+04  0.18879540808E+04  0.13030690218E+04 0.  0.
        1    1    3    3  502    0  0.20808855009E+03 -0.24669668966E+03  0.13694811810E+03  0.35059219678E+03  0.50400001928E-02 0. -1.
       -1    1    3    3    0  502 -0.20808855009E+03  0.24669668966E+03 -0.15031039421E+04  0.15373618840E+04  0.50400001928E-02 0.  1.
</event>
<event>
 5   0  0.2078258E-03  0.1204871E+04  0.7818609E-02  0.9108603E-01
        1   -1    0    0  501    0  0.00000000000E+00  0.00000000000E+00  0.83750521665E+03  0.83750521667E+03  0.50400001928E-02 0.  1.
       -1   -1    0    0    0  501  0.00000000000E+00  0.00000000000E+00 -0.43334495332E+03  0.43334495335E+03  0.50400001928E-02 0. -1.
    10030    2    1    2    0    0  0.00000000000E+00  0.00000000000E+00  0.40416026333E+03  0.12708501700E+04  0.12048712115E+04 0.  0.
        3    1    3    3  502    0  0.16052279140E+03  0.38528486551E+03  0.66028409179E+03  0.78114472809E+03  0.10100000352E+00 0.  1.
       -3    1    3    3    0  502 -0.16052279140E+03 -0.38528486551E+03 -0.25612382846E+03  0.48970544193E+03  0.10100000352E+00 0. -1.
</event>
<event>
 5   0  0.2047109E-03  0.1321872E+04  0.7818609E-02  0.9012398E-01
       -1   -1    0    0    0  501  0.00000000000E+00  0.00000000000E+00  0.78264918043E+03  0.78264918044E+03  0.50400001928E-02 0. -1.
        1   -1    0    0  501    0  0.00000000000E+00  0.00000000000E+00 -0.55815108186E+03  0.55815108188E+03  0.50400001928E-02 0.  1.
    10030    2    1    2    0    0  0.00000000000E+00  0.00000000000E+00  0.22449809857E+03  0.13408002623E+04  0.13218721372E+04 0.  0.
        1    1    3    3  502    0 -0.56871980664E+03  0.33411120761E+03  0.69648014967E+02  0.66326718864E+03  0.50400001928E-02 0.  1.
       -1    1    3    3    0  502  0.56871980664E+03 -0.33411120761E+03  0.15485008360E+03  0.67753307368E+03  0.50400001928E-02 0. -1.
</event>
<event>
 5   0  0.3751091E-03  0.1190522E+04  0.7818609E-02  0.9121194E-01
       -2   -1    0    0    0  501  0.00000000000E+00  0.00000000000E+00  0.65265291320E+03  0.65265291320E+03  0.25500000920E-02 0. -1.
        2   -1    0    0  501    0  0.00000000000E+00  0.00000000000E+00 -0.54291558253E+03  0.54291558253E+03  0.25500000920E-02 0.  1.
    10030    2    1    2    0    0  0.00000000000E+00  0.00000000000E+00  0.10973733067E+03  0.11955684957E+04  0.11905216278E+04 0.  0.
        5    1    3    3  502    0  0.24828364684E+03 -0.39884927523E+03  0.42191477503E+03  0.63147421248E+03  0.46999998093E+01 0.  1.
       -5    1    3    3    0  502 -0.24828364684E+03  0.39884927523E+03 -0.31217744436E+03  0.56409428326E+03  0.46999998093E+01 0. -1.
</event>
<event>
 5   0  0.3650180E-03  0.1195983E+04  0.7818609E-02  0.9116380E-01
       -2   -1    0    0    0  501  0.00000000000E+00  0.00000000000E+00  0.24820053577E+03  0.24820053578E+03  0.25500000920E-02 0. -1.
        2   -1    0    0  501    0  0.00000000000E+00  0.00000000000E+00 -0.14407461312E+04  0.14407461312E+04  0.25500000920E-02 0.  1.
    10030    2    1    2    0    0  0.00000000000E+00  0.00000000000E+00 -0.11925455955E+04  0.16889466670E+04  0.11959832134E+04 0.  0.
        3    1    3    3  502    0 -0.19093348689E+03 -0.48274029557E+03 -0.17711340207E+03  0.54850975996E+03  0.10100000352E+00 0. -1.
       -3    1    3    3    0  502  0.19093348689E+03  0.48274029557E+03 -0.10154321934E+04  0.11404369071E+04  0.10100000352E+00 0.  1.
</event>
<event>
 5   0  0.3626049E-03  0.1264696E+04  0.7818609E-02  0.9058040E-01
       -2   -1    0    0    0  501  0.00000000000E+00  0.00000000000E+00  0.35023777224E+03  0.35023777225E+03  0.25500000920E-02 0. -1.
        2   -1    0    0  501    0  0.00000000000E+00  0.00000000000E+00 -0.11416928689E+04  0.11416928689E+04  0.25500000920E-02 0.  1.
    10030    2    1    2    0    0  0.00000000000E+00  0.00000000000E+00 -0.79145509667E+03  0.14919306412E+04  0.12646959587E+04 0.  0.
        1    1    3    3  502    0 -0.82033131011E+02  0.58462642951E+03 -0.66303914499E+03  0.88777159477E+03  0.50400001928E-02 0.  1.
       -1    1    3    3    0  502  0.82033131011E+02 -0.58462642951E+03 -0.12841595168E+03  0.60415904639E+03  0.50400001928E-02 0. -1.
</event>
<event>
 5   0  0.2096270E-03  0.1204919E+04  0.7818609E-02  0.9108562E-01
        1   -1    0    0  501    0  0.00000000000E+00  0.00000000000E+00  0.12558274700E+04  0.12558274701E+04  0.50400001928E-02 0. -1.
       -1   -1    0    0    0  501  0.00000000000E+00  0.00000000000E+00 -0.28901846088E+03  0.28901846092E+03  0.50400001928E-02 0.  1.
    10030    2    1    2    0    0  0.00000000000E+00  0.00000000000E+00  0.96680900917E+03  0.15448459310E+04  0.12049187899E+04 0.  0.
        2    1    3    3  502    0  0.50187503934E+03  0.27395327430E+03  0.72676479170E+03  0.92472483154E+03  0.25500000920E-02 0. -1.
       -2    1    3    3    0  502 -0.50187503934E+03 -0.27395327430E+03  0.24004421747E+03  0.62012109943E+03  0.25500000920E-02 0.  1.
</event>
<event>
 5   0  0.2047109E-03  0.1202594E+04  0.7818609E-02  0.9110589E-01
        1   -1    0    0  501    0  0.00000000000E+00  0.00000000000E+00  0.73712784264E+03  0.73712784266E+03  0.50400001928E-02 0. -1.
       -1   -1    0    0    0  501  0.00000000000E+00  0.00000000000E+00 -0.49049570763E+03  0.49049570766E+03  0.50400001928E-02 0.  1.
    10030    2    1    2    0    0  0.00000000000E+00  0.00000000000E+00  0.24663213500E+03  0.12276235503E+04  0.12025939345E+04 0.  0.
        1    1    3    3  502    0  0.50565832361E+03 -0.16149957192E+03  0.41165841830E+03  0.67174035560E+03  0.50400001928E-02 0. -1.
       -1    1    3    3    0  502 -0.50565832361E+03  0.16149957192E+03 -0.16502628329E+03  0.55588319471E+03  0.50400001928E-02 0.  1.
</event>
<event>
 5   0  0.3751091E-03  0.1207341E+04  0.7818609E-02  0.9106455E-01
       -2   -1    0    0    0  501  0.00000000000E+00  0.00000000000E+00  0.47166672338E+03  0.47166672339E+03  0.25500000920E-02 0.  1.
        2   -1    0    0  501    0  0.00000000000E+00  0.00000000000E+00 -0.77261725011E+03  0.77261725011E+03  0.25500000920E-02 0. -1.
    10030    2    1    2    0    0  0.00000000000E+00  0.00000000000E+00 -0.30095052673E+03  0.12442839735E+04  0.12073406260E+04 0.  0.
        5    1    3    3  502    0 -0.46324387155E+03  0.78190671881E+02  0.24018439797E+03  0.52765452781E+03  0.46999998093E+01 0.  1.
       -5    1    3    3    0  502  0.46324387155E+03 -0.78190671881E+02 -0.54113492469E+03  0.71662944568E+03  0.46999998093E+01 0. -1.
</event>
<event>
 5   0  0.2025294E-03  0.1199376E+04  0.7818609E-02  0.9113403E-01
       -1   -1    0    0    0  501  0.00000000000E+00  0.00000000000E+00  0.11023848490E+04  0.11023848490E+04  0.50400001928E-02 0. -1.
        1   -1    0    0  501    0  0.00000000000E+00  0.00000000000E+00 -0.32622515349E+03  0.32622515353E+03  0.50400001928E-02 0.  1.
    10030    2    1    2    0    0  0.00000000000E+00  0.00000000000E+00  0.77615969554E+03  0.14286100026E+04  0.11993759488E+04 0.  0.
        5    1    3    3  502    0 -0.45068898108E+03 -0.22333351659E+03  0.77698837239E+03  0.92559788144E+03  0.46999998093E+01 0. -1.
       -5    1    3    3    0  502  0.45068898108E+03  0.22333351659E+03 -0.82867685270E+00  0.50301212113E+03  0.46999998093E+01 0.  1.
</event>
<event>
 5   0  0.2134992E-03  0.1181053E+04  0.7818609E-02  0.9129605E-01
       -1   -1    0    0    0  501  0.00000000000E+00  0.00000000000E+00  0.43402416465E+03  0.43402416468E+03  0.50400001928E-02 0.  1.
        1   -1    0    0  501    0  0.00000000000E+00  0.00000000000E+00 -0.80346049107E+03  0.80346049108E+03  0.50400001928E-02 0. -1.
    10030    2    1    2    0    0  0.00000000000E+00  0.00000000000E+00 -0.36943632642E+03  0.12374846558E+04  0.11810525280E+04 0.  0.
        4    1    3    3  502    0 -0.43247340859E+03  0.40168083027E+03 -0.16542882546E+03  0.61298372551E+03  0.12699999809E+01 0. -1.
       -4    1    3    3    0  502  0.43247340859E+03 -0.40168083027E+03 -0.20400750095E+03  0.62450093025E+03  0.12699999809E+01 0.  1.
</event>
<event>
 5   0  0.3751091E-03  0.1202018E+04  0.7818609E-02  0.9111092E-01
        2   -1    0    0  501    0  0.00000000000E+00  0.00000000000E+00  0.19246951886E+04  0.19246951886E+04  0.25500000920E-02 0. -1.
       -2   -1    0    0    0  501  0.00000000000E+00  0.00000000000E+00 -0.18767221082E+03  0.18767221084E+03  0.25500000920E-02 0.  1.
    10030    2    1    2    0    0  0.00000000000E+00  0.00000000000E+00  0.17370229778E+04  0.21123673995E+04  0.12020179720E+04 0.  0.
        5    1    3    3  502    0 -0.43890059159E+03 -0.38314994695E+02  0.15868531452E+04  0.16468839554E+04  0.46999998093E+01 0. -1.
       -5    1    3    3    0  502  0.43890059159E+03  0.38314994695E+02  0.15016983265E+03  0.46548344412E+03  0.46999998093E+01 0.  1.
</event>
<event>
 5   0  0.2025294E-03  0.1210868E+04  0.7818609E-02  0.9103397E-01
        1   -1    0    0  501    0  0.00000000000E+00  0.00000000000E+00  0.27804053945E+04  0.27804053945E+04  0.50400001928E-02 0.  1.
       -1   -1    0    0    0  501  0.00000000000E+00  0.00000000000E+00 -0.13183337442E+03  0.13183337451E+03  0.50400001928E-02 0. -1.
    10030    2    1    2    0    0  0.00000000000E+00  0.00000000000E+00  0.26485720201E+04  0.29122387690E+04  0.12108678302E+04 0.  0.
        5    1    3    3  502    0  0.32573741650E+03 -0.49505915511E+03  0.10264078056E+04  0.11852103210E+04  0.46999998093E+01 0. -1.
       -5    1    3    3    0  502 -0.32573741650E+03  0.49505915511E+03  0.16221642145E+04  0.17270284481E+04  0.46999998093E+01 0.  1.
</event>
<event>
 5   0  0.3751091E-03  0.1205797E+04  0.7818609E-02  0.9107798E-01
        2   -1    0    0  501    0  0.00000000000E+00  0.00000000000E+00  0.27298696562E+03  0.27298696563E+03  0.25500000920E-02 0.  1.
       -2   -1    0    0    0  501  0.00000000000E+00  0.00000000000E+00 -0.13315154422E+04  0.13315154422E+04  0.25500000920E-02 0. -1.
    10030    2    1    2    0    0  0.00000000000E+00  0.00000000000E+00 -0.10585284766E+04  0.16045024079E+04  0.12057966002E+04 0.  0.
        5    1    3    3  502    0  0.16162921643E+03 -0.22014368000E+03 -0.12444565233E+04  0.12740805987E+04  0.46999998093E+01 0. -1.
       -5    1    3    3    0  502 -0.16162921643E+03  0.22014368000E+03  0.18592804671E+03  0.33042180921E+03  0.46999998093E+01 0.  1.
</event>
<event>
 5   0  0.3725376E-03  0.1200084E+04  0.7818609E-02  0.9112783E-01
       -2   -1    0    0    0  501  0.00000000000E+00  0.00000000000E+00  0.18879990101E+03  0.18879990102E+03  0.25500000920E-02 0.  1.
        2   -1    0    0  501    0  0.00000000000E+00  0.00000000000E+00 -0.19070485399E+04  0.19070485399E+04  0.25500000920E-02 0. -1.
    10030    2    1    2    0    0  0.00000000000E+00  0.00000000000E+00 -0.17182486389E+04  0.20958484410E+04  0.12000842897E+04 0.  0.
        4    1    3    3  502    0  0.36598728083E+03 -0.33405442379E+03 -0.26814855730E+03  0.56342196395E+03  0.12699999809E+01 0.  1.
       -4    1    3    3    0  502 -0.36598728083E+03  0.33405442379E+03 -0.14501000816E+04  0.15324264770E+04  0.12699999809E+01 0. -1.
</event>
<event>
 5   0  0.3626049E-03  0.1238495E+04  0.7818609E-02  0.9079813E-01
        2   -1    0    0  501    0  0.00000000000E+00  0.00000000000E+00  0.17089385651E+04  0.17089385651E+04  0.25500000920E-02 0.  1.
       -2   -1    0    0    0  501  0.00000000000E+00  0.00000000000E+00 -0.22438930579E+03  0.22438930581E+03  0.25500000920E-02 0. -1.
    10030    2    1    2    0    0  0.00000000000E+00  0.00000000000E+00  0.14845492594E+04  0.19333278710E+04  0.12384951163E+04 0.  0.
        1    1    3    3  502    0 -0.25903869226E+02  0.23094938521E+03  0.16382825354E+04  0.16546837446E+04  0.50400001928E-02 0.  1.
       -1    1    3    3    0  502  0.25903869226E+02 -0.23094938521E+03 -0.15373327601E+03  0.27864412635E+03  0.50400001928E-02 0. -1.
</event>
<event>
 5   0  0.3626049E-03  0.1210401E+04  0.7818609E-02  0.9103801E-01
       -2   -1    0    0    0  501  0.00000000000E+00  0.00000000000E+00  0.39693039713E+03  0.39693039714E+03  0.25500000920E-02 0. -1.
        2   -1    0    0  501    0  0.00000000000E+00  0.00000000000E+00 -0.92275047543E+03  0.92275047543E+03  0.25500000920E-02 0.  1.
    10030    2    1    2    0    0  0.00000000000E+00  0.00000000000E+00 -0.52582007830E+03  0.13196808726E+04  0.12104011115E+04 0.  0.
        1    1    3    3  502    0 -0.31459836986E+03 -0.39264312369E+03  0.10379988092E+03  0.51372674858E+03  0.50400001928E-02 0. -1.
       -1    1    3    3    0  502  0.31459836986E+03  0.39264312369E+03 -0.62961995922E+03  0.80595412399E+03  0.50400001928E-02 0.  1.
</event>
<event>
 5   0  0.2096270E-03  0.1173305E+04  0.7818609E-02  0.9136549E-01
       -1   -1    0    0    0  501  0.00000000000E+00  0.00000000000E+00  0.12648321480E+04  0.12648321480E+04  0.50400001928E-02 0.  1.
        1   -1    0    0  501    0  0.00000000000E+00  0.00000000000E+00 -0.27210044925E+03  0.27210044930E+03  0.50400001928E-02 0. -1.
    10030    2    1    2    0    0  0.00000000000E+00  0.00000000000E+00  0.99273169871E+03  0.15369325973E+04  0.11733054091E+04 0.  0.
        2    1    3    3  502    0 -0.53838724619E+02  0.15849429336E+03  0.12328867662E+04  0.12441980661E+04  0.25500000920E-02 0.  1.
       -2    1    3    3    0  502  0.53838724619E+02 -0.15849429336E+03 -0.24015506752E+03  0.29273453120E+03  0.25500000920E-02 0. -1.
</event>
<event>
 5   0  0.3626049E-03  0.1203253E+04  0.7818609E-02  0.9110014E-01
        2   -1    0    0  501    0  0.00000000000E+00  0.00000000000E+00  0.51013674163E+03  0.51013674164E+03  0.25500000920E-02 0.  1.
       -2   -1    0    0    0  501  0.00000000000E+00  0.00000000000E+00 -0.70952400601E+03  0.70952400602E+03  0.25500000920E-02 0. -1.
    10030    2    1    2    0    0  0.00000000000E+00  0.00000000000E+00 -0.19938726438E+03  0.12196607477E+04  0.12032526992E+04 0.  0.
        1    1    3    3  502    0  0.12864863280E+03  0.47125573190E+03 -0.45565443784E+03  0.66802200736E+03  0.50400001928E-02 0. -1.
       -1    1    3    3    0  502 -0.12864863280E+03 -0.47125573190E+03  0.25626717347E+03  0.55163874029E+03  0.50400001928E-02 0.  1.
</event>
<event>
 5   0  0.2025294E-03  0.1224994E+04  0.7818609E-02  0.9091256E-01
        1   -1    0    0  501    0  0.00000000000E+00  0.00000000000E+00  0.87260915404E+03  0.87260915405E+03  0.50400001928E-02 0.  1.
       -1   -1    0    0    0  501  0.00000000000E+00  0.00000000000E+00 -0.42992071594E+03  0.42992071597E+03  0.50400001928E-02 0. -1.
    10030    2    1    2    0    0  0.00000000000E+00  0.00000000000E+00  0.44268843810E+03  0.13025298700E+04  0.12249942894E+04 0.  0.
        5    1    3    3  502    0 -0.11847644541E+03  0.95559310556E+02 -0.40947043000E+03  0.43687111714E+03  0.46999998093E+01 0. -1.
       -5    1    3    3    0  502  0.11847644541E+03 -0.95559310556E+02  0.85215886810E+03  0.86565875287E+03  0.46999998093E+01 0.  1.
</event>
<event>
 5   0  0.2078258E-03  0.1202284E+04  0.7818609E-02  0.9110860E-01
       -1   -1    0    0    0  501  0.00000000000E+00  0.00000000000E+00  0.33907954002E+03  0.33907954006E+03  0.50400001928E-02 0.  1.
        1   -1    0    0  501    0  0.00000000000E+00  0.00000000000E+00 -0.10657429039E+04  0.10657429039E+04  0.50400001928E-02 0. -1.
    10030    2    1    2    0    0  0.00000000000E+00  0.00000000000E+00 -0.72666336387E+03  0.14048224440E+04  0.12022838495E+04 0.  0.
        3    1    3    3  502    0  0.35239493868E+02 -0.25918791922E+03 -0.99576132202E+03  0.10295439864E+04  0.10100000352E+00 0. -1.
       -3    1    3    3    0  502 -0.35239493868E+02  0.25918791922E+03  0.26909795815E+03  0.37527845752E+03  0.10100000352E+00 0.  1.
</event>
<event>
 5   0  0.3725376E-03  0.1202673E+04  0.7818609E-02  0.9110520E-01
       -2   -1    0    0    0  501  0.00000000000E+00  0.00000000000E+00  0.98181237227E+03  0.98181237227E+03  0.25500000920E-02 0.  1.
        2   -1    0    0  501    0  0.00000000000E+00  0.00000000000E+00 -0.36830440777E+03  0.36830440778E+03  0.25500000920E-02 0. -1.
    10030    2    1    2    0    0  0.00000000000E+00  0.00000000000E+00  0.61350796449E+03  0.13501167801E+04  0.12026733959E+04 0.  0.
        4    1    3    3  502    0 -0.43726705581E+02  0.47439388182E+03  0.71867592434E+03  0.86224026641E+03  0.12699999809E+01 0.  1.
       -4    1    3    3    0  502  0.43726705581E+02 -0.47439388182E+03 -0.10516795985E+03  0.48787651364E+03  0.12699999809E+01 0. -1.
</event>
<event>
 5   0  0.2134992E-03  0.1337755E+04  0.7818609E-02  0.9000150E-01
        1   -1    0    0  501    0  0.00000000000E+00  0.00000000000E+00  0.71506569346E+03  0.71506569348E+03  0.50400001928E-02 0.  1.
       -1   -1    0    0    0  501  0.00000000000E+00  0.00000000000E+00 -0.62567236735E+03  0.62567236738E+03  0.50400001928E-02 0. -1.
    10030    2    1    2    0    0  0.00000000000E+00  0.00000000000E+00  0.89393326103E+02  0.13407380609E+04  0.13377546042E+04 0.  0.
        4    1    3    3  502    0  0.13680121097E+02 -0.48258792220E+03  0.50867294291E+03  0.70130451596E+03  0.12699999809E+01 0.  1.
       -4    1    3    3    0  502 -0.13680121097E+02  0.48258792220E+03 -0.41927961680E+03  0.63943354489E+03  0.12699999809E+01 0. -1.
</event>
<event>
 5   0  0.3650180E-03  0.1205413E+04  0.7818609E-02  0.9108132E-01
       -2   -1    0    0    0  501  0.00000000000E+00  0.00000000000E+00  0.24759299757E+03  0.24759299758E+03  0.25500000920E-02 0. -1.
        2   -1    0    0  501    0  0.00000000000E+00  0.00000000000E+00 -0.14671455414E+04  0.14671455414E+04  0.25500000920E-02 0.  1.
    10030    2    1    2    0    0  0.00000000000E+00  0.00000000000E+00 -0.12195525438E+04  0.17147385390E+04  0.12054127301E+04 0.  0.
        3    1    3    3  502    0 -0.49137784850E+03 -0.36121214694E+02 -0.11035774148E+04  0.12085694241E+04  0.10100000352E+00 0.  1.
       -3    1    3    3    0  502  0.49137784850E+03  0.36121214694E+02 -0.11597512906E+03  0.50616911493E+03  0.10100000352E+00 0. -1.
</event>
<event>
 5   0  0.3650180E-03  0.1167544E+04  0.7818609E-02  0.9141750E-01
        2   -1    0    0  501    0  0.00000000000E+00  0.00000000000E+00  0.29989958672E+03  0.29989958673E+03  0.25500000920E-02 0.  1.
       -2   -1    0    0    0  501  0.00000000000E+00  0.00000000000E+00 -0.11363455166E+04  0.11363455166E+04  0.25500000920E-02 0. -1.
    10030    2    1    2    0    0  0.00000000000E+00  0.00000000000E+00 -0.83644592988E+03  0.14362451033E+04  0.11675436622E+04 0.  0.
        3    1    3    3  502    0 -0.46442196046E+03 -0.35285995399E+03 -0.38830150568E+03  0.70069677750E+03  0.10100000352E+00 0. -1.
       -3    1    3    3    0  502  0.46442196046E+03  0.35285995399E+03 -0.44814442420E+03  0.73554832583E+03  0.10100000352E+00 0.  1.
</event>
<event>
 5   0  0.3650180E-03  0.1218476E+04  0.7818609E-02  0.9096837E-01
        2   -1    0    0  501    0  0.00000000000E+00  0.00000000000E+00  0.40299753075E+03  0.40299753076E+03  0.25500000920E-02 0. -1.
       -2   -1    0    0    0  501  0.00000000000E+00  0.00000000000E+00 -0.92102470980E+03  0.92102470980E+03  0.25500000920E-02 0.  1.
    10030    2    1    2    0    0  0.00000000000E+00  0.00000000000E+00 -0.51802717905E+03  0.13240222406E+04  0.12184755784E+04 0.  0.
        3    1    3    3  502    0 -0.11835455772E+03 -0.56487907404E+03 -0.46984436572E+02  0.57905415731E+03  0.10100000352E+00 0. -1.
       -3    1    3    3    0  502  0.11835455772E+03  0.56487907404E+03 -0.47104274248E+03  0.74496808325E+03  0.10100000352E+00 0.  1.
</event>
<event>
 5   0  0.2096270E-03  0.9663163E+03  0.7818609E-02  0.9346280E-01
       -1   -1    0    0    0  501  0.00000000000E+00  0.00000000000E+00  0.40535727874E+03  0.40535727877E+03  0.50400001928E-02 0. -1.
        1   -1    0    0  501    0  0.00000000000E+00  0.00000000000E+00 -0.57589148826E+03  0.57589148828E+03  0.50400001928E-02 0.  1.
    10030    2    1    2    0    0  0.00000000000E+00  0.00000000000E+00 -0.17053420952E+03  0.98124876705E+03  0.96631631789E+03 0.  0.
        2    1    3    3  502    0  0.28220613796E+03  0.10801233685E+03 -0.46810073274E+03  0.55715820483E+03  0.25500000920E-02 0.  1.
       -2    1    3    3    0  502 -0.28220613796E+03 -0.10801233685E+03  0.29756652322E+03  0.42409056222E+03  0.25500000920E-02 0. -1.
</event>
<event>
 5   0  0.3751091E-03  0.1190917E+04  0.7818609E-02  0.9120844E-01
       -2   -1    0    0    0  501  0.00000000000E+00  0.00000000000E+00  0.57003243471E+03  0.57003243472E+03  0.25500000920E-02 0.  1.
        2   -1    0    0  501    0  0.00000000000E+00  0.00000000000E+00 -0.62201871369E+03  0.62201871369E+03  0.25500000920E-02 0. -1.
    10030    2    1    2    0    0  0.00000000000E+00  0.00000000000E+00 -0.51986278975E+02  0.11920511484E+04  0.11909170279E+04 0.  0.
        5    1    3    3  502    0  0.46226822255E+03  0.36693967216E+03 -0.10488519590E+03  0.59946611823E+03  0.46999998093E+01 0. -1.
       -5    1    3    3    0  502 -0.46226822255E+03 -0.36693967216E+03  0.52898916928E+02  0.59258503018E+03  0.46999998093E+01 0.  1.
</event>
<event>
 5   0  0.3751091E-03  0.1203640E+04  0.7818609E-02  0.9109677E-01
       -2   -1    0    0    0  501  0.00000000000E+00  0.00000000000E+00  0.41308093854E+03  0.41308093855E+03  0.25500000920E-02 0.  1.
        2   -1    0    0  501    0  0.00000000000E+00  0.00000000000E+00 -0.87679484476E+03  0.87679484476E+03  0.25500000920E-02 0. -1.
    10030    2    1    2    0    0  0.00000000000E+00  0.00000000000E+00 -0.46371390621E+03  0.12898757833E+04  0.12036398754E+04 0.  0.
        5    1    3    3  502    0 -0.11403519395E+03  0.17152092198E+02  0.40111027130E+03  0.41738442648E+03  0.46999998093E+01 0.  1.
       -5    1    3    3    0  502  0.11403519395E+03 -0.17152092198E+02 -0.86482417752E+03  0.87249135683E+03  0.46999998093E+01 0. -1.
</event>
<event>
 5   0  0.3725376E-03  0.1198721E+04  0.7818609E-02  0.9113977E-01
        2   -1    0    0  501    0  0.00000000000E+00  0.00000000000E+00  0.84276180934E+03  0.84276180935E+03  0.25500000920E-02 0. -1.
       -2   -1    0    0    0  501  0.00000000000E+00  0.00000000000E+00 -0.42625682240E+03  0.42625682241E+03  0.25500000920E-02 0.  1.
    10030    2    1    2    0    0  0.00000000000E+00  0.00000000000E+00  0.41650498694E+03  0.12690186318E+04  0.11987209365E+04 0.  0.
        4    1    3    3  502    0  0.57025306002E+03  0.13326484913E+03  0.34334178587E+03  0.67884701318E+03  0.12699999809E+01 0.  1.
       -4    1    3    3    0  502 -0.57025306002E+03 -0.13326484913E+03  0.73163201068E+02  0.59017161857E+03  0.12699999809E+01 0. -1.
</event>
<event>
 5   0  0.3725376E-03  0.1197789E+04  0.7818609E-02  0.9114794E-01
       -2   -1    0    0    0  501  0.00000000000E+00  0.00000000000E+00  0.18538568297E+03  0.18538568299E+03  0.25500000920E-02 0. -1.
        2   -1    0    0  501    0  0.00000000000E+00  0.00000000000E+00 -0.19347489896E+04  0.19347489896E+04  0.25500000920E-02 0.  1.
    10030    2    1    2    0    0  0.00000000000E+00  0.00000000000E+00 -0.17493633066E+04  0.21201346726E+04  0.11977892349E+04 0.  0.
        4    1    3    3  502    0  0.25532614436E+03  0.41599146398E+03 -0.26041709802E+03  0.55322600801E+03  0.12699999809E+01 0. -1.
       -4    1    3    3    0  502 -0.25532614436E+03 -0.41599146398E+03 -0.14889462086E+04  0.15669086646E+04  0.12699999809E+01 0.  1.
</event>
<event>
 5   0  0.2096270E-03  0.1204511E+04  0.7818609E-02  0.9108917E-01
        1   -1    0    0  501    0  0.00000000000E+00  0.00000000000E+00  0.33587968252E+03  0.33587968256E+03  0.50400001928E-02 0. -1.
       -1   -1    0    0    0  501  0.00000000000E+00  0.00000000000E+00 -0.10798858225E+04  0.10798858225E+04  0.50400001928E-02 0.  1.
    10030    2    1    2    0    0  0.00000000000E+00  0.00000000000E+00 -0.74400613997E+03  0.14157655051E+04  0.12045110332E+04 0.  0.
        2    1    3    3  502    0 -0.25225568452E+03  0.39588951270E+03  0.71462280673E+02  0.47483501788E+03  0.25500000920E-02 0. -1.
       -2    1    3    3    0  502  0.25225568452E+03 -0.39588951270E+03 -0.81546842064E+03  0.94093048718E+03  0.25500000920E-02 0.  1.
</event>
<event>
 5   0  0.3650180E-03  0.1176946E+04  0.7818609E-02  0.9133278E-01
        2   -1    0    0  501    0  0.00000000000E+00  0.00000000000E+00  0.10244099307E+04  0.10244099307E+04  0.25500000920E-02 0. -1.
       -2   -1    0    0    0  501  0.00000000000E+00  0.00000000000E+00 -0.33804898593E+03  0.33804898594E+03  0.25500000920E-02 0.  1.
    10030    2    1    2    0    0  0.00000000000E+00  0.00000000000E+00  0.68636094474E+03  0.13624589166E+04  0.11769464529E+04 0.  0.
        3    1    3    3  502    0 -0.55205172934E+03  0.19606568446E+03  0.40761191486E+03  0.71368785041E+03  0.10100000352E+00 0. -1.
       -3    1    3    3    0  502  0.55205172934E+03 -0.19606568446E+03  0.27874902988E+03  0.64877106621E+03  0.10100000352E+00 0.  1.
</event>
<event>
 5   0  0.2134992E-03  0.1204733E+04  0.7818609E-02  0.9108724E-01
        1   -1    0    0  501    0  0.00000000000E+00  0.00000000000E+00  0.74295035751E+03  0.74295035752E+03  0.50400001928E-02 0. -1.
       -1   -1    0    0    0  501  0.00000000000E+00  0.00000000000E+00 -0.48838438743E+03  0.48838438746E+03  0.50400001928E-02 0.  1.
    10030    2    1    2    0    0  0.00000000000E+00  0.00000000000E+00  0.25456597008E+03  0.12313347450E+04  0.12047329252E+04 0.  0.
        4    1    3    3  502    0  0.58476938099E+02 -0.20794946182E+03 -0.44743314213E+03  0.49685064208E+03  0.12699999809E+01 0.  1.
       -4    1    3    3    0  502 -0.58476938099E+02  0.20794946182E+03  0.70199911221E+03  0.73448410289E+03  0.12699999809E+01 0. -1.
</event>
<event>
 5   0  0.3626049E-03  0.1226109E+04  0.7818609E-02  0.9090306E-01
        2   -1    0    0  501    0  0.00000000000E+00  0.00000000000E+00  0.16060401353E+04  0.16060401353E+04  0.25500000920E-02 0. -1.
       -2   -1    0    0    0  501  0.00000000000E+00  0.00000000000E+00 -0.23401380849E+03  0.23401380850E+03  0.25500000920E-02 0.  1.
    10030    2    1    2    0    0  0.00000000000E+00  0.00000000000E+00  0.13720263268E+04  0.18400539438E+04  0.12261085901E+04 0.  0.
        1    1    3    3  502    0  0.23017723772E+03 -0.67039522802E+02  0.15327738189E+04  0.15514095005E+04  0.50400001928E-02 0. -1.
       -1    1    3    3    0  502 -0.23017723772E+03  0.67039522802E+02 -0.16074749210E+03  0.28864444326E+03  0.50400001928E-02 0.  1.
</event>
<event>
 5   0  0.3706035E-03  0.1184549E+04  0.7818609E-02  0.9126490E-01
        2   -1    0    0  501    0  0.00000000000E+00  0.00000000000E+00  0.94330023370E+03  0.94330023371E+03  0.25500000920E-02 0.  1.
       -2   -1    0    0    0  501  0.00000000000E+00  0.00000000000E+00 -0.37187409920E+03  0.37187409921E+03  0.25500000920E-02 0. -1.
    10030    2    1    2    0    0  0.00000000000E+00  0.00000000000E+00  0.57142613450E+03  0.13151743329E+04  0.11845487321E+04 0.  0.
        2    1    3    3  502    0  0.37927543248E+02  0.57759635643E+03  0.42497564863E+03  0.71809494597E+03  0.25500000920E-02 0.  1.
       -2    1    3    3    0  502 -0.37927543248E+02 -0.57759635643E+03  0.14645048586E+03  0.59707938694E+03  0.25500000920E-02 0. -1.
</event>
<event>
 5   0  0.2134992E-03  0.1193452E+04  0.7818609E-02  0.9118607E-01
        1   -1    0    0  501    0  0.00000000000E+00  0.00000000000E+00  0.35341350488E+03  0.35341350491E+03  0.50400001928E-02 0.  1.
       -1   -1    0    0    0  501  0.00000000000E+00  0.00000000000E+00 -0.10075505792E+04  0.10075505792E+04  0.50400001928E-02 0. -1.
    10030    2    1    2    0    0  0.00000000000E+00  0.00000000000E+00 -0.65413707436E+03  0.13609640842E+04  0.11934521048E+04 0.  0.
        4    1    3    3  502    0  0.11796180393E+03 -0.15923013011E+03  0.31479380514E+03  0.37197577095E+03  0.12699999809E+01 0.  1.
       -4    1    3    3    0  502 -0.11796180393E+03  0.15923013011E+03 -0.96893087950E+03  0.98898831321E+03  0.12699999809E+01 0. -1.
</event>
<event>
 5   0  0.2096270E-03  0.1216417E+04  0.7818609E-02  0.9098607E-01
        1   -1    0    0  501    0  0.00000000000E+00  0.00000000000E+00  0.20242993147E+04  0.20242993147E+04  0.50400001928E-02 0.  1.
       -1   -1    0    0    0  501  0.00000000000E+00  0.00000000000E+00 -0.18273861072E+03  0.18273861079E+03  0.50400001928E-02 0. -1.
    10030    2    1    2    0    0  0.00000000000E+00  0.00000000000E+00  0.18415607040E+04  0.22070379255E+04  0.12164171070E+04 0.  0.
        2    1    3    3  502    0 -0.52858917722E+03 -0.62667179777E+02  0.38689749439E+03  0.65804510853E+03  0.25500000920E-02 0. -1.
       -2    1    3    3    0  502  0.52858917722E+03  0.62667179777E+02  0.14546632096E+04  0.15489928170E+04  0.25500000920E-02 0.  1.
</event>
<event>
 5   0  0.3725376E-03  0.1147491E+04  0.7818609E-02  0.9160101E-01
        2   -1    0    0  501    0  0.00000000000E+00  0.00000000000E+00  0.12550322077E+04  0.12550322077E+04  0.25500000920E-02 0.  1.
       -2   -1    0    0    0  501  0.00000000000E+00  0.00000000000E+00 -0.26229112245E+03  0.26229112246E+03  0.25500000920E-02 0. -1.
    10030    2    1    2    0    0  0.00000000000E+00  0.00000000000E+00  0.99274108529E+03  0.15173233302E+04  0.11474908392E+04 0.  0.
        4    1    3    3  502    0 -0.19602257875E+03  0.75582023353E+02 -0.20959807135E+03  0.29676667273E+03  0.12699999809E+01 0. -1.
       -4    1    3    3    0  502  0.19602257875E+03 -0.75582023353E+02  0.12023391566E+04  0.12205566575E+04  0.12699999809E+01 0.  1.
</event>
<event>
 5   0  0.3725376E-03  0.1189428E+04  0.7818609E-02  0.9122161E-01
        2   -1    0    0  501    0  0.00000000000E+00  0.00000000000E+00  0.34198728293E+03  0.34198728294E+03  0.25500000920E-02 0. -1.
       -2   -1    0    0    0  501  0.00000000000E+00  0.00000000000E+00 -0.10342038322E+04  0.10342038322E+04  0.25500000920E-02 0.  1.
    10030    2    1    2    0    0  0.00000000000E+00  0.00000000000E+00 -0.69221654923E+03  0.13761911151E+04  0.11894276919E+04 0.  0.
        4    1    3    3  502    0 -0.34341249243E+03 -0.12823626740E+03  0.19572568854E+03  0.41555605914E+03  0.12699999809E+01 0. -1.
       -4    1    3    3    0  502  0.34341249243E+03  0.12823626740E+03 -0.88794223777E+03  0.96063505596E+03  0.12699999809E+01 0.  1.
</event>
<event>
 5   0  0.2134992E-03  0.1210210E+04  0.7818609E-02  0.9103966E-01
        1   -1    0    0  501    0  0.00000000000E+00  0.00000000000E+00  0.52764404608E+03  0.52764404611E+03  0.50400001928E-02 0. -1.
       -1   -1    0    0    0  501  0.00000000000E+00  0.00000000000E+00 -0.69393751641E+03  0.69393751642E+03  0.50400001928E-02 0.  1.
    10030    2    1    2    0    0  0.00000000000E+00  0.00000000000E+00 -0.16629347032E+03  0.12215815625E+04  0.12102098973E+04 0.  0.
        4    1    3    3  502    0  0.90546531678E+02 -0.53976402176E+03 -0.34365416609E+03  0.64625356661E+03  0.12699999809E+01 0.  1.
       -4    1    3    3    0  502 -0.90546531678E+02  0.53976402176E+03  0.17736069576E+03  0.57532799592E+03  0.12699999809E+01 0. -1.
</event>
<event>
 5   0  0.2096270E-03  0.1197204E+04  0.7818609E-02  0.9115307E-01
        1   -1    0    0  501    0  0.00000000000E+00  0.00000000000E+00  0.11138588448E+04  0.11138588448E+04  0.50400001928E-02 0.  1.
       -1   -1    0    0    0  501  0.00000000000E+00  0.00000000000E+00 -0.32169638262E+03  0.32169638266E+03  0.50400001928E-02 0. -1.
    10030    2    1    2    0    0  0.00000000000E+00  0.00000000000E+00  0.79216246216E+03  0.14355552274E+04  0.11972040113E+04 0.  0.
        2    1    3    3  502    0  0.47970925575E+03  0.14134428658E+02  0.82508672015E+03  0.95450974217E+03  0.25500000920E-02 0.  1.
       -2    1    3    3    0  502 -0.47970925575E+03 -0.14134428658E+02 -0.32924257992E+02  0.48104548527E+03  0.25500000920E-02 0. -1.
</event>
<event>
 5   0  0.3751091E-03  0.1209760E+04  0.7818609E-02  0.9104356E-01
       -2   -1    0    0    0  501  0.00000000000E+00  0.00000000000E+00  0.54489173023E+03  0.54489173023E+03  0.25500000920E-02 0. -1.
        2   -1    0    0  501    0  0.00000000000E+00  0.00000000000E+00 -0.67147257384E+03  0.67147257385E+03  0.25500000920E-02 0.  1.
    10030    2    1    2    0    0  0.00000000000E+00  0.00000000000E+00 -0.12658084361E+03  0.12163643041E+04  0.12097600631E+04 0.  0.
        5    1    3    3  502    0 -0.35989041557E+03  0.45897963016E+03 -0.22439732725E+03  0.62494772789E+03  0.46999998093E+01 0. -1.
       -5    1    3    3    0  502  0.35989041557E+03 -0.45897963016E+03  0.97816483637E+02  0.59141657619E+03  0.46999998093E+01 0.  1.
</event>
<event>
 5   0  0.1397500E-03  0.1224122E+04  0.7818609E-02  0.9092001E-01
       -4   -1    0    0    0  501  0.00000000000E+00  0.00000000000E+00  0.98790318447E+03  0.98790400080E+03  0.12699999809E+01 0.  1.
        4   -1    0    0  501    0  0.00000000000E+00  0.00000000000E+00 -0.37920397426E+03  0.37920610095E+03  0.12699999809E+01 0. -1.
    10030    2    1    2    0    0  0.00000000000E+00  0.00000000000E+00  0.60869921021E+03  0.13671101017E+04  0.12241222577E+04 0.  0.
        2    1    3    3  502    0 -0.39856734051E+03 -0.40065149099E+03  0.41860926112E+02  0.56668322659E+03  0.25500000920E-02 0. -1.
       -2    1    3    3    0  502  0.39856734051E+03  0.40065149099E+03  0.56683828410E+03  0.80042687516E+03  0.25500000920E-02 0.  1.
</event>
<event>
 5   0  0.2025294E-03  0.1182836E+04  0.7818609E-02  0.9128014E-01
       -1   -1    0    0    0  501  0.00000000000E+00  0.00000000000E+00  0.46909861234E+03  0.46909861237E+03  0.50400001928E-02 0. -1.
        1   -1    0    0  501    0  0.00000000000E+00  0.00000000000E+00 -0.74563237834E+03  0.74563237836E+03  0.50400001928E-02 0.  1.
    10030    2    1    2    0    0  0.00000000000E+00  0.00000000000E+00 -0.27653376600E+03  0.12147309907E+04  0.11828357689E+04 0.  0.
        5    1    3    3  502    0 -0.18555864719E+03 -0.20519647495E+03 -0.67506163984E+03  0.72956693487E+03  0.46999998093E+01 0.  1.
       -5    1    3    3    0  502  0.18555864719E+03  0.20519647495E+03  0.39852787384E+03  0.48516405586E+03  0.46999998093E+01 0. -1.
</event>
<event>
 5   0  0.3706035E-03  0.1192990E+04  0.7818609E-02  0.9119015E-01
       -2   -1    0    0    0  501  0.00000000000E+00  0.00000000000E+00  0.93967912157E+03  0.93967912158E+03  0.25500000920E-02 0.  1.
        2   -1    0    0  501    0  0.00000000000E+00  0.00000000000E+00 -0.37864640718E+03  0.37864640719E+03  0.25500000920E-02 0. -1.
    10030    2    1    2    0    0  0.00000000000E+00  0.00000000000E+00  0.56103271439E+03  0.13183255288E+04  0.11929897289E+04 0.  0.
        2    1    3    3  502    0 -0.47444319701E+03 -0.36136403510E+03  0.26812143110E+03  0.65388792226E+03  0.25500000920E-02 0. -1.
       -2    1    3    3    0  502  0.47444319701E+03  0.36136403510E+03  0.29291128329E+03  0.66443760651E+03  0.25500000920E-02 0.  1.
</event>
<event>
 5   0  0.2134992E-03  0.1216664E+04  0.7818609E-02  0.9098394E-01
       -1   -1    0    0    0  501  0.00000000000E+00  0.00000000000E+00  0.70481523378E+03  0.70481523380E+03  0.50400001928E-02 0.  1.
        1   -1    0    0  501    0  0.00000000000E+00  0.00000000000E+00 -0.52505640243E+03  0.52505640246E+03  0.50400001928E-02 0. -1.
    10030    2    1    2    0    0  0.00000000000E+00  0.00000000000E+00  0.17975883135E+03  0.12298716363E+04  0.12166638830E+04 0.  0.
        4    1    3    3  502    0 -0.53690203791E+03  0.18693097606E+02  0.37837718962E+03  0.65710283879E+03  0.12699999809E+01 0.  1.
       -4    1    3    3    0  502  0.53690203791E+03 -0.18693097606E+02 -0.19861835827E+03  0.57276879747E+03  0.12699999809E+01 0. -1.
</event>
<event>
 5   0  0.3650180E-03  0.1190858E+04  0.7818609E-02  0.9120896E-01
        2   -1    0    0  501    0  0.00000000000E+00  0.00000000000E+00  0.40331887377E+03  0.40331887378E+03  0.25500000920E-02 0.  1.
       -2   -1    0    0    0  501  0.00000000000E+00  0.00000000000E+00 -0.87904595955E+03  0.87904595956E+03  0.25500000920E-02 0. -1.
    10030    2    1    2    0    0  0.00000000000E+00  0.00000000000E+00 -0.47572708578E+03  0.12823648333E+04  0.11908582223E+04 0.  0.
        3    1    3    3  502    0 -0.49288285733E+02 -0.11509132813E+03  0.38898409375E+03  0.40863673882E+03  0.10100000352E+00 0.  1.
       -3    1    3    3    0  502  0.49288285733E+02  0.11509132813E+03 -0.86471117954E+03  0.87372809451E+03  0.10100000352E+00 0. -1.
</event>
<event>
 5   0  0.1397500E-03  0.1217612E+04  0.7818609E-02  0.9097579E-01
        4   -1    0    0  501    0  0.00000000000E+00  0.00000000000E+00  0.51956888228E+03  0.51957043443E+03  0.12699999809E+01 0. -1.
       -4   -1    0    0    0  501  0.00000000000E+00  0.00000000000E+00 -0.71336695175E+03  0.71336808223E+03  0.12699999809E+01 0.  1.
    10030    2    1    2    0    0  0.00000000000E+00  0.00000000000E+00 -0.19379806947E+03  0.12329385167E+04  0.12176122922E+04 0.  0.
        4    1    3    3  502    0  0.59388685336E+03  0.12450543504E+03 -0.14691830334E+03  0.62433148144E+03  0.12699999809E+01 0.  1.
       -4    1    3    3    0  502 -0.59388685336E+03 -0.12450543504E+03 -0.46879766126E+02  0.60860703523E+03  0.12699999809E+01 0. -1.
</event>
<event>
 5   0  0.3706035E-03  0.1186534E+04  0.7818609E-02  0.9124726E-01
       -2   -1    0    0    0  501  0.00000000000E+00  0.00000000000E+00  0.17649729025E+03  0.17649729026E+03  0.25500000920E-02 0.  1.
        2   -1    0    0  501    0  0.00000000000E+00  0.00000000000E+00 -0.19941697336E+04  0.19941697336E+04  0.25500000920E-02 0. -1.
    10030    2    1    2    0    0  0.00000000000E+00  0.00000000000E+00 -0.18176724433E+04  0.21706670238E+04  0.11865336983E+04 0.  0.
        2    1    3    3  502    0  0.10042027374E+03 -0.43338498662E+03 -0.16268889779E+04  0.16866162944E+04  0.25500000920E-02 0. -1.
       -2    1    3    3    0  502 -0.10042027374E+03  0.43338498662E+03 -0.19078346541E+03  0.48405072946E+03  0.25500000920E-02 0.  1.
</event>
<event>
 5   0  0.2078258E-03  0.1204418E+04  0.7818609E-02  0.9108999E-01
        1   -1    0    0  501    0  0.00000000000E+00  0.00000000000E+00  0.50289297819E+03  0.50289297822E+03  0.50400001928E-02 0. -1.
       -1   -1    0    0    0  501  0.00000000000E+00  0.00000000000E+00 -0.72113839587E+03  0.72113839589E+03  0.50400001928E-02 0.  1.
    10030    2    1    2    0    0  0.00000000000E+00  0.00000000000E+00 -0.21824541767E+03  0.12240313741E+04  0.12044175947E+04 0.  0.
        3    1    3    3  502    0  0.45504607978E+03  0.17845578575E+03  0.24837566012E+03  0.54827354571E+03  0.10100000352E+00 0. -1.
       -3    1    3    3    0  502 -0.45504607978E+03 -0.17845578575E+03 -0.46662107780E+03  0.67575782839E+03  0.10100000352E+00 0.  1.
</event>
<event>
 5   0  0.3706035E-03  0.1151909E+04  0.7818609E-02  0.9156024E-01
       -2   -1    0    0    0  501  0.00000000000E+00  0.00000000000E+00  0.24293576298E+03  0.24293576299E+03  0.25500000920E-02 0.  1.
        2   -1    0    0  501    0  0.00000000000E+00  0.00000000000E+00 -0.13654787053E+04  0.13654787053E+04  0.25500000920E-02 0. -1.
    10030    2    1    2    0    0  0.00000000000E+00  0.00000000000E+00 -0.11225429423E+04  0.16084144683E+04  0.11519090435E+04 0.  0.
        2    1    3    3  502    0  0.12376954004E+03 -0.50996332221E+03 -0.89270495609E+03  0.10355209451E+04  0.25500000920E-02 0. -1.
       -2    1    3    3    0  502 -0.12376954004E+03  0.50996332221E+03 -0.22983798624E+03  0.57289352323E+03  0.25500000920E-02 0.  1.
</event>
<event>
 5   0  0.2025294E-03  0.1216620E+04  0.7818609E-02  0.9098432E-01
        1   -1    0    0  501    0  0.00000000000E+00  0.00000000000E+00  0.10154786588E+04  0.10154786588E+04  0.50400001928E-02 0. -1.
       -1   -1    0    0    0  501  0.00000000000E+00  0.00000000000E+00 -0.36440083980E+03  0.36440083984E+03  0.50400001928E-02 0.  1.
    10030    2    1    2    0    0  0.00000000000E+00  0.00000000000E+00  0.65107781898E+03  0.13798794986E+04  0.12166203617E+04 0.  0.
        5    1    3    3  502    0 -0.40351243723E+03  0.40954487795E+03  0.10020889179E+03  0.58362077246E+03  0.46999998093E+01 0.  1.
       -5    1    3    3    0  502  0.40351243723E+03 -0.40954487795E+03  0.55086892719E+03  0.79625872617E+03  0.46999998093E+01 0. -1.
</event>
<event>
 5   0  0.2134992E-03  0.1186037E+04  0.7818609E-02  0.9125167E-01
       -1   -1    0    0    0  501  0.00000000000E+00  0.00000000000E+00  0.35190589659E+03  0.35190589662E+03  0.50400001928E-02 0.  1.
        1   -1    0    0  501    0  0.00000000000E+00  0.00000000000E+00 -0.99933155951E+03  0.99933155952E+03  0.50400001928E-02 0. -1.
    10030    2    1    2    0    0  0.00000000000E+00  0.00000000000E+00 -0.64742566292E+03  0.13512374561E+04  0.11860365399E+04 0.  0.
        4    1    3    3  502    0 -0.44812070169E+03 -0.38840171695E+03 -0.32485129423E+03  0.67616420586E+03  0.12699999809E+01 0.  1.
       -4    1    3    3    0  502  0.44812070169E+03  0.38840171695E+03 -0.32257436869E+03  0.67507325029E+03  0.12699999809E+01 0. -1.
</event>
<event>
 5   0  0.3650180E-03  0.1258499E+04  0.7818609E-02  0.9063139E-01
       -2   -1    0    0    0  501  0.00000000000E+00  0.00000000000E+00  0.23042401306E+03  0.23042401307E+03  0.25500000920E-02 0.  1.
        2   -1    0    0  501    0  0.00000000000E+00  0.00000000000E+00 -0.17183752345E+04  0.17183752345E+04  0.25500000920E-02 0. -1.
    10030    2    1    2    0    0  0.00000000000E+00  0.00000000000E+00 -0.14879512214E+04  0.19487992476E+04  0.12584989750E+04 0.  0.
        3    1    3    3  502    0  0.13875521978E+03 -0.59259827611E+03 -0.49655682851E+03  0.78548992483E+03  0.10100000352E+00 0. -1.
       -3    1    3    3    0  502 -0.13875521978E+03  0.59259827611E+03 -0.99139439293E+03  0.11633093228E+04  0.10100000352E+00 0.  1.
</event>
<event>
 5   0  0.2078258E-03  0.1206635E+04  0.7818609E-02  0.9107069E-01
        1   -1    0    0  501    0  0.00000000000E+00  0.00000000000E+00  0.35390463125E+03  0.35390463129E+03  0.50400001928E-02 0.  1.
       -1   -1    0    0    0  501  0.00000000000E+00  0.00000000000E+00 -0.10285031296E+04  0.10285031296E+04  0.50400001928E-02 0. -1.
    10030    2    1    2    0    0  0.00000000000E+00  0.00000000000E+00 -0.67459849832E+03  0.13824077609E+04  0.12066350249E+04 0.  0.
        3    1    3    3  502    0 -0.59329495685E+03 -0.10850711193E+03 -0.35426569645E+03  0.69948330434E+03  0.10100000352E+00 0. -1.
       -3    1    3    3    0  502  0.59329495685E+03  0.10850711193E+03 -0.32033280186E+03  0.68292445652E+03  0.10100000352E+00 0.  1.
</event>
<event>
 5   0  0.2096270E-03  0.1194095E+04  0.7818609E-02  0.9118041E-01
       -1   -1    0    0    0  501  0.00000000000E+00  0.00000000000E+00  0.46972959425E+03  0.46972959427E+03  0.50400001928E-02 0. -1.
        1   -1    0    0  501    0  0.00000000000E+00  0.00000000000E+00 -0.75887471910E+03  0.75887471912E+03  0.50400001928E-02 0.  1.
    10030    2    1    2    0    0  0.00000000000E+00  0.00000000000E+00 -0.28914512486E+03  0.12286043134E+04  0.11940953294E+04 0.  0.
        2    1    3    3  502    0  0.59363435353E+03 -0.33188547353E+02 -0.20057617399E+03  0.62748229214E+03  0.25500000920E-02 0. -1.
       -2    1    3    3    0  502 -0.59363435353E+03  0.33188547353E+02 -0.88568950868E+02  0.60112202125E+03  0.25500000920E-02 0.  1.
</event>
<event>
 5   0  0.2096270E-03  0.1227777E+04  0.7818609E-02  0.9088885E-01
       -1   -1    0    0    0  501  0.00000000000E+00  0.00000000000E+00  0.59307817362E+03  0.59307817364E+03  0.50400001928E-02 0. -1.
        1   -1    0    0  501    0  0.00000000000E+00  0.00000000000E+00 -0.63542883385E+03  0.63542883387E+03  0.50400001928E-02 0.  1.
    10030    2    1    2    0    0  0.00000000000E+00  0.00000000000E+00 -0.42350660232E+02  0.12285070075E+04  0.12277768075E+04 0.  0.
        2    1    3    3  502    0 -0.21962055614E+03 -0.46244009693E+03  0.31781066065E+03  0.60256754639E+03  0.25500000920E-02 0. -1.
       -2    1    3    3    0  502  0.21962055614E+03  0.46244009693E+03 -0.36016132089E+03  0.62593946113E+03  0.25500000920E-02 0.  1.
</event>
<event>
 5   0  0.3725376E-03  0.1138360E+04  0.7818609E-02  0.9168590E-01
       -2   -1    0    0    0  501  0.00000000000E+00  0.00000000000E+00  0.44222122265E+03  0.44222122266E+03  0.25500000920E-02 0.  1.
        2   -1    0    0  501    0  0.00000000000E+00  0.00000000000E+00 -0.73258749042E+03  0.73258749043E+03  0.25500000920E-02 0. -1.
    10030    2    1    2    0    0  0.00000000000E+00  0.00000000000E+00 -0.29036626777E+03  0.11748087131E+04  0.11383597599E+04 0.  0.
        4    1    3    3  502    0 -0.45848756677E+02  0.22081038746E+02 -0.73023354830E+03  0.73200568900E+03  0.12699999809E+01 0. -1.
       -4    1    3    3    0  502  0.45848756677E+02 -0.22081038746E+02  0.43986728053E+03  0.44280302409E+03  0.12699999809E+01 0.  1.
</event>
<event>
 5   0  0.2047109E-03  0.1111523E+04  0.7818609E-02  0.9194033E-01
        1   -1    0    0  501    0  0.00000000000E+00  0.00000000000E+00  0.39074006708E+03  0.39074006711E+03  0.50400001928E-02 0.  1.
       -1   -1    0    0    0  501  0.00000000000E+00  0.00000000000E+00 -0.79047668522E+03  0.79047668523E+03  0.50400001928E-02 0. -1.
    10030    2    1    2    0    0  0.00000000000E+00  0.00000000000E+00 -0.39973661814E+03  0.11812167523E+04  0.11115231226E+04 0.  0.
        1    1    3    3  502    0  0.49372464217E+03 -0.15685250524E+03 -0.41374380553E+03  0.66298617431E+03  0.50400001928E-02 0.  1.
       -1    1    3    3    0  502 -0.49372464217E+03  0.15685250524E+03  0.14007187385E+02  0.51823057804E+03  0.50400001928E-02 0. -1.
</event>
<event>
 5   0  0.2047109E-03  0.1193404E+04  0.7818609E-02  0.9118650E-01
        1   -1    0    0  501    0  0.00000000000E+00  0.00000000000E+00  0.19252836594E+03  0.19252836600E+03  0.50400001928E-02 0. -1.
       -1   -1    0    0    0  501  0.00000000000E+00  0.00000000000E+00 -0.18493545953E+04  0.18493545954E+04  0.50400001928E-02 0.  1.
    10030    2    1    2    0    0  0.00000000000E+00  0.00000000000E+00 -0.16568262294E+04  0.20418829614E+04  0.11934039020E+04 0.  0.
        1    1    3    3  502    0 -0.45163992021E+03  0.15232554318E+03 -0.14426301868E+04  0.15193299656E+04  0.50400001928E-02 0.  1.
       -1    1    3    3    0  502  0.45163992021E+03 -0.15232554318E+03 -0.21419604263E+03  0.52255299572E+03  0.50400001928E-02 0. -1.
</event>
<event>
 5   0  0.3751091E-03  0.1174671E+04  0.7818609E-02  0.9135321E-01
        2   -1    0    0  501    0  0.00000000000E+00  0.00000000000E+00  0.63282156631E+03  0.63282156631E+03  0.25500000920E-02 0. -1.
       -2   -1    0    0    0  501  0.00000000000E+00  0.00000000000E+00 -0.54511851227E+03  0.54511851228E+03  0.25500000920E-02 0.  1.
    10030    2    1    2    0    0  0.00000000000E+00  0.00000000000E+00  0.87703054038E+02  0.11779400786E+04  0.11746705934E+04 0.  0.
        5    1    3    3  502    0 -0.25800319931E+03 -0.34437080856E+03  0.44469370653E+03  0.61881458230E+03  0.46999998093E+01 0. -1.
       -5    1    3    3    0  502  0.25800319931E+03  0.34437080856E+03 -0.35699065249E+03  0.55912549629E+03  0.46999998093E+01 0.  1.
</event>
<event>
 5   0  0.3626049E-03  0.1185057E+04  0.7818609E-02  0.9126038E-01
       -2   -1    0    0    0  501  0.00000000000E+00  0.00000000000E+00  0.32702260844E+03  0.32702260845E+03  0.25500000920E-02 0. -1.
        2   -1    0    0  501    0  0.00000000000E+00  0.00000000000E+00 -0.10735953817E+04  0.10735953817E+04  0.25500000920E-02 0.  1.
    10030    2    1    2    0    0  0.00000000000E+00  0.00000000000E+00 -0.74657277324E+03  0.14006179901E+04  0.11850568967E+04 0.  0.
        1    1    3    3  502    0 -0.26453272131E+03  0.15052042776E+03 -0.97414710052E+03  0.10205863674E+04  0.50400001928E-02 0.  1.
       -1    1    3    3    0  502  0.26453272131E+03 -0.15052042776E+03  0.22757432728E+03  0.38003162274E+03  0.50400001928E-02 0. -1.
</event>
<event>
 5   0  0.3626049E-03  0.1196539E+04  0.7818609E-02  0.9115892E-01
       -2   -1    0    0    0  501  0.00000000000E+00  0.00000000000E+00  0.43570545348E+03  0.43570545349E+03  0.25500000920E-02 0.  1.
        2   -1    0    0  501    0  0.00000000000E+00  0.00000000000E+00 -0.82148666987E+03  0.82148666987E+03  0.25500000920E-02 0. -1.
    10030    2    1    2    0    0  0.00000000000E+00  0.00000000000E+00 -0.38578121639E+03  0.12571921234E+04  0.11965387115E+04 0.  0.
        1    1    3    3  502    0 -0.18708293529E+03  0.39186574662E+02 -0.78854107884E+03  0.81137700569E+03  0.50400001928E-02 0. -1.
       -1    1    3    3    0  502  0.18708293529E+03 -0.39186574662E+02  0.40275986245E+03  0.44581511767E+03  0.50400001928E-02 0.  1.
</event>
<event>
 5   0  0.2078258E-03  0.1086846E+04  0.7818609E-02  0.9218108E-01
       -1   -1    0    0    0  501  0.00000000000E+00  0.00000000000E+00  0.60798761037E+03  0.60798761039E+03  0.50400001928E-02 0. -1.
        1   -1    0    0  501    0  0.00000000000E+00  0.00000000000E+00 -0.48571494807E+03  0.48571494810E+03  0.50400001928E-02 0.  1.
    10030    2    1    2    0    0  0.00000000000E+00  0.00000000000E+00  0.12227266230E+03  0.10937025585E+04  0.10868462092E+04 0.  0.
        3    1    3    3  502    0 -0.46386327440E+03 -0.79352708823E+02 -0.21231801541E+03  0.51627990432E+03  0.10100000352E+00 0.  1.
       -3    1    3    3    0  502  0.46386327440E+03  0.79352708823E+02  0.33459067772E+03  0.57742265417E+03  0.10100000352E+00 0. -1.
</event>
<event>
 5   0  0.3751091E-03  0.1195173E+04  0.7818609E-02  0.9117092E-01
       -2   -1    0    0    0  501  0.00000000000E+00  0.00000000000E+00  0.31357236709E+03  0.31357236710E+03  0.25500000920E-02 0. -1.
        2   -1    0    0  501    0  0.00000000000E+00  0.00000000000E+00 -0.11388430091E+04  0.11388430091E+04  0.25500000920E-02 0.  1.
    10030    2    1    2    0    0  0.00000000000E+00  0.00000000000E+00 -0.82527064201E+03  0.14524153762E+04  0.11951731224E+04 0.  0.
        5    1    3    3  502    0 -0.49694357091E+03 -0.21563949273E+03 -0.10608224987E+03  0.55202249703E+03  0.46999998093E+01 0. -1.
       -5    1    3    3    0  502  0.49694357091E+03  0.21563949273E+03 -0.71918839214E+03  0.90039287918E+03  0.46999998093E+01 0.  1.
</event>
<event>
 5   0  0.3706035E-03  0.1033412E+04  0.7818609E-02  0.9272639E-01
       -2   -1    0    0    0  501  0.00000000000E+00  0.00000000000E+00  0.40860154115E+03  0.40860154116E+03  0.25500000920E-02 0.  1.
        2   -1    0    0  501    0  0.00000000000E+00  0.00000000000E+00 -0.65341215235E+03  0.65341215236E+03  0.25500000920E-02 0. -1.
    10030    2    1    2    0    0  0.00000000000E+00  0.00000000000E+00 -0.24481061120E+03  0.10620136935E+04  0.10334122362E+04 0.  0.
        2    1    3    3  502    0  0.60587162517E+02  0.36481481661E+03  0.24844869017E+03  0.44551925472E+03  0.25500000920E-02 0.  1.
       -2    1    3    3    0  502 -0.60587162517E+02 -0.36481481661E+03 -0.49325930136E+03  0.61649443879E+03  0.25500000920E-02 0. -1.
</event>
<event>
 5   0  0.2025294E-03  0.1200146E+04  0.7818609E-02  0.9112729E-01
        1   -1    0    0  501    0  0.00000000000E+00  0.00000000000E+00  0.18332755219E+04  0.18332755219E+04  0.50400001928E-02 0.  1.
       -1   -1    0    0    0  501  0.00000000000E+00  0.00000000000E+00 -0.19641745663E+03  0.19641745670E+03  0.50400001928E-02 0. -1.
    10030    2    1    2    0    0  0.00000000000E+00  0.00000000000E+00  0.16368580652E+04  0.20296929786E+04  0.12001455168E+04 0.  0.
        5    1    3    3  502    0  0.19033170616E+03  0.59133079056E+02  0.17756310782E+04  0.17867878149E+04  0.46999998093E+01 0.  1.
       -5    1    3    3    0  502 -0.19033170616E+03 -0.59133079056E+02 -0.13877301300E+03  0.24290516368E+03  0.46999998093E+01 0. -1.
</event>
<event>
 5   0  0.3626049E-03  0.1200294E+04  0.7818609E-02  0.9112600E-01
       -2   -1    0    0    0  501  0.00000000000E+00  0.00000000000E+00  0.62437735164E+03  0.62437735164E+03  0.25500000920E-02 0. -1.
        2   -1    0    0  501    0  0.00000000000E+00  0.00000000000E+00 -0.57685665452E+03  0.57685665453E+03  0.25500000920E-02 0.  1.
    10030    2    1    2    0    0  0.00000000000E+00  0.00000000000E+00  0.47520697115E+02  0.12012340062E+04  0.12002936811E+04 0.  0.
        1    1    3    3  502    0 -0.45107233776E+03  0.90668028550E+02  0.40940530543E+03  0.61587307900E+03  0.50400001928E-02 0.  1.
       -1    1    3    3    0  502  0.45107233776E+03 -0.90668028550E+02 -0.36188460832E+03  0.58536092717E+03  0.50400001928E-02 0. -1.
</event>
<event>
 5   0  0.3725376E-03  0.1194581E+04  0.7818609E-02  0.9117613E-01
        2   -1    0    0  501    0  0.00000000000E+00  0.00000000000E+00  0.11880990028E+04  0.11880990028E+04  0.25500000920E-02 0.  1.
       -2   -1    0    0    0  501  0.00000000000E+00  0.00000000000E+00 -0.30027444424E+03  0.30027444425E+03  0.25500000920E-02 0. -1.
    10030    2    1    2    0    0  0.00000000000E+00  0.00000000000E+00  0.88782455857E+03  0.14883734471E+04  0.11945807093E+04 0.  0.
        4    1    3    3  502    0  0.16359490771E+03 -0.56215733668E+03  0.29664900186E+03  0.65634320917E+03  0.12699999809E+01 0.  1.
       -4    1    3    3    0  502 -0.16359490771E+03  0.56215733668E+03  0.59117555671E+03  0.83203023789E+03  0.12699999809E+01 0. -1.
</event>
<event>
 5   0  0.3626049E-03  0.1204499E+04  0.7818609E-02  0.9108928E-01
       -2   -1    0    0    0  501  0.00000000000E+00  0.00000000000E+00  0.39243978975E+03  0.39243978976E+03  0.25500000920E-02 0. -1.
        2   -1    0    0  501    0  0.00000000000E+00  0.00000000000E+00 -0.92422971834E+03  0.92422971834E+03  0.25500000920E-02 0.  1.
    10030    2    1    2    0    0  0.00000000000E+00  0.00000000000E+00 -0.53178992859E+03  0.13166695081E+04  0.12044990932E+04 0.  0.
        1    1    3    3  502    0 -0.22139271216E+03 -0.42917275576E+03  0.12747941632E+03  0.49945469153E+03  0.50400001928E-02 0. -1.
       -1    1    3    3    0  502  0.22139271216E+03  0.42917275576E+03 -0.65926934490E+03  0.81721481658E+03  0.50400001928E-02 0.  1.
</event>
<event>
 5   0  0.3706035E-03  0.1198485E+04  0.7818609E-02  0.9114184E-01
        2   -1    0    0  501    0  0.00000000000E+00  0.00000000000E+00  0.16474012607E+04  0.16474012607E+04  0.25500000920E-02 0.  1.
       -2   -1    0    0    0  501  0.00000000000E+00  0.00000000000E+00 -0.21797462371E+03  0.21797462372E+03  0.25500000920E-02 0. -1.
    10030    2    1    2    0    0  0.00000000000E+00  0.00000000000E+00  0.14294266370E+04  0.18653758844E+04  0.11984851604E+04 0.  0.
        2    1    3    3  502    0  0.16108068146E+02 -0.41410189741E+03  0.41019358841E+02  0.41644019871E+03  0.25500000920E-02 0. -1.
       -2    1    3    3    0  502 -0.16108068146E+02  0.41410189741E+03  0.13884072781E+04  0.14489356857E+04  0.25500000920E-02 0.  1.
</event>
<event>
 5   0  0.2096270E-03  0.1190525E+04  0.7818609E-02  0.9121190E-01
        1   -1    0    0  501    0  0.00000000000E+00  0.00000000000E+00  0.10251791271E+04  0.10251791271E+04  0.50400001928E-02 0.  1.
       -1   -1    0    0    0  501  0.00000000000E+00  0.00000000000E+00 -0.34563490849E+03  0.34563490852E+03  0.50400001928E-02 0. -1.
    10030    2    1    2    0    0  0.00000000000E+00  0.00000000000E+00  0.67954421860E+03  0.13708140356E+04  0.11905254198E+04 0.  0.
        2    1    3    3  502    0  0.70369845805E+02  0.25722243283E+03 -0.27300660061E+03  0.38163844032E+03  0.25500000920E-02 0. -1.
       -2    1    3    3    0  502 -0.70369845805E+02 -0.25722243283E+03  0.95255081922E+03  0.98917559530E+03  0.25500000920E-02 0.  1.
</event>
<event>
 5   0  0.2096270E-03  0.1208408E+04  0.7818609E-02  0.9105529E-01
       -1   -1    0    0    0  501  0.00000000000E+00  0.00000000000E+00  0.89872898194E+03  0.89872898195E+03  0.50400001928E-02 0. -1.
        1   -1    0    0  501    0  0.00000000000E+00  0.00000000000E+00 -0.40619847749E+03  0.40619847753E+03  0.50400001928E-02 0.  1.
    10030    2    1    2    0    0  0.00000000000E+00  0.00000000000E+00  0.49253050444E+03  0.13049274595E+04  0.12084077858E+04 0.  0.
        2    1    3    3  502    0  0.70316104438E+02 -0.42707474672E+03  0.70151247011E+03  0.82429178060E+03  0.25500000920E-02 0. -1.
       -2    1    3    3    0  502 -0.70316104438E+02  0.42707474672E+03 -0.20898196567E+03  0.48063567888E+03  0.25500000920E-02 0.  1.
</event>
<event>
 5   0  0.3626049E-03  0.9777073E+03  0.7818609E-02  0.9333339E-01
        2   -1    0    0  501    0  0.00000000000E+00  0.00000000000E+00  0.65646922067E+03  0.65646922067E+03  0.25500000920E-02 0. -1.
       -2   -1    0    0    0  501  0.00000000000E+00  0.00000000000E+00 -0.36403520926E+03  0.36403520927E+03  0.25500000920E-02 0.  1.
    10030    2    1    2    0    0  0.00000000000E+00  0.00000000000E+00  0.29243401141E+03  0.10205044299E+04  0.97770733888E+03 0.  0.
        1    1    3    3  502    0 -0.53217917826E+02 -0.45978677065E+03 -0.17963823591E+02  0.46320483615E+03  0.50400001928E-02 0.  1.
       -1    1    3    3    0  502  0.53217917826E+02  0.45978677065E+03  0.31039783500E+03  0.55729959379E+03  0.50400001928E-02 0. -1.
</event>
<event>
 5   0  0.2047109E-03  0.1207489E+04  0.7818609E-02  0.9106326E-01
       -1   -1    0    0    0  501  0.00000000000E+00  0.00000000000E+00  0.23169502662E+03  0.23169502667E+03  0.50400001928E-02 0. -1.
        1   -1    0    0  501    0  0.00000000000E+00  0.00000000000E+00 -0.15732210914E+04  0.15732210914E+04  0.50400001928E-02 0.  1.
    10030    2    1    2    0    0  0.00000000000E+00  0.00000000000E+00 -0.13415260647E+04  0.18049161180E+04  0.12074891348E+04 0.  0.
        1    1    3    3  502    0 -0.30581115120E+03 -0.48789873647E+03 -0.94206184057E+03  0.11041042291E+04  0.50400001928E-02 0.  1.
       -1    1    3    3    0  502  0.30581115120E+03  0.48789873647E+03 -0.39946422418E+03  0.70081188893E+03  0.50400001928E-02 0. -1.
</event>
<event>
 5   0  0.2025294E-03  0.1214356E+04  0.7818609E-02  0.9100383E-01
        1   -1    0    0  501    0  0.00000000000E+00  0.00000000000E+00  0.52152557646E+03  0.52152557649E+03  0.50400001928E-02 0.  1.
       -1   -1    0    0    0  501  0.00000000000E+00  0.00000000000E+00 -0.70689782198E+03  0.70689782200E+03  0.50400001928E-02 0. -1.
    10030    2    1    2    0    0  0.00000000000E+00  0.00000000000E+00 -0.18537224552E+03  0.12284233985E+04  0.12143562807E+04 0.  0.
        5    1    3    3  502    0  0.12223172291E+03 -0.55633076323E+03 -0.30535633526E+03  0.64630418046E+03  0.46999998093E+01 0. -1.
       -5    1    3    3    0  502 -0.12223172291E+03  0.55633076323E+03  0.11998408974E+03  0.58211921802E+03  0.46999998093E+01 0.  1.
</event>
<event>
 5   0  0.3650180E-03  0.1194167E+04  0.7818609E-02  0.9117977E-01
       -2   -1    0    0    0  501  0.00000000000E+00  0.00000000000E+00  0.15092322039E+03  0.15092322042E+03  0.25500000920E-02 0. -1.
        2   -1    0    0  501    0  0.00000000000E+00  0.00000000000E+00 -0.23621869931E+04  0.23621869931E+04  0.25500000920E-02 0.  1.
    10030    2    1    2    0    0  0.00000000000E+00  0.00000000000E+00 -0.22112637727E+04  0.25131102135E+04  0.11941672717E+04 0.  0.
        3    1    3    3  502    0 -0.25765732554E+03 -0.33370803580E+03 -0.19954109039E+04  0.20394639090E+04  0.10100000352E+00 0.  1.
       -3    1    3    3    0  502  0.25765732554E+03  0.33370803580E+03 -0.21585286873E+03  0.47364630443E+03  0.10100000352E+00 0. -1.
</event>
<event>
 5   0  0.2134992E-03  0.1197550E+04  0.7818609E-02  0.9115004E-01
       -1   -1    0    0    0  501  0.00000000000E+00  0.00000000000E+00  0.10633449828E+04  0.10633449828E+04  0.50400001928E-02 0.  1.
        1   -1    0    0  501    0  0.00000000000E+00  0.00000000000E+00 -0.33717305039E+03  0.33717305043E+03  0.50400001928E-02 0. -1.
    10030    2    1    2    0    0  0.00000000000E+00  0.00000000000E+00  0.72617193245E+03  0.14005180333E+04  0.11975496174E+04 0.  0.
        4    1    3    3  502    0 -0.44164997231E+03 -0.36583708794E+03  0.16175017025E+03  0.59586592739E+03  0.12699999809E+01 0. -1.
       -4    1    3    3    0  502  0.44164997231E+03  0.36583708794E+03  0.56442176219E+03  0.80465210588E+03  0.12699999809E+01 0.  1.
</event>
<event>
 5   0  0.3706035E-03  0.1204794E+04  0.7818609E-02  0.9108671E-01
        2   -1    0    0  501    0  0.00000000000E+00  0.00000000000E+00  0.23465454938E+04  0.23465454938E+04  0.25500000920E-02 0. -1.
       -2   -1    0    0    0  501  0.00000000000E+00  0.00000000000E+00 -0.15464526301E+03  0.15464526303E+03  0.25500000920E-02 0.  1.
    10030    2    1    2    0    0  0.00000000000E+00  0.00000000000E+00  0.21919002308E+04  0.25011907568E+04  0.12047939991E+04 0.  0.
        2    1    3    3  502    0  0.18118111512E+03  0.42127926450E+03  0.28502290928E+03  0.53994525093E+03  0.25500000920E-02 0.  1.
       -2    1    3    3    0  502 -0.18118111512E+03 -0.42127926450E+03  0.19068773215E+04  0.19612455059E+04  0.25500000920E-02 0. -1.
</event>
<event>
 5   0  0.2134992E-03  0.1220024E+04  0.7818609E-02  0.9095508E-01
       -1   -1    0    0    0  501  0.00000000000E+00  0.00000000000E+00  0.10319498981E+04  0.10319498981E+04  0.50400001928E-02 0. -1.
        1   -1    0    0  501    0  0.00000000000E+00  0.00000000000E+00 -0.36059369508E+03  0.36059369512E+03  0.50400001928E-02 0.  1.
    10030    2    1    2    0    0  0.00000000000E+00  0.00000000000E+00  0.67135620305E+03  0.13925435933E+04  0.12200239784E+04 0.  0.
        4    1    3    3  502    0 -0.18755628932E+03 -0.24584662312E+03 -0.26450552746E+03  0.40691855539E+03  0.12699999809E+01 0.  1.
       -4    1    3    3    0  502  0.18755628932E+03  0.24584662312E+03  0.93586173050E+03  0.98562503787E+03  0.12699999809E+01 0. -1.
</event>
<event>
 5   0  0.2047109E-03  0.1205812E+04  0.7818609E-02  0.9107785E-01
       -1   -1    0    0    0  501  0.00000000000E+00  0.00000000000E+00  0.50596564311E+03  0.50596564313E+03  0.50400001928E-02 0.  1.
        1   -1    0    0  501    0  0.00000000000E+00  0.00000000000E+00 -0.71841938526E+03  0.71841938528E+03  0.50400001928E-02 0. -1.
    10030    2    1    2    0    0  0.00000000000E+00  0.00000000000E+00 -0.21245374216E+03  0.12243850284E+04  0.12058118034E+04 0.  0.
        1    1    3    3  502    0  0.20236305226E+03 -0.54293584858E+03 -0.27542296594E+03  0.64155120667E+03  0.50400001928E-02 0. -1.
       -1    1    3    3    0  502 -0.20236305226E+03  0.54293584858E+03  0.62969223782E+02  0.58283382174E+03  0.50400001928E-02 0.  1.
</event>
<event>
 5   0  0.3751091E-03  0.1185309E+04  0.7818609E-02  0.9125814E-01
       -2   -1    0    0    0  501  0.00000000000E+00  0.00000000000E+00  0.14987279560E+03  0.14987279562E+03  0.25500000920E-02 0.  1.
        2   -1    0    0  501    0  0.00000000000E+00  0.00000000000E+00 -0.23435825926E+04  0.23435825926E+04  0.25500000920E-02 0. -1.
    10030    2    1    2    0    0  0.00000000000E+00  0.00000000000E+00 -0.21937097970E+04  0.24934553882E+04  0.11853088625E+04 0.  0.
        5    1    3    3  502    0  0.55765567950E+03 -0.83881286996E+02 -0.14801624176E+04  0.15839566912E+04  0.46999998093E+01 0. -1.
       -5    1    3    3    0  502 -0.55765567950E+03  0.83881286996E+02 -0.71354737935E+03  0.90949869695E+03  0.46999998093E+01 0.  1.
</event>
<event>
 5   0  0.2078258E-03  0.1189349E+04  0.7818609E-02  0.9122231E-01
       -1   -1    0    0    0  501  0.00000000000E+00  0.00000000000E+00  0.12933858449E+04  0.12933858449E+04  0.50400001928E-02 0. -1.
        1   -1    0    0  501    0  0.00000000000E+00  0.00000000000E+00 -0.27342000201E+03  0.27342000205E+03  0.50400001928E-02 0.  1.
    10030    2    1    2    0    0  0.00000000000E+00  0.00000000000E+00  0.10199658429E+04  0.15668058470E+04  0.11893486627E+04 0.  0.
        3    1    3    3  502    0 -0.15913407251E+03  0.27427854727E+03 -0.15275122658E+03  0.35197346768E+03  0.10100000352E+00 0.  1.
       -3    1    3    3    0  502  0.15913407251E+03 -0.27427854727E+03  0.11727170695E+04  0.12148323793E+04  0.10100000352E+00 0. -1.
</event>
<event>
 5   0  0.2078258E-03  0.1100874E+04  0.7818609E-02  0.9204340E-01
       -1   -1    0    0    0  501  0.00000000000E+00  0.00000000000E+00  0.83767201677E+03  0.83767201679E+03  0.50400001928E-02 0.  1.
        1   -1    0    0  501    0  0.00000000000E+00  0.00000000000E+00 -0.36169420368E+03  0.36169420372E+03  0.50400001928E-02 0. -1.
    10030    2    1    2    0    0  0.00000000000E+00  0.00000000000E+00  0.47597781309E+03  0.11993662205E+04  0.11008744035E+04 0.  0.
        3    1    3    3  502    0 -0.47562391843E+03 -0.27989230309E+01 -0.63844858777E+02  0.47989803287E+03  0.10100000352E+00 0. -1.
       -3    1    3    3    0  502  0.47562391843E+03  0.27989230309E+01  0.53982267187E+03  0.71946818764E+03  0.10100000352E+00 0.  1.
</event>
<event>
 5   0  0.3706035E-03  0.1241627E+04  0.7818609E-02  0.9077181E-01
        2   -1    0    0  501    0  0.00000000000E+00  0.00000000000E+00  0.39467571921E+03  0.39467571921E+03  0.25500000920E-02 0.  1.
       -2   -1    0    0    0  501  0.00000000000E+00  0.00000000000E+00 -0.97652144978E+03  0.97652144978E+03  0.25500000920E-02 0. -1.
    10030    2    1    2    0    0  0.00000000000E+00  0.00000000000E+00 -0.58184573057E+03  0.13711971690E+04  0.12416268449E+04 0.  0.
        2    1    3    3  502    0 -0.45429457355E+03 -0.12673000766E+03  0.15489382073E+03  0.49642335774E+03  0.25500000920E-02 0.  1.
       -2    1    3    3    0  502  0.45429457355E+03  0.12673000766E+03 -0.73673955130E+03  0.87477381126E+03  0.25500000920E-02 0. -1.
</event>
<event>
 5   0  0.3725376E-03  0.1193306E+04  0.7818609E-02  0.9118736E-01
       -2   -1    0    0    0  501  0.00000000000E+00  0.00000000000E+00  0.28487242025E+03  0.28487242026E+03  0.25500000920E-02 0.  1.
        2   -1    0    0  501    0  0.00000000000E+00  0.00000000000E+00 -0.12496647504E+04  0.12496647504E+04  0.25500000920E-02 0. -1.
    10030    2    1    2    0    0  0.00000000000E+00  0.00000000000E+00 -0.96479233016E+03  0.15345371707E+04  0.11933063680E+04 0.  0.
        4    1    3    3  502    0 -0.37816617383E+03  0.23424935924E+03 -0.99373230173E+03  0.10887552148E+04  0.12699999809E+01 0. -1.
       -4    1    3    3    0  502  0.37816617383E+03 -0.23424935924E+03  0.28939971565E+02  0.44578195588E+03  0.12699999809E+01 0.  1.
</event>
<event>
 5   0  0.2078258E-03  0.1195426E+04  0.7818609E-02  0.9116869E-01
       -1   -1    0    0    0  501  0.00000000000E+00  0.00000000000E+00  0.62990532614E+03  0.62990532616E+03  0.50400001928E-02 0.  1.
        1   -1    0    0  501    0  0.00000000000E+00  0.00000000000E+00 -0.56716625174E+03  0.56716625176E+03  0.50400001928E-02 0. -1.
    10030    2    1    2    0    0  0.00000000000E+00  0.00000000000E+00  0.62739074401E+02  0.11970715779E+04  0.11954263554E+04 0.  0.
        3    1    3    3  502    0 -0.35271880263E+03  0.91138330018E+02 -0.44314365915E+03  0.57366633314E+03  0.10100000352E+00 0. -1.
       -3    1    3    3    0  502  0.35271880263E+03 -0.91138330018E+02  0.50588273355E+03  0.62340524479E+03  0.10100000352E+00 0.  1.
</event>
<event>
 5   0  0.3706035E-03  0.1184764E+04  0.7818609E-02  0.9126298E-01
       -2   -1    0    0    0  501  0.00000000000E+00  0.00000000000E+00  0.55044155636E+03  0.55044155636E+03  0.25500000920E-02 0.  1.
        2   -1    0    0  501    0  0.00000000000E+00  0.00000000000E+00 -0.63751811114E+03  0.63751811114E+03  0.25500000920E-02 0. -1.
    10030    2    1    2    0    0  0.00000000000E+00  0.00000000000E+00 -0.87076554783E+02  0.11879596675E+04  0.11847640462E+04 0.  0.
        2    1    3    3  502    0  0.10968302282E+03 -0.53560125739E+03  0.18515010573E+03  0.57721714638E+03  0.25500000920E-02 0.  1.
       -2    1    3    3    0  502 -0.10968302282E+03  0.53560125739E+03 -0.27222666051E+03  0.61074252113E+03  0.25500000920E-02 0. -1.
</event>
<event>
 5   0  0.3725376E-03  0.1180518E+04  0.7818609E-02  0.9130082E-01
        2   -1    0    0  501    0  0.00000000000E+00  0.00000000000E+00  0.22500145224E+04  0.22500145224E+04  0.25500000920E-02 0.  1.
       -2   -1    0    0    0  501  0.00000000000E+00  0.00000000000E+00 -0.15484609224E+03  0.15484609226E+03  0.25500000920E-02 0. -1.
    10030    2    1    2    0    0  0.00000000000E+00  0.00000000000E+00  0.20951684301E+04  0.24048606146E+04  0.11805184561E+04 0.  0.
        4    1    3    3  502    0  0.41372006720E+02 -0.54425904653E+03  0.58991216377E+03  0.80369616555E+03  0.12699999809E+01 0. -1.
       -4    1    3    3    0  502 -0.41372006720E+02  0.54425904653E+03  0.15052562664E+04  0.16011644491E+04  0.12699999809E+01 0.  1.
</event>
<event>
 5   0  0.3650180E-03  0.1375673E+04  0.7818609E-02  0.8971618E-01
        2   -1    0    0  501    0  0.00000000000E+00  0.00000000000E+00  0.15913851326E+04  0.15913851326E+04  0.25500000920E-02 0. -1.
       -2   -1    0    0    0  501  0.00000000000E+00  0.00000000000E+00 -0.29730022831E+03  0.29730022832E+03  0.25500000920E-02 0.  1.
    10030    2    1    2    0    0  0.00000000000E+00  0.00000000000E+00  0.12940849042E+04  0.18886853609E+04  0.13756731636E+04 0.  0.
        3    1    3    3  502    0 -0.16484293639E+03  0.41060386243E+03  0.13700765332E+04  0.14397494374E+04  0.10100000352E+00 0. -1.
       -3    1    3    3    0  502  0.16484293639E+03 -0.41060386243E+03 -0.75991628935E+02  0.44893592348E+03  0.10100000352E+00 0.  1.
</event>
<event>
 5   0  0.2078258E-03  0.1202726E+04  0.7818609E-02  0.9110474E-01
        1   -1    0    0  501    0  0.00000000000E+00  0.00000000000E+00  0.11777870472E+04  0.11777870472E+04  0.50400001928E-02 0. -1.
       -1   -1    0    0    0  501  0.00000000000E+00  0.00000000000E+00 -0.30704811242E+03  0.30704811246E+03  0.50400001928E-02 0.  1.
    10030    2    1    2    0    0  0.00000000000E+00  0.00000000000E+00  0.87073893479E+03  0.14848351597E+04  0.12027257205E+04 0.  0.
        3    1    3    3  502    0  0.30293656753E+03  0.44177812932E+03  0.97951304282E+02  0.54454838876E+03  0.10100000352E+00 0.  1.
       -3    1    3    3    0  502 -0.30293656753E+03 -0.44177812932E+03  0.77278763051E+03  0.94028677091E+03  0.10100000352E+00 0. -1.
</event>
<event>
 5   0  0.3706035E-03  0.1201158E+04  0.7818609E-02  0.9111843E-01
       -2   -1    0    0    0  501  0.00000000000E+00  0.00000000000E+00  0.77606887857E+03  0.77606887857E+03  0.25500000920E-02 0.  1.
        2   -1    0    0  501    0  0.00000000000E+00  0.00000000000E+00 -0.46477221555E+03  0.46477221556E+03  0.25500000920E-02 0. -1.
    10030    2    1    2    0    0  0.00000000000E+00  0.00000000000E+00  0.31129666302E+03  0.12408410941E+04  0.12011581946E+04 0.  0.
        2    1    3    3  502    0 -0.10880068864E+03 -0.38714295532E+03 -0.30515804918E+03  0.50481550361E+03  0.25500000920E-02 0. -1.
       -2    1    3    3    0  502  0.10880068864E+03  0.38714295532E+03  0.61645471220E+03  0.73602559052E+03  0.25500000920E-02 0.  1.
</event>
<event>
 5   0  0.1397500E-03  0.1214751E+04  0.7818609E-02  0.9100042E-01
       -3   -1    0    0    0  501  0.00000000000E+00  0.00000000000E+00  0.13825177807E+04  0.13825177844E+04  0.10100000352E+00 0.  1.
        3   -1    0    0  501    0  0.00000000000E+00  0.00000000000E+00 -0.26683579696E+03  0.26683581607E+03  0.10100000352E+00 0. -1.
    10030    2    1    2    0    0  0.00000000000E+00  0.00000000000E+00  0.11156819837E+04  0.16493536004E+04  0.12147514192E+04 0.  0.
        2    1    3    3  502    0  0.55797723569E+03  0.59875032644E+02  0.24237729743E+03  0.61128583282E+03  0.25500000920E-02 0. -1.
       -2    1    3    3    0  502 -0.55797723569E+03 -0.59875032644E+02  0.87330468627E+03  0.10380677676E+04  0.25500000920E-02 0.  1.
</event>
<event>
 5   0  0.2134992E-03  0.1196081E+04  0.7818609E-02  0.9116294E-01
        1   -1    0    0  501    0  0.00000000000E+00  0.00000000000E+00  0.90624882246E+03  0.90624882247E+03  0.50400001928E-02 0.  1.
       -1   -1    0    0    0  501  0.00000000000E+00  0.00000000000E+00 -0.39465158034E+03  0.39465158038E+03  0.50400001928E-02 0. -1.
    10030    2    1    2    0    0  0.00000000000E+00  0.00000000000E+00  0.51159724211E+03  0.13009004028E+04  0.11960811511E+04 0.  0.
        4    1    3    3  502    0 -0.21866061130E+03  0.42356584361E+03 -0.13700263265E+03  0.49597562547E+03  0.12699999809E+01 0. -1.
       -4    1    3    3    0  502  0.21866061130E+03 -0.42356584361E+03  0.64859987476E+03  0.80492477738E+03  0.12699999809E+01 0.  1.
</event>
<event>
 5   0  0.3706035E-03  0.1221885E+04  0.7818609E-02  0.9093914E-01
       -2   -1    0    0    0  501  0.00000000000E+00  0.00000000000E+00  0.25538407484E+03  0.25538407485E+03  0.25500000920E-02 0. -1.
        2   -1    0    0  501    0  0.00000000000E+00  0.00000000000E+00 -0.14615264239E+04  0.14615264240E+04  0.25500000920E-02 0.  1.
    10030    2    1    2    0    0  0.00000000000E+00  0.00000000000E+00 -0.12061423491E+04  0.17169104988E+04  0.12218847305E+04 0.  0.
        2    1    3    3  502    0  0.22189218788E+03 -0.96870591369E+02  0.18509509016E+03  0.30476260749E+03  0.25500000920E-02 0. -1.
       -2    1    3    3    0  502 -0.22189218788E+03  0.96870591369E+02 -0.13912374393E+04  0.14121478913E+04  0.25500000920E-02 0.  1.
</event>
<event>
 5   0  0.2025294E-03  0.1202559E+04  0.7818609E-02  0.9110620E-01
        1   -1    0    0  501    0  0.00000000000E+00  0.00000000000E+00  0.35221518320E+03  0.35221518324E+03  0.50400001928E-02 0.  1.
       -1   -1    0    0    0  501  0.00000000000E+00  0.00000000000E+00 -0.10264655500E+04  0.10264655500E+04  0.50400001928E-02 0. -1.
    10030    2    1    2    0    0  0.00000000000E+00  0.00000000000E+00 -0.67425036681E+03  0.13786807333E+04  0.12025585254E+04 0.  0.
        5    1    3    3  502    0 -0.45790028344E+02  0.54146806224E+03 -0.42081883752E+02  0.54504803831E+03  0.46999998093E+01 0. -1.
       -5    1    3    3    0  502  0.45790028344E+02 -0.54146806224E+03 -0.63216848305E+03  0.83363269495E+03  0.46999998093E+01 0.  1.
</event>
<event>
 5   0  0.2025294E-03  0.1199198E+04  0.7818609E-02  0.9113559E-01
       -1   -1    0    0    0  501  0.00000000000E+00  0.00000000000E+00  0.18828271912E+03  0.18828271918E+03  0.50400001928E-02 0. -1.
        1   -1    0    0  501    0  0.00000000000E+00  0.00000000000E+00 -0.19094622676E+04  0.19094622676E+04  0.50400001928E-02 0.  1.
    10030    2    1    2    0    0  0.00000000000E+00  0.00000000000E+00 -0.17211795485E+04  0.20977449868E+04  0.11991976449E+04 0.  0.
        5    1    3    3  502    0 -0.56703890624E+03 -0.17841725743E+03 -0.99755842248E+03  0.11612539495E+04  0.46999998093E+01 0.  1.
       -5    1    3    3    0  502  0.56703890624E+03  0.17841725743E+03 -0.72362112597E+03  0.93649103727E+03  0.46999998093E+01 0. -1.
</event>
<event>
 5   0  0.2078258E-03  0.1004247E+04  0.7818609E-02  0.9303899E-01
       -1   -1    0    0    0  501  0.00000000000E+00  0.00000000000E+00  0.23140224008E+03  0.23140224013E+03  0.50400001928E-02 0. -1.
        1   -1    0    0  501    0  0.00000000000E+00  0.00000000000E+00 -0.10895663455E+04  0.10895663455E+04  0.50400001928E-02 0.  1.
    10030    2    1    2    0    0  0.00000000000E+00  0.00000000000E+00 -0.85816410543E+03  0.13209685857E+04  0.10042471670E+04 0.  0.
        3    1    3    3  502    0  0.32080277290E+03 -0.32190446526E+03 -0.14822050397E+03  0.47802325451E+03  0.10100000352E+00 0.  1.
       -3    1    3    3    0  502 -0.32080277290E+03  0.32190446526E+03 -0.70994360146E+03  0.84294533115E+03  0.10100000352E+00 0. -1.
</event>
<event>
 5   0  0.2096270E-03  0.1177243E+04  0.7818609E-02  0.9133012E-01
       -1   -1    0    0    0  501  0.00000000000E+00  0.00000000000E+00  0.52733788947E+03  0.52733788950E+03  0.50400001928E-02 0. -1.
        1   -1    0    0  501    0  0.00000000000E+00  0.00000000000E+00 -0.65702700320E+03  0.65702700322E+03  0.50400001928E-02 0.  1.
    10030    2    1    2    0    0  0.00000000000E+00  0.00000000000E+00 -0.12968911373E+03  0.11843648927E+04  0.11772429371E+04 0.  0.
        2    1    3    3  502    0  0.53896061231E+03 -0.12254595460E+03  0.13881325204E+03  0.56988171716E+03  0.25500000920E-02 0. -1.
       -2    1    3    3    0  502 -0.53896061231E+03  0.12254595460E+03 -0.26850236577E+03  0.61448317555E+03  0.25500000920E-02 0.  1.
</event>
<event>
 5   0  0.3751091E-03  0.1214734E+04  0.7818609E-02  0.9100056E-01
        2   -1    0    0  501    0  0.00000000000E+00  0.00000000000E+00  0.60775467135E+03  0.60775467136E+03  0.25500000920E-02 0.  1.
       -2   -1    0    0    0  501  0.00000000000E+00  0.00000000000E+00 -0.60697994697E+03  0.60697994698E+03  0.25500000920E-02 0. -1.
    10030    2    1    2    0    0  0.00000000000E+00  0.00000000000E+00  0.77472437799E+00  0.12147346183E+04  0.12147343713E+04 0.  0.
        5    1    3    3  502    0  0.29006829809E+03  0.27215816902E+03  0.45936797983E+03  0.60766003440E+03  0.46999998093E+01 0.  1.
       -5    1    3    3    0  502 -0.29006829809E+03 -0.27215816902E+03 -0.45859325545E+03  0.60707458394E+03  0.46999998093E+01 0. -1.
</event>
<event>
 5   0  0.2134992E-03  0.1196653E+04  0.7818609E-02  0.9115791E-01
       -1   -1    0    0    0  501  0.00000000000E+00  0.00000000000E+00  0.26370000726E+03  0.26370000731E+03  0.50400001928E-02 0.  1.
        1   -1    0    0  501    0  0.00000000000E+00  0.00000000000E+00 -0.13575833800E+04  0.13575833800E+04  0.50400001928E-02 0. -1.
    10030    2    1    2    0    0  0.00000000000E+00  0.00000000000E+00 -0.10938833728E+04  0.16212833873E+04  0.11966532450E+04 0.  0.
        4    1    3    3  502    0  0.28422776793E+03 -0.52552510736E+03 -0.50343709829E+03  0.78128905493E+03  0.12699999809E+01 0.  1.
       -4    1    3    3    0  502 -0.28422776793E+03  0.52552510736E+03 -0.59044627449E+03  0.83999433241E+03  0.12699999809E+01 0. -1.
</event>
<event>
 5   0  0.2025294E-03  0.1383693E+04  0.7818609E-02  0.8965708E-01
        1   -1    0    0  501    0  0.00000000000E+00  0.00000000000E+00  0.14530835935E+04  0.14530835935E+04  0.50400001928E-02 0.  1.
       -1   -1    0    0    0  501  0.00000000000E+00  0.00000000000E+00 -0.32940402115E+03  0.32940402119E+03  0.50400001928E-02 0. -1.
    10030    2    1    2    0    0  0.00000000000E+00  0.00000000000E+00  0.11236795724E+04  0.17824876147E+04  0.13836929989E+04 0.  0.
        5    1    3    3  502    0 -0.39633694871E+03  0.15910816846E+03  0.12629755251E+04  0.13332395333E+04  0.46999998093E+01 0.  1.
       -5    1    3    3    0  502  0.39633694871E+03 -0.15910816846E+03 -0.13929595275E+03  0.44924808139E+03  0.46999998093E+01 0. -1.
</event>
<event>
 5   0  0.3706035E-03  0.1191036E+04  0.7818609E-02  0.9120739E-01
       -2   -1    0    0    0  501  0.00000000000E+00  0.00000000000E+00  0.15738178964E+03  0.15738178966E+03  0.25500000920E-02 0. -1.
        2   -1    0    0  501    0  0.00000000000E+00  0.00000000000E+00 -0.22533859540E+04  0.22533859540E+04  0.25500000920E-02 0.  1.
    10030    2    1    2    0    0  0.00000000000E+00  0.00000000000E+00 -0.20960041644E+04  0.24107677437E+04  0.11910363793E+04 0.  0.
        2    1    3    3  502    0 -0.14006307758E+03 -0.51534497662E+03 -0.15813948159E+04  0.16691338096E+04  0.25500000920E-02 0.  1.
       -2    1    3    3    0  502  0.14006307758E+03  0.51534497662E+03 -0.51460934855E+03  0.74163393413E+03  0.25500000920E-02 0. -1.
</event>
<event>
 5   0  0.2096270E-03  0.1206246E+04  0.7818609E-02  0.9107407E-01
        1   -1    0    0  501    0  0.00000000000E+00  0.00000000000E+00  0.49445622930E+03  0.49445622932E+03  0.50400001928E-02 0. -1.
       -1   -1    0    0    0  501  0.00000000000E+00  0.00000000000E+00 -0.73567106391E+03  0.73567106392E+03  0.50400001928E-02 0.  1.
    10030    2    1    2    0    0  0.00000000000E+00  0.00000000000E+00 -0.24121483461E+03  0.12301272932E+04  0.12062456471E+04 0.  0.
        2    1    3    3  502    0 -0.36741644745E+03 -0.28707977748E+03 -0.51073525713E+03  0.69156355267E+03  0.25500000920E-02 0.  1.
       -2    1    3    3    0  502  0.36741644745E+03  0.28707977748E+03  0.26952042252E+03  0.53856374057E+03  0.25500000920E-02 0. -1.
</event>
<event>
 5   0  0.3751091E-03  0.1200753E+04  0.7818609E-02  0.9112198E-01
        2   -1    0    0  501    0  0.00000000000E+00  0.00000000000E+00  0.11045812163E+04  0.11045812163E+04  0.25500000920E-02 0.  1.
       -2   -1    0    0    0  501  0.00000000000E+00  0.00000000000E+00 -0.32632441603E+03  0.32632441604E+03  0.25500000920E-02 0. -1.
    10030    2    1    2    0    0  0.00000000000E+00  0.00000000000E+00  0.77825680024E+03  0.14309056323E+04  0.12007527978E+04 0.  0.
        5    1    3    3  502    0  0.24649088945E+03 -0.32642960478E+03  0.91280860789E+03  0.10002778065E+04  0.46999998093E+01 0.  1.
       -5    1    3    3    0  502 -0.24649088945E+03  0.32642960478E+03 -0.13455180765E+03  0.43062782586E+03  0.46999998093E+01 0. -1.
</event>
<event>
 5   0  0.2047109E-03  0.1221432E+04  0.7818609E-02  0.9094302E-01
       -1   -1    0    0    0  501  0.00000000000E+00  0.00000000000E+00  0.30434161252E+03  0.30434161257E+03  0.50400001928E-02 0.  1.
        1   -1    0    0  501    0  0.00000000000E+00  0.00000000000E+00 -0.12255101607E+04  0.12255101607E+04  0.50400001928E-02 0. -1.
    10030    2    1    2    0    0  0.00000000000E+00  0.00000000000E+00 -0.92116854813E+03  0.15298517732E+04  0.12214315183E+04 0.  0.
        1    1    3    3  502    0  0.28293387690E+02 -0.37745096402E+03 -0.10608789665E+04  0.11263808981E+04  0.50400001928E-02 0. -1.
       -1    1    3    3    0  502 -0.28293387690E+02  0.37745096402E+03  0.13971041839E+03  0.40347087511E+03  0.50400001928E-02 0.  1.
</event>
<event>
 5   0  0.3650180E-03  0.1201548E+04  0.7818609E-02  0.9111502E-01
        2   -1    0    0  501    0  0.00000000000E+00  0.00000000000E+00  0.66277675167E+03  0.66277675168E+03  0.25500000920E-02 0.  1.
       -2   -1    0    0    0  501  0.00000000000E+00  0.00000000000E+00 -0.54457187025E+03  0.54457187026E+03  0.25500000920E-02 0. -1.
    10030    2    1    2    0    0  0.00000000000E+00  0.00000000000E+00  0.11820488142E+03  0.12073486219E+04  0.12015482932E+04 0.  0.
        3    1    3    3  502    0  0.28138534763E+03  0.55355899516E+02  0.58955953695E+03  0.65560845577E+03  0.10100000352E+00 0.  1.
       -3    1    3    3    0  502 -0.28138534763E+03 -0.55355899516E+02 -0.47135465553E+03  0.55174016617E+03  0.10100000352E+00 0. -1.
</event>
<event>
 5   0  0.3751091E-03  0.1194545E+04  0.7818609E-02  0.9117645E-01
       -2   -1    0    0    0  501  0.00000000000E+00  0.00000000000E+00  0.21673470046E+03  0.21673470048E+03  0.25500000920E-02 0. -1.
        2   -1    0    0  501    0  0.00000000000E+00  0.00000000000E+00 -0.16459499798E+04  0.16459499798E+04  0.25500000920E-02 0.  1.
    10030    2    1    2    0    0  0.00000000000E+00  0.00000000000E+00 -0.14292152793E+04  0.18626846803E+04  0.11945450613E+04 0.  0.
        5    1    3    3  502    0  0.29138136772E+03 -0.19194276346E+03  0.41250826482E+02  0.35138134068E+03  0.46999998093E+01 0. -1.
       -5    1    3    3    0  502 -0.29138136772E+03  0.19194276346E+03 -0.14704661058E+04  0.15113033396E+04  0.46999998093E+01 0.  1.
</event>
<event>
 5   0  0.2047109E-03  0.1191035E+04  0.7818609E-02  0.9120740E-01
       -1   -1    0    0    0  501  0.00000000000E+00  0.00000000000E+00  0.48695308719E+03  0.48695308722E+03  0.50400001928E-02 0.  1.
        1   -1    0    0  501    0  0.00000000000E+00  0.00000000000E+00 -0.72828540374E+03  0.72828540376E+03  0.50400001928E-02 0. -1.
    10030    2    1    2    0    0  0.00000000000E+00  0.00000000000E+00 -0.24133231655E+03  0.12152384910E+04  0.11910345515E+04 0.  0.
        1    1    3    3  502    0  0.53776333155E+03  0.24644954200E+03 -0.19072035628E+03  0.62153119941E+03  0.50400001928E-02 0. -1.
       -1    1    3    3    0  502 -0.53776333155E+03 -0.24644954200E+03 -0.50611960269E+02  0.59370729157E+03  0.50400001928E-02 0.  1.
</event>
<event>
 5   0  0.3706035E-03  0.1197440E+04  0.7818609E-02  0.9115100E-01
        2   -1    0    0  501    0  0.00000000000E+00  0.00000000000E+00  0.25123787630E+04  0.25123787630E+04  0.25500000920E-02 0. -1.
       -2   -1    0    0    0  501  0.00000000000E+00  0.00000000000E+00 -0.14267986018E+03  0.14267986021E+03  0.25500000920E-02 0.  1.
    10030    2    1    2    0    0  0.00000000000E+00  0.00000000000E+00  0.23696989028E+04  0.26550586232E+04  0.11974403545E+04 0.  0.
        2    1    3    3  502    0 -0.53377163698E+03 -0.10914928074E+03  0.63435622565E+03  0.83620185778E+03  0.25500000920E-02 0.  1.
       -2    1    3    3    0  502  0.53377163698E+03  0.10914928074E+03  0.17353426771E+04  0.18188567654E+04  0.25500000920E-02 0. -1.
</event>
<event>
 5   0  0.3751091E-03  0.1292819E+04  0.7818609E-02  0.9035279E-01
       -2   -1    0    0    0  501  0.00000000000E+00  0.00000000000E+00  0.24065073035E+03  0.24065073037E+03  0.25500000920E-02 0.  1.
        2   -1    0    0  501    0  0.00000000000E+00  0.00000000000E+00 -0.17363139221E+04  0.17363139221E+04  0.25500000920E-02 0. -1.
    10030    2    1    2    0    0  0.00000000000E+00  0.00000000000E+00 -0.14956631918E+04  0.19769646525E+04  0.12928189564E+04 0.  0.
        5    1    3    3  502    0  0.32489275305E+03 -0.49819727668E+03 -0.36077061728E+03  0.69565318641E+03  0.46999998093E+01 0.  1.
       -5    1    3    3    0  502 -0.32489275305E+03  0.49819727668E+03 -0.11348925745E+04  0.12813114661E+04  0.46999998093E+01 0. -1.
</event>
<event>
 5   0  0.2096270E-03  0.1225115E+04  0.7818609E-02  0.9091153E-01
       -1   -1    0    0    0  501  0.00000000000E+00  0.00000000000E+00  0.45905693445E+03  0.45905693448E+03  0.50400001928E-02 0.  1.
        1   -1    0    0  501    0  0.00000000000E+00  0.00000000000E+00 -0.81738659425E+03  0.81738659427E+03  0.50400001928E-02 0. -1.
    10030    2    1    2    0    0  0.00000000000E+00  0.00000000000E+00 -0.35832965980E+03  0.12764435288E+04  0.12251154790E+04 0.  0.
        2    1    3    3  502    0  0.30880449159E+03 -0.43943362498E+03 -0.48606456431E+03  0.72437620439E+03  0.25500000920E-02 0. -1.
       -2    1    3    3    0  502 -0.30880449159E+03  0.43943362498E+03  0.12773490451E+03  0.55206732436E+03  0.25500000920E-02 0.  1.
</event>
<event>
 5   0  0.3751091E-03  0.1274439E+04  0.7818609E-02  0.9050085E-01
        2   -1    0    0  501    0  0.00000000000E+00  0.00000000000E+00  0.66372548497E+03  0.66372548497E+03  0.25500000920E-02 0. -1.
       -2   -1    0    0    0  501  0.00000000000E+00  0.00000000000E+00 -0.61177196579E+03  0.61177196579E+03  0.25500000920E-02 0.  1.
    10030    2    1    2    0    0  0.00000000000E+00  0.00000000000E+00  0.51953519178E+02  0.12754974508E+04  0.12744389270E+04 0.  0.
        5    1    3    3  502    0  0.11437646313E+03 -0.15792925980E+03 -0.58115954638E+03  0.61301886983E+03  0.46999998093E+01 0.  1.
       -5    1    3    3    0  502 -0.11437646313E+03  0.15792925980E+03  0.63311306556E+03  0.66247858094E+03  0.46999998093E+01 0. -1.
</event>
<event>
 5   0  0.2134992E-03  0.1238060E+04  0.7818609E-02  0.9080180E-01
       -1   -1    0    0    0  501  0.00000000000E+00  0.00000000000E+00  0.13196499327E+04  0.13196499327E+04  0.50400001928E-02 0.  1.
        1   -1    0    0  501    0  0.00000000000E+00  0.00000000000E+00 -0.29037845931E+03  0.29037845935E+03  0.50400001928E-02 0. -1.
    10030    2    1    2    0    0  0.00000000000E+00  0.00000000000E+00  0.10292714734E+04  0.16100283920E+04  0.12380596340E+04 0.  0.
        4    1    3    3  502    0 -0.37937753488E+03 -0.48163805077E+03  0.40357305216E+03  0.73401317920E+03  0.12699999809E+01 0.  1.
       -4    1    3    3    0  502  0.37937753488E+03  0.48163805077E+03  0.62569842121E+03  0.87601521284E+03  0.12699999809E+01 0. -1.
</event>
<event>
 5   0  0.2025294E-03  0.1177564E+04  0.7818609E-02  0.9132725E-01
        1   -1    0    0  501    0  0.00000000000E+00  0.00000000000E+00  0.40590430261E+03  0.40590430264E+03  0.50400001928E-02 0. -1.
       -1   -1    0    0    0  501  0.00000000000E+00  0.00000000000E+00 -0.85405370013E+03  0.85405370014E+03  0.50400001928E-02 0.  1.
    10030    2    1    2    0    0  0.00000000000E+00  0.00000000000E+00 -0.44814939752E+03  0.12599580028E+04  0.11775637079E+04 0.  0.
        5    1    3    3  502    0 -0.34098325824E+03 -0.23706954401E+03  0.22246376050E+03  0.47115153171E+03  0.46999998093E+01 0. -1.
       -5    1    3    3    0  502  0.34098325824E+03  0.23706954401E+03 -0.67061315802E+03  0.78880647107E+03  0.46999998093E+01 0.  1.
</event>
<event>
 5   0  0.2025294E-03  0.1183771E+04  0.7818609E-02  0.9127181E-01
        1   -1    0    0  501    0  0.00000000000E+00  0.00000000000E+00  0.88692357806E+03  0.88692357807E+03  0.50400001928E-02 0. -1.
       -1   -1    0    0    0  501  0.00000000000E+00  0.00000000000E+00 -0.39499306846E+03  0.39499306849E+03  0.50400001928E-02 0.  1.
    10030    2    1    2    0    0  0.00000000000E+00  0.00000000000E+00  0.49193050960E+03  0.12819166466E+04  0.11837713725E+04 0.  0.
        5    1    3    3  502    0  0.94598041443E+02 -0.34285471875E+03  0.75827211620E+03  0.83755408173E+03  0.46999998093E+01 0. -1.
       -5    1    3    3    0  502 -0.94598041443E+02  0.34285471875E+03 -0.26634160660E+03  0.44436256483E+03  0.46999998093E+01 0.  1.
</event>
<event>
 5   0  0.1397500E-03  0.1175149E+04  0.7818609E-02  0.9134891E-01
       -3   -1    0    0    0  501  0.00000000000E+00  0.00000000000E+00  0.32841151657E+03  0.32841153210E+03  0.10100000352E+00 0.  1.
        3   -1    0    0  501    0  0.00000000000E+00  0.00000000000E+00 -0.10512539904E+04  0.10512539952E+04  0.10100000352E+00 0. -1.
    10030    2    1    2    0    0  0.00000000000E+00  0.00000000000E+00 -0.72284247382E+03  0.13796655273E+04  0.11751492354E+04 0.  0.
        2    1    3    3  502    0  0.13179316528E+03 -0.34671428860E+03  0.17358775259E+03  0.40952770870E+03  0.25500000920E-02 0. -1.
       -2    1    3    3    0  502 -0.13179316528E+03  0.34671428860E+03 -0.89643022640E+03  0.97013781864E+03  0.25500000920E-02 0.  1.
</event>
<event>
 5   0  0.3650180E-03  0.1180136E+04  0.7818609E-02  0.9130423E-01
       -2   -1    0    0    0  501  0.00000000000E+00  0.00000000000E+00  0.12493145767E+04  0.12493145767E+04  0.25500000920E-02 0.  1.
        2   -1    0    0  501    0  0.00000000000E+00  0.00000000000E+00 -0.27869721080E+03  0.27869721081E+03  0.25500000920E-02 0. -1.
    10030    2    1    2    0    0  0.00000000000E+00  0.00000000000E+00  0.97061736591E+03  0.15280117875E+04  0.11801364124E+04 0.  0.
        3    1    3    3  502    0 -0.51569683037E+02  0.32165373713E+03 -0.15171552394E+03  0.35935799591E+03  0.10100000352E+00 0. -1.
       -3    1    3    3    0  502  0.51569683037E+02 -0.32165373713E+03  0.11223328898E+04  0.11686537916E+04  0.10100000352E+00 0.  1.
</event>
<event>
 5   0  0.2025294E-03  0.1204172E+04  0.7818609E-02  0.9109212E-01
        1   -1    0    0  501    0  0.00000000000E+00  0.00000000000E+00  0.13176247886E+04  0.13176247886E+04  0.50400001928E-02 0. -1.
       -1   -1    0    0    0  501  0.00000000000E+00  0.00000000000E+00 -0.27512217546E+03  0.27512217550E+03  0.50400001928E-02 0.  1.
    10030    2    1    2    0    0  0.00000000000E+00  0.00000000000E+00  0.10425026132E+04  0.15927469641E+04  0.12041724101E+04 0.  0.
        5    1    3    3  502    0 -0.43685851995E+03  0.41270834062E+03  0.56916423833E+03  0.82773399173E+03  0.46999998093E+01 0.  1.
       -5    1    3    3    0  502  0.43685851995E+03 -0.41270834062E+03  0.47333837485E+03  0.76501297242E+03  0.46999998093E+01 0. -1.
</event>
<event>
 5   0  0.2025294E-03  0.1162239E+04  0.7818609E-02  0.9146566E-01
       -1   -1    0    0    0  501  0.00000000000E+00  0.00000000000E+00  0.40078008782E+03  0.40078008785E+03  0.50400001928E-02 0. -1.
        1   -1    0    0  501    0  0.00000000000E+00  0.00000000000E+00 -0.84260665403E+03  0.84260665404E+03  0.50400001928E-02 0.  1.
    10030    2    1    2    0    0  0.00000000000E+00  0.00000000000E+00 -0.44182656621E+03  0.12433867419E+04  0.11622391644E+04 0.  0.
        5    1    3    3  502    0  0.28173943693E+03  0.49555923889E+03 -0.10024721370E+03  0.57881574220E+03  0.46999998093E+01 0. -1.
       -5    1    3    3    0  502 -0.28173943693E+03 -0.49555923889E+03 -0.34157935251E+03  0.66457099969E+03  0.46999998093E+01 0.  1.
</event>
<event>
 5   0  0.3650180E-03  0.1190641E+04  0.7818609E-02  0.9121088E-01
        2   -1    0    0  501    0  0.00000000000E+00  0.00000000000E+00  0.15152449072E+04  0.15152449072E+04  0.25500000920E-02 0. -1.
       -2   -1    0    0    0  501  0.00000000000E+00  0.00000000000E+00 -0.23389390518E+03  0.23389390519E+03  0.25500000920E-02 0.  1.
    10030    2    1    2    0    0  0.00000000000E+00  0.00000000000E+00  0.12813510021E+04  0.17491388124E+04  0.11906410856E+04 0.  0.
        3    1    3    3  502    0  0.77074537706E+02  0.20385220029E+03 -0.17318349479E+03  0.27836798845E+03  0.10100000352E+00 0.  1.
       -3    1    3    3    0  502 -0.77074537706E+02 -0.20385220029E+03  0.14545344968E+04  0.14707708240E+04  0.10100000352E+00 0. -1.
</event>
<event>
 5   0  0.3626049E-03  0.1197245E+04  0.7818609E-02  0.9115271E-01
        2   -1    0    0  501    0  0.00000000000E+00  0.00000000000E+00  0.56628488045E+03  0.56628488046E+03  0.25500000920E-02 0. -1.
       -2   -1    0    0    0  501  0.00000000000E+00  0.00000000000E+00 -0.63280717010E+03  0.63280717011E+03  0.25500000920E-02 0.  1.
    10030    2    1    2    0    0  0.00000000000E+00  0.00000000000E+00 -0.66522289652E+02  0.11990920506E+04  0.11972453929E+04 0.  0.
        1    1    3    3  502    0 -0.50186119638E+03 -0.32380111283E+03 -0.73787263489E+02  0.60179430155E+03  0.50400001928E-02 0.  1.
       -1    1    3    3    0  502  0.50186119638E+03  0.32380111283E+03  0.72649738368E+01  0.59729774901E+03  0.50400001928E-02 0. -1.
</event>
<event>
 5   0  0.3725376E-03  0.1189521E+04  0.7818609E-02  0.9122078E-01
       -2   -1    0    0    0  501  0.00000000000E+00  0.00000000000E+00  0.53368053602E+03  0.53368053603E+03  0.25500000920E-02 0. -1.
        2   -1    0    0  501    0  0.00000000000E+00  0.00000000000E+00 -0.66283148514E+03  0.66283148514E+03  0.25500000920E-02 0.  1.
    10030    2    1    2    0    0  0.00000000000E+00  0.00000000000E+00 -0.12915094912E+03  0.11965120212E+04  0.11895213530E+04 0.  0.
        4    1    3    3  502    0 -0.23650722824E+03  0.37187259634E+03  0.33716342877E+03  0.55489250086E+03  0.12699999809E+01 0. -1.
       -4    1    3    3    0  502  0.23650722824E+03 -0.37187259634E+03 -0.46631437788E+03  0.64161952030E+03  0.12699999809E+01 0.  1.
</event>
<event>
 5   0  0.2096270E-03  0.1232675E+04  0.7818609E-02  0.9084728E-01
        1   -1    0    0  501    0  0.00000000000E+00  0.00000000000E+00  0.12023408131E+04  0.12023408132E+04  0.50400001928E-02 0. -1.
       -1   -1    0    0    0  501  0.00000000000E+00  0.00000000000E+00 -0.31594348492E+03  0.31594348496E+03  0.50400001928E-02 0.  1.
    10030    2    1    2    0    0  0.00000000000E+00  0.00000000000E+00  0.88639732823E+03  0.15182842981E+04  0.12326747286E+04 0.  0.
        2    1    3    3  502    0  0.52140849362E+03 -0.30687387565E+03  0.58806529197E+03  0.84371747664E+03  0.25500000920E-02 0. -1.
       -2    1    3    3    0  502 -0.52140849362E+03  0.30687387565E+03  0.29833203626E+03  0.67456682147E+03  0.25500000920E-02 0.  1.
</event>
<event>
 5   0  0.3751091E-03  0.1194762E+04  0.7818609E-02  0.9117453E-01
       -2   -1    0    0    0  501  0.00000000000E+00  0.00000000000E+00  0.95201970955E+03  0.95201970955E+03  0.25500000920E-02 0. -1.
        2   -1    0    0  501    0  0.00000000000E+00  0.00000000000E+00 -0.37484964881E+03  0.37484964882E+03  0.25500000920E-02 0.  1.
    10030    2    1    2    0    0  0.00000000000E+00  0.00000000000E+00  0.57717006074E+03  0.13268693584E+04  0.11947623258E+04 0.  0.
        5    1    3    3  502    0 -0.40352794161E+03 -0.31746288882E+03 -0.50502713045E+02  0.51593613894E+03  0.46999998093E+01 0.  1.
       -5    1    3    3    0  502  0.40352794161E+03  0.31746288882E+03  0.62767277378E+03  0.81093321944E+03  0.46999998093E+01 0. -1.
</event>
<event>
 5   0  0.2134992E-03  0.1195536E+04  0.7818609E-02  0.9116773E-01
        1   -1    0    0  501    0  0.00000000000E+00  0.00000000000E+00  0.46479990662E+03  0.46479990665E+03  0.50400001928E-02 0. -1.
       -1   -1    0    0    0  501  0.00000000000E+00  0.00000000000E+00 -0.76877508258E+03  0.76877508260E+03  0.50400001928E-02 0.  1.
    10030    2    1    2    0    0  0.00000000000E+00  0.00000000000E+00 -0.30397517596E+03  0.12335749892E+04  0.11955360080E+04 0.  0.
        4    1    3    3  502    0  0.51787116765E+03 -0.13636667067E+02  0.15574403865E+03  0.54095685914E+03  0.12699999809E+01 0. -1.
       -4    1    3    3    0  502 -0.51787116765E+03  0.13636667067E+02 -0.45971921461E+03  0.69261813011E+03  0.12699999809E+01 0.  1.
</event>
<event>
 5   0  0.3626049E-03  0.1177819E+04  0.7818609E-02  0.9132496E-01
        2   -1    0    0  501    0  0.00000000000E+00  0.00000000000E+00  0.66847880441E+03  0.66847880442E+03  0.25500000920E-02 0.  1.
       -2   -1    0    0    0  501  0.00000000000E+00  0.00000000000E+00 -0.51881117703E+03  0.51881117704E+03  0.25500000920E-02 0. -1.
    10030    2    1    2    0    0  0.00000000000E+00  0.00000000000E+00  0.14966762738E+03  0.11872899815E+04  0.11778187897E+04 0.  0.
        1    1    3    3  502    0  0.16210201922E+03 -0.73959938566E+02 -0.49098825076E+03  0.52231848479E+03  0.50400001928E-02 0. -1.
       -1    1    3    3    0  502 -0.16210201922E+03  0.73959938566E+02  0.64065587814E+03  0.66497149666E+03  0.50400001928E-02 0.  1.
</event>
<event>
 5   0  0.1397500E-03  0.1213090E+04  0.7818609E-02  0.9101475E-01
        4   -1    0    0  501    0  0.00000000000E+00  0.00000000000E+00  0.65883516981E+03  0.65883639386E+03  0.12699999809E+01 0.  1.
       -4   -1    0    0    0  501  0.00000000000E+00  0.00000000000E+00 -0.55840262381E+03  0.55840406801E+03  0.12699999809E+01 0. -1.
    10030    2    1    2    0    0  0.00000000000E+00  0.00000000000E+00  0.10043254600E+03  0.12172404619E+04  0.12130901227E+04 0.  0.
        2    1    3    3  502    0  0.57898397832E+03  0.10694371581E+03 -0.96013252259E+02  0.59655506881E+03  0.25500000920E-02 0. -1.
       -2    1    3    3    0  502 -0.57898397832E+03 -0.10694371581E+03  0.19644579826E+03  0.62068539307E+03  0.25500000920E-02 0.  1.
</event>
<event>
 5   0  0.3706035E-03  0.1212497E+04  0.7818609E-02  0.9101988E-01
        2   -1    0    0  501    0  0.00000000000E+00  0.00000000000E+00  0.14539412392E+04  0.14539412392E+04  0.25500000920E-02 0.  1.
       -2   -1    0    0    0  501  0.00000000000E+00  0.00000000000E+00 -0.25278672153E+03  0.25278672155E+03  0.25500000920E-02 0. -1.
    10030    2    1    2    0    0  0.00000000000E+00  0.00000000000E+00  0.12011545176E+04  0.17067279607E+04  0.12124966625E+04 0.  0.
        2    1    3    3  502    0  0.21406369554E+03 -0.56419341065E+03  0.68264938186E+03  0.91112438719E+03  0.25500000920E-02 0.  1.
       -2    1    3    3    0  502 -0.21406369554E+03  0.56419341065E+03  0.51850513577E+03  0.79560357352E+03  0.25500000920E-02 0. -1.
</event>
<event>
 5   0  0.2047109E-03  0.1263764E+04  0.7818609E-02  0.9058804E-01
        1   -1    0    0  501    0  0.00000000000E+00  0.00000000000E+00  0.78233578646E+03  0.78233578648E+03  0.50400001928E-02 0. -1.
       -1   -1    0    0    0  501  0.00000000000E+00  0.00000000000E+00 -0.51036273414E+03  0.51036273416E+03  0.50400001928E-02 0.  1.
    10030    2    1    2    0    0  0.00000000000E+00  0.00000000000E+00  0.27197305232E+03  0.12926985206E+04  0.12637642676E+04 0.  0.
        1    1    3    3  502    0  0.21812385123E+03  0.30921475107E+03 -0.38164625281E+03  0.53744361478E+03  0.50400001928E-02 0.  1.
       -1    1    3    3    0  502 -0.21812385123E+03 -0.30921475107E+03  0.65361930513E+03  0.75525490586E+03  0.50400001928E-02 0. -1.
</event>
<event>
 5   0  0.2134992E-03  0.1205516E+04  0.7818609E-02  0.9108042E-01
       -1   -1    0    0    0  501  0.00000000000E+00  0.00000000000E+00  0.25314233690E+03  0.25314233695E+03  0.50400001928E-02 0. -1.
        1   -1    0    0  501    0  0.00000000000E+00  0.00000000000E+00 -0.14352298504E+04  0.14352298504E+04  0.50400001928E-02 0.  1.
    10030    2    1    2    0    0  0.00000000000E+00  0.00000000000E+00 -0.11820875135E+04  0.16883721874E+04  0.12055163846E+04 0.  0.
        4    1    3    3  502    0  0.47293349650E+03 -0.18711344158E+03 -0.13799974350E+03  0.52699437781E+03  0.12699999809E+01 0. -1.
       -4    1    3    3    0  502 -0.47293349650E+03  0.18711344158E+03 -0.10440877700E+04  0.11613778096E+04  0.12699999809E+01 0.  1.
</event>
<event>
 5   0  0.3706035E-03  0.1238466E+04  0.7818609E-02  0.9079838E-01
       -2   -1    0    0    0  501  0.00000000000E+00  0.00000000000E+00  0.11970172014E+04  0.11970172014E+04  0.25500000920E-02 0.  1.
        2   -1    0    0  501    0  0.00000000000E+00  0.00000000000E+00 -0.32033726760E+03  0.32033726761E+03  0.25500000920E-02 0. -1.
    10030    2    1    2    0    0  0.00000000000E+00  0.00000000000E+00  0.87667993384E+03  0.15173544691E+04  0.12384655338E+04 0.  0.
        2    1    3    3  502    0  0.27891688373E+03  0.40299824623E+03  0.90204936591E+03  0.10265940157E+04  0.25500000920E-02 0.  1.
       -2    1    3    3    0  502 -0.27891688373E+03 -0.40299824623E+03 -0.25369432080E+02  0.49076045336E+03  0.25500000920E-02 0. -1.
</event>
<event>
 5   0  0.3751091E-03  0.1208350E+04  0.7818609E-02  0.9105579E-01
       -2   -1    0    0    0  501  0.00000000000E+00  0.00000000000E+00  0.17927761481E+03  0.17927761483E+03  0.25500000920E-02 0. -1.
        2   -1    0    0  501    0  0.00000000000E+00  0.00000000000E+00 -0.20360999818E+04  0.20360999818E+04  0.25500000920E-02 0.  1.
    10030    2    1    2    0    0  0.00000000000E+00  0.00000000000E+00 -0.18568223670E+04  0.22153775966E+04  0.12083495327E+04 0.  0.
        5    1    3    3  502    0  0.28973255355E+03  0.25115496839E+03 -0.17843934902E+04  0.18251317729E+04  0.46999998093E+01 0.  1.
       -5    1    3    3    0  502 -0.28973255355E+03 -0.25115496839E+03 -0.72428876806E+02  0.39024582371E+03  0.46999998093E+01 0. -1.
</event>
<event>
 5   0  0.2134992E-03  0.1182319E+04  0.7818609E-02  0.9128475E-01
       -1   -1    0    0    0  501  0.00000000000E+00  0.00000000000E+00  0.51275975189E+03  0.51275975192E+03  0.50400001928E-02 0. -1.
        1   -1    0    0  501    0  0.00000000000E+00  0.00000000000E+00 -0.68154587248E+03  0.68154587250E+03  0.50400001928E-02 0.  1.
    10030    2    1    2    0    0  0.00000000000E+00  0.00000000000E+00 -0.16878612059E+03  0.11943056244E+04  0.11823185569E+04 0.  0.
        4    1    3    3  502    0  0.48187941094E+02  0.39359829268E+03  0.35848791014E+03  0.53456233340E+03  0.12699999809E+01 0. -1.
       -4    1    3    3    0  502 -0.48187941094E+02 -0.39359829268E+03 -0.52727403073E+03  0.65974329102E+03  0.12699999809E+01 0.  1.
</event>
<event>
 5   0  0.2096270E-03  0.1191542E+04  0.7818609E-02  0.9120292E-01
        1   -1    0    0  501    0  0.00000000000E+00  0.00000000000E+00  0.83690590324E+03  0.83690590326E+03  0.50400001928E-02 0.  1.
       -1   -1    0    0    0  501  0.00000000000E+00  0.00000000000E+00 -0.42411326304E+03  0.42411326307E+03  0.50400001928E-02 0. -1.
    10030    2    1    2    0    0  0.00000000000E+00  0.00000000000E+00  0.41279264020E+03  0.12610191663E+04  0.11915416795E+04 0.  0.
        2    1    3    3  502    0  0.82785854426E+02 -0.26395441720E+03  0.76481595947E+03  0.81330737358E+03  0.25500000920E-02 0.  1.
       -2    1    3    3    0  502 -0.82785854426E+02  0.26395441720E+03 -0.35202331927E+03  0.44771179275E+03  0.25500000920E-02 0. -1.
</event>
<event>
 5   0  0.3725376E-03  0.1206757E+04  0.7818609E-02  0.9106962E-01
       -2   -1    0    0    0  501  0.00000000000E+00  0.00000000000E+00  0.19598403539E+03  0.19598403541E+03  0.25500000920E-02 0. -1.
        2   -1    0    0  501    0  0.00000000000E+00  0.00000000000E+00 -0.18576299346E+04  0.18576299346E+04  0.25500000920E-02 0.  1.
    10030    2    1    2    0    0  0.00000000000E+00  0.00000000000E+00 -0.16616458992E+04  0.20536139700E+04  0.12067573258E+04 0.  0.
        4    1    3    3  502    0  0.28111425870E+03 -0.49540644898E+03 -0.49212771844E+03  0.75275765044E+03  0.12699999809E+01 0. -1.
       -4    1    3    3    0  502 -0.28111425870E+03  0.49540644898E+03 -0.11695181808E+04  0.13008563196E+04  0.12699999809E+01 0.  1.
</event>
<event>
 5   0  0.2025294E-03  0.1220634E+04  0.7818609E-02  0.9094985E-01
        1   -1    0    0  501    0  0.00000000000E+00  0.00000000000E+00  0.20361721370E+03  0.20361721377E+03  0.50400001928E-02 0. -1.
       -1   -1    0    0    0  501  0.00000000000E+00  0.00000000000E+00 -0.18293474867E+04  0.18293474867E+04  0.50400001928E-02 0.  1.
    10030    2    1    2    0    0  0.00000000000E+00  0.00000000000E+00 -0.16257302730E+04  0.20329647005E+04  0.12206336686E+04 0.  0.
        5    1    3    3  502    0 -0.55879914051E+03  0.80190909073E+01 -0.40441429863E+03  0.68985056367E+03  0.46999998093E+01 0.  1.
       -5    1    3    3    0  502  0.55879914051E+03 -0.80190909073E+01 -0.12213159744E+04  0.13431141368E+04  0.46999998093E+01 0. -1.
</event>
<event>
 5   0  0.3725376E-03  0.1189409E+04  0.7818609E-02  0.9122178E-01
       -2   -1    0    0    0  501  0.00000000000E+00  0.00000000000E+00  0.30679436770E+03  0.30679436771E+03  0.25500000920E-02 0. -1.
        2   -1    0    0  501    0  0.00000000000E+00  0.00000000000E+00 -0.11528025785E+04  0.11528025785E+04  0.25500000920E-02 0.  1.
    10030    2    1    2    0    0  0.00000000000E+00  0.00000000000E+00 -0.84600821076E+03  0.14595969462E+04  0.11894088248E+04 0.  0.
        4    1    3    3  502    0 -0.44355269984E+03  0.27255916430E+03 -0.77578743723E+03  0.93427793308E+03  0.12699999809E+01 0. -1.
       -4    1    3    3    0  502  0.44355269984E+03 -0.27255916430E+03 -0.70220773523E+02  0.52531901309E+03  0.12699999809E+01 0.  1.
</event>
<event>
 5   0  0.3725376E-03  0.1201841E+04  0.7818609E-02  0.9111247E-01
       -2   -1    0    0    0  501  0.00000000000E+00  0.00000000000E+00  0.19628945877E+03  0.19628945879E+03  0.25500000920E-02 0. -1.
        2   -1    0    0  501    0  0.00000000000E+00  0.00000000000E+00 -0.18396564844E+04  0.18396564844E+04  0.25500000920E-02 0.  1.
    10030    2    1    2    0    0  0.00000000000E+00  0.00000000000E+00 -0.16433670256E+04  0.20359459432E+04  0.12018405479E+04 0.  0.
        4    1    3    3  502    0  0.34548985060E+03  0.17669136867E+03 -0.15989439681E+04  0.16453590802E+04  0.12699999809E+01 0.  1.
       -4    1    3    3    0  502 -0.34548985060E+03 -0.17669136867E+03 -0.44423057527E+02  0.39058686303E+03  0.12699999809E+01 0. -1.
</event>
<event>
 5   0  0.3650180E-03  0.1113094E+04  0.7818609E-02  0.9192523E-01
        2   -1    0    0  501    0  0.00000000000E+00  0.00000000000E+00  0.20476635163E+04  0.20476635163E+04  0.25500000920E-02 0.  1.
       -2   -1    0    0    0  501  0.00000000000E+00  0.00000000000E+00 -0.15126718620E+03  0.15126718623E+03  0.25500000920E-02 0. -1.
    10030    2    1    2    0    0  0.00000000000E+00  0.00000000000E+00  0.18963963301E+04  0.21989307025E+04  0.11130935242E+04 0.  0.
        3    1    3    3  502    0 -0.45295581040E+03 -0.76607528448E+01  0.15868623997E+04  0.16502605670E+04  0.10100000352E+00 0.  1.
       -3    1    3    3    0  502  0.45295581040E+03  0.76607528448E+01  0.30953393038E+03  0.54867013548E+03  0.10100000352E+00 0. -1.
</event>
<event>
 5   0  0.2096270E-03  0.1232841E+04  0.7818609E-02  0.9084587E-01
        1   -1    0    0  501    0  0.00000000000E+00  0.00000000000E+00  0.98410983816E+03  0.98410983817E+03  0.50400001928E-02 0. -1.
       -1   -1    0    0    0  501  0.00000000000E+00  0.00000000000E+00 -0.38610968989E+03  0.38610968992E+03  0.50400001928E-02 0.  1.
    10030    2    1    2    0    0  0.00000000000E+00  0.00000000000E+00  0.59800014827E+03  0.13702195281E+04  0.12328411811E+04 0.  0.
        2    1    3    3  502    0 -0.42542561087E+02  0.60107841079E+03  0.44335463449E+03  0.74810992331E+03  0.25500000920E-02 0.  1.
       -2    1    3    3    0  502  0.42542561087E+02 -0.60107841079E+03  0.15464551378E+03  0.62210960478E+03  0.25500000920E-02 0. -1.
</event>
<event>
 5   0  0.2047109E-03  0.1205419E+04  0.7818609E-02  0.9108127E-01
       -1   -1    0    0    0  501  0.00000000000E+00  0.00000000000E+00  0.23928139105E+03  0.23928139110E+03  0.50400001928E-02 0.  1.
        1   -1    0    0  501    0  0.00000000000E+00  0.00000000000E+00 -0.15181226993E+04  0.15181226993E+04  0.50400001928E-02 0. -1.
    10030    2    1    2    0    0  0.00000000000E+00  0.00000000000E+00 -0.12788413082E+04  0.17574040904E+04  0.12054186183E+04 0.  0.
        1    1    3    3  502    0  0.55795959023E+03 -0.13110944101E+03 -0.91119637190E+03  0.10764698872E+04  0.50400001928E-02 0.  1.
       -1    1    3    3    0  502 -0.55795959023E+03  0.13110944101E+03 -0.36764493635E+03  0.68093420321E+03  0.50400001928E-02 0. -1.
</event>
<event>
 5   0  0.2025294E-03  0.1225203E+04  0.7818609E-02  0.9091078E-01
       -1   -1    0    0    0  501  0.00000000000E+00  0.00000000000E+00  0.28533833648E+03  0.28533833652E+03  0.50400001928E-02 0.  1.
        1   -1    0    0  501    0  0.00000000000E+00  0.00000000000E+00 -0.13152130706E+04  0.13152130706E+04  0.50400001928E-02 0. -1.
    10030    2    1    2    0    0  0.00000000000E+00  0.00000000000E+00 -0.10298747342E+04  0.16005514072E+04  0.12252031827E+04 0.  0.
        5    1    3    3  502    0  0.10387240358E+02 -0.20894142069E+03  0.23720401427E+03  0.31631036408E+03  0.46999998093E+01 0.  1.
       -5    1    3    3    0  502 -0.10387240358E+02  0.20894142069E+03 -0.12670787484E+04  0.12842410431E+04  0.46999998093E+01 0. -1.
</event>
<event>
 5   0  0.3626049E-03  0.1191045E+04  0.7818609E-02  0.9120732E-01
       -2   -1    0    0    0  501  0.00000000000E+00  0.00000000000E+00  0.31708253035E+03  0.31708253036E+03  0.25500000920E-02 0. -1.
        2   -1    0    0  501    0  0.00000000000E+00  0.00000000000E+00 -0.11184683843E+04  0.11184683843E+04  0.25500000920E-02 0.  1.
    10030    2    1    2    0    0  0.00000000000E+00  0.00000000000E+00 -0.80138585395E+03  0.14355509147E+04  0.11910445591E+04 0.  0.
        1    1    3    3  502    0  0.21771175648E+03  0.15495182950E+03  0.24076265042E+03  0.35968754807E+03  0.50400001928E-02 0. -1.
       -1    1    3    3    0  502 -0.21771175648E+03 -0.15495182950E+03 -0.10421485044E+04  0.10758633666E+04  0.50400001928E-02 0.  1.
</event>
<event>
 5   0  0.3751091E-03  0.1188030E+04  0.7818609E-02  0.9123399E-01
        2   -1    0    0  501    0  0.00000000000E+00  0.00000000000E+00  0.21092328018E+04  0.21092328018E+04  0.25500000920E-02 0.  1.
       -2   -1    0    0    0  501  0.00000000000E+00  0.00000000000E+00 -0.16729019589E+03  0.16729019591E+03  0.25500000920E-02 0. -1.
    10030    2    1    2    0    0  0.00000000000E+00  0.00000000000E+00  0.19419426060E+04  0.22765229978E+04  0.11880302498E+04 0.  0.
        5    1    3    3  502    0 -0.46620193361E+03 -0.30450666083E+03  0.13672313598E+04  0.14762832488E+04  0.46999998093E+01 0.  1.
       -5    1    3    3    0  502  0.46620193361E+03  0.30450666083E+03  0.57471124612E+03  0.80023974895E+03  0.46999998093E+01 0. -1.
</event>
<event>
 5   0  0.3725376E-03  0.1201034E+04  0.7818609E-02  0.9111952E-01
        2   -1    0    0  501    0  0.00000000000E+00  0.00000000000E+00  0.55422557503E+03  0.55422557504E+03  0.25500000920E-02 0.  1.
       -2   -1    0    0    0  501  0.00000000000E+00  0.00000000000E+00 -0.65067455972E+03  0.65067455973E+03  0.25500000920E-02 0. -1.
    10030    2    1    2    0    0  0.00000000000E+00  0.00000000000E+00 -0.96448984693E+02  0.12049001348E+04  0.12010336915E+04 0.  0.
        4    1    3    3  502    0 -0.43010138823E+03 -0.33565554479E+03  0.20351562679E+03  0.58229895428E+03  0.12699999809E+01 0.  1.
       -4    1    3    3    0  502  0.43010138823E+03  0.33565554479E+03 -0.29996461148E+03  0.62260118049E+03  0.12699999809E+01 0. -1.
</event>
<event>
 5   0  0.2025294E-03  0.1206089E+04  0.7818609E-02  0.9107543E-01
       -1   -1    0    0    0  501  0.00000000000E+00  0.00000000000E+00  0.57504455730E+03  0.57504455733E+03  0.50400001928E-02 0.  1.
        1   -1    0    0  501    0  0.00000000000E+00  0.00000000000E+00 -0.63240789034E+03  0.63240789036E+03  0.50400001928E-02 0. -1.
    10030    2    1    2    0    0  0.00000000000E+00  0.00000000000E+00 -0.57363333037E+02  0.12074524477E+04  0.12060890769E+04 0.  0.
        5    1    3    3  502    0  0.14447087893E+03  0.58353979720E+03 -0.76170459985E+02  0.60598230894E+03  0.46999998093E+01 0. -1.
       -5    1    3    3    0  502 -0.14447087893E+03 -0.58353979720E+03  0.18807126948E+02  0.60147013874E+03  0.46999998093E+01 0.  1.
</event>
<event>
 5   0  0.2047109E-03  0.1226093E+04  0.7818609E-02  0.9090319E-01
        1   -1    0    0  501    0  0.00000000000E+00  0.00000000000E+00  0.66114257365E+03  0.66114257367E+03  0.50400001928E-02 0. -1.
       -1   -1    0    0    0  501  0.00000000000E+00  0.00000000000E+00 -0.56844969899E+03  0.56844969901E+03  0.50400001928E-02 0.  1.
    10030    2    1    2    0    0  0.00000000000E+00  0.00000000000E+00  0.92692874665E+02  0.12295922727E+04  0.12260934663E+04 0.  0.
        1    1    3    3  502    0  0.22968273304E+02 -0.10876420089E+03  0.65095082876E+03  0.66037426848E+03  0.50400001928E-02 0. -1.
       -1    1    3    3    0  502 -0.22968273304E+02  0.10876420089E+03 -0.55825795410E+03  0.56921800421E+03  0.50400001928E-02 0.  1.
</event>
<event>
 5   0  0.2096270E-03  0.1198327E+04  0.7818609E-02  0.9114322E-01
        1   -1    0    0  501    0  0.00000000000E+00  0.00000000000E+00  0.18353817512E+04  0.18353817513E+04  0.50400001928E-02 0.  1.
       -1   -1    0    0    0  501  0.00000000000E+00  0.00000000000E+00 -0.19559799378E+03  0.19559799384E+03  0.50400001928E-02 0. -1.
    10030    2    1    2    0    0  0.00000000000E+00  0.00000000000E+00  0.16397837575E+04  0.20309797451E+04  0.11983271480E+04 0.  0.
        2    1    3    3  502    0  0.71579983599E+02 -0.56164526983E+03  0.48765071718E+03  0.74724314995E+03  0.25500000920E-02 0. -1.
       -2    1    3    3    0  502 -0.71579983599E+02  0.56164526983E+03  0.11521330403E+04  0.12837365951E+04  0.25500000920E-02 0.  1.
</event>
<event>
 5   0  0.2096270E-03  0.1176307E+04  0.7818609E-02  0.9133851E-01
        1   -1    0    0  501    0  0.00000000000E+00  0.00000000000E+00  0.14199820538E+04  0.14199820539E+04  0.50400001928E-02 0.  1.
       -1   -1    0    0    0  501  0.00000000000E+00  0.00000000000E+00 -0.24361193524E+03  0.24361193529E+03  0.50400001928E-02 0. -1.
    10030    2    1    2    0    0  0.00000000000E+00  0.00000000000E+00  0.11763701186E+04  0.16635939891E+04  0.11763070623E+04 0.  0.
        2    1    3    3  502    0  0.20018674367E+03  0.42608793704E+03  0.89575839541E+02  0.47921758468E+03  0.25500000920E-02 0. -1.
       -2    1    3    3    0  502 -0.20018674367E+03 -0.42608793704E+03  0.10867942791E+04  0.11843764045E+04  0.25500000920E-02 0.  1.
</event>
<event>
 5   0  0.2025294E-03  0.1200403E+04  0.7818609E-02  0.9112504E-01
        1   -1    0    0  501    0  0.00000000000E+00  0.00000000000E+00  0.33748972364E+03  0.33748972368E+03  0.50400001928E-02 0. -1.
       -1   -1    0    0    0  501  0.00000000000E+00  0.00000000000E+00 -0.10674152672E+04  0.10674152672E+04  0.50400001928E-02 0.  1.
    10030    2    1    2    0    0  0.00000000000E+00  0.00000000000E+00 -0.72992554356E+03  0.14049049909E+04  0.12004027384E+04 0.  0.
        5    1    3    3  502    0  0.28997255663E+03  0.11207357602E+03  0.23589558374E+03  0.39027347651E+03  0.46999998093E+01 0. -1.
       -5    1    3    3    0  502 -0.28997255663E+03 -0.11207357602E+03 -0.96582112730E+03  0.10146315144E+04  0.46999998093E+01 0.  1.
</event>
<event>
 5   0  0.3626049E-03  0.1187073E+04  0.7818609E-02  0.9124248E-01
        2   -1    0    0  501    0  0.00000000000E+00  0.00000000000E+00  0.12129526473E+04  0.12129526473E+04  0.25500000920E-02 0.  1.
       -2   -1    0    0    0  501  0.00000000000E+00  0.00000000000E+00 -0.29043622540E+03  0.29043622541E+03  0.25500000920E-02 0. -1.
    10030    2    1    2    0    0  0.00000000000E+00  0.00000000000E+00  0.92251642189E+03  0.15033888727E+04  0.11870726827E+04 0.  0.
        1    1    3    3  502    0  0.13783746739E+02 -0.46784558097E+03  0.92350304582E+03  0.10353392463E+04  0.50400001928E-02 0.  1.
       -1    1    3    3    0  502 -0.13783746739E+02  0.46784558097E+03 -0.98662393441E+00  0.46804962639E+03  0.50400001928E-02 0. -1.
</event>
<event>
 5   0  0.2096270E-03  0.1174013E+04  0.7818609E-02  0.9135912E-01
        1   -1    0    0  501    0  0.00000000000E+00  0.00000000000E+00  0.16562016665E+04  0.16562016665E+04  0.50400001928E-02 0.  1.
       -1   -1    0    0    0  501  0.00000000000E+00  0.00000000000E+00 -0.20805221146E+03  0.20805221152E+03  0.50400001928E-02 0. -1.
    10030    2    1    2    0    0  0.00000000000E+00  0.00000000000E+00  0.14481494550E+04  0.18642538780E+04  0.11740126395E+04 0.  0.
        2    1    3    3  502    0  0.22790973380E+02 -0.36894123932E+02 -0.20550508306E+03  0.21003081683E+03  0.25500000920E-02 0. -1.
       -2    1    3    3    0  502 -0.22790973380E+02  0.36894123932E+02  0.16536545381E+04  0.16542230612E+04  0.25500000920E-02 0.  1.
</event>
<event>
 5   0  0.2047109E-03  0.1119785E+04  0.7818609E-02  0.9186120E-01
        1   -1    0    0  501    0  0.00000000000E+00  0.00000000000E+00  0.10253070069E+04  0.10253070069E+04  0.50400001928E-02 0. -1.
       -1   -1    0    0    0  501  0.00000000000E+00  0.00000000000E+00 -0.30574203344E+03  0.30574203348E+03  0.50400001928E-02 0.  1.
    10030    2    1    2    0    0  0.00000000000E+00  0.00000000000E+00  0.71956497341E+03  0.13310490404E+04  0.11197847100E+04 0.  0.
        1    1    3    3  502    0 -0.37254113943E+03  0.40900768195E+03  0.46207169512E+03  0.72082205565E+03  0.50400001928E-02 0. -1.
       -1    1    3    3    0  502  0.37254113943E+03 -0.40900768195E+03  0.25749327830E+03  0.61022698470E+03  0.50400001928E-02 0.  1.
</event>
<event>
 5   0  0.3725376E-03  0.1197205E+04  0.7818609E-02  0.9115306E-01
       -2   -1    0    0    0  501  0.00000000000E+00  0.00000000000E+00  0.40754879405E+03  0.40754879406E+03  0.25500000920E-02 0. -1.
        2   -1    0    0  501    0  0.00000000000E+00  0.00000000000E+00 -0.87921997294E+03  0.87921997295E+03  0.25500000920E-02 0.  1.
    10030    2    1    2    0    0  0.00000000000E+00  0.00000000000E+00 -0.47167117889E+03  0.12867687670E+04  0.11972051448E+04 0.  0.
        4    1    3    3  502    0 -0.58778590651E+03 -0.23932675523E+02 -0.35483601400E+03  0.68700455208E+03  0.12699999809E+01 0. -1.
       -4    1    3    3    0  502  0.58778590651E+03  0.23932675523E+02 -0.11683516489E+03  0.59976421493E+03  0.12699999809E+01 0.  1.
</event>
<event>
 5   0  0.2025294E-03  0.1246527E+04  0.7818609E-02  0.9073078E-01
        1   -1    0    0  501    0  0.00000000000E+00  0.00000000000E+00  0.62754546646E+03  0.62754546648E+03  0.50400001928E-02 0.  1.
       -1   -1    0    0    0  501  0.00000000000E+00  0.00000000000E+00 -0.61901122115E+03  0.61901122117E+03  0.50400001928E-02 0. -1.
    10030    2    1    2    0    0  0.00000000000E+00  0.00000000000E+00  0.85342453075E+01  0.12465566877E+04  0.12465274735E+04 0.  0.
        5    1    3    3  502    0 -0.39014579412E+03  0.43167724188E+03 -0.21906883863E+03  0.62174932882E+03  0.46999998093E+01 0. -1.
       -5    1    3    3    0  502  0.39014579412E+03 -0.43167724188E+03  0.22760308394E+03  0.62480735883E+03  0.46999998093E+01 0.  1.
</event>
<event>
 5   0  0.2025294E-03  0.1191723E+04  0.7818609E-02  0.9120132E-01
       -1   -1    0    0    0  501  0.00000000000E+00  0.00000000000E+00  0.20295677781E+03  0.20295677787E+03  0.50400001928E-02 0. -1.
        1   -1    0    0  501    0  0.00000000000E+00  0.00000000000E+00 -0.17493918850E+04  0.17493918850E+04  0.50400001928E-02 0.  1.
    10030    2    1    2    0    0  0.00000000000E+00  0.00000000000E+00 -0.15464351072E+04  0.19523486629E+04  0.11917230218E+04 0.  0.
        5    1    3    3  502    0  0.38965107092E+03 -0.23032178836E+03 -0.14080348043E+04  0.14790064853E+04  0.46999998093E+01 0.  1.
       -5    1    3    3    0  502 -0.38965107092E+03  0.23032178836E+03 -0.13840030283E+03  0.47334217759E+03  0.46999998093E+01 0. -1.
</event>
<event>
 5   0  0.2096270E-03  0.1199465E+04  0.7818609E-02  0.9113325E-01
       -1   -1    0    0    0  501  0.00000000000E+00  0.00000000000E+00  0.30155202573E+03  0.30155202577E+03  0.50400001928E-02 0. -1.
        1   -1    0    0  501    0  0.00000000000E+00  0.00000000000E+00 -0.11927602589E+04  0.11927602589E+04  0.50400001928E-02 0.  1.
    10030    2    1    2    0    0  0.00000000000E+00  0.00000000000E+00 -0.89120823318E+03  0.14943122847E+04  0.11994653348E+04 0.  0.
        2    1    3    3  502    0 -0.39716764391E+03 -0.30038555554E+03 -0.86198544023E+03  0.99548607149E+03  0.25500000920E-02 0.  1.
       -2    1    3    3    0  502  0.39716764391E+03  0.30038555554E+03 -0.29222792947E+02  0.49882621321E+03  0.25500000920E-02 0. -1.
</event>
<event>
 5   0  0.3626049E-03  0.1204684E+04  0.7818609E-02  0.9108767E-01
        2   -1    0    0  501    0  0.00000000000E+00  0.00000000000E+00  0.81066649020E+03  0.81066649020E+03  0.25500000920E-02 0. -1.
       -2   -1    0    0    0  501  0.00000000000E+00  0.00000000000E+00 -0.44755242551E+03  0.44755242552E+03  0.25500000920E-02 0.  1.
    10030    2    1    2    0    0  0.00000000000E+00  0.00000000000E+00  0.36311406469E+03  0.12582189157E+04  0.12046837825E+04 0.  0.
        1    1    3    3  502    0  0.12419270431E+03  0.58644966204E+03  0.24307015450E+03  0.64686175799E+03  0.50400001928E-02 0.  1.
       -1    1    3    3    0  502 -0.12419270431E+03 -0.58644966204E+03  0.12004391019E+03  0.61135715773E+03  0.50400001928E-02 0. -1.
</event>
<event>
 5   0  0.2096270E-03  0.1238024E+04  0.7818609E-02  0.9080211E-01
       -1   -1    0    0    0  501  0.00000000000E+00  0.00000000000E+00  0.25488389200E+03  0.25488389205E+03  0.50400001928E-02 0. -1.
        1   -1    0    0  501    0  0.00000000000E+00  0.00000000000E+00 -0.15033338998E+04  0.15033338998E+04  0.50400001928E-02 0.  1.
    10030    2    1    2    0    0  0.00000000000E+00  0.00000000000E+00 -0.12484500078E+04  0.17582177919E+04  0.12380235788E+04 0.  0.
        2    1    3    3  502    0 -0.32625416425E+03  0.49850441429E+03 -0.38562118926E+03  0.70968453017E+03  0.25500000920E-02 0. -1.
       -2    1    3    3    0  502  0.32625416425E+03 -0.49850441429E+03 -0.86282881856E+03  0.10485332617E+04  0.25500000920E-02 0.  1.
</event>
<event>
 5   0  0.3626049E-03  0.1198532E+04  0.7818609E-02  0.9114142E-01
       -2   -1    0    0    0  501  0.00000000000E+00  0.00000000000E+00  0.20849229099E+03  0.20849229101E+03  0.25500000920E-02 0.  1.
        2   -1    0    0  501    0  0.00000000000E+00  0.00000000000E+00 -0.17224607124E+04  0.17224607124E+04  0.25500000920E-02 0. -1.
    10030    2    1    2    0    0  0.00000000000E+00  0.00000000000E+00 -0.15139684214E+04  0.19309530034E+04  0.11985320690E+04 0.  0.
        1    1    3    3  502    0  0.45034469984E+03 -0.33741040764E+03 -0.42498985782E+03  0.70517551796E+03  0.50400001928E-02 0. -1.
       -1    1    3    3    0  502 -0.45034469984E+03  0.33741040764E+03 -0.10889785636E+04  0.12257774855E+04  0.50400001928E-02 0.  1.
</event>
<event>
 5   0  0.3650180E-03  0.1193684E+04  0.7818609E-02  0.9118403E-01
        2   -1    0    0  501    0  0.00000000000E+00  0.00000000000E+00  0.80452036524E+03  0.80452036525E+03  0.25500000920E-02 0.  1.
       -2   -1    0    0    0  501  0.00000000000E+00  0.00000000000E+00 -0.44277324901E+03  0.44277324902E+03  0.25500000920E-02 0. -1.
    10030    2    1    2    0    0  0.00000000000E+00  0.00000000000E+00  0.36174711623E+03  0.12472936143E+04  0.11936835360E+04 0.  0.
        3    1    3    3  502    0  0.45377207376E+03  0.83160436835E+02  0.57655620384E+03  0.73840491573E+03  0.10100000352E+00 0.  1.
       -3    1    3    3    0  502 -0.45377207376E+03 -0.83160436835E+02 -0.21480908761E+03  0.50888869854E+03  0.10100000352E+00 0. -1.
</event>
<event>
 5   0  0.3650180E-03  0.1205063E+04  0.7818609E-02  0.9108436E-01
        2   -1    0    0  501    0  0.00000000000E+00  0.00000000000E+00  0.38564209344E+03  0.38564209345E+03  0.25500000920E-02 0.  1.
       -2   -1    0    0    0  501  0.00000000000E+00  0.00000000000E+00 -0.94140202522E+03  0.94140202523E+03  0.25500000920E-02 0. -1.
    10030    2    1    2    0    0  0.00000000000E+00  0.00000000000E+00 -0.55575993178E+03  0.13270441187E+04  0.12050630652E+04 0.  0.
        3    1    3    3  502    0  0.38280946407E+03  0.34873038282E+03 -0.61710028206E+03  0.80558595693E+03  0.10100000352E+00 0.  1.
       -3    1    3    3    0  502 -0.38280946407E+03 -0.34873038282E+03  0.61340350285E+02  0.52145816175E+03  0.10100000352E+00 0. -1.
</event>
<event>
 5   0  0.2047109E-03  0.1214498E+04  0.7818609E-02  0.9100260E-01
       -1   -1    0    0    0  501  0.00000000000E+00  0.00000000000E+00  0.31742294243E+03  0.31742294247E+03  0.50400001928E-02 0.  1.
        1   -1    0    0  501    0  0.00000000000E+00  0.00000000000E+00 -0.11617040090E+04  0.11617040090E+04  0.50400001928E-02 0. -1.
    10030    2    1    2    0    0  0.00000000000E+00  0.00000000000E+00 -0.84428106654E+03  0.14791269515E+04  0.12144982582E+04 0.  0.
        1    1    3    3  502    0 -0.72156376069E+02  0.23251592258E+03 -0.10996662214E+04  0.11262930327E+04  0.50400001928E-02 0. -1.
       -1    1    3    3    0  502  0.72156376069E+02 -0.23251592258E+03  0.25538515491E+03  0.35283391877E+03  0.50400001928E-02 0.  1.
</event>
<event>
 5   0  0.2025294E-03  0.1209538E+04  0.7818609E-02  0.9104548E-01
       -1   -1    0    0    0  501  0.00000000000E+00  0.00000000000E+00  0.24107980920E+03  0.24107980925E+03  0.50400001928E-02 0. -1.
        1   -1    0    0  501    0  0.00000000000E+00  0.00000000000E+00 -0.15171150889E+04  0.15171150889E+04  0.50400001928E-02 0.  1.
    10030    2    1    2    0    0  0.00000000000E+00  0.00000000000E+00 -0.12760352797E+04  0.17581948982E+04  0.12095384512E+04 0.  0.
        5    1    3    3  502    0 -0.31317531074E+03  0.30822846273E+03 -0.12419916609E+04  0.13174402970E+04  0.46999998093E+01 0.  1.
       -5    1    3    3    0  502  0.31317531074E+03 -0.30822846273E+03 -0.34043618874E+02  0.44075460120E+03  0.46999998093E+01 0. -1.
</event>
<event>
 5   0  0.3650180E-03  0.9400242E+03  0.7818609E-02  0.9376887E-01
       -2   -1    0    0    0  501  0.00000000000E+00  0.00000000000E+00  0.18807342234E+03  0.18807342235E+03  0.25500000920E-02 0.  1.
        2   -1    0    0  501    0  0.00000000000E+00  0.00000000000E+00 -0.11746018074E+04  0.11746018074E+04  0.25500000920E-02 0. -1.
    10030    2    1    2    0    0  0.00000000000E+00  0.00000000000E+00 -0.98652838510E+03  0.13626752298E+04  0.94002421633E+03 0.  0.
        3    1    3    3  502    0 -0.10296664928E+03  0.16543140683E+03  0.12676146787E+03  0.23246109603E+03  0.10100000352E+00 0.  1.
       -3    1    3    3    0  502  0.10296664928E+03 -0.16543140683E+03 -0.11132898530E+04  0.11302141338E+04  0.10100000352E+00 0. -1.
</event>
<event>
 5   0  0.2025294E-03  0.1216814E+04  0.7818609E-02  0.9098265E-01
        1   -1    0    0  501    0  0.00000000000E+00  0.00000000000E+00  0.66738461808E+03  0.66738461810E+03  0.50400001928E-02 0. -1.
       -1   -1    0    0    0  501  0.00000000000E+00  0.00000000000E+00 -0.55464121552E+03  0.55464121554E+03  0.50400001928E-02 0.  1.
    10030    2    1    2    0    0  0.00000000000E+00  0.00000000000E+00  0.11274340256E+03  0.12220258336E+04  0.12168138984E+04 0.  0.
        5    1    3    3  502    0 -0.60379124143E+03  0.67753337369E+02  0.87851582471E+02  0.61391723260E+03  0.46999998093E+01 0. -1.
       -5    1    3    3    0  502  0.60379124143E+03 -0.67753337369E+02  0.24891820092E+02  0.60810860104E+03  0.46999998093E+01 0.  1.
</event>
<event>
 5   0  0.3706035E-03  0.1204050E+04  0.7818609E-02  0.9109319E-01
       -2   -1    0    0    0  501  0.00000000000E+00  0.00000000000E+00  0.23187656347E+03  0.23187656348E+03  0.25500000920E-02 0.  1.
        2   -1    0    0  501    0  0.00000000000E+00  0.00000000000E+00 -0.15630483363E+04  0.15630483363E+04  0.25500000920E-02 0. -1.
    10030    2    1    2    0    0  0.00000000000E+00  0.00000000000E+00 -0.13311717729E+04  0.17949248998E+04  0.12040502926E+04 0.  0.
        2    1    3    3  502    0 -0.51289390901E+03  0.31903436275E+02 -0.19806317342E+03  0.55073315845E+03  0.25500000920E-02 0.  1.
       -2    1    3    3    0  502  0.51289390901E+03 -0.31903436275E+02 -0.11331085994E+04  0.12441917414E+04  0.25500000920E-02 0. -1.
</event>
<event>
 5   0  0.2078258E-03  0.1243638E+04  0.7818609E-02  0.9075495E-01
        1   -1    0    0  501    0  0.00000000000E+00  0.00000000000E+00  0.12765798647E+04  0.12765798647E+04  0.50400001928E-02 0.  1.
       -1   -1    0    0    0  501  0.00000000000E+00  0.00000000000E+00 -0.30288654004E+03  0.30288654009E+03  0.50400001928E-02 0. -1.
    10030    2    1    2    0    0  0.00000000000E+00  0.00000000000E+00  0.97369332464E+03  0.15794664048E+04  0.12436379833E+04 0.  0.
        3    1    3    3  502    0 -0.80089976994E+02  0.78920769102E+02  0.12635612827E+04  0.12685543022E+04  0.10100000352E+00 0.  1.
       -3    1    3    3    0  502  0.80089976994E+02 -0.78920769102E+02 -0.28986795809E+03  0.31091210259E+03  0.10100000352E+00 0. -1.
</event>
<event>
 5   0  0.2047109E-03  0.1174762E+04  0.7818609E-02  0.9135238E-01
       -1   -1    0    0    0  501  0.00000000000E+00  0.00000000000E+00  0.29026201943E+03  0.29026201947E+03  0.50400001928E-02 0.  1.
        1   -1    0    0  501    0  0.00000000000E+00  0.00000000000E+00 -0.11886382985E+04  0.11886382985E+04  0.50400001928E-02 0. -1.
    10030    2    1    2    0    0  0.00000000000E+00  0.00000000000E+00 -0.89837627907E+03  0.14789003180E+04  0.11747621937E+04 0.  0.
        1    1    3    3  502    0 -0.41148640798E+03 -0.59363061041E+02  0.73171474648E+02  0.42213635439E+03  0.50400001928E-02 0.  1.
       -1    1    3    3    0  502  0.41148640798E+03  0.59363061041E+02 -0.97154775372E+03  0.10567639636E+04  0.50400001928E-02 0. -1.
</event>
<event>
 5   0  0.2134992E-03  0.1190243E+04  0.7818609E-02  0.9121440E-01
       -1   -1    0    0    0  501  0.00000000000E+00  0.00000000000E+00  0.69442823439E+03  0.69442823440E+03  0.50400001928E-02 0. -1.
        1   -1    0    0  501    0  0.00000000000E+00  0.00000000000E+00 -0.51001598881E+03  0.51001598884E+03  0.50400001928E-02 0.  1.
    10030    2    1    2    0    0  0.00000000000E+00  0.00000000000E+00  0.18441224557E+03  0.12044442232E+04  0.11902428368E+04 0.  0.
        4    1    3    3  502    0  0.77836314118E+02 -0.49535374556E+03 -0.23213973227E+03  0.55256157416E+03  0.12699999809E+01 0.  1.
       -4    1    3    3    0  502 -0.77836314118E+02  0.49535374556E+03  0.41655197784E+03  0.65188264909E+03  0.12699999809E+01 0. -1.
</event>
<event>
 5   0  0.3725376E-03  0.1199791E+04  0.7818609E-02  0.9113040E-01
        2   -1    0    0  501    0  0.00000000000E+00  0.00000000000E+00  0.80534013728E+03  0.80534013728E+03  0.25500000920E-02 0. -1.
       -2   -1    0    0    0  501  0.00000000000E+00  0.00000000000E+00 -0.44686037855E+03  0.44686037856E+03  0.25500000920E-02 0.  1.
    10030    2    1    2    0    0  0.00000000000E+00  0.00000000000E+00  0.35847975872E+03  0.12522005158E+04  0.11997909795E+04 0.  0.
        4    1    3    3  502    0  0.16355617290E+03 -0.49166648022E+03  0.49474699386E+03  0.71642358302E+03  0.12699999809E+01 0. -1.
       -4    1    3    3    0  502 -0.16355617290E+03  0.49166648022E+03 -0.13626723514E+03  0.53577693282E+03  0.12699999809E+01 0.  1.
</event>
<event>
 5   0  0.2078258E-03  0.1193875E+04  0.7818609E-02  0.9118235E-01
       -1   -1    0    0    0  501  0.00000000000E+00  0.00000000000E+00  0.60131765214E+03  0.60131765216E+03  0.50400001928E-02 0.  1.
        1   -1    0    0  501    0  0.00000000000E+00  0.00000000000E+00 -0.59258888541E+03  0.59258888543E+03  0.50400001928E-02 0. -1.
    10030    2    1    2    0    0  0.00000000000E+00  0.00000000000E+00  0.87287667256E+01  0.11939065376E+04  0.11938746287E+04 0.  0.
        3    1    3    3  502    0 -0.23155132803E+03  0.28701688204E+03 -0.46505144215E+03  0.59352132408E+03  0.10100000352E+00 0. -1.
       -3    1    3    3    0  502  0.23155132803E+03 -0.28701688204E+03  0.47378020887E+03  0.60038521352E+03  0.10100000352E+00 0.  1.
</event>
<event>
 5   0  0.2025294E-03  0.1199970E+04  0.7818609E-02  0.9112883E-01
        1   -1    0    0  501    0  0.00000000000E+00  0.00000000000E+00  0.51775921582E+03  0.51775921584E+03  0.50400001928E-02 0. -1.
       -1   -1    0    0    0  501  0.00000000000E+00  0.00000000000E+00 -0.69526938499E+03  0.69526938501E+03  0.50400001928E-02 0.  1.
    10030    2    1    2    0    0  0.00000000000E+00  0.00000000000E+00 -0.17751016917E+03  0.12130286009E+04  0.11999702189E+04 0.  0.
        5    1    3    3  502    0 -0.57221527516E+02 -0.48631063165E+02  0.51297104552E+03  0.51845989918E+03  0.46999998093E+01 0. -1.
       -5    1    3    3    0  502  0.57221527516E+02  0.48631063165E+02 -0.69048121469E+03  0.69456870168E+03  0.46999998093E+01 0.  1.
</event>
<event>
 5   0  0.2134992E-03  0.1179967E+04  0.7818609E-02  0.9130575E-01
       -1   -1    0    0    0  501  0.00000000000E+00  0.00000000000E+00  0.34508808634E+03  0.34508808638E+03  0.50400001928E-02 0. -1.
        1   -1    0    0  501    0  0.00000000000E+00  0.00000000000E+00 -0.10086710514E+04  0.10086710514E+04  0.50400001928E-02 0.  1.
    10030    2    1    2    0    0  0.00000000000E+00  0.00000000000E+00 -0.66358296503E+03  0.13537591378E+04  0.11799667163E+04 0.  0.
        4    1    3    3  502    0 -0.38984321081E+03 -0.18904816870E+03 -0.79122441218E+03  0.90208348972E+03  0.12699999809E+01 0.  1.
       -4    1    3    3    0  502  0.38984321081E+03  0.18904816870E+03  0.12764144715E+03  0.45167564804E+03  0.12699999809E+01 0. -1.
</event>
<event>
 5   0  0.3706035E-03  0.1183652E+04  0.7818609E-02  0.9127287E-01
        2   -1    0    0  501    0  0.00000000000E+00  0.00000000000E+00  0.67357165221E+03  0.67357165222E+03  0.25500000920E-02 0.  1.
       -2   -1    0    0    0  501  0.00000000000E+00  0.00000000000E+00 -0.52000121851E+03  0.52000121852E+03  0.25500000920E-02 0. -1.
    10030    2    1    2    0    0  0.00000000000E+00  0.00000000000E+00  0.15357043370E+03  0.11935728707E+04  0.11836521109E+04 0.  0.
        2    1    3    3  502    0 -0.21635635529E+03 -0.19561899633E+03 -0.44248837972E+03  0.52997436767E+03  0.25500000920E-02 0. -1.
       -2    1    3    3    0  502  0.21635635529E+03  0.19561899633E+03  0.59605881342E+03  0.66359850306E+03  0.25500000920E-02 0.  1.
</event>
<event>
 5   0  0.1397500E-03  0.1182662E+04  0.7818609E-02  0.9128170E-01
        3   -1    0    0  501    0  0.00000000000E+00  0.00000000000E+00  0.11904198765E+04  0.11904198808E+04  0.10100000352E+00 0. -1.
       -3   -1    0    0    0  501  0.00000000000E+00  0.00000000000E+00 -0.29373845202E+03  0.29373846939E+03  0.10100000352E+00 0.  1.
    10030    2    1    2    0    0  0.00000000000E+00  0.00000000000E+00  0.89668142451E+03  0.14841583502E+04  0.11826615879E+04 0.  0.
        5    1    3    3  502    0  0.14319236020E+03 -0.13007644096E+03  0.11495607865E+04  0.11657341139E+04  0.46999998093E+01 0. -1.
       -5    1    3    3    0  502 -0.14319236020E+03  0.13007644096E+03 -0.25287936201E+03  0.31842423626E+03  0.46999998093E+01 0.  1.
</event>
<event>
 5   0  0.3725376E-03  0.1179127E+04  0.7818609E-02  0.9131325E-01
        2   -1    0    0  501    0  0.00000000000E+00  0.00000000000E+00  0.14831779874E+04  0.14831779874E+04  0.25500000920E-02 0.  1.
       -2   -1    0    0    0  501  0.00000000000E+00  0.00000000000E+00 -0.23435153067E+03  0.23435153069E+03  0.25500000920E-02 0. -1.
    10030    2    1    2    0    0  0.00000000000E+00  0.00000000000E+00  0.12488264567E+04  0.17175295181E+04  0.11791268492E+04 0.  0.
        4    1    3    3  502    0  0.19722961913E+03  0.15075923645E+03 -0.15450693311E+03  0.29240703705E+03  0.12699999809E+01 0. -1.
       -4    1    3    3    0  502 -0.19722961913E+03 -0.15075923645E+03  0.14033333898E+04  0.14251224810E+04  0.12699999809E+01 0.  1.
</event>
<event>
 5   0  0.3725376E-03  0.1193250E+04  0.7818609E-02  0.9118786E-01
        2   -1    0    0  501    0  0.00000000000E+00  0.00000000000E+00  0.51680565257E+03  0.51680565258E+03  0.25500000920E-02 0.  1.
       -2   -1    0    0    0  501  0.00000000000E+00  0.00000000000E+00 -0.68877168763E+03  0.68877168763E+03  0.25500000920E-02 0. -1.
    10030    2    1    2    0    0  0.00000000000E+00  0.00000000000E+00 -0.17196603506E+03  0.12055773402E+04  0.11932495154E+04 0.  0.
        4    1    3    3  502    0  0.54133084240E+03 -0.88731500637E+02  0.15106217084E+03  0.56897605617E+03  0.12699999809E+01 0.  1.
       -4    1    3    3    0  502 -0.54133084240E+03  0.88731500637E+02 -0.32302820589E+03  0.63660128404E+03  0.12699999809E+01 0. -1.
</event>
<event>
 5   0  0.2134992E-03  0.1204124E+04  0.7818609E-02  0.9109254E-01
        1   -1    0    0  501    0  0.00000000000E+00  0.00000000000E+00  0.40962330159E+03  0.40962330162E+03  0.50400001928E-02 0. -1.
       -1   -1    0    0    0  501  0.00000000000E+00  0.00000000000E+00 -0.88490731789E+03  0.88490731790E+03  0.50400001928E-02 0.  1.
    10030    2    1    2    0    0  0.00000000000E+00  0.00000000000E+00 -0.47528401630E+03  0.12945306195E+04  0.12041240089E+04 0.  0.
        4    1    3    3  502    0 -0.28970450766E+03  0.54173163128E+02  0.32676375792E+03  0.44004499741E+03  0.12699999809E+01 0. -1.
       -4    1    3    3    0  502  0.28970450766E+03 -0.54173163128E+02 -0.80204777422E+03  0.85448562211E+03  0.12699999809E+01 0.  1.
</event>
<event>
 5   0  0.3706035E-03  0.1207535E+04  0.7818609E-02  0.9106286E-01
        2   -1    0    0  501    0  0.00000000000E+00  0.00000000000E+00  0.18009481158E+04  0.18009481158E+04  0.25500000920E-02 0.  1.
       -2   -1    0    0    0  501  0.00000000000E+00  0.00000000000E+00 -0.20241299179E+03  0.20241299181E+03  0.25500000920E-02 0. -1.
    10030    2    1    2    0    0  0.00000000000E+00  0.00000000000E+00  0.15985351240E+04  0.20033611076E+04  0.12075351692E+04 0.  0.
        2    1    3    3  502    0  0.28588695618E+03  0.69320955489E+02  0.16740110438E+04  0.16996616491E+04  0.25500000920E-02 0.  1.
       -2    1    3    3    0  502 -0.28588695618E+03 -0.69320955489E+02 -0.75475919858E+02  0.30369945846E+03  0.25500000920E-02 0. -1.
</event>
<event>
 5   0  0.3725376E-03  0.1208162E+04  0.7818609E-02  0.9105742E-01
        2   -1    0    0  501    0  0.00000000000E+00  0.00000000000E+00  0.62893831909E+03  0.62893831909E+03  0.25500000920E-02 0.  1.
       -2   -1    0    0    0  501  0.00000000000E+00  0.00000000000E+00 -0.58020582093E+03  0.58020582094E+03  0.25500000920E-02 0. -1.
    10030    2    1    2    0    0  0.00000000000E+00  0.00000000000E+00  0.48732498156E+02  0.12091441400E+04  0.12081617007E+04 0.  0.
        4    1    3    3  502    0 -0.31587500053E+03  0.33896343122E+03  0.41228798807E+03  0.62020659596E+03  0.12699999809E+01 0.  1.
       -4    1    3    3    0  502  0.31587500053E+03 -0.33896343122E+03 -0.36355548992E+03  0.58893754407E+03  0.12699999809E+01 0. -1.
</event>
<event>
 5   0  0.3751091E-03  0.1199569E+04  0.7818609E-02  0.9113234E-01
       -2   -1    0    0    0  501  0.00000000000E+00  0.00000000000E+00  0.20312397058E+03  0.20312397060E+03  0.25500000920E-02 0.  1.
        2   -1    0    0  501    0  0.00000000000E+00  0.00000000000E+00 -0.17710444427E+04  0.17710444427E+04  0.25500000920E-02 0. -1.
    10030    2    1    2    0    0  0.00000000000E+00  0.00000000000E+00 -0.15679204721E+04  0.19741684133E+04  0.11995692215E+04 0.  0.
        5    1    3    3  502    0  0.54569717462E+03 -0.12061646541E+03 -0.42571306500E+03  0.70255778540E+03  0.46999998093E+01 0.  1.
       -5    1    3    3    0  502 -0.54569717462E+03  0.12061646541E+03 -0.11422074071E+04  0.12716106279E+04  0.46999998093E+01 0. -1.
</event>
<event>
 5   0  0.1397500E-03  0.1198853E+04  0.7818609E-02  0.9113861E-01
        4   -1    0    0  501    0  0.00000000000E+00  0.00000000000E+00  0.56398225924E+03  0.56398368916E+03  0.12699999809E+01 0. -1.
       -4   -1    0    0    0  501  0.00000000000E+00  0.00000000000E+00 -0.63709507681E+03  0.63709634263E+03  0.12699999809E+01 0.  1.
    10030    2    1    2    0    0  0.00000000000E+00  0.00000000000E+00 -0.73112817566E+02  0.12010800318E+04  0.11988526843E+04 0.  0.
        3    1    3    3  502    0 -0.28788762020E+02  0.22471529588E+03  0.51943967942E+03  0.56669511007E+03  0.10100000352E+00 0. -1.
       -3    1    3    3    0  502  0.28788762020E+02 -0.22471529588E+03 -0.59255249699E+03  0.63438492172E+03  0.10100000352E+00 0.  1.
</event>
<event>
 5   0  0.3751091E-03  0.1139162E+04  0.7818609E-02  0.9167841E-01
       -2   -1    0    0    0  501  0.00000000000E+00  0.00000000000E+00  0.59631315755E+03  0.59631315755E+03  0.25500000920E-02 0. -1.
        2   -1    0    0  501    0  0.00000000000E+00  0.00000000000E+00 -0.54404692679E+03  0.54404692680E+03  0.25500000920E-02 0.  1.
    10030    2    1    2    0    0  0.00000000000E+00  0.00000000000E+00  0.52266230759E+02  0.11403600844E+04  0.11391616931E+04 0.  0.
        5    1    3    3  502    0  0.30647322526E+02 -0.24877212002E+03 -0.48584741306E+03  0.54671439057E+03  0.46999998093E+01 0.  1.
       -5    1    3    3    0  502 -0.30647322526E+02  0.24877212002E+03  0.53811364382E+03  0.59364569378E+03  0.46999998093E+01 0. -1.
</event>
<event>
 5   0  0.2025294E-03  0.9204340E+03  0.7818609E-02  0.9400392E-01
       -1   -1    0    0    0  501  0.00000000000E+00  0.00000000000E+00  0.16460917761E+03  0.16460917769E+03  0.50400001928E-02 0. -1.
        1   -1    0    0  501    0  0.00000000000E+00  0.00000000000E+00 -0.12866820475E+04  0.12866820475E+04  0.50400001928E-02 0.  1.
    10030    2    1    2    0    0  0.00000000000E+00  0.00000000000E+00 -0.11220728699E+04  0.14512912252E+04  0.92043397102E+03 0.  0.
        5    1    3    3  502    0 -0.43238896059E+03  0.14838392245E+03 -0.47760906894E+03  0.66114333878E+03  0.46999998093E+01 0. -1.
       -5    1    3    3    0  502  0.43238896059E+03 -0.14838392245E+03 -0.64446380093E+03  0.79014788640E+03  0.46999998093E+01 0.  1.
</event>
<event>
 5   0  0.2096270E-03  0.1182866E+04  0.7818609E-02  0.9127987E-01
       -1   -1    0    0    0  501  0.00000000000E+00  0.00000000000E+00  0.33708189757E+03  0.33708189761E+03  0.50400001928E-02 0.  1.
        1   -1    0    0  501    0  0.00000000000E+00  0.00000000000E+00 -0.10377096869E+04  0.10377096869E+04  0.50400001928E-02 0. -1.
    10030    2    1    2    0    0  0.00000000000E+00  0.00000000000E+00 -0.70062778935E+03  0.13747915845E+04  0.11828662654E+04 0.  0.
        2    1    3    3  502    0 -0.76373893084E+02 -0.36862936292E+03 -0.88047594399E+03  0.95757948323E+03  0.25500000920E-02 0. -1.
       -2    1    3    3    0  502  0.76373893084E+02  0.36862936292E+03  0.17984815464E+03  0.41721210131E+03  0.25500000920E-02 0.  1.
</event>
<event>
 5   0  0.3626049E-03  0.1195273E+04  0.7818609E-02  0.9117004E-01
       -2   -1    0    0    0  501  0.00000000000E+00  0.00000000000E+00  0.30007482826E+03  0.30007482827E+03  0.25500000920E-02 0.  1.
        2   -1    0    0  501    0  0.00000000000E+00  0.00000000000E+00 -0.11902680031E+04  0.11902680031E+04  0.25500000920E-02 0. -1.
    10030    2    1    2    0    0  0.00000000000E+00  0.00000000000E+00 -0.89019317484E+03  0.14903428314E+04  0.11952731347E+04 0.  0.
        1    1    3    3  502    0 -0.28510455178E+03  0.51856784236E+03 -0.34098342810E+03  0.68298382912E+03  0.50400001928E-02 0. -1.
       -1    1    3    3    0  502  0.28510455178E+03 -0.51856784236E+03 -0.54920974674E+03  0.80735900226E+03  0.50400001928E-02 0.  1.
</event>
<event>
 5   0  0.2134992E-03  0.1198973E+04  0.7818609E-02  0.9113756E-01
        1   -1    0    0  501    0  0.00000000000E+00  0.00000000000E+00  0.86868341202E+03  0.86868341203E+03  0.50400001928E-02 0. -1.
       -1   -1    0    0    0  501  0.00000000000E+00  0.00000000000E+00 -0.41371137218E+03  0.41371137221E+03  0.50400001928E-02 0.  1.
    10030    2    1    2    0    0  0.00000000000E+00  0.00000000000E+00  0.45497203983E+03  0.12823947842E+04  0.11989732381E+04 0.  0.
        4    1    3    3  502    0  0.21733224380E+03  0.55870079704E+03  0.22924634621E+03  0.64182192620E+03  0.12699999809E+01 0. -1.
       -4    1    3    3    0  502 -0.21733224380E+03 -0.55870079704E+03  0.22572569362E+03  0.64057285804E+03  0.12699999809E+01 0.  1.
</event>
<event>
 5   0  0.3650180E-03  0.1226846E+04  0.7818609E-02  0.9089677E-01
        2   -1    0    0  501    0  0.00000000000E+00  0.00000000000E+00  0.91084448370E+03  0.91084448371E+03  0.25500000920E-02 0. -1.
       -2   -1    0    0    0  501  0.00000000000E+00  0.00000000000E+00 -0.41311993480E+03  0.41311993481E+03  0.25500000920E-02 0.  1.
    10030    2    1    2    0    0  0.00000000000E+00  0.00000000000E+00  0.49772454890E+03  0.13239644185E+04  0.12268463860E+04 0.  0.
        3    1    3    3  502    0  0.55735958955E+03  0.89465450269E+02 -0.10213230486E+02  0.56458666220E+03  0.10100000352E+00 0. -1.
       -3    1    3    3    0  502 -0.55735958955E+03 -0.89465450269E+02  0.50793777939E+03  0.75937775632E+03  0.10100000352E+00 0.  1.
</event>
<event>
 5   0  0.2025294E-03  0.1186754E+04  0.7818609E-02  0.9124530E-01
        1   -1    0    0  501    0  0.00000000000E+00  0.00000000000E+00  0.88585598806E+03  0.88585598807E+03  0.50400001928E-02 0.  1.
       -1   -1    0    0    0  501  0.00000000000E+00  0.00000000000E+00 -0.39746470354E+03  0.39746470357E+03  0.50400001928E-02 0. -1.
    10030    2    1    2    0    0  0.00000000000E+00  0.00000000000E+00  0.48839128452E+03  0.12833206916E+04  0.11867543768E+04 0.  0.
        5    1    3    3  502    0 -0.80335828660E+01  0.31565540562E+03  0.78743913133E+03  0.84840164374E+03  0.46999998093E+01 0.  1.
       -5    1    3    3    0  502  0.80335828660E+01 -0.31565540562E+03 -0.29904784681E+03  0.43491904791E+03  0.46999998093E+01 0. -1.
</event>
<event>
 5   0  0.2078258E-03  0.1201362E+04  0.7818609E-02  0.9111666E-01
       -1   -1    0    0    0  501  0.00000000000E+00  0.00000000000E+00  0.22534515736E+03  0.22534515741E+03  0.50400001928E-02 0. -1.
        1   -1    0    0  501    0  0.00000000000E+00  0.00000000000E+00 -0.16011766214E+04  0.16011766214E+04  0.50400001928E-02 0.  1.
    10030    2    1    2    0    0  0.00000000000E+00  0.00000000000E+00 -0.13758314640E+04  0.18265217788E+04  0.12013615572E+04 0.  0.
        3    1    3    3  502    0  0.53761530120E+03  0.21553455372E+03 -0.44593201965E+03  0.73098613686E+03  0.10100000352E+00 0. -1.
       -3    1    3    3    0  502 -0.53761530120E+03 -0.21553455372E+03 -0.92989944438E+03  0.10955356420E+04  0.10100000352E+00 0.  1.
</event>
<event>
 5   0  0.1397500E-03  0.9311130E+03  0.7818609E-02  0.9387503E-01
       -3   -1    0    0    0  501  0.00000000000E+00  0.00000000000E+00  0.13212829327E+03  0.13212833187E+03  0.10100000352E+00 0. -1.
        3   -1    0    0  501    0  0.00000000000E+00  0.00000000000E+00 -0.16403967194E+04  0.16403967225E+04  0.10100000352E+00 0.  1.
    10030    2    1    2    0    0  0.00000000000E+00  0.00000000000E+00 -0.15082684261E+04  0.17725250544E+04  0.93111300233E+03 0.  0.
        4    1    3    3  502    0 -0.42734996886E+03  0.11942887606E+03 -0.10223412347E+04  0.11144839458E+04  0.12699999809E+01 0. -1.
       -4    1    3    3    0  502  0.42734996886E+03 -0.11942887606E+03 -0.48592719142E+03  0.65804110858E+03  0.12699999809E+01 0.  1.
</event>
<event>
 5   0  0.3706035E-03  0.1232126E+04  0.7818609E-02  0.9085192E-01
        2   -1    0    0  501    0  0.00000000000E+00  0.00000000000E+00  0.16035386134E+04  0.16035386134E+04  0.25500000920E-02 0. -1.
       -2   -1    0    0    0  501  0.00000000000E+00  0.00000000000E+00 -0.23668512220E+03  0.23668512221E+03  0.25500000920E-02 0.  1.
    10030    2    1    2    0    0  0.00000000000E+00  0.00000000000E+00  0.13668534912E+04  0.18402237356E+04  0.12321261829E+04 0.  0.
        2    1    3    3  502    0 -0.61305289655E+03  0.55549560920E+02  0.64641463753E+03  0.89262057522E+03  0.25500000920E-02 0.  1.
       -2    1    3    3    0  502  0.61305289655E+03 -0.55549560920E+02  0.72043885366E+03  0.94760316038E+03  0.25500000920E-02 0. -1.
</event>
<event>
 5   0  0.3751091E-03  0.1207743E+04  0.7818609E-02  0.9106106E-01
       -2   -1    0    0    0  501  0.00000000000E+00  0.00000000000E+00  0.44049074471E+03  0.44049074472E+03  0.25500000920E-02 0.  1.
        2   -1    0    0  501    0  0.00000000000E+00  0.00000000000E+00 -0.82785100161E+03  0.82785100161E+03  0.25500000920E-02 0. -1.
    10030    2    1    2    0    0  0.00000000000E+00  0.00000000000E+00 -0.38736025690E+03  0.12683417463E+04  0.12077428604E+04 0.  0.
        5    1    3    3  502    0 -0.44059778750E+03  0.39806716411E+03 -0.78377110905E+02  0.59895654183E+03  0.46999998093E+01 0. -1.
       -5    1    3    3    0  502  0.44059778750E+03 -0.39806716411E+03 -0.30898314599E+03  0.66938520450E+03  0.46999998093E+01 0.  1.
</event>
<event>
 5   0  0.2134992E-03  0.1197201E+04  0.7818609E-02  0.9115310E-01
       -1   -1    0    0    0  501  0.00000000000E+00  0.00000000000E+00  0.19803050924E+03  0.19803050931E+03  0.50400001928E-02 0. -1.
        1   -1    0    0  501    0  0.00000000000E+00  0.00000000000E+00 -0.18094304119E+04  0.18094304119E+04  0.50400001928E-02 0.  1.
    10030    2    1    2    0    0  0.00000000000E+00  0.00000000000E+00 -0.16113999026E+04  0.20074609212E+04  0.11972007784E+04 0.  0.
        4    1    3    3  502    0 -0.48937310993E+03 -0.16117287845E+03 -0.13166635345E+04  0.14138837341E+04  0.12699999809E+01 0.  1.
       -4    1    3    3    0  502  0.48937310993E+03  0.16117287845E+03 -0.29473636813E+03  0.59357718712E+03  0.12699999809E+01 0. -1.
</event>
<event>
 5   0  0.3725376E-03  0.1197493E+04  0.7818609E-02  0.9115054E-01
       -2   -1    0    0    0  501  0.00000000000E+00  0.00000000000E+00  0.12413052866E+03  0.12413052869E+03  0.25500000920E-02 0. -1.
        2   -1    0    0  501    0  0.00000000000E+00  0.00000000000E+00 -0.28880671819E+04  0.28880671819E+04  0.25500000920E-02 0.  1.
    10030    2    1    2    0    0  0.00000000000E+00  0.00000000000E+00 -0.27639366532E+04  0.30121977106E+04  0.11974928912E+04 0.  0.
        4    1    3    3  502    0 -0.20847467835E+02  0.17674850054E+03 -0.28199903474E+04  0.28256011434E+04  0.12699999809E+01 0.  1.
       -4    1    3    3    0  502  0.20847467835E+02 -0.17674850054E+03  0.56053694146E+02  0.18659656719E+03  0.12699999809E+01 0. -1.
</event>
<event>
 5   0  0.2025294E-03  0.1242296E+04  0.7818609E-02  0.9076620E-01
       -1   -1    0    0    0  501  0.00000000000E+00  0.00000000000E+00  0.48829696951E+03  0.48829696954E+03  0.50400001928E-02 0. -1.
        1   -1    0    0  501    0  0.00000000000E+00  0.00000000000E+00 -0.79014351076E+03  0.79014351078E+03  0.50400001928E-02 0.  1.
    10030    2    1    2    0    0  0.00000000000E+00  0.00000000000E+00 -0.30184654125E+03  0.12784404803E+04  0.12422957487E+04 0.  0.
        5    1    3    3  502    0  0.39997811398E+03 -0.47500169991E+03 -0.16523787752E+03  0.64259999436E+03  0.46999998093E+01 0.  1.
       -5    1    3    3    0  502 -0.39997811398E+03  0.47500169991E+03 -0.13660866373E+03  0.63584048596E+03  0.46999998093E+01 0. -1.
</event>
<event>
 5   0  0.3706035E-03  0.1222119E+04  0.7818609E-02  0.9093713E-01
       -2   -1    0    0    0  501  0.00000000000E+00  0.00000000000E+00  0.75325530235E+03  0.75325530235E+03  0.25500000920E-02 0. -1.
        2   -1    0    0  501    0  0.00000000000E+00  0.00000000000E+00 -0.49570692598E+03  0.49570692599E+03  0.25500000920E-02 0.  1.
    10030    2    1    2    0    0  0.00000000000E+00  0.00000000000E+00  0.25754837637E+03  0.12489622283E+04  0.12221192584E+04 0.  0.
        2    1    3    3  502    0 -0.85110469404E+02  0.60504473859E+03  0.12016643932E+03  0.62270611114E+03  0.25500000920E-02 0.  1.
       -2    1    3    3    0  502  0.85110469404E+02 -0.60504473859E+03  0.13738193705E+03  0.62625611721E+03  0.25500000920E-02 0. -1.
</event>
<event>
 5   0  0.3650180E-03  0.1177115E+04  0.7818609E-02  0.9133127E-01
        2   -1    0    0  501    0  0.00000000000E+00  0.00000000000E+00  0.10162298678E+04  0.10162298678E+04  0.25500000920E-02 0.  1.
       -2   -1    0    0    0  501  0.00000000000E+00  0.00000000000E+00 -0.34086783302E+03  0.34086783302E+03  0.25500000920E-02 0. -1.
    10030    2    1    2    0    0  0.00000000000E+00  0.00000000000E+00  0.67536203481E+03  0.13570977009E+04  0.11771152414E+04 0.  0.
        3    1    3    3  502    0 -0.57748678037E+03 -0.84038669790E+01  0.46831270391E+03  0.74355793677E+03  0.10100000352E+00 0.  1.
       -3    1    3    3    0  502  0.57748678037E+03  0.84038669790E+01  0.20704933090E+03  0.61353976408E+03  0.10100000352E+00 0. -1.
</event>
<event>
 5   0  0.2096270E-03  0.1173244E+04  0.7818609E-02  0.9136604E-01
        1   -1    0    0  501    0  0.00000000000E+00  0.00000000000E+00  0.17498336897E+04  0.17498336897E+04  0.50400001928E-02 0.  1.
       -1   -1    0    0    0  501  0.00000000000E+00  0.00000000000E+00 -0.19666182102E+03  0.19666182109E+03  0.50400001928E-02 0. -1.
    10030    2    1    2    0    0  0.00000000000E+00  0.00000000000E+00  0.15531718687E+04  0.19464955108E+04  0.11732441860E+04 0.  0.
        2    1    3    3  502    0 -0.27082771210E+03  0.11191648644E+03  0.16197018516E+04  0.16459972775E+04  0.25500000920E-02 0.  1.
       -2    1    3    3    0  502  0.27082771210E+03 -0.11191648644E+03 -0.66529982892E+02  0.30049823329E+03  0.25500000920E-02 0. -1.
</event>
<event>
 5   0  0.2025294E-03  0.1199452E+04  0.7818609E-02  0.9113336E-01
        1   -1    0    0  501    0  0.00000000000E+00  0.00000000000E+00  0.87123114205E+03  0.87123114206E+03  0.50400001928E-02 0.  1.
       -1   -1    0    0    0  501  0.00000000000E+00  0.00000000000E+00 -0.41283123724E+03  0.41283123727E+03  0.50400001928E-02 0. -1.
    10030    2    1    2    0    0  0.00000000000E+00  0.00000000000E+00  0.45839990481E+03  0.12840623793E+04  0.11994522589E+04 0.  0.
        5    1    3    3  502    0 -0.51019732261E+03  0.30677128114E+03  0.15171016163E+03  0.61436795983E+03  0.46999998093E+01 0.  1.
       -5    1    3    3    0  502  0.51019732261E+03 -0.30677128114E+03  0.30668974318E+03  0.66969441950E+03  0.46999998093E+01 0. -1.
</event>
<event>
 5   0  0.3650180E-03  0.1198535E+04  0.7818609E-02  0.9114139E-01
       -2   -1    0    0    0  501  0.00000000000E+00  0.00000000000E+00  0.69145158038E+03  0.69145158039E+03  0.25500000920E-02 0. -1.
        2   -1    0    0  501    0  0.00000000000E+00  0.00000000000E+00 -0.51937374716E+03  0.51937374717E+03  0.25500000920E-02 0.  1.
    10030    2    1    2    0    0  0.00000000000E+00  0.00000000000E+00  0.17207783322E+03  0.12108253276E+04  0.11985354368E+04 0.  0.
        3    1    3    3  502    0  0.36156821582E+03  0.42082940065E+03 -0.14276262364E+03  0.57289626989E+03  0.10100000352E+00 0. -1.
       -3    1    3    3    0  502 -0.36156821582E+03 -0.42082940065E+03  0.31484045687E+03  0.63792905767E+03  0.10100000352E+00 0.  1.
</event>
<event>
 5   0  0.3650180E-03  0.1191226E+04  0.7818609E-02  0.9120571E-01
        2   -1    0    0  501    0  0.00000000000E+00  0.00000000000E+00  0.13039737876E+04  0.13039737876E+04  0.25500000920E-02 0. -1.
       -2   -1    0    0    0  501  0.00000000000E+00  0.00000000000E+00 -0.27205694704E+03  0.27205694705E+03  0.25500000920E-02 0.  1.
    10030    2    1    2    0    0  0.00000000000E+00  0.00000000000E+00  0.10319168406E+04  0.15760307347E+04  0.11912264733E+04 0.  0.
        3    1    3    3  502    0 -0.45247760572E+03  0.15844588745E+03  0.98355999388E+03  0.10941806773E+04  0.10100000352E+00 0. -1.
       -3    1    3    3    0  502  0.45247760572E+03 -0.15844588745E+03  0.48356846722E+02  0.48185005734E+03  0.10100000352E+00 0.  1.
</event>
<event>
 5   0  0.3706035E-03  0.1221958E+04  0.7818609E-02  0.9093851E-01
        2   -1    0    0  501    0  0.00000000000E+00  0.00000000000E+00  0.12218295938E+04  0.12218295938E+04  0.25500000920E-02 0.  1.
       -2   -1    0    0    0  501  0.00000000000E+00  0.00000000000E+00 -0.30552137004E+03  0.30552137005E+03  0.25500000920E-02 0. -1.
    10030    2    1    2    0    0  0.00000000000E+00  0.00000000000E+00  0.91630822378E+03  0.15273509639E+04  0.12219575303E+04 0.  0.
        2    1    3    3  502    0 -0.13589458694E+03 -0.17117969317E+03  0.11712945366E+04  0.11915119461E+04  0.25500000920E-02 0.  1.
       -2    1    3    3    0  502  0.13589458694E+03  0.17117969317E+03 -0.25498631285E+03  0.33583901778E+03  0.25500000920E-02 0. -1.
</event>
<event>
 5   0  0.2047109E-03  0.1211414E+04  0.7818609E-02  0.9102925E-01
        1   -1    0    0  501    0  0.00000000000E+00  0.00000000000E+00  0.92174693321E+03  0.92174693323E+03  0.50400001928E-02 0.  1.
       -1   -1    0    0    0  501  0.00000000000E+00  0.00000000000E+00 -0.39802760336E+03  0.39802760339E+03  0.50400001928E-02 0. -1.
    10030    2    1    2    0    0  0.00000000000E+00  0.00000000000E+00  0.52371932986E+03  0.13197745366E+04  0.12114135921E+04 0.  0.
        1    1    3    3  502    0  0.60333053481E+03  0.53236824334E+02  0.26864834931E+03  0.66258118696E+03  0.50400001928E-02 0.  1.
       -1    1    3    3    0  502 -0.60333053481E+03 -0.53236824334E+02  0.25507098055E+03  0.65719334966E+03  0.50400001928E-02 0. -1.
</event>
<event>
 5   0  0.3725376E-03  0.1181880E+04  0.7818609E-02  0.9128867E-01
        2   -1    0    0  501    0  0.00000000000E+00  0.00000000000E+00  0.15140634638E+04  0.15140634638E+04  0.25500000920E-02 0. -1.
       -2   -1    0    0    0  501  0.00000000000E+00  0.00000000000E+00 -0.23064412304E+03  0.23064412305E+03  0.25500000920E-02 0.  1.
    10030    2    1    2    0    0  0.00000000000E+00  0.00000000000E+00  0.12834193407E+04  0.17447075868E+04  0.11818795875E+04 0.  0.
        4    1    3    3  502    0 -0.21350291409E+03 -0.43438131639E+03  0.11421824812E+04  0.12405051614E+04  0.12699999809E+01 0.  1.
       -4    1    3    3    0  502  0.21350291409E+03  0.43438131639E+03  0.14123685954E+03  0.50420242537E+03  0.12699999809E+01 0. -1.
</event>
<event>
 5   0  0.3650180E-03  0.1238859E+04  0.7818609E-02  0.9079508E-01
        2   -1    0    0  501    0  0.00000000000E+00  0.00000000000E+00  0.10598731736E+04  0.10598731736E+04  0.25500000920E-02 0. -1.
       -2   -1    0    0    0  501  0.00000000000E+00  0.00000000000E+00 -0.36201748865E+03  0.36201748866E+03  0.25500000920E-02 0.  1.
    10030    2    1    2    0    0  0.00000000000E+00  0.00000000000E+00  0.69785568496E+03  0.14218906623E+04  0.12388585466E+04 0.  0.
        3    1    3    3  502    0 -0.63954421355E+02  0.26656104430E+03  0.98646515396E+03  0.10238449436E+04  0.10100000352E+00 0. -1.
       -3    1    3    3    0  502  0.63954421355E+02 -0.26656104430E+03 -0.28860946900E+03  0.39804571867E+03  0.10100000352E+00 0.  1.
</event>
<event>
 5   0  0.2096270E-03  0.1186395E+04  0.7818609E-02  0.9124849E-01
        1   -1    0    0  501    0  0.00000000000E+00  0.00000000000E+00  0.50880838073E+03  0.50880838075E+03  0.50400001928E-02 0. -1.
       -1   -1    0    0    0  501  0.00000000000E+00  0.00000000000E+00 -0.69158362867E+03  0.69158362869E+03  0.50400001928E-02 0.  1.
    10030    2    1    2    0    0  0.00000000000E+00  0.00000000000E+00 -0.18277524795E+03  0.12003920094E+04  0.11863954590E+04 0.  0.
        2    1    3    3  502    0 -0.95618859894E+02 -0.48203844049E+03 -0.42754130722E+03  0.65137976163E+03  0.25500000920E-02 0.  1.
       -2    1    3    3    0  502  0.95618859894E+02  0.48203844049E+03  0.24476605927E+03  0.54901224782E+03  0.25500000920E-02 0. -1.
</event>
<event>
 5   0  0.2047109E-03  0.1207540E+04  0.7818609E-02  0.9106282E-01
        1   -1    0    0  501    0  0.00000000000E+00  0.00000000000E+00  0.99858837955E+03  0.99858837956E+03  0.50400001928E-02 0. -1.
       -1   -1    0    0    0  501  0.00000000000E+00  0.00000000000E+00 -0.36505353599E+03  0.36505353602E+03  0.50400001928E-02 0.  1.
    10030    2    1    2    0    0  0.00000000000E+00  0.00000000000E+00  0.63353484356E+03  0.13636419156E+04  0.12075400101E+04 0.  0.
        1    1    3    3  502    0  0.43143583103E+03  0.36748552902E+03  0.81629834661E+02  0.57257830929E+03  0.50400001928E-02 0.  1.
       -1    1    3    3    0  502 -0.43143583103E+03 -0.36748552902E+03  0.55190500890E+03  0.79106360630E+03  0.50400001928E-02 0. -1.
</event>
<event>
 5   0  0.3626049E-03  0.1121036E+04  0.7818609E-02  0.9184928E-01
       -2   -1    0    0    0  501  0.00000000000E+00  0.00000000000E+00  0.11636681934E+04  0.11636681934E+04  0.25500000920E-02 0. -1.
        2   -1    0    0  501    0  0.00000000000E+00  0.00000000000E+00 -0.26999152446E+03  0.26999152447E+03  0.25500000920E-02 0.  1.
    10030    2    1    2    0    0  0.00000000000E+00  0.00000000000E+00  0.89367666891E+03  0.14336597178E+04  0.11210362162E+04 0.  0.
        1    1    3    3  502    0  0.14296730305E+03  0.52582169858E+03  0.27886060149E+03  0.61212036686E+03  0.50400001928E-02 0.  1.
       -1    1    3    3    0  502 -0.14296730305E+03 -0.52582169858E+03  0.61481606742E+03  0.82153935099E+03  0.50400001928E-02 0. -1.
</event>
<event>
 5   0  0.2025294E-03  0.1184247E+04  0.7818609E-02  0.9126758E-01
        1   -1    0    0  501    0  0.00000000000E+00  0.00000000000E+00  0.75935309107E+03  0.75935309108E+03  0.50400001928E-02 0. -1.
       -1   -1    0    0    0  501  0.00000000000E+00  0.00000000000E+00 -0.46172228897E+03  0.46172228900E+03  0.50400001928E-02 0.  1.
    10030    2    1    2    0    0  0.00000000000E+00  0.00000000000E+00  0.29763080209E+03  0.12210753801E+04  0.11842470137E+04 0.  0.
        5    1    3    3  502    0 -0.17723065450E+03  0.53180038187E+03 -0.47813244362E+02  0.56261047572E+03  0.46999998093E+01 0.  1.
       -5    1    3    3    0  502  0.17723065450E+03 -0.53180038187E+03  0.34544404645E+03  0.65846490437E+03  0.46999998093E+01 0. -1.
</event>
<event>
 5   0  0.2047109E-03  0.1224905E+04  0.7818609E-02  0.9091333E-01
       -1   -1    0    0    0  501  0.00000000000E+00  0.00000000000E+00  0.45587877392E+03  0.45587877394E+03  0.50400001928E-02 0. -1.
        1   -1    0    0  501    0  0.00000000000E+00  0.00000000000E+00 -0.82280161422E+03  0.82280161423E+03  0.50400001928E-02 0.  1.
    10030    2    1    2    0    0  0.00000000000E+00  0.00000000000E+00 -0.36692284030E+03  0.12786803882E+04  0.12249045532E+04 0.  0.
        1    1    3    3  502    0 -0.28390264238E+03 -0.37397476720E+03 -0.59396846202E+03  0.75713695641E+03  0.50400001928E-02 0.  1.
       -1    1    3    3    0  502  0.28390264238E+03  0.37397476720E+03  0.22704562172E+03  0.52154343177E+03  0.50400001928E-02 0. -1.
</event>
<event>
 5   0  0.3650180E-03  0.1187092E+04  0.7818609E-02  0.9124231E-01
       -2   -1    0    0    0  501  0.00000000000E+00  0.00000000000E+00  0.38616216622E+03  0.38616216623E+03  0.25500000920E-02 0.  1.
        2   -1    0    0  501    0  0.00000000000E+00  0.00000000000E+00 -0.91230281564E+03  0.91230281564E+03  0.25500000920E-02 0. -1.
    10030    2    1    2    0    0  0.00000000000E+00  0.00000000000E+00 -0.52614064942E+03  0.12984649819E+04  0.11870919620E+04 0.  0.
        3    1    3    3  502    0 -0.44706546056E+03  0.19019624057E+03  0.10988010337E+03  0.49811221956E+03  0.10100000352E+00 0.  1.
       -3    1    3    3    0  502  0.44706546056E+03 -0.19019624057E+03 -0.63602075279E+03  0.80035276231E+03  0.10100000352E+00 0. -1.
</event>
<event>
 5   0  0.2047109E-03  0.1203189E+04  0.7818609E-02  0.9110070E-01
       -1   -1    0    0    0  501  0.00000000000E+00  0.00000000000E+00  0.82981431681E+03  0.82981431683E+03  0.50400001928E-02 0. -1.
        1   -1    0    0  501    0  0.00000000000E+00  0.00000000000E+00 -0.43614107013E+03  0.43614107015E+03  0.50400001928E-02 0.  1.
    10030    2    1    2    0    0  0.00000000000E+00  0.00000000000E+00  0.39367324668E+03  0.12659553870E+04  0.12031892688E+04 0.  0.
        1    1    3    3  502    0 -0.42475313270E+03  0.25535760541E+03  0.55564447361E+03  0.74455591560E+03  0.50400001928E-02 0. -1.
       -1    1    3    3    0  502  0.42475313270E+03 -0.25535760541E+03 -0.16197122693E+03  0.52139947138E+03  0.50400001928E-02 0.  1.
</event>
<event>
 5   0  0.2047109E-03  0.1196848E+04  0.7818609E-02  0.9115620E-01
        1   -1    0    0  501    0  0.00000000000E+00  0.00000000000E+00  0.14843766224E+04  0.14843766224E+04  0.50400001928E-02 0.  1.
       -1   -1    0    0    0  501  0.00000000000E+00  0.00000000000E+00 -0.24125375732E+03  0.24125375738E+03  0.50400001928E-02 0. -1.
    10030    2    1    2    0    0  0.00000000000E+00  0.00000000000E+00  0.12431228650E+04  0.17256303797E+04  0.11968482568E+04 0.  0.
        1    1    3    3  502    0 -0.47131401510E+02 -0.97372193075E+02 -0.22703870345E+03  0.25149410705E+03  0.50400001928E-02 0. -1.
       -1    1    3    3    0  502  0.47131401510E+02  0.97372193075E+02  0.14701615685E+04  0.14741362727E+04  0.50400001928E-02 0.  1.
</event>
<event>
 5   0  0.2096270E-03  0.1202832E+04  0.7818609E-02  0.9110381E-01
       -1   -1    0    0    0  501  0.00000000000E+00  0.00000000000E+00  0.82784220752E+03  0.82784220753E+03  0.50400001928E-02 0.  1.
        1   -1    0    0  501    0  0.00000000000E+00  0.00000000000E+00 -0.43692041365E+03  0.43692041368E+03  0.50400001928E-02 0. -1.
    10030    2    1    2    0    0  0.00000000000E+00  0.00000000000E+00  0.39092179387E+03  0.12647626212E+04  0.12028319247E+04 0.  0.
        2    1    3    3  502    0  0.57770887446E+03  0.70088117400E+02  0.35506986894E+03  0.68171438276E+03  0.25500000920E-02 0.  1.
       -2    1    3    3    0  502 -0.57770887446E+03 -0.70088117400E+02  0.35851924930E+02  0.58304823845E+03  0.25500000920E-02 0. -1.
</event>
<event>
 5   0  0.3626049E-03  0.1203428E+04  0.7818609E-02  0.9109862E-01
        2   -1    0    0  501    0  0.00000000000E+00  0.00000000000E+00  0.12300482418E+04  0.12300482418E+04  0.25500000920E-02 0. -1.
       -2   -1    0    0    0  501  0.00000000000E+00  0.00000000000E+00 -0.29434572810E+03  0.29434572811E+03  0.25500000920E-02 0.  1.
    10030    2    1    2    0    0  0.00000000000E+00  0.00000000000E+00  0.93570251370E+03  0.15243939699E+04  0.12034275140E+04 0.  0.
        1    1    3    3  502    0 -0.11020064681E+03  0.58704812096E+03  0.37572243149E+03  0.70564652938E+03  0.50400001928E-02 0.  1.
       -1    1    3    3    0  502  0.11020064681E+03 -0.58704812096E+03  0.55998008221E+03  0.81874744053E+03  0.50400001928E-02 0. -1.
</event>
<event>
 5   0  0.1397500E-03  0.1223905E+04  0.7818609E-02  0.9092186E-01
       -3   -1    0    0    0  501  0.00000000000E+00  0.00000000000E+00  0.10405274691E+04  0.10405274740E+04  0.10100000352E+00 0. -1.
        3   -1    0    0  501    0  0.00000000000E+00  0.00000000000E+00 -0.35990025840E+03  0.35990027257E+03  0.10100000352E+00 0.  1.
    10030    2    1    2    0    0  0.00000000000E+00  0.00000000000E+00  0.68062721070E+03  0.14004277466E+04  0.12239054185E+04 0.  0.
        2    1    3    3  502    0  0.48658223133E+03  0.23125372368E+03  0.82002234998E+01  0.53880218655E+03  0.25500000920E-02 0. -1.
       -2    1    3    3    0  502 -0.48658223133E+03 -0.23125372368E+03  0.67242698720E+03  0.86162556002E+03  0.25500000920E-02 0.  1.
</event>
<event>
 5   0  0.3650180E-03  0.1256414E+04  0.7818609E-02  0.9064862E-01
       -2   -1    0    0    0  501  0.00000000000E+00  0.00000000000E+00  0.23763268364E+03  0.23763268366E+03  0.25500000920E-02 0. -1.
        2   -1    0    0  501    0  0.00000000000E+00  0.00000000000E+00 -0.16607315507E+04  0.16607315507E+04  0.25500000920E-02 0.  1.
    10030    2    1    2    0    0  0.00000000000E+00  0.00000000000E+00 -0.14230988671E+04  0.18983642344E+04  0.12564140961E+04 0.  0.
        3    1    3    3  502    0  0.24358948747E+03 -0.53090109817E+03 -0.36222430951E+03  0.68731235624E+03  0.10100000352E+00 0. -1.
       -3    1    3    3    0  502 -0.24358948747E+03  0.53090109817E+03 -0.10608745576E+04  0.12110518782E+04  0.10100000352E+00 0.  1.
</event>
<event>
 5   0  0.3706035E-03  0.1244862E+04  0.7818609E-02  0.9074470E-01
       -2   -1    0    0    0  501  0.00000000000E+00  0.00000000000E+00  0.96671395592E+03  0.96671395593E+03  0.25500000920E-02 0.  1.
        2   -1    0    0  501    0  0.00000000000E+00  0.00000000000E+00 -0.40076036570E+03  0.40076036571E+03  0.25500000920E-02 0. -1.
    10030    2    1    2    0    0  0.00000000000E+00  0.00000000000E+00  0.56595359022E+03  0.13674743216E+04  0.12448624639E+04 0.  0.
        2    1    3    3  502    0 -0.51145052574E+03  0.21922026912E+03  0.58933949375E+03  0.81053081717E+03  0.25500000920E-02 0.  1.
       -2    1    3    3    0  502  0.51145052574E+03 -0.21922026912E+03 -0.23385903528E+02  0.55694350447E+03  0.25500000920E-02 0. -1.
</event>
<event>
 5   0  0.3626049E-03  0.1195687E+04  0.7818609E-02  0.9116640E-01
       -2   -1    0    0    0  501  0.00000000000E+00  0.00000000000E+00  0.12048911763E+03  0.12048911766E+03  0.25500000920E-02 0. -1.
        2   -1    0    0  501    0  0.00000000000E+00  0.00000000000E+00 -0.29663845667E+04  0.29663845667E+04  0.25500000920E-02 0.  1.
    10030    2    1    2    0    0  0.00000000000E+00  0.00000000000E+00 -0.28458954490E+04  0.30868736843E+04  0.11956873488E+04 0.  0.
        1    1    3    3  502    0 -0.88132645229E+02  0.59130161797E+03 -0.14319252830E+04  0.15517135633E+04  0.50400001928E-02 0. -1.
       -1    1    3    3    0  502  0.88132645229E+02 -0.59130161797E+03 -0.14139701660E+04  0.15351601210E+04  0.50400001928E-02 0.  1.
</event>
<event>
 5   0  0.3650180E-03  0.1190520E+04  0.7818609E-02  0.9121195E-01
       -2   -1    0    0    0  501  0.00000000000E+00  0.00000000000E+00  0.25483629002E+03  0.25483629003E+03  0.25500000920E-02 0. -1.
        2   -1    0    0  501    0  0.00000000000E+00  0.00000000000E+00 -0.13904407398E+04  0.13904407398E+04  0.25500000920E-02 0.  1.
    10030    2    1    2    0    0  0.00000000000E+00  0.00000000000E+00 -0.11356044497E+04  0.16452770298E+04  0.11905204906E+04 0.  0.
        3    1    3    3  502    0  0.55399081754E+03 -0.14219623282E+03 -0.79576276961E+03  0.97998162750E+03  0.10100000352E+00 0. -1.
       -3    1    3    3    0  502 -0.55399081754E+03  0.14219623282E+03 -0.33984168013E+03  0.66529540229E+03  0.10100000352E+00 0.  1.
</event>
<event>
 5   0  0.2047109E-03  0.1163547E+04  0.7818609E-02  0.9145376E-01
       -1   -1    0    0    0  501  0.00000000000E+00  0.00000000000E+00  0.60537417344E+03  0.60537417346E+03  0.50400001928E-02 0. -1.
        1   -1    0    0  501    0  0.00000000000E+00  0.00000000000E+00 -0.55909308146E+03  0.55909308149E+03  0.50400001928E-02 0.  1.
    10030    2    1    2    0    0  0.00000000000E+00  0.00000000000E+00  0.46281091974E+02  0.11644672549E+04  0.11635471836E+04 0.  0.
        1    1    3    3  502    0 -0.53131756606E+03 -0.20919028817E+03  0.13459098420E+03  0.58666316206E+03  0.50400001928E-02 0. -1.
       -1    1    3    3    0  502  0.53131756606E+03  0.20919028817E+03 -0.88309892223E+02  0.57780409289E+03  0.50400001928E-02 0.  1.
</event>
<event>
 5   0  0.1397500E-03  0.1203161E+04  0.7818609E-02  0.9110095E-01
        3   -1    0    0  501    0  0.00000000000E+00  0.00000000000E+00  0.14820884236E+04  0.14820884270E+04  0.10100000352E+00 0.  1.
       -3   -1    0    0    0  501  0.00000000000E+00  0.00000000000E+00 -0.24418166976E+03  0.24418169065E+03  0.10100000352E+00 0. -1.
    10030    2    1    2    0    0  0.00000000000E+00  0.00000000000E+00  0.12379067538E+04  0.17262701177E+04  0.12031605828E+04 0.  0.
        2    1    3    3  502    0  0.52620212070E+03  0.72284514856E+02  0.21368182465E+03  0.57251519203E+03  0.25500000920E-02 0. -1.
       -2    1    3    3    0  502 -0.52620212070E+03 -0.72284514856E+02  0.10242249291E+04  0.11537549256E+04  0.25500000920E-02 0.  1.
</event>
<event>
 5   0  0.1397500E-03  0.1202143E+04  0.7818609E-02  0.9110983E-01
       -3   -1    0    0    0  501  0.00000000000E+00  0.00000000000E+00  0.12179161040E+04  0.12179161082E+04  0.10100000352E+00 0.  1.
        3   -1    0    0  501    0  0.00000000000E+00  0.00000000000E+00 -0.29664370452E+03  0.29664372172E+03  0.10100000352E+00 0. -1.
    10030    2    1    2    0    0  0.00000000000E+00  0.00000000000E+00  0.92127239952E+03  0.15145598299E+04  0.12021433543E+04 0.  0.
        1    1    3    3  502    0  0.66279714517E+02  0.44320591667E+03  0.96531747214E+03  0.10642660885E+04  0.50400001928E-02 0.  1.
       -1    1    3    3    0  502 -0.66279714517E+02 -0.44320591667E+03 -0.44045072618E+02  0.45029374143E+03  0.50400001928E-02 0. -1.
</event>
<event>
 5   0  0.3725376E-03  0.1215739E+04  0.7818609E-02  0.9099190E-01
       -2   -1    0    0    0  501  0.00000000000E+00  0.00000000000E+00  0.39705854016E+03  0.39705854017E+03  0.25500000920E-02 0.  1.
        2   -1    0    0  501    0  0.00000000000E+00  0.00000000000E+00 -0.93060720346E+03  0.93060720347E+03  0.25500000920E-02 0. -1.
    10030    2    1    2    0    0  0.00000000000E+00  0.00000000000E+00 -0.53354866330E+03  0.13276657436E+04  0.12157393432E+04 0.  0.
        4    1    3    3  502    0  0.25355109459E+03 -0.23538691013E+03  0.27904902850E+03  0.44448298981E+03  0.12699999809E+01 0.  1.
       -4    1    3    3    0  502 -0.25355109459E+03  0.23538691013E+03 -0.81259769180E+03  0.88318275382E+03  0.12699999809E+01 0. -1.
</event>
<event>
 5   0  0.3706035E-03  0.1211790E+04  0.7818609E-02  0.9102599E-01
       -2   -1    0    0    0  501  0.00000000000E+00  0.00000000000E+00  0.63385846913E+03  0.63385846914E+03  0.25500000920E-02 0. -1.
        2   -1    0    0  501    0  0.00000000000E+00  0.00000000000E+00 -0.57916489740E+03  0.57916489741E+03  0.25500000920E-02 0.  1.
    10030    2    1    2    0    0  0.00000000000E+00  0.00000000000E+00  0.54693571731E+02  0.12130233665E+04  0.12117897099E+04 0.  0.
        2    1    3    3  502    0  0.23266212190E+03  0.99708207852E+01  0.58727076832E+03  0.63175789315E+03  0.25500000920E-02 0. -1.
       -2    1    3    3    0  502 -0.23266212190E+03 -0.99708207852E+01 -0.53257719658E+03  0.58126547340E+03  0.25500000920E-02 0.  1.
</event>
<event>
 5   0  0.2096270E-03  0.1197230E+04  0.7818609E-02  0.9115284E-01
       -1   -1    0    0    0  501  0.00000000000E+00  0.00000000000E+00  0.85217817821E+03  0.85217817822E+03  0.50400001928E-02 0. -1.
        1   -1    0    0  501    0  0.00000000000E+00  0.00000000000E+00 -0.42049898860E+03  0.42049898863E+03  0.50400001928E-02 0.  1.
    10030    2    1    2    0    0  0.00000000000E+00  0.00000000000E+00  0.43167918961E+03  0.12726771668E+04  0.11972302403E+04 0.  0.
        2    1    3    3  502    0  0.26520366283E+03  0.53590675530E+03  0.18556636617E+03  0.62607021125E+03  0.25500000920E-02 0.  1.
       -2    1    3    3    0  502 -0.26520366283E+03 -0.53590675530E+03  0.24611282344E+03  0.64660695560E+03  0.25500000920E-02 0. -1.
</event>
<event>
 5   0  0.1397500E-03  0.1167293E+04  0.7818609E-02  0.9141977E-01
        4   -1    0    0  501    0  0.00000000000E+00  0.00000000000E+00  0.99315969108E+03  0.99316050308E+03  0.12699999809E+01 0. -1.
       -4   -1    0    0    0  501  0.00000000000E+00  0.00000000000E+00 -0.34298726480E+03  0.34298961605E+03  0.12699999809E+01 0.  1.
    10030    2    1    2    0    0  0.00000000000E+00  0.00000000000E+00  0.65017242628E+03  0.13361501191E+04  0.11672930039E+04 0.  0.
        5    1    3    3  502    0 -0.16072627310E+02 -0.29116737094E+03  0.90377161662E+03  0.94966414708E+03  0.46999998093E+01 0. -1.
       -5    1    3    3    0  502  0.16072627310E+02  0.29116737094E+03 -0.25359919035E+03  0.38648597205E+03  0.46999998093E+01 0.  1.
</event>
<event>
 5   0  0.3626049E-03  0.1163780E+04  0.7818609E-02  0.9145165E-01
       -2   -1    0    0    0  501  0.00000000000E+00  0.00000000000E+00  0.21271016215E+03  0.21271016216E+03  0.25500000920E-02 0.  1.
        2   -1    0    0  501    0  0.00000000000E+00  0.00000000000E+00 -0.15918173027E+04  0.15918173027E+04  0.25500000920E-02 0. -1.
    10030    2    1    2    0    0  0.00000000000E+00  0.00000000000E+00 -0.13791071405E+04  0.18045274648E+04  0.11637795609E+04 0.  0.
        1    1    3    3  502    0 -0.10467769627E+03 -0.44275530512E+03 -0.12520641245E+04  0.13321614963E+04  0.50400001928E-02 0. -1.
       -1    1    3    3    0  502  0.10467769627E+03  0.44275530512E+03 -0.12704301606E+03  0.47236596857E+03  0.50400001928E-02 0.  1.
</event>
<event>
 5   0  0.2047109E-03  0.9480336E+03  0.7818609E-02  0.9367452E-01
       -1   -1    0    0    0  501  0.00000000000E+00  0.00000000000E+00  0.32000841217E+03  0.32000841221E+03  0.50400001928E-02 0. -1.
        1   -1    0    0  501    0  0.00000000000E+00  0.00000000000E+00 -0.70214378272E+03  0.70214378274E+03  0.50400001928E-02 0.  1.
    10030    2    1    2    0    0  0.00000000000E+00  0.00000000000E+00 -0.38213537055E+03  0.10221521949E+04  0.94803357969E+03 0.  0.
        1    1    3    3  502    0 -0.99567143580E+02  0.44233583847E+03 -0.41992553562E+02  0.45534380929E+03  0.50400001928E-02 0. -1.
       -1    1    3    3    0  502  0.99567143580E+02 -0.44233583847E+03 -0.34014281699E+03  0.56680838566E+03  0.50400001928E-02 0.  1.
</event>
<event>
 5   0  0.2025294E-03  0.1215839E+04  0.7818609E-02  0.9099105E-01
        1   -1    0    0  501    0  0.00000000000E+00  0.00000000000E+00  0.60882806265E+03  0.60882806267E+03  0.50400001928E-02 0.  1.
       -1   -1    0    0    0  501  0.00000000000E+00  0.00000000000E+00 -0.60701194106E+03  0.60701194108E+03  0.50400001928E-02 0. -1.
    10030    2    1    2    0    0  0.00000000000E+00  0.00000000000E+00  0.18161215868E+01  0.12158400038E+04  0.12158386474E+04 0.  0.
        5    1    3    3  502    0  0.54834705908E+03  0.24744355430E+03  0.88263778239E+02  0.60805048665E+03  0.46999998093E+01 0.  1.
       -5    1    3    3    0  502 -0.54834705908E+03 -0.24744355430E+03 -0.86447656652E+02  0.60778951711E+03  0.46999998093E+01 0. -1.
</event>
<event>
 5   0  0.2047109E-03  0.1200348E+04  0.7818609E-02  0.9112552E-01
       -1   -1    0    0    0  501  0.00000000000E+00  0.00000000000E+00  0.35053376058E+03  0.35053376061E+03  0.50400001928E-02 0. -1.
        1   -1    0    0  501    0  0.00000000000E+00  0.00000000000E+00 -0.10276016118E+04  0.10276016118E+04  0.50400001928E-02 0.  1.
    10030    2    1    2    0    0  0.00000000000E+00  0.00000000000E+00 -0.67706785122E+03  0.13781353724E+04  0.12003483784E+04 0.  0.
        1    1    3    3  502    0 -0.35868762856E+03  0.38907630871E+03 -0.66361790880E+03  0.84877907478E+03  0.50400001928E-02 0.  1.
       -1    1    3    3    0  502  0.35868762856E+03 -0.38907630871E+03 -0.13449942420E+02  0.52935629764E+03  0.50400001928E-02 0. -1.
</event>
<event>
 5   0  0.2078258E-03  0.1201471E+04  0.7818609E-02  0.9111570E-01
       -1   -1    0    0    0  501  0.00000000000E+00  0.00000000000E+00  0.28332567539E+03  0.28332567544E+03  0.50400001928E-02 0.  1.
        1   -1    0    0  501    0  0.00000000000E+00  0.00000000000E+00 -0.12737400074E+04  0.12737400074E+04  0.50400001928E-02 0. -1.
    10030    2    1    2    0    0  0.00000000000E+00  0.00000000000E+00 -0.99041433199E+03  0.15570656828E+04  0.12014711780E+04 0.  0.
        3    1    3    3  502    0  0.53442983095E+03  0.27172571849E+03 -0.44614621323E+03  0.74732627685E+03  0.10100000352E+00 0.  1.
       -3    1    3    3    0  502 -0.53442983095E+03 -0.27172571849E+03 -0.54426811877E+03  0.80973940598E+03  0.10100000352E+00 0. -1.
</event>
<event>
 5   0  0.3650180E-03  0.1171161E+04  0.7818609E-02  0.9138480E-01
       -2   -1    0    0    0  501  0.00000000000E+00  0.00000000000E+00  0.21810495184E+03  0.21810495185E+03  0.25500000920E-02 0.  1.
        2   -1    0    0  501    0  0.00000000000E+00  0.00000000000E+00 -0.15721999848E+04  0.15721999848E+04  0.25500000920E-02 0. -1.
    10030    2    1    2    0    0  0.00000000000E+00  0.00000000000E+00 -0.13540950330E+04  0.17903049367E+04  0.11711611366E+04 0.  0.
        3    1    3    3  502    0  0.30480338031E+03 -0.34315878371E+03 -0.12115054725E+03  0.47470044953E+03  0.10100000352E+00 0.  1.
       -3    1    3    3    0  502 -0.30480338031E+03  0.34315878371E+03 -0.12329444858E+04  0.13156044872E+04  0.10100000352E+00 0. -1.
</event>
<event>
 5   0  0.3626049E-03  0.1218401E+04  0.7818609E-02  0.9096901E-01
       -2   -1    0    0    0  501  0.00000000000E+00  0.00000000000E+00  0.53087723674E+03  0.53087723674E+03  0.25500000920E-02 0. -1.
        2   -1    0    0  501    0  0.00000000000E+00  0.00000000000E+00 -0.69907950264E+03  0.69907950265E+03  0.25500000920E-02 0.  1.
    10030    2    1    2    0    0  0.00000000000E+00  0.00000000000E+00 -0.16820226591E+03  0.12299567394E+04  0.12184012387E+04 0.  0.
        1    1    3    3  502    0  0.44604140940E+03  0.41481335107E+03 -0.73888890785E+02  0.61358179840E+03  0.50400001928E-02 0.  1.
       -1    1    3    3    0  502 -0.44604140940E+03 -0.41481335107E+03 -0.94313375121E+02  0.61637494099E+03  0.50400001928E-02 0. -1.
</event>
<event>
 5   0  0.1397500E-03  0.1200800E+04  0.7818609E-02  0.9112157E-01
       -3   -1    0    0    0  501  0.00000000000E+00  0.00000000000E+00  0.69559283880E+03  0.69559284614E+03  0.10100000352E+00 0.  1.
        3   -1    0    0  501    0  0.00000000000E+00  0.00000000000E+00 -0.51823430991E+03  0.51823431975E+03  0.10100000352E+00 0. -1.
    10030    2    1    2    0    0  0.00000000000E+00  0.00000000000E+00  0.17735852890E+03  0.12138271659E+04  0.12007998754E+04 0.  0.
        4    1    3    3  502    0 -0.12290254403E+03 -0.52031632147E+02 -0.50304832511E+03  0.52045322207E+03  0.12699999809E+01 0. -1.
       -4    1    3    3    0  502  0.12290254403E+03  0.52031632147E+02  0.68040685401E+03  0.69337394381E+03  0.12699999809E+01 0.  1.
</event>
<event>
 5   0  0.3725376E-03  0.1188333E+04  0.7818609E-02  0.9123130E-01
       -2   -1    0    0    0  501  0.00000000000E+00  0.00000000000E+00  0.78449867998E+03  0.78449867998E+03  0.25500000920E-02 0.  1.
        2   -1    0    0  501    0  0.00000000000E+00  0.00000000000E+00 -0.45001228068E+03  0.45001228069E+03  0.25500000920E-02 0. -1.
    10030    2    1    2    0    0  0.00000000000E+00  0.00000000000E+00  0.33448639930E+03  0.12345109607E+04  0.11883333542E+04 0.  0.
        4    1    3    3  502    0 -0.87386112455E+02  0.58485168345E+02 -0.44026789036E+03  0.45265248895E+03  0.12699999809E+01 0. -1.
       -4    1    3    3    0  502  0.87386112455E+02 -0.58485168345E+02  0.77475428966E+03  0.78185847173E+03  0.12699999809E+01 0.  1.
</event>
<event>
 5   0  0.2096270E-03  0.9261417E+03  0.7818609E-02  0.9393480E-01
       -1   -1    0    0    0  501  0.00000000000E+00  0.00000000000E+00  0.12431029534E+04  0.12431029534E+04  0.50400001928E-02 0.  1.
        1   -1    0    0  501    0  0.00000000000E+00  0.00000000000E+00 -0.17249949587E+03  0.17249949594E+03  0.50400001928E-02 0. -1.
    10030    2    1    2    0    0  0.00000000000E+00  0.00000000000E+00  0.10706034575E+04  0.14156024494E+04  0.92614174473E+03 0.  0.
        2    1    3    3  502    0  0.34468297362E+03 -0.24775318716E+03  0.81816256566E+03  0.92172554370E+03  0.25500000920E-02 0.  1.
       -2    1    3    3    0  502 -0.34468297362E+03  0.24775318716E+03  0.25244089189E+03  0.49387690567E+03  0.25500000920E-02 0. -1.
</event>
<event>
 5   0  0.3751091E-03  0.1197384E+04  0.7818609E-02  0.9115149E-01
        2   -1    0    0  501    0  0.00000000000E+00  0.00000000000E+00  0.11310883278E+04  0.11310883278E+04  0.25500000920E-02 0.  1.
       -2   -1    0    0    0  501  0.00000000000E+00  0.00000000000E+00 -0.31689145210E+03  0.31689145211E+03  0.25500000920E-02 0. -1.
    10030    2    1    2    0    0  0.00000000000E+00  0.00000000000E+00  0.81419687575E+03  0.14479797800E+04  0.11973841867E+04 0.  0.
        5    1    3    3  502    0 -0.74824901251E+02 -0.85866688312E+02 -0.30364721055E+03  0.32433866942E+03  0.46999998093E+01 0. -1.
       -5    1    3    3    0  502  0.74824901251E+02  0.85866688312E+02  0.11178440863E+04  0.11236411105E+04  0.46999998093E+01 0.  1.
</event>
<event>
 5   0  0.3751091E-03  0.1144427E+04  0.7818609E-02  0.9162940E-01
        2   -1    0    0  501    0  0.00000000000E+00  0.00000000000E+00  0.17858528520E+04  0.17858528520E+04  0.25500000920E-02 0. -1.
       -2   -1    0    0    0  501  0.00000000000E+00  0.00000000000E+00 -0.18334575741E+03  0.18334575743E+03  0.25500000920E-02 0.  1.
    10030    2    1    2    0    0  0.00000000000E+00  0.00000000000E+00  0.16025070946E+04  0.19691986094E+04  0.11444274443E+04 0.  0.
        5    1    3    3  502    0  0.48192948141E+03  0.29939202429E+03  0.67347207332E+03  0.88061247595E+03  0.46999998093E+01 0. -1.
       -5    1    3    3    0  502 -0.48192948141E+03 -0.29939202429E+03  0.92903502123E+03  0.10885861334E+04  0.46999998093E+01 0.  1.
</event>
<event>
 5   0  0.3650180E-03  0.1200227E+04  0.7818609E-02  0.9112658E-01
       -2   -1    0    0    0  501  0.00000000000E+00  0.00000000000E+00  0.43507672093E+03  0.43507672094E+03  0.25500000920E-02 0. -1.
        2   -1    0    0  501    0  0.00000000000E+00  0.00000000000E+00 -0.82775292899E+03  0.82775292899E+03  0.25500000920E-02 0.  1.
    10030    2    1    2    0    0  0.00000000000E+00  0.00000000000E+00 -0.39267620806E+03  0.12628296499E+04  0.12002266954E+04 0.  0.
        3    1    3    3  502    0  0.16934317804E+03  0.36176864391E+03  0.27488638516E+03  0.48488782065E+03  0.10100000352E+00 0. -1.
       -3    1    3    3    0  502 -0.16934317804E+03 -0.36176864391E+03 -0.66756259323E+03  0.77794182928E+03  0.10100000352E+00 0.  1.
</event>
<event>
 5   0  0.3751091E-03  0.1080900E+04  0.7818609E-02  0.9224011E-01
       -2   -1    0    0    0  501  0.00000000000E+00  0.00000000000E+00  0.29739725477E+03  0.29739725478E+03  0.25500000920E-02 0. -1.
        2   -1    0    0  501    0  0.00000000000E+00  0.00000000000E+00 -0.98214150857E+03  0.98214150857E+03  0.25500000920E-02 0.  1.
    10030    2    1    2    0    0  0.00000000000E+00  0.00000000000E+00 -0.68474425380E+03  0.12795387634E+04  0.10808999740E+04 0.  0.
        5    1    3    3  502    0 -0.76848523852E+02  0.51571610364E+03 -0.51059813156E+03  0.72979540772E+03  0.46999998093E+01 0.  1.
       -5    1    3    3    0  502  0.76848523852E+02 -0.51571610364E+03 -0.17414612224E+03  0.54974335564E+03  0.46999998093E+01 0. -1.
</event>
<event>
 5   0  0.3706035E-03  0.1187388E+04  0.7818609E-02  0.9123968E-01
        2   -1    0    0  501    0  0.00000000000E+00  0.00000000000E+00  0.16781362007E+04  0.16781362007E+04  0.25500000920E-02 0.  1.
       -2   -1    0    0    0  501  0.00000000000E+00  0.00000000000E+00 -0.21003817360E+03  0.21003817362E+03  0.25500000920E-02 0. -1.
    10030    2    1    2    0    0  0.00000000000E+00  0.00000000000E+00  0.14680980271E+04  0.18881743743E+04  0.11873881634E+04 0.  0.
        2    1    3    3  502    0 -0.14594008682E+03 -0.43995251066E+03  0.14414173098E+03  0.48542101232E+03  0.25500000920E-02 0.  1.
       -2    1    3    3    0  502  0.14594008682E+03  0.43995251066E+03  0.13239562961E+04  0.14027533620E+04  0.25500000920E-02 0. -1.
</event>
<event>
 5   0  0.3751091E-03  0.1198297E+04  0.7818609E-02  0.9114349E-01
       -2   -1    0    0    0  501  0.00000000000E+00  0.00000000000E+00  0.61986747094E+03  0.61986747094E+03  0.25500000920E-02 0.  1.
        2   -1    0    0  501    0  0.00000000000E+00  0.00000000000E+00 -0.57912162138E+03  0.57912162139E+03  0.25500000920E-02 0. -1.
    10030    2    1    2    0    0  0.00000000000E+00  0.00000000000E+00  0.40745849553E+02  0.11989890923E+04  0.11982965490E+04 0.  0.
        5    1    3    3  502    0  0.62693633156E+02 -0.55019010584E+03 -0.20848819067E+03  0.59171704374E+03  0.46999998093E+01 0.  1.
       -5    1    3    3    0  502 -0.62693633156E+02  0.55019010584E+03  0.24923404023E+03  0.60727204859E+03  0.46999998093E+01 0. -1.
</event>
<event>
 5   0  0.3706035E-03  0.1237963E+04  0.7818609E-02  0.9080261E-01
       -2   -1    0    0    0  501  0.00000000000E+00  0.00000000000E+00  0.21409682919E+03  0.21409682921E+03  0.25500000920E-02 0. -1.
        2   -1    0    0  501    0  0.00000000000E+00  0.00000000000E+00 -0.17895555657E+04  0.17895555657E+04  0.25500000920E-02 0.  1.
    10030    2    1    2    0    0  0.00000000000E+00  0.00000000000E+00 -0.15754587365E+04  0.20036523949E+04  0.12379631211E+04 0.  0.
        2    1    3    3  502    0 -0.20138203078E+03 -0.51679341053E+03 -0.34298422313E+03  0.65212600685E+03  0.25500000920E-02 0. -1.
       -2    1    3    3    0  502  0.20138203078E+03  0.51679341053E+03 -0.12324745134E+04  0.13515263881E+04  0.25500000920E-02 0.  1.
</event>
<event>
 5   0  0.3725376E-03  0.1031320E+04  0.7818609E-02  0.9274845E-01
       -2   -1    0    0    0  501  0.00000000000E+00  0.00000000000E+00  0.24315454544E+03  0.24315454545E+03  0.25500000920E-02 0. -1.
        2   -1    0    0  501    0  0.00000000000E+00  0.00000000000E+00 -0.10935648351E+04  0.10935648351E+04  0.25500000920E-02 0.  1.
    10030    2    1    2    0    0  0.00000000000E+00  0.00000000000E+00 -0.85041028969E+03  0.13367193806E+04  0.10313200481E+04 0.  0.
        4    1    3    3  502    0 -0.94997663110E+02 -0.26849308782E+03  0.13196349917E+03  0.31389340900E+03  0.12699999809E+01 0. -1.
       -4    1    3    3    0  502  0.94997663110E+02  0.26849308782E+03 -0.98237378886E+03  0.10228259716E+04  0.12699999809E+01 0.  1.
</event>
<event>
 5   0  0.3626049E-03  0.1185175E+04  0.7818609E-02  0.9125933E-01
        2   -1    0    0  501    0  0.00000000000E+00  0.00000000000E+00  0.98307140640E+03  0.98307140640E+03  0.25500000920E-02 0.  1.
       -2   -1    0    0    0  501  0.00000000000E+00  0.00000000000E+00 -0.35720688836E+03  0.35720688837E+03  0.25500000920E-02 0. -1.
    10030    2    1    2    0    0  0.00000000000E+00  0.00000000000E+00  0.62586451804E+03  0.13402782948E+04  0.11851748869E+04 0.  0.
        1    1    3    3  502    0  0.46756821324E+03 -0.30730680069E+03  0.53367608397E+03  0.77321902874E+03  0.50400001928E-02 0. -1.
       -1    1    3    3    0  502 -0.46756821324E+03  0.30730680069E+03  0.92188434069E+02  0.56705926603E+03  0.50400001928E-02 0.  1.
</event>
<event>
 5   0  0.2047109E-03  0.1243268E+04  0.7818609E-02  0.9075805E-01
        1   -1    0    0  501    0  0.00000000000E+00  0.00000000000E+00  0.43717669551E+03  0.43717669554E+03  0.50400001928E-02 0.  1.
       -1   -1    0    0    0  501  0.00000000000E+00  0.00000000000E+00 -0.88391950318E+03  0.88391950319E+03  0.50400001928E-02 0. -1.
    10030    2    1    2    0    0  0.00000000000E+00  0.00000000000E+00 -0.44674280767E+03  0.13210961987E+04  0.12432682856E+04 0.  0.
        1    1    3    3  502    0  0.46555223506E+03  0.22919352942E+03 -0.58708547493E+03  0.78354190214E+03  0.50400001928E-02 0. -1.
       -1    1    3    3    0  502 -0.46555223506E+03 -0.22919352942E+03  0.14034266727E+03  0.53755429659E+03  0.50400001928E-02 0.  1.
</event>
<event>
 5   0  0.2025294E-03  0.1107948E+04  0.7818609E-02  0.9197480E-01
       -1   -1    0    0    0  501  0.00000000000E+00  0.00000000000E+00  0.34505312711E+03  0.34505312715E+03  0.50400001928E-02 0.  1.
        1   -1    0    0  501    0  0.00000000000E+00  0.00000000000E+00 -0.88939057550E+03  0.88939057551E+03  0.50400001928E-02 0. -1.
    10030    2    1    2    0    0  0.00000000000E+00  0.00000000000E+00 -0.54433744838E+03  0.12344437027E+04  0.11079476510E+04 0.  0.
        5    1    3    3  502    0 -0.14660071719E+03  0.50708923442E+03 -0.45938152504E+03  0.69977477626E+03  0.46999998093E+01 0. -1.
       -5    1    3    3    0  502  0.14660071719E+03 -0.50708923442E+03 -0.84955923340E+02  0.53466892640E+03  0.46999998093E+01 0.  1.
</event>
<event>
 5   0  0.2096270E-03  0.1206872E+04  0.7818609E-02  0.9106862E-01
       -1   -1    0    0    0  501  0.00000000000E+00  0.00000000000E+00  0.11523861738E+04  0.11523861738E+04  0.50400001928E-02 0. -1.
        1   -1    0    0  501    0  0.00000000000E+00  0.00000000000E+00 -0.31598368655E+03  0.31598368659E+03  0.50400001928E-02 0.  1.
    10030    2    1    2    0    0  0.00000000000E+00  0.00000000000E+00  0.83640248722E+03  0.14683698604E+04  0.12068723736E+04 0.  0.
        2    1    3    3  502    0  0.79812070384E+02  0.29604336956E+03 -0.21414562276E+03  0.37399196648E+03  0.25500000920E-02 0.  1.
       -2    1    3    3    0  502 -0.79812070384E+02 -0.29604336956E+03  0.10505481100E+04  0.10943778939E+04  0.25500000920E-02 0. -1.
</event>
<event>
 5   0  0.2025294E-03  0.1214921E+04  0.7818609E-02  0.9099895E-01
        1   -1    0    0  501    0  0.00000000000E+00  0.00000000000E+00  0.28488481473E+03  0.28488481477E+03  0.50400001928E-02 0. -1.
       -1   -1    0    0    0  501  0.00000000000E+00  0.00000000000E+00 -0.12952896352E+04  0.12952896352E+04  0.50400001928E-02 0.  1.
    10030    2    1    2    0    0  0.00000000000E+00  0.00000000000E+00 -0.10104048205E+04  0.15801744500E+04  0.12149211461E+04 0.  0.
        5    1    3    3  502    0  0.55038009833E+02  0.17686671010E+03 -0.12576369745E+04  0.12712135404E+04  0.46999998093E+01 0.  1.
       -5    1    3    3    0  502 -0.55038009833E+02 -0.17686671010E+03  0.24723215403E+03  0.30896090958E+03  0.46999998093E+01 0. -1.
</event>
<event>
 5   0  0.3626049E-03  0.1213304E+04  0.7818609E-02  0.9101290E-01
       -2   -1    0    0    0  501  0.00000000000E+00  0.00000000000E+00  0.46879897617E+03  0.46879897618E+03  0.25500000920E-02 0. -1.
        2   -1    0    0  501    0  0.00000000000E+00  0.00000000000E+00 -0.78504184994E+03  0.78504184994E+03  0.25500000920E-02 0.  1.
    10030    2    1    2    0    0  0.00000000000E+00  0.00000000000E+00 -0.31624287377E+03  0.12538408261E+04  0.12133042743E+04 0.  0.
        1    1    3    3  502    0  0.14607076649E+03 -0.58850830354E+03 -0.13884000685E+03  0.62205726400E+03  0.50400001928E-02 0. -1.
       -1    1    3    3    0  502 -0.14607076649E+03  0.58850830354E+03 -0.17740286691E+03  0.63178356213E+03  0.50400001928E-02 0.  1.
</event>
<event>
 5   0  0.3725376E-03  0.1194607E+04  0.7818609E-02  0.9117590E-01
        2   -1    0    0  501    0  0.00000000000E+00  0.00000000000E+00  0.49686818859E+03  0.49686818860E+03  0.25500000920E-02 0. -1.
       -2   -1    0    0    0  501  0.00000000000E+00  0.00000000000E+00 -0.71804012571E+03  0.71804012571E+03  0.25500000920E-02 0.  1.
    10030    2    1    2    0    0  0.00000000000E+00  0.00000000000E+00 -0.22117193711E+03  0.12149083143E+04  0.11946067078E+04 0.  0.
        4    1    3    3  502    0 -0.31853089142E+03  0.21583665500E+03  0.35403945934E+03  0.52286990935E+03  0.12699999809E+01 0. -1.
       -4    1    3    3    0  502  0.31853089142E+03 -0.21583665500E+03 -0.57521139645E+03  0.69203840496E+03  0.12699999809E+01 0.  1.
</event>
<event>
 5   0  0.2134992E-03  0.1182427E+04  0.7818609E-02  0.9128379E-01
        1   -1    0    0  501    0  0.00000000000E+00  0.00000000000E+00  0.10406285239E+04  0.10406285239E+04  0.50400001928E-02 0.  1.
       -1   -1    0    0    0  501  0.00000000000E+00  0.00000000000E+00 -0.33588658735E+03  0.33588658738E+03  0.50400001928E-02 0. -1.
    10030    2    1    2    0    0  0.00000000000E+00  0.00000000000E+00  0.70474193658E+03  0.13765151113E+04  0.11824265958E+04 0.  0.
        4    1    3    3  502    0 -0.41364523431E+03  0.26261761107E+03  0.73752710278E+03  0.88544803898E+03  0.12699999809E+01 0.  1.
       -4    1    3    3    0  502  0.41364523431E+03 -0.26261761107E+03 -0.32785166197E+02  0.49106707234E+03  0.12699999809E+01 0. -1.
</event>
<event>
 5   0  0.2096270E-03  0.1191613E+04  0.7818609E-02  0.9120229E-01
        1   -1    0    0  501    0  0.00000000000E+00  0.00000000000E+00  0.11144543848E+04  0.11144543848E+04  0.50400001928E-02 0. -1.
       -1   -1    0    0    0  501  0.00000000000E+00  0.00000000000E+00 -0.31852855596E+03  0.31852855600E+03  0.50400001928E-02 0.  1.
    10030    2    1    2    0    0  0.00000000000E+00  0.00000000000E+00  0.79592582884E+03  0.14329829408E+04  0.11916132693E+04 0.  0.
        2    1    3    3  502    0 -0.44414338765E+03  0.24965565677E+03  0.76938420002E+03  0.92279106140E+03  0.25500000920E-02 0. -1.
       -2    1    3    3    0  502  0.44414338765E+03 -0.24965565677E+03  0.26541628822E+02  0.51019187941E+03  0.25500000920E-02 0.  1.
</event>
<event>
 5   0  0.2096270E-03  0.1195449E+04  0.7818609E-02  0.9116849E-01
       -1   -1    0    0    0  501  0.00000000000E+00  0.00000000000E+00  0.20208938306E+03  0.20208938313E+03  0.50400001928E-02 0.  1.
        1   -1    0    0  501    0  0.00000000000E+00  0.00000000000E+00 -0.17679033880E+04  0.17679033880E+04  0.50400001928E-02 0. -1.
    10030    2    1    2    0    0  0.00000000000E+00  0.00000000000E+00 -0.15658140049E+04  0.19699927711E+04  0.11954488781E+04 0.  0.
        2    1    3    3  502    0  0.17748979203E+03 -0.11403795006E+03 -0.17045107711E+04  0.17175168846E+04  0.25500000920E-02 0. -1.
       -2    1    3    3    0  502 -0.17748979203E+03  0.11403795006E+03  0.13869676612E+03  0.25247588651E+03  0.25500000920E-02 0.  1.
</event>
<event>
 5   0  0.3706035E-03  0.1207744E+04  0.7818609E-02  0.9106105E-01
       -2   -1    0    0    0  501  0.00000000000E+00  0.00000000000E+00  0.40767799684E+03  0.40767799684E+03  0.25500000920E-02 0.  1.
        2   -1    0    0  501    0  0.00000000000E+00  0.00000000000E+00 -0.89448422221E+03  0.89448422222E+03  0.25500000920E-02 0. -1.
    10030    2    1    2    0    0  0.00000000000E+00  0.00000000000E+00 -0.48680622537E+03  0.13021622191E+04  0.12077442377E+04 0.  0.
        2    1    3    3  502    0  0.49294956293E+03  0.11963595871E+03  0.10985336390E+03  0.51901810736E+03  0.25500000920E-02 0.  1.
       -2    1    3    3    0  502 -0.49294956293E+03 -0.11963595871E+03 -0.59665958927E+03  0.78314411170E+03  0.25500000920E-02 0. -1.
</event>
<event>
 5   0  0.2047109E-03  0.1201212E+04  0.7818609E-02  0.9111796E-01
        1   -1    0    0  501    0  0.00000000000E+00  0.00000000000E+00  0.86818960192E+03  0.86818960193E+03  0.50400001928E-02 0.  1.
       -1   -1    0    0    0  501  0.00000000000E+00  0.00000000000E+00 -0.41549427762E+03  0.41549427765E+03  0.50400001928E-02 0. -1.
    10030    2    1    2    0    0  0.00000000000E+00  0.00000000000E+00  0.45269532429E+03  0.12836838796E+04  0.12012124067E+04 0.  0.
        1    1    3    3  502    0  0.37093201282E+03  0.36222611006E+03  0.55036311564E+03  0.75610705064E+03  0.50400001928E-02 0.  1.
       -1    1    3    3    0  502 -0.37093201282E+03 -0.36222611006E+03 -0.97667791350E+02  0.52757682894E+03  0.50400001928E-02 0. -1.
</event>
<event>
 5   0  0.2096270E-03  0.1202643E+04  0.7818609E-02  0.9110547E-01
       -1   -1    0    0    0  501  0.00000000000E+00  0.00000000000E+00  0.50768350121E+03  0.50768350123E+03  0.50400001928E-02 0.  1.
        1   -1    0    0  501    0  0.00000000000E+00  0.00000000000E+00 -0.71222979019E+03  0.71222979020E+03  0.50400001928E-02 0. -1.
    10030    2    1    2    0    0  0.00000000000E+00  0.00000000000E+00 -0.20454628898E+03  0.12199132914E+04  0.12026426129E+04 0.  0.
        2    1    3    3  502    0  0.57190681223E+03  0.17595222797E+03 -0.16271682535E+03  0.62009140751E+03  0.25500000920E-02 0.  1.
       -2    1    3    3    0  502 -0.57190681223E+03 -0.17595222797E+03 -0.41829463629E+02  0.59982188393E+03  0.25500000920E-02 0. -1.
</event>
<event>
 5   0  0.2078258E-03  0.1206766E+04  0.7818609E-02  0.9106955E-01
       -1   -1    0    0    0  501  0.00000000000E+00  0.00000000000E+00  0.46803436022E+03  0.46803436024E+03  0.50400001928E-02 0. -1.
        1   -1    0    0  501    0  0.00000000000E+00  0.00000000000E+00 -0.77787208585E+03  0.77787208587E+03  0.50400001928E-02 0.  1.
    10030    2    1    2    0    0  0.00000000000E+00  0.00000000000E+00 -0.30983772564E+03  0.12459064461E+04  0.12067657006E+04 0.  0.
        3    1    3    3  502    0  0.37371916343E+03 -0.23054036292E+03 -0.58217208811E+03  0.72920451344E+03  0.10100000352E+00 0.  1.
       -3    1    3    3    0  502 -0.37371916343E+03  0.23054036292E+03  0.27233436247E+03  0.51670193268E+03  0.10100000352E+00 0. -1.
</event>
<event>
 5   0  0.2134992E-03  0.1192064E+04  0.7818609E-02  0.9119832E-01
       -1   -1    0    0    0  501  0.00000000000E+00  0.00000000000E+00  0.60368380594E+03  0.60368380596E+03  0.50400001928E-02 0. -1.
        1   -1    0    0  501    0  0.00000000000E+00  0.00000000000E+00 -0.58847682296E+03  0.58847682298E+03  0.50400001928E-02 0.  1.
    10030    2    1    2    0    0  0.00000000000E+00  0.00000000000E+00  0.15206982985E+02  0.11921606289E+04  0.11920636363E+04 0.  0.
        4    1    3    3  502    0 -0.55018781861E+03 -0.14507432265E+03 -0.16989086493E+03  0.59381622892E+03  0.12699999809E+01 0.  1.
       -4    1    3    3    0  502  0.55018781861E+03  0.14507432265E+03  0.18509784792E+03  0.59834440003E+03  0.12699999809E+01 0. -1.
</event>
<event>
 5   0  0.3725376E-03  0.1201260E+04  0.7818609E-02  0.9111754E-01
        2   -1    0    0  501    0  0.00000000000E+00  0.00000000000E+00  0.21211298754E+04  0.21211298754E+04  0.25500000920E-02 0.  1.
       -2   -1    0    0    0  501  0.00000000000E+00  0.00000000000E+00 -0.17007757359E+03  0.17007757361E+03  0.25500000920E-02 0. -1.
    10030    2    1    2    0    0  0.00000000000E+00  0.00000000000E+00  0.19510523019E+04  0.22912074491E+04  0.12012603756E+04 0.  0.
        4    1    3    3  502    0 -0.95741326524E+01 -0.42655870503E+03  0.17818377803E+04  0.18322094533E+04  0.12699999809E+01 0.  1.
       -4    1    3    3    0  502  0.95741326524E+01  0.42655870503E+03  0.16921452159E+03  0.45899799571E+03  0.12699999809E+01 0. -1.
</event>
<event>
 5   0  0.3706035E-03  0.1186872E+04  0.7818609E-02  0.9124426E-01
       -2   -1    0    0    0  501  0.00000000000E+00  0.00000000000E+00  0.58542581145E+03  0.58542581146E+03  0.25500000920E-02 0. -1.
        2   -1    0    0  501    0  0.00000000000E+00  0.00000000000E+00 -0.60155567316E+03  0.60155567316E+03  0.25500000920E-02 0.  1.
    10030    2    1    2    0    0  0.00000000000E+00  0.00000000000E+00 -0.16129861704E+02  0.11869814846E+04  0.11868718854E+04 0.  0.
        2    1    3    3  502    0 -0.30831936641E+03  0.33615808636E+03 -0.38770916219E+03  0.59864971827E+03  0.25500000920E-02 0.  1.
       -2    1    3    3    0  502  0.30831936641E+03 -0.33615808636E+03  0.37157930049E+03  0.58833176635E+03  0.25500000920E-02 0. -1.
</event>
<event>
 5   0  0.3751091E-03  0.1135216E+04  0.7818609E-02  0.9171532E-01
       -2   -1    0    0    0  501  0.00000000000E+00  0.00000000000E+00  0.13713573705E+03  0.13713573707E+03  0.25500000920E-02 0. -1.
        2   -1    0    0  501    0  0.00000000000E+00  0.00000000000E+00 -0.23493408757E+04  0.23493408757E+04  0.25500000920E-02 0.  1.
    10030    2    1    2    0    0  0.00000000000E+00  0.00000000000E+00 -0.22122051387E+04  0.24864766128E+04  0.11352155612E+04 0.  0.
        5    1    3    3  502    0 -0.35719979581E+03 -0.59564195609E+02 -0.20633891181E+04  0.20949311039E+04  0.46999998093E+01 0.  1.
       -5    1    3    3    0  502  0.35719979581E+03  0.59564195609E+02 -0.14881602057E+03  0.39154550885E+03  0.46999998093E+01 0. -1.
</event>
<event>
 5   0  0.3650180E-03  0.1213432E+04  0.7818609E-02  0.9101180E-01
       -2   -1    0    0    0  501  0.00000000000E+00  0.00000000000E+00  0.18727858715E+03  0.18727858717E+03  0.25500000920E-02 0.  1.
        2   -1    0    0  501    0  0.00000000000E+00  0.00000000000E+00 -0.19655446747E+04  0.19655446747E+04  0.25500000920E-02 0. -1.
    10030    2    1    2    0    0  0.00000000000E+00  0.00000000000E+00 -0.17782660876E+04  0.21528232619E+04  0.12134322061E+04 0.  0.
        3    1    3    3  502    0  0.12655063645E+03 -0.59042031154E+03 -0.99399194629E+03  0.11630267440E+04  0.10100000352E+00 0. -1.
       -3    1    3    3    0  502 -0.12655063645E+03  0.59042031154E+03 -0.78427414130E+03  0.98979651786E+03  0.10100000352E+00 0.  1.
</event>
<event>
 5   0  0.3626049E-03  0.1116287E+04  0.7818609E-02  0.9189461E-01
       -2   -1    0    0    0  501  0.00000000000E+00  0.00000000000E+00  0.23936893874E+03  0.23936893876E+03  0.25500000920E-02 0. -1.
        2   -1    0    0  501    0  0.00000000000E+00  0.00000000000E+00 -0.13014398791E+04  0.13014398791E+04  0.25500000920E-02 0.  1.
    10030    2    1    2    0    0  0.00000000000E+00  0.00000000000E+00 -0.10620709404E+04  0.15408088179E+04  0.11162872080E+04 0.  0.
        1    1    3    3  502    0  0.11319197094E+03  0.54516652845E+03 -0.58458883221E+03  0.80731844325E+03  0.50400001928E-02 0.  1.
       -1    1    3    3    0  502 -0.11319197094E+03 -0.54516652845E+03 -0.47748210814E+03  0.73349037461E+03  0.50400001928E-02 0. -1.
</event>
<event>
 5   0  0.2078258E-03  0.1220754E+04  0.7818609E-02  0.9094882E-01
       -1   -1    0    0    0  501  0.00000000000E+00  0.00000000000E+00  0.22081993597E+03  0.22081993603E+03  0.50400001928E-02 0. -1.
        1   -1    0    0  501    0  0.00000000000E+00  0.00000000000E+00 -0.16871676933E+04  0.16871676933E+04  0.50400001928E-02 0.  1.
    10030    2    1    2    0    0  0.00000000000E+00  0.00000000000E+00 -0.14663477573E+04  0.19079876293E+04  0.12207542948E+04 0.  0.
        3    1    3    3  502    0  0.39503489023E+03 -0.40694619314E+03 -0.38054589117E+03  0.68298825327E+03  0.10100000352E+00 0. -1.
       -3    1    3    3    0  502 -0.39503489023E+03  0.40694619314E+03 -0.10858018661E+04  0.12249993760E+04  0.10100000352E+00 0.  1.
</event>
<event>
 5   0  0.2078258E-03  0.1203892E+04  0.7818609E-02  0.9109456E-01
        1   -1    0    0  501    0  0.00000000000E+00  0.00000000000E+00  0.83401650154E+03  0.83401650155E+03  0.50400001928E-02 0.  1.
       -1   -1    0    0    0  501  0.00000000000E+00  0.00000000000E+00 -0.43445094502E+03  0.43445094505E+03  0.50400001928E-02 0. -1.
    10030    2    1    2    0    0  0.00000000000E+00  0.00000000000E+00  0.39956555652E+03  0.12684674466E+04  0.12038924492E+04 0.  0.
        3    1    3    3  502    0  0.54983824541E+02 -0.14594352478E+03  0.81235964854E+03  0.82719462170E+03  0.10100000352E+00 0.  1.
       -3    1    3    3    0  502 -0.54983824541E+02  0.14594352478E+03 -0.41279409202E+03  0.44127282490E+03  0.10100000352E+00 0. -1.
</event>
<event>
 5   0  0.3751091E-03  0.1196588E+04  0.7818609E-02  0.9115848E-01
        2   -1    0    0  501    0  0.00000000000E+00  0.00000000000E+00  0.18015301710E+04  0.18015301710E+04  0.25500000920E-02 0. -1.
       -2   -1    0    0    0  501  0.00000000000E+00  0.00000000000E+00 -0.19869544224E+03  0.19869544225E+03  0.25500000920E-02 0.  1.
    10030    2    1    2    0    0  0.00000000000E+00  0.00000000000E+00  0.16028347288E+04  0.20002256133E+04  0.11965882066E+04 0.  0.
        5    1    3    3  502    0 -0.20243015276E+02 -0.57430180214E+03  0.52319940557E+03  0.77716925286E+03  0.46999998093E+01 0.  1.
       -5    1    3    3    0  502  0.20243015276E+02  0.57430180214E+03  0.10796353232E+04  0.12230563604E+04  0.46999998093E+01 0. -1.
</event>
<event>
 5   0  0.2134992E-03  0.1237573E+04  0.7818609E-02  0.9080590E-01
        1   -1    0    0  501    0  0.00000000000E+00  0.00000000000E+00  0.66072193209E+03  0.66072193211E+03  0.50400001928E-02 0.  1.
       -1   -1    0    0    0  501  0.00000000000E+00  0.00000000000E+00 -0.57951296442E+03  0.57951296444E+03  0.50400001928E-02 0. -1.
    10030    2    1    2    0    0  0.00000000000E+00  0.00000000000E+00  0.81208967668E+02  0.12402348966E+04  0.12375733118E+04 0.  0.
        4    1    3    3  502    0  0.27998620056E+03 -0.18684137615E+03  0.56094493784E+03  0.65418866432E+03  0.12699999809E+01 0.  1.
       -4    1    3    3    0  502 -0.27998620056E+03  0.18684137615E+03 -0.47973597017E+03  0.58604623223E+03  0.12699999809E+01 0. -1.
</event>
<event>
 5   0  0.3626049E-03  0.1182711E+04  0.7818609E-02  0.9128126E-01
       -2   -1    0    0    0  501  0.00000000000E+00  0.00000000000E+00  0.49751390064E+03  0.49751390065E+03  0.25500000920E-02 0.  1.
        2   -1    0    0  501    0  0.00000000000E+00  0.00000000000E+00 -0.70289724720E+03  0.70289724720E+03  0.25500000920E-02 0. -1.
    10030    2    1    2    0    0  0.00000000000E+00  0.00000000000E+00 -0.20538334655E+03  0.12004111478E+04  0.11827107021E+04 0.  0.
        1    1    3    3  502    0 -0.37865065127E+03 -0.32341922755E+03 -0.42640829409E+03  0.65559159982E+03  0.50400001928E-02 0. -1.
       -1    1    3    3    0  502  0.37865065127E+03  0.32341922755E+03  0.22102494753E+03  0.54481954803E+03  0.50400001928E-02 0.  1.
</event>
<event>
 5   0  0.3650180E-03  0.1204608E+04  0.7818609E-02  0.9108833E-01
        2   -1    0    0  501    0  0.00000000000E+00  0.00000000000E+00  0.28153536841E+03  0.28153536842E+03  0.25500000920E-02 0. -1.
       -2   -1    0    0    0  501  0.00000000000E+00  0.00000000000E+00 -0.12885415296E+04  0.12885415296E+04  0.25500000920E-02 0.  1.
    10030    2    1    2    0    0  0.00000000000E+00  0.00000000000E+00 -0.10070061612E+04  0.15700768981E+04  0.12046078437E+04 0.  0.
        3    1    3    3  502    0  0.45148570797E+03  0.39768150655E+03 -0.46709946621E+03  0.76169012511E+03  0.10100000352E+00 0.  1.
       -3    1    3    3    0  502 -0.45148570797E+03 -0.39768150655E+03 -0.53990669502E+03  0.80838677295E+03  0.10100000352E+00 0. -1.
</event>
<event>
 5   0  0.2047109E-03  0.1197438E+04  0.7818609E-02  0.9115102E-01
        1   -1    0    0  501    0  0.00000000000E+00  0.00000000000E+00  0.11152168851E+04  0.11152168851E+04  0.50400001928E-02 0. -1.
       -1   -1    0    0    0  501  0.00000000000E+00  0.00000000000E+00 -0.32143043582E+03  0.32143043585E+03  0.50400001928E-02 0.  1.
    10030    2    1    2    0    0  0.00000000000E+00  0.00000000000E+00  0.79378644926E+03  0.14366473209E+04  0.11974383482E+04 0.  0.
        1    1    3    3  502    0 -0.22456879622E+02 -0.44547693415E+03 -0.82279216683E+02  0.45356794400E+03  0.50400001928E-02 0.  1.
       -1    1    3    3    0  502  0.22456879622E+02  0.44547693415E+03  0.87606566594E+03  0.98307937694E+03  0.50400001928E-02 0. -1.
</event>
<event>
 5   0  0.3650180E-03  0.1176990E+04  0.7818609E-02  0.9133239E-01
       -2   -1    0    0    0  501  0.00000000000E+00  0.00000000000E+00  0.35378665165E+03  0.35378665166E+03  0.25500000920E-02 0.  1.
        2   -1    0    0  501    0  0.00000000000E+00  0.00000000000E+00 -0.97891331940E+03  0.97891331940E+03  0.25500000920E-02 0. -1.
    10030    2    1    2    0    0  0.00000000000E+00  0.00000000000E+00 -0.62512666774E+03  0.13326999711E+04  0.11769901708E+04 0.  0.
        3    1    3    3  502    0  0.37422656525E+02 -0.49319842560E+03  0.48497287559E+02  0.49698806760E+03  0.10100000352E+00 0.  1.
       -3    1    3    3    0  502 -0.37422656525E+02  0.49319842560E+03 -0.67362395530E+03  0.83571190346E+03  0.10100000352E+00 0. -1.
</event>
<event>
 5   0  0.3626049E-03  0.1187644E+04  0.7818609E-02  0.9123741E-01
        2   -1    0    0  501    0  0.00000000000E+00  0.00000000000E+00  0.72511394273E+03  0.72511394274E+03  0.25500000920E-02 0. -1.
       -2   -1    0    0    0  501  0.00000000000E+00  0.00000000000E+00 -0.48630231647E+03  0.48630231647E+03  0.25500000920E-02 0.  1.
    10030    2    1    2    0    0  0.00000000000E+00  0.00000000000E+00  0.23881162627E+03  0.12114162592E+04  0.11876440377E+04 0.  0.
        1    1    3    3  502    0  0.51425943282E+03 -0.21153110286E+03  0.33194259579E+03  0.64760640720E+03  0.50400001928E-02 0.  1.
       -1    1    3    3    0  502 -0.51425943282E+03  0.21153110286E+03 -0.93130969523E+02  0.56380985201E+03  0.50400001928E-02 0. -1.
</event>
<event>
 5   0  0.2096270E-03  0.1190365E+04  0.7818609E-02  0.9121332E-01
       -1   -1    0    0    0  501  0.00000000000E+00  0.00000000000E+00  0.38408729281E+03  0.38408729285E+03  0.50400001928E-02 0.  1.
        1   -1    0    0  501    0  0.00000000000E+00  0.00000000000E+00 -0.92229657665E+03  0.92229657666E+03  0.50400001928E-02 0. -1.
    10030    2    1    2    0    0  0.00000000000E+00  0.00000000000E+00 -0.53820928384E+03  0.13063838695E+04  0.11903653142E+04 0.  0.
        2    1    3    3  502    0  0.42687908384E+03 -0.96866708779E+02 -0.71168845730E+03  0.83552939610E+03  0.25500000920E-02 0. -1.
       -2    1    3    3    0  502 -0.42687908384E+03  0.96866708779E+02  0.17347917346E+03  0.47085447340E+03  0.25500000920E-02 0.  1.
</event>
<event>
 5   0  0.3725376E-03  0.1220040E+04  0.7818609E-02  0.9095494E-01
       -2   -1    0    0    0  501  0.00000000000E+00  0.00000000000E+00  0.79937247677E+03  0.79937247677E+03  0.25500000920E-02 0.  1.
        2   -1    0    0  501    0  0.00000000000E+00  0.00000000000E+00 -0.46552043863E+03  0.46552043864E+03  0.25500000920E-02 0. -1.
    10030    2    1    2    0    0  0.00000000000E+00  0.00000000000E+00  0.33385203814E+03  0.12648929154E+04  0.12200397141E+04 0.  0.
        4    1    3    3  502    0 -0.48297013692E+03 -0.37107194899E+03  0.20235951277E+03  0.64179866764E+03  0.12699999809E+01 0.  1.
       -4    1    3    3    0  502  0.48297013692E+03  0.37107194899E+03  0.13149252537E+03  0.62309424777E+03  0.12699999809E+01 0. -1.
</event>
<event>
 5   0  0.3706035E-03  0.1217496E+04  0.7818609E-02  0.9097679E-01
        2   -1    0    0  501    0  0.00000000000E+00  0.00000000000E+00  0.35089235569E+03  0.35089235570E+03  0.25500000920E-02 0. -1.
       -2   -1    0    0    0  501  0.00000000000E+00  0.00000000000E+00 -0.10560903408E+04  0.10560903408E+04  0.25500000920E-02 0.  1.
    10030    2    1    2    0    0  0.00000000000E+00  0.00000000000E+00 -0.70519798508E+03  0.14069826965E+04  0.12174958357E+04 0.  0.
        2    1    3    3  502    0 -0.70017381592E+02 -0.52879596432E+03 -0.69158961132E+03  0.87339784526E+03  0.25500000920E-02 0.  1.
       -2    1    3    3    0  502  0.70017381592E+02  0.52879596432E+03 -0.13608373762E+02  0.53358485122E+03  0.25500000920E-02 0. -1.
</event>
<event>
 5   0  0.2078258E-03  0.1178048E+04  0.7818609E-02  0.9132291E-01
        1   -1    0    0  501    0  0.00000000000E+00  0.00000000000E+00  0.32367739024E+03  0.32367739028E+03  0.50400001928E-02 0. -1.
       -1   -1    0    0    0  501  0.00000000000E+00  0.00000000000E+00 -0.10718976588E+04  0.10718976588E+04  0.50400001928E-02 0.  1.
    10030    2    1    2    0    0  0.00000000000E+00  0.00000000000E+00 -0.74822026855E+03  0.13955750491E+04  0.11780475998E+04 0.  0.
        3    1    3    3  502    0 -0.27760672212E+03 -0.12854916642E+03  0.22218082179E+03  0.37809351770E+03  0.10100000352E+00 0. -1.
       -3    1    3    3    0  502  0.27760672212E+03  0.12854916642E+03 -0.97040109034E+03  0.10174815314E+04  0.10100000352E+00 0.  1.
</event>
<event>
 5   0  0.2134992E-03  0.1196352E+04  0.7818609E-02  0.9116056E-01
       -1   -1    0    0    0  501  0.00000000000E+00  0.00000000000E+00  0.10896027745E+04  0.10896027745E+04  0.50400001928E-02 0. -1.
        1   -1    0    0  501    0  0.00000000000E+00  0.00000000000E+00 -0.32838987771E+03  0.32838987775E+03  0.50400001928E-02 0.  1.
    10030    2    1    2    0    0  0.00000000000E+00  0.00000000000E+00  0.76121289678E+03  0.14179926523E+04  0.11963519915E+04 0.  0.
        4    1    3    3  502    0 -0.58296547620E+03 -0.80929663948E+01  0.22203487293E+03  0.62387125294E+03  0.12699999809E+01 0.  1.
       -4    1    3    3    0  502  0.58296547620E+03  0.80929663948E+01  0.53917802385E+03  0.79412139932E+03  0.12699999809E+01 0. -1.
</event>
<event>
 5   0  0.2025294E-03  0.1141640E+04  0.7818609E-02  0.9165531E-01
        1   -1    0    0  501    0  0.00000000000E+00  0.00000000000E+00  0.38170817106E+03  0.38170817110E+03  0.50400001928E-02 0.  1.
       -1   -1    0    0    0  501  0.00000000000E+00  0.00000000000E+00 -0.85362384772E+03  0.85362384773E+03  0.50400001928E-02 0. -1.
    10030    2    1    2    0    0  0.00000000000E+00  0.00000000000E+00 -0.47191567665E+03  0.12353320188E+04  0.11416395188E+04 0.  0.
        5    1    3    3  502    0  0.49563411974E+02  0.48030603302E+03 -0.56534537125E+03  0.74349707192E+03  0.46999998093E+01 0. -1.
       -5    1    3    3    0  502 -0.49563411974E+02 -0.48030603302E+03  0.93429694601E+02  0.49183494690E+03  0.46999998093E+01 0.  1.
</event>
<event>
 5   0  0.2134992E-03  0.1201569E+04  0.7818609E-02  0.9111484E-01
        1   -1    0    0  501    0  0.00000000000E+00  0.00000000000E+00  0.37781759728E+03  0.37781759732E+03  0.50400001928E-02 0. -1.
       -1   -1    0    0    0  501  0.00000000000E+00  0.00000000000E+00 -0.95533378633E+03  0.95533378634E+03  0.50400001928E-02 0.  1.
    10030    2    1    2    0    0  0.00000000000E+00  0.00000000000E+00 -0.57751618905E+03  0.13331513837E+04  0.12015688341E+04 0.  0.
        4    1    3    3  502    0 -0.51003760586E+03 -0.26455777921E+03 -0.48351128909E+03  0.75094204670E+03  0.12699999809E+01 0. -1.
       -4    1    3    3    0  502  0.51003760586E+03  0.26455777921E+03 -0.94004899957E+02  0.58220933696E+03  0.12699999809E+01 0.  1.
</event>
<event>
 5   0  0.2047109E-03  0.1176626E+04  0.7818609E-02  0.9133566E-01
        1   -1    0    0  501    0  0.00000000000E+00  0.00000000000E+00  0.30355976430E+03  0.30355976434E+03  0.50400001928E-02 0. -1.
       -1   -1    0    0    0  501  0.00000000000E+00  0.00000000000E+00 -0.11401774343E+04  0.11401774343E+04  0.50400001928E-02 0.  1.
    10030    2    1    2    0    0  0.00000000000E+00  0.00000000000E+00 -0.83661766995E+03  0.14437371986E+04  0.11766256724E+04 0.  0.
        1    1    3    3  502    0  0.50219578102E+03 -0.29351434606E+02 -0.44019248203E+02  0.50497505228E+03  0.50400001928E-02 0. -1.
       -1    1    3    3    0  502 -0.50219578102E+03  0.29351434606E+02 -0.79259842175E+03  0.93876214632E+03  0.50400001928E-02 0.  1.
</event>
<event>
 5   0  0.3751091E-03  0.1203704E+04  0.7818609E-02  0.9109621E-01
       -2   -1    0    0    0  501  0.00000000000E+00  0.00000000000E+00  0.39181665466E+03  0.39181665467E+03  0.25500000920E-02 0.  1.
        2   -1    0    0  501    0  0.00000000000E+00  0.00000000000E+00 -0.92447782680E+03  0.92447782680E+03  0.25500000920E-02 0. -1.
    10030    2    1    2    0    0  0.00000000000E+00  0.00000000000E+00 -0.53266117213E+03  0.13162944815E+04  0.12037039660E+04 0.  0.
        5    1    3    3  502    0  0.43643183363E+03 -0.44756172031E+02  0.18418511950E+03  0.47583832189E+03  0.46999998093E+01 0.  1.
       -5    1    3    3    0  502 -0.43643183363E+03  0.44756172031E+02 -0.71684629163E+03  0.84045615957E+03  0.46999998093E+01 0. -1.
</event>
<event>
 5   0  0.2134992E-03  0.1198508E+04  0.7818609E-02  0.9114164E-01
        1   -1    0    0  501    0  0.00000000000E+00  0.00000000000E+00  0.59306403052E+03  0.59306403054E+03  0.50400001928E-02 0.  1.
       -1   -1    0    0    0  501  0.00000000000E+00  0.00000000000E+00 -0.60550854717E+03  0.60550854719E+03  0.50400001928E-02 0. -1.
    10030    2    1    2    0    0  0.00000000000E+00  0.00000000000E+00 -0.12444516656E+02  0.11985725777E+04  0.11985079716E+04 0.  0.
        4    1    3    3  502    0  0.10642661876E+03 -0.37200487126E+03 -0.46383787462E+03  0.60403761162E+03  0.12699999809E+01 0. -1.
       -4    1    3    3    0  502 -0.10642661876E+03  0.37200487126E+03  0.45139335796E+03  0.59453496611E+03  0.12699999809E+01 0.  1.
</event>
<event>
 5   0  0.1397500E-03  0.1236734E+04  0.7818609E-02  0.9081297E-01
        4   -1    0    0  501    0  0.00000000000E+00  0.00000000000E+00  0.62305248171E+03  0.62305377606E+03  0.12699999809E+01 0.  1.
       -4   -1    0    0    0  501  0.00000000000E+00  0.00000000000E+00 -0.61371446268E+03  0.61371577673E+03  0.12699999809E+01 0. -1.
    10030    2    1    2    0    0  0.00000000000E+00  0.00000000000E+00  0.93380190295E+01  0.12367695528E+04  0.12367342997E+04 0.  0.
        4    1    3    3  502    0  0.57718962363E+03 -0.21981366003E+03  0.34842909980E+02  0.61861259932E+03  0.12699999809E+01 0. -1.
       -4    1    3    3    0  502 -0.57718962363E+03  0.21981366003E+03 -0.25504890950E+02  0.61815695347E+03  0.12699999809E+01 0.  1.
</event>
<event>
 5   0  0.3650180E-03  0.1185760E+04  0.7818609E-02  0.9125413E-01
        2   -1    0    0  501    0  0.00000000000E+00  0.00000000000E+00  0.80395219989E+03  0.80395219989E+03  0.25500000920E-02 0.  1.
       -2   -1    0    0    0  501  0.00000000000E+00  0.00000000000E+00 -0.43722364927E+03  0.43722364928E+03  0.25500000920E-02 0. -1.
    10030    2    1    2    0    0  0.00000000000E+00  0.00000000000E+00  0.36672855062E+03  0.12411758492E+04  0.11857603715E+04 0.  0.
        3    1    3    3  502    0 -0.53267905453E+03 -0.18420385306E+03 -0.91576202781E+01  0.56370374030E+03  0.10100000352E+00 0. -1.
       -3    1    3    3    0  502  0.53267905453E+03  0.18420385306E+03  0.37588617090E+03  0.67747210887E+03  0.10100000352E+00 0.  1.
</event>
<event>
 5   0  0.3650180E-03  0.1180562E+04  0.7818609E-02  0.9130043E-01
       -2   -1    0    0    0  501  0.00000000000E+00  0.00000000000E+00  0.31026219356E+03  0.31026219357E+03  0.25500000920E-02 0. -1.
        2   -1    0    0  501    0  0.00000000000E+00  0.00000000000E+00 -0.11230234653E+04  0.11230234653E+04  0.25500000920E-02 0.  1.
    10030    2    1    2    0    0  0.00000000000E+00  0.00000000000E+00 -0.81276127171E+03  0.14332856588E+04  0.11805621098E+04 0.  0.
        3    1    3    3  502    0  0.88374196307E+02 -0.51049267462E+02 -0.11122305126E+04  0.11169031961E+04  0.10100000352E+00 0.  1.
       -3    1    3    3    0  502 -0.88374196307E+02  0.51049267462E+02  0.29946924085E+03  0.31638246269E+03  0.10100000352E+00 0. -1.
</event>
<event>
 5   0  0.2025294E-03  0.1196489E+04  0.7818609E-02  0.9115935E-01
       -1   -1    0    0    0  501  0.00000000000E+00  0.00000000000E+00  0.21531555249E+03  0.21531555255E+03  0.50400001928E-02 0. -1.
        1   -1    0    0  501    0  0.00000000000E+00  0.00000000000E+00 -0.16621960794E+04  0.16621960794E+04  0.50400001928E-02 0.  1.
    10030    2    1    2    0    0  0.00000000000E+00  0.00000000000E+00 -0.14468805269E+04  0.18775116319E+04  0.11964893100E+04 0.  0.
        5    1    3    3  502    0 -0.47032453999E+03  0.33202945274E+03 -0.46835329632E+03  0.74217627999E+03  0.46999998093E+01 0. -1.
       -5    1    3    3    0  502  0.47032453999E+03 -0.33202945274E+03 -0.97852723058E+03  0.11353353520E+04  0.46999998093E+01 0.  1.
</event>
<event>
 5   0  0.3751091E-03  0.1169407E+04  0.7818609E-02  0.9140064E-01
       -2   -1    0    0    0  501  0.00000000000E+00  0.00000000000E+00  0.52097371532E+03  0.52097371533E+03  0.25500000920E-02 0.  1.
        2   -1    0    0  501    0  0.00000000000E+00  0.00000000000E+00 -0.65622889754E+03  0.65622889755E+03  0.25500000920E-02 0. -1.
    10030    2    1    2    0    0  0.00000000000E+00  0.00000000000E+00 -0.13525518222E+03  0.11772026129E+04  0.11694066989E+04 0.  0.
        5    1    3    3  502    0 -0.48808426347E+01 -0.16177656271E+03  0.49795458874E+03  0.52361850742E+03  0.46999998093E+01 0.  1.
       -5    1    3    3    0  502  0.48808426347E+01  0.16177656271E+03 -0.63320977096E+03  0.65358410546E+03  0.46999998093E+01 0. -1.
</event>
<event>
 5   0  0.3650180E-03  0.1202345E+04  0.7818609E-02  0.9110806E-01
       -2   -1    0    0    0  501  0.00000000000E+00  0.00000000000E+00  0.51745849604E+03  0.51745849604E+03  0.25500000920E-02 0. -1.
        2   -1    0    0  501    0  0.00000000000E+00  0.00000000000E+00 -0.69843018283E+03  0.69843018283E+03  0.25500000920E-02 0.  1.
    10030    2    1    2    0    0  0.00000000000E+00  0.00000000000E+00 -0.18097168679E+03  0.12158886789E+04  0.12023454279E+04 0.  0.
        3    1    3    3  502    0 -0.20171981439E+03  0.38439957099E+03  0.33007685727E+03  0.54534819666E+03  0.10100000352E+00 0. -1.
       -3    1    3    3    0  502  0.20171981439E+03 -0.38439957099E+03 -0.51104854406E+03  0.67054048221E+03  0.10100000352E+00 0.  1.
</event>
<event>
 5   0  0.2078258E-03  0.1224371E+04  0.7818609E-02  0.9091788E-01
        1   -1    0    0  501    0  0.00000000000E+00  0.00000000000E+00  0.21279171889E+04  0.21279171890E+04  0.50400001928E-02 0. -1.
       -1   -1    0    0    0  501  0.00000000000E+00  0.00000000000E+00 -0.17612109124E+03  0.17612109131E+03  0.50400001928E-02 0.  1.
    10030    2    1    2    0    0  0.00000000000E+00  0.00000000000E+00  0.19517960977E+04  0.23040382803E+04  0.12243710181E+04 0.  0.
        3    1    3    3  502    0  0.35348663453E+03 -0.27695476190E+03  0.19293155096E+03  0.48875283578E+03  0.10100000352E+00 0.  1.
       -3    1    3    3    0  502 -0.35348663453E+03  0.27695476190E+03  0.17588645468E+04  0.18152854445E+04  0.10100000352E+00 0. -1.
</event>
<event>
 5   0  0.2078258E-03  0.1196046E+04  0.7818609E-02  0.9116325E-01
        1   -1    0    0  501    0  0.00000000000E+00  0.00000000000E+00  0.12696650407E+04  0.12696650407E+04  0.50400001928E-02 0.  1.
       -1   -1    0    0    0  501  0.00000000000E+00  0.00000000000E+00 -0.28167377526E+03  0.28167377530E+03  0.50400001928E-02 0. -1.
    10030    2    1    2    0    0  0.00000000000E+00  0.00000000000E+00  0.98799126545E+03  0.15513388160E+04  0.11960457272E+04 0.  0.
        3    1    3    3  502    0 -0.32027204867E+02 -0.92551854259E+02  0.12591927015E+04  0.12629955888E+04  0.10100000352E+00 0.  1.
       -3    1    3    3    0  502  0.32027204867E+02  0.92551854259E+02 -0.27120143605E+03  0.28834322724E+03  0.10100000352E+00 0. -1.
</event>
<event>
 5   0  0.2134992E-03  0.1170473E+04  0.7818609E-02  0.9139101E-01
       -1   -1    0    0    0  501  0.00000000000E+00  0.00000000000E+00  0.28064469329E+03  0.28064469333E+03  0.50400001928E-02 0.  1.
        1   -1    0    0  501    0  0.00000000000E+00  0.00000000000E+00 -0.12204103266E+04  0.12204103266E+04  0.50400001928E-02 0. -1.
    10030    2    1    2    0    0  0.00000000000E+00  0.00000000000E+00 -0.93976563329E+03  0.15010550199E+04  0.11704728648E+04 0.  0.
        4    1    3    3  502    0  0.30004036389E+03 -0.37176314386E+03 -0.36374333215E+02  0.47912081996E+03  0.12699999809E+01 0. -1.
       -4    1    3    3    0  502 -0.30004036389E+03  0.37176314386E+03 -0.90339130008E+03  0.10219342000E+04  0.12699999809E+01 0.  1.
</event>
<event>
 5   0  0.3626049E-03  0.1125238E+04  0.7818609E-02  0.9180936E-01
       -2   -1    0    0    0  501  0.00000000000E+00  0.00000000000E+00  0.24915946576E+03  0.24915946578E+03  0.25500000920E-02 0.  1.
        2   -1    0    0  501    0  0.00000000000E+00  0.00000000000E+00 -0.12704325925E+04  0.12704325925E+04  0.25500000920E-02 0. -1.
    10030    2    1    2    0    0  0.00000000000E+00  0.00000000000E+00 -0.10212731267E+04  0.15195920583E+04  0.11252382966E+04 0.  0.
        1    1    3    3  502    0  0.30113883449E+03  0.59859943169E+02 -0.11473226704E+04  0.11876940349E+04  0.50400001928E-02 0. -1.
       -1    1    3    3    0  502 -0.30113883449E+03 -0.59859943169E+02  0.12604954369E+03  0.33189802338E+03  0.50400001928E-02 0.  1.
</event>
<event>
 5   0  0.1397500E-03  0.1197728E+04  0.7818609E-02  0.9114848E-01
       -4   -1    0    0    0  501  0.00000000000E+00  0.00000000000E+00  0.24060898641E+03  0.24061233809E+03  0.12699999809E+01 0. -1.
        4   -1    0    0  501    0  0.00000000000E+00  0.00000000000E+00 -0.14905281430E+04  0.14905286841E+04  0.12699999809E+01 0.  1.
    10030    2    1    2    0    0  0.00000000000E+00  0.00000000000E+00 -0.12499191566E+04  0.17311410222E+04  0.11977275736E+04 0.  0.
        4    1    3    3  502    0  0.12580898237E+03  0.21225697723E+03 -0.14136456091E+04  0.14350179252E+04  0.12699999809E+01 0.  1.
       -4    1    3    3    0  502 -0.12580898237E+03 -0.21225697723E+03  0.16372645251E+03  0.29612309700E+03  0.12699999809E+01 0. -1.
</event>
<event>
 5   0  0.3706035E-03  0.1227317E+04  0.7818609E-02  0.9089276E-01
        2   -1    0    0  501    0  0.00000000000E+00  0.00000000000E+00  0.12511946701E+04  0.12511946701E+04  0.25500000920E-02 0. -1.
       -2   -1    0    0    0  501  0.00000000000E+00  0.00000000000E+00 -0.30097385403E+03  0.30097385404E+03  0.25500000920E-02 0.  1.
    10030    2    1    2    0    0  0.00000000000E+00  0.00000000000E+00  0.95022081610E+03  0.15521685242E+04  0.12273172076E+04 0.  0.
        2    1    3    3  502    0 -0.56155846399E+03 -0.21659801628E+03  0.32380073425E+03  0.68345411305E+03  0.25500000920E-02 0.  1.
       -2    1    3    3    0  502  0.56155846399E+03  0.21659801628E+03  0.62642008185E+03  0.86871441112E+03  0.25500000920E-02 0. -1.
</event>
<event>
 5   0  0.3650180E-03  0.1207782E+04  0.7818609E-02  0.9106072E-01
       -2   -1    0    0    0  501  0.00000000000E+00  0.00000000000E+00  0.10815929698E+04  0.10815929698E+04  0.25500000920E-02 0. -1.
        2   -1    0    0  501    0  0.00000000000E+00  0.00000000000E+00 -0.33717340667E+03  0.33717340668E+03  0.25500000920E-02 0.  1.
    10030    2    1    2    0    0  0.00000000000E+00  0.00000000000E+00  0.74441956313E+03  0.14187663765E+04  0.12077820768E+04 0.  0.
        3    1    3    3  502    0  0.21301942515E+02 -0.51232201711E+03  0.74692724158E+03  0.90599554987E+03  0.10100000352E+00 0. -1.
       -3    1    3    3    0  502 -0.21301942515E+02  0.51232201711E+03 -0.25076784568E+01  0.51277082661E+03  0.10100000352E+00 0.  1.
</event>
<event>
 5   0  0.2096270E-03  0.1206028E+04  0.7818609E-02  0.9107597E-01
        1   -1    0    0  501    0  0.00000000000E+00  0.00000000000E+00  0.12846860081E+04  0.12846860081E+04  0.50400001928E-02 0. -1.
       -1   -1    0    0    0  501  0.00000000000E+00  0.00000000000E+00 -0.28304637415E+03  0.28304637419E+03  0.50400001928E-02 0.  1.
    10030    2    1    2    0    0  0.00000000000E+00  0.00000000000E+00  0.10016396340E+04  0.15677323823E+04  0.12060277220E+04 0.  0.
        2    1    3    3  502    0  0.39503762993E+03 -0.45362653883E+03  0.44576188469E+03  0.74868913685E+03  0.25500000920E-02 0. -1.
       -2    1    3    3    0  502 -0.39503762993E+03  0.45362653883E+03  0.55587774929E+03  0.81904324547E+03  0.25500000920E-02 0.  1.
</event>
<event>
 5   0  0.2047109E-03  0.1198510E+04  0.7818609E-02  0.9114161E-01
        1   -1    0    0  501    0  0.00000000000E+00  0.00000000000E+00  0.69807389759E+03  0.69807389761E+03  0.50400001928E-02 0.  1.
       -1   -1    0    0    0  501  0.00000000000E+00  0.00000000000E+00 -0.51442517751E+03  0.51442517753E+03  0.50400001928E-02 0. -1.
    10030    2    1    2    0    0  0.00000000000E+00  0.00000000000E+00  0.18364872008E+03  0.12124990751E+04  0.11985103900E+04 0.  0.
        1    1    3    3  502    0 -0.89884985517E+02 -0.50380219208E+03 -0.22360123919E+03  0.55847423715E+03  0.50400001928E-02 0. -1.
       -1    1    3    3    0  502  0.89884985517E+02  0.50380219208E+03  0.40724995927E+03  0.65402483800E+03  0.50400001928E-02 0.  1.
</event>
<event>
 5   0  0.3650180E-03  0.1203043E+04  0.7818609E-02  0.9110197E-01
       -2   -1    0    0    0  501  0.00000000000E+00  0.00000000000E+00  0.72208173949E+03  0.72208173949E+03  0.25500000920E-02 0. -1.
        2   -1    0    0  501    0  0.00000000000E+00  0.00000000000E+00 -0.50109013542E+03  0.50109013543E+03  0.25500000920E-02 0.  1.
    10030    2    1    2    0    0  0.00000000000E+00  0.00000000000E+00  0.22099160407E+03  0.12231718749E+04  0.12030428698E+04 0.  0.
        3    1    3    3  502    0 -0.17274876096E+03 -0.43448841341E+03  0.49525282119E+03  0.68110034716E+03  0.10100000352E+00 0. -1.
       -3    1    3    3    0  502  0.17274876096E+03  0.43448841341E+03 -0.27426121712E+03  0.54207152777E+03  0.10100000352E+00 0.  1.
</event>
<event>
 5   0  0.3751091E-03  0.1205106E+04  0.7818609E-02  0.9108399E-01
       -2   -1    0    0    0  501  0.00000000000E+00  0.00000000000E+00  0.59701136191E+03  0.59701136192E+03  0.25500000920E-02 0. -1.
        2   -1    0    0  501    0  0.00000000000E+00  0.00000000000E+00 -0.60814604322E+03  0.60814604323E+03  0.25500000920E-02 0.  1.
    10030    2    1    2    0    0  0.00000000000E+00  0.00000000000E+00 -0.11134681312E+02  0.12051574051E+04  0.12051059663E+04 0.  0.
        5    1    3    3  502    0 -0.33260081089E+03  0.20440531442E+03 -0.46454572592E+03  0.60681929225E+03  0.46999998093E+01 0.  1.
       -5    1    3    3    0  502  0.33260081089E+03 -0.20440531442E+03  0.45341104461E+03  0.59833811290E+03  0.46999998093E+01 0. -1.
</event>
<event>
 5   0  0.2078258E-03  0.1193911E+04  0.7818609E-02  0.9118203E-01
        1   -1    0    0  501    0  0.00000000000E+00  0.00000000000E+00  0.87076725372E+03  0.87076725373E+03  0.50400001928E-02 0.  1.
       -1   -1    0    0    0  501  0.00000000000E+00  0.00000000000E+00 -0.40924337440E+03  0.40924337443E+03  0.50400001928E-02 0. -1.
    10030    2    1    2    0    0  0.00000000000E+00  0.00000000000E+00  0.46152387932E+03  0.12800106282E+04  0.11939107659E+04 0.  0.
        3    1    3    3  502    0  0.46844390194E+03  0.27048823737E+03  0.50146246716E+03  0.73760978301E+03  0.10100000352E+00 0.  1.
       -3    1    3    3    0  502 -0.46844390194E+03 -0.27048823737E+03 -0.39938587836E+02  0.54240084515E+03  0.10100000352E+00 0. -1.
</event>
<event>
 5   0  0.2096270E-03  0.1208517E+04  0.7818609E-02  0.9105434E-01
       -1   -1    0    0    0  501  0.00000000000E+00  0.00000000000E+00  0.27941280819E+03  0.27941280824E+03  0.50400001928E-02 0.  1.
        1   -1    0    0  501    0  0.00000000000E+00  0.00000000000E+00 -0.13067708588E+04  0.13067708588E+04  0.50400001928E-02 0. -1.
    10030    2    1    2    0    0  0.00000000000E+00  0.00000000000E+00 -0.10273580506E+04  0.15861836671E+04  0.12085172988E+04 0.  0.
        2    1    3    3  502    0 -0.28158292982E+03  0.30875461230E+03  0.59195712333E+02  0.42204560103E+03  0.25500000920E-02 0.  1.
       -2    1    3    3    0  502  0.28158292982E+03 -0.30875461230E+03 -0.10865537630E+04  0.11641380660E+04  0.25500000920E-02 0. -1.
</event>
<event>
 5   0  0.2096270E-03  0.1056675E+04  0.7818609E-02  0.9248479E-01
       -1   -1    0    0    0  501  0.00000000000E+00  0.00000000000E+00  0.62218285299E+03  0.62218285301E+03  0.50400001928E-02 0. -1.
        1   -1    0    0  501    0  0.00000000000E+00  0.00000000000E+00 -0.44864721019E+03  0.44864721022E+03  0.50400001928E-02 0.  1.
    10030    2    1    2    0    0  0.00000000000E+00  0.00000000000E+00  0.17353564280E+03  0.10708300632E+04  0.10566751653E+04 0.  0.
        2    1    3    3  502    0 -0.33472856645E+03 -0.21180995544E+03 -0.26753527184E+03  0.47799769049E+03  0.25500000920E-02 0.  1.
       -2    1    3    3    0  502  0.33472856645E+03  0.21180995544E+03  0.44107091464E+03  0.59283237274E+03  0.25500000920E-02 0. -1.
</event>
<event>
 5   0  0.3725376E-03  0.1211622E+04  0.7818609E-02  0.9102744E-01
       -2   -1    0    0    0  501  0.00000000000E+00  0.00000000000E+00  0.50335598589E+03  0.50335598589E+03  0.25500000920E-02 0.  1.
        2   -1    0    0  501    0  0.00000000000E+00  0.00000000000E+00 -0.72912040767E+03  0.72912040767E+03  0.25500000920E-02 0. -1.
    10030    2    1    2    0    0  0.00000000000E+00  0.00000000000E+00 -0.22576442178E+03  0.12324763936E+04  0.12116222541E+04 0.  0.
        4    1    3    3  502    0 -0.44603469056E+01  0.46322430647E+02 -0.72729818786E+03  0.72878661434E+03  0.12699999809E+01 0. -1.
       -4    1    3    3    0  502  0.44603469056E+01 -0.46322430647E+02  0.50153376608E+03  0.50368977923E+03  0.12699999809E+01 0.  1.
</event>
<event>
 5   0  0.2025294E-03  0.1216192E+04  0.7818609E-02  0.9098801E-01
        1   -1    0    0  501    0  0.00000000000E+00  0.00000000000E+00  0.21209700202E+04  0.21209700202E+04  0.50400001928E-02 0.  1.
       -1   -1    0    0    0  501  0.00000000000E+00  0.00000000000E+00 -0.17434508453E+03  0.17434508460E+03  0.50400001928E-02 0. -1.
    10030    2    1    2    0    0  0.00000000000E+00  0.00000000000E+00  0.19466249357E+04  0.22953151048E+04  0.12161919216E+04 0.  0.
        5    1    3    3  502    0  0.11346202491E+03 -0.50564565897E+03  0.37290452519E+03  0.63845989572E+03  0.46999998093E+01 0. -1.
       -5    1    3    3    0  502 -0.11346202491E+03  0.50564565897E+03  0.15737204105E+04  0.16568552091E+04  0.46999998093E+01 0.  1.
</event>
<event>
 5   0  0.3751091E-03  0.1177887E+04  0.7818609E-02  0.9132435E-01
        2   -1    0    0  501    0  0.00000000000E+00  0.00000000000E+00  0.68142031407E+03  0.68142031408E+03  0.25500000920E-02 0. -1.
       -2   -1    0    0    0  501  0.00000000000E+00  0.00000000000E+00 -0.50901668507E+03  0.50901668507E+03  0.25500000920E-02 0.  1.
    10030    2    1    2    0    0  0.00000000000E+00  0.00000000000E+00  0.17240362900E+03  0.11904369992E+04  0.11778867678E+04 0.  0.
        5    1    3    3  502    0 -0.32923714056E+03  0.36259255169E+03 -0.24433295936E+03  0.54734919228E+03  0.46999998093E+01 0.  1.
       -5    1    3    3    0  502  0.32923714056E+03 -0.36259255169E+03  0.41673658836E+03  0.64308780687E+03  0.46999998093E+01 0. -1.
</event>
<event>
 5   0  0.2096270E-03  0.1277781E+04  0.7818609E-02  0.9047373E-01
       -1   -1    0    0    0  501  0.00000000000E+00  0.00000000000E+00  0.12326330846E+04  0.12326330846E+04  0.50400001928E-02 0. -1.
        1   -1    0    0  501    0  0.00000000000E+00  0.00000000000E+00 -0.33114544226E+03  0.33114544230E+03  0.50400001928E-02 0.  1.
    10030    2    1    2    0    0  0.00000000000E+00  0.00000000000E+00  0.90148764233E+03  0.15637785269E+04  0.12777806196E+04 0.  0.
        2    1    3    3  502    0  0.47791084648E+03 -0.24539563030E+03  0.27571343169E+02  0.53793863174E+03  0.25500000920E-02 0.  1.
       -2    1    3    3    0  502 -0.47791084648E+03  0.24539563030E+03  0.87391629916E+03  0.10258398952E+04  0.25500000920E-02 0. -1.
</event>
<event>
 5   0  0.3626049E-03  0.1204920E+04  0.7818609E-02  0.9108561E-01
        2   -1    0    0  501    0  0.00000000000E+00  0.00000000000E+00  0.74071676830E+03  0.74071676831E+03  0.25500000920E-02 0. -1.
       -2   -1    0    0    0  501  0.00000000000E+00  0.00000000000E+00 -0.49000912811E+03  0.49000912811E+03  0.25500000920E-02 0.  1.
    10030    2    1    2    0    0  0.00000000000E+00  0.00000000000E+00  0.25070764019E+03  0.12307258964E+04  0.12049198775E+04 0.  0.
        1    1    3    3  502    0  0.48048270724E+03  0.23005374437E+03 -0.16204332627E+03  0.55681810035E+03  0.50400001928E-02 0.  1.
       -1    1    3    3    0  502 -0.48048270724E+03 -0.23005374437E+03  0.41275096647E+03  0.67390779607E+03  0.50400001928E-02 0. -1.
</event>
<event>
 5   0  0.2025294E-03  0.1196886E+04  0.7818609E-02  0.9115586E-01
       -1   -1    0    0    0  501  0.00000000000E+00  0.00000000000E+00  0.30525710082E+03  0.30525710086E+03  0.50400001928E-02 0.  1.
        1   -1    0    0  501    0  0.00000000000E+00  0.00000000000E+00 -0.11732217195E+04  0.11732217195E+04  0.50400001928E-02 0. -1.
    10030    2    1    2    0    0  0.00000000000E+00  0.00000000000E+00 -0.86796461870E+03  0.14784788204E+04  0.11968863952E+04 0.  0.
        5    1    3    3  502    0 -0.45049560971E+03 -0.29223724065E+03 -0.76025114754E+03  0.93078074568E+03  0.46999998093E+01 0. -1.
       -5    1    3    3    0  502  0.45049560971E+03  0.29223724065E+03 -0.10771347116E+03  0.54769807472E+03  0.46999998093E+01 0.  1.
</event>
<event>
 5   0  0.2096270E-03  0.1209313E+04  0.7818609E-02  0.9104744E-01
        1   -1    0    0  501    0  0.00000000000E+00  0.00000000000E+00  0.13029525194E+04  0.13029525194E+04  0.50400001928E-02 0. -1.
       -1   -1    0    0    0  501  0.00000000000E+00  0.00000000000E+00 -0.28060081278E+03  0.28060081282E+03  0.50400001928E-02 0.  1.
    10030    2    1    2    0    0  0.00000000000E+00  0.00000000000E+00  0.10223517066E+04  0.15835533322E+04  0.12093130876E+04 0.  0.
        2    1    3    3  502    0 -0.49782794526E+03 -0.79805448485E+02  0.94824692090E+03  0.10739524178E+04  0.25500000920E-02 0. -1.
       -2    1    3    3    0  502  0.49782794526E+03  0.79805448485E+02  0.74104785686E+02  0.50960091440E+03  0.25500000920E-02 0.  1.
</event>
<event>
 5   0  0.3706035E-03  0.1195140E+04  0.7818609E-02  0.9117121E-01
        2   -1    0    0  501    0  0.00000000000E+00  0.00000000000E+00  0.34260285828E+03  0.34260285829E+03  0.25500000920E-02 0. -1.
       -2   -1    0    0    0  501  0.00000000000E+00  0.00000000000E+00 -0.10422855851E+04  0.10422855851E+04  0.25500000920E-02 0.  1.
    10030    2    1    2    0    0  0.00000000000E+00  0.00000000000E+00 -0.69968272683E+03  0.13848884434E+04  0.11951401936E+04 0.  0.
        2    1    3    3  502    0 -0.29972877010E+03 -0.28434401087E+03  0.15044683023E+03  0.43968522931E+03  0.25500000920E-02 0. -1.
       -2    1    3    3    0  502  0.29972877010E+03  0.28434401087E+03 -0.85012955706E+03  0.94520321409E+03  0.25500000920E-02 0.  1.
</event>
<event>
 5   0  0.3706035E-03  0.1222106E+04  0.7818609E-02  0.9093725E-01
       -2   -1    0    0    0  501  0.00000000000E+00  0.00000000000E+00  0.36706659512E+03  0.36706659513E+03  0.25500000920E-02 0. -1.
        2   -1    0    0  501    0  0.00000000000E+00  0.00000000000E+00 -0.10172148601E+04  0.10172148601E+04  0.25500000920E-02 0.  1.
    10030    2    1    2    0    0  0.00000000000E+00  0.00000000000E+00 -0.65014826496E+03  0.13842814552E+04  0.12221057159E+04 0.  0.
        2    1    3    3  502    0 -0.29946173854E+03  0.32924014901E+03 -0.79933573329E+03  0.91488470481E+03  0.25500000920E-02 0. -1.
       -2    1    3    3    0  502  0.29946173854E+03 -0.32924014901E+03  0.14918746833E+03  0.46939675040E+03  0.25500000920E-02 0.  1.
</event>
<event>
 5   0  0.3725376E-03  0.1168828E+04  0.7818609E-02  0.9140587E-01
       -2   -1    0    0    0  501  0.00000000000E+00  0.00000000000E+00  0.13768436729E+03  0.13768436732E+03  0.25500000920E-02 0.  1.
        2   -1    0    0  501    0  0.00000000000E+00  0.00000000000E+00 -0.24806006877E+04  0.24806006877E+04  0.25500000920E-02 0. -1.
    10030    2    1    2    0    0  0.00000000000E+00  0.00000000000E+00 -0.23429163204E+04  0.26182850550E+04  0.11688283642E+04 0.  0.
        4    1    3    3  502    0 -0.67755760396E+02 -0.25986001791E+02 -0.24704657017E+04  0.24715316124E+04  0.12699999809E+01 0. -1.
       -4    1    3    3    0  502  0.67755760396E+02  0.25986001791E+02  0.12754938124E+03  0.14675344258E+03  0.12699999809E+01 0.  1.
</event>
<event>
 5   0  0.3706035E-03  0.1192912E+04  0.7818609E-02  0.9119083E-01
       -2   -1    0    0    0  501  0.00000000000E+00  0.00000000000E+00  0.23757496747E+03  0.23757496749E+03  0.25500000920E-02 0. -1.
        2   -1    0    0  501    0  0.00000000000E+00  0.00000000000E+00 -0.14974630045E+04  0.14974630045E+04  0.25500000920E-02 0.  1.
    10030    2    1    2    0    0  0.00000000000E+00  0.00000000000E+00 -0.12598880370E+04  0.17350379720E+04  0.11929119408E+04 0.  0.
        2    1    3    3  502    0 -0.24893444437E+03 -0.34451956146E+03 -0.12385563434E+04  0.13094593929E+04  0.25500000920E-02 0.  1.
       -2    1    3    3    0  502  0.24893444437E+03  0.34451956146E+03 -0.21331693602E+02  0.42557857909E+03  0.25500000920E-02 0. -1.
</event>
<event>
 5   0  0.3706035E-03  0.9822327E+03  0.7818609E-02  0.9328249E-01
       -2   -1    0    0    0  501  0.00000000000E+00  0.00000000000E+00  0.25642148729E+03  0.25642148730E+03  0.25500000920E-02 0. -1.
        2   -1    0    0  501    0  0.00000000000E+00  0.00000000000E+00 -0.94062034219E+03  0.94062034220E+03  0.25500000920E-02 0.  1.
    10030    2    1    2    0    0  0.00000000000E+00  0.00000000000E+00 -0.68419885491E+03  0.11970418295E+04  0.98223269570E+03 0.  0.
        2    1    3    3  502    0 -0.20614408540E+03  0.43020141500E+03 -0.19983736396E+03  0.51720751488E+03  0.25500000920E-02 0.  1.
       -2    1    3    3    0  502  0.20614408540E+03 -0.43020141500E+03 -0.48436149094E+03  0.67983431461E+03  0.25500000920E-02 0. -1.
</event>
<event>
 5   0  0.3650180E-03  0.1174746E+04  0.7818609E-02  0.9135253E-01
        2   -1    0    0  501    0  0.00000000000E+00  0.00000000000E+00  0.12497989374E+04  0.12497989374E+04  0.25500000920E-02 0.  1.
       -2   -1    0    0    0  501  0.00000000000E+00  0.00000000000E+00 -0.27604987830E+03  0.27604987831E+03  0.25500000920E-02 0. -1.
    10030    2    1    2    0    0  0.00000000000E+00  0.00000000000E+00  0.97374905913E+03  0.15258488157E+04  0.11747456654E+04 0.  0.
        3    1    3    3  502    0 -0.18698491245E+03 -0.54860705994E+03  0.36314836411E+03  0.68396623327E+03  0.10100000352E+00 0.  1.
       -3    1    3    3    0  502  0.18698491245E+03  0.54860705994E+03  0.61060069503E+03  0.84188258247E+03  0.10100000352E+00 0. -1.
</event>
<event>
 5   0  0.2134992E-03  0.1218401E+04  0.7818609E-02  0.9096901E-01
        1   -1    0    0  501    0  0.00000000000E+00  0.00000000000E+00  0.12077894554E+04  0.12077894554E+04  0.50400001928E-02 0.  1.
       -1   -1    0    0    0  501  0.00000000000E+00  0.00000000000E+00 -0.30727624006E+03  0.30727624010E+03  0.50400001928E-02 0. -1.
    10030    2    1    2    0    0  0.00000000000E+00  0.00000000000E+00  0.90051321532E+03  0.15150656955E+04  0.12184005953E+04 0.  0.
        4    1    3    3  502    0  0.33809925194E+03  0.14449403914E+03 -0.15374265056E+03  0.39853236632E+03  0.12699999809E+01 0. -1.
       -4    1    3    3    0  502 -0.33809925194E+03 -0.14449403914E+03  0.10542558659E+04  0.11165333292E+04  0.12699999809E+01 0.  1.
</event>
<event>
 5   0  0.2047109E-03  0.9614189E+03  0.7818609E-02  0.9351902E-01
        1   -1    0    0  501    0  0.00000000000E+00  0.00000000000E+00  0.22665513730E+04  0.22665513730E+04  0.50400001928E-02 0. -1.
       -1   -1    0    0    0  501  0.00000000000E+00  0.00000000000E+00 -0.10195294327E+03  0.10195294339E+03  0.50400001928E-02 0.  1.
    10030    2    1    2    0    0  0.00000000000E+00  0.00000000000E+00  0.21645984298E+04  0.23685043164E+04  0.96141891743E+03 0.  0.
        1    1    3    3  502    0  0.26489048439E+02  0.43567048128E+03  0.58608391203E+03  0.73075631363E+03  0.50400001928E-02 0.  1.
       -1    1    3    3    0  502 -0.26489048439E+02 -0.43567048128E+03  0.15785145177E+04  0.16377480028E+04  0.50400001928E-02 0. -1.
</event>
<event>
 5   0  0.2078258E-03  0.1165497E+04  0.7818609E-02  0.9143605E-01
       -1   -1    0    0    0  501  0.00000000000E+00  0.00000000000E+00  0.25262399583E+03  0.25262399588E+03  0.50400001928E-02 0.  1.
        1   -1    0    0  501    0  0.00000000000E+00  0.00000000000E+00 -0.13442739916E+04  0.13442739916E+04  0.50400001928E-02 0. -1.
    10030    2    1    2    0    0  0.00000000000E+00  0.00000000000E+00 -0.10916499957E+04  0.15968979875E+04  0.11654970910E+04 0.  0.
        3    1    3    3  502    0  0.33133056208E+03  0.16497728527E+03 -0.11625392673E+04  0.12200389355E+04  0.10100000352E+00 0. -1.
       -3    1    3    3    0  502 -0.33133056208E+03 -0.16497728527E+03  0.70889271522E+02  0.37685905195E+03  0.10100000352E+00 0.  1.
</event>
<event>
 5   0  0.2096270E-03  0.1201035E+04  0.7818609E-02  0.9111951E-01
       -1   -1    0    0    0  501  0.00000000000E+00  0.00000000000E+00  0.57830070901E+03  0.57830070903E+03  0.50400001928E-02 0.  1.
        1   -1    0    0  501    0  0.00000000000E+00  0.00000000000E+00 -0.62358762443E+03  0.62358762445E+03  0.50400001928E-02 0. -1.
    10030    2    1    2    0    0  0.00000000000E+00  0.00000000000E+00 -0.45286915414E+02  0.12018883335E+04  0.12010348294E+04 0.  0.
        2    1    3    3  502    0  0.20226917948E+03 -0.30058041336E+03  0.45661206915E+03  0.58288591299E+03  0.25500000920E-02 0.  1.
       -2    1    3    3    0  502 -0.20226917948E+03  0.30058041336E+03 -0.50189898456E+03  0.61900242049E+03  0.25500000920E-02 0. -1.
</event>
<event>
 5   0  0.2047109E-03  0.1212672E+04  0.7818609E-02  0.9101837E-01
       -1   -1    0    0    0  501  0.00000000000E+00  0.00000000000E+00  0.11448329786E+04  0.11448329786E+04  0.50400001928E-02 0. -1.
        1   -1    0    0  501    0  0.00000000000E+00  0.00000000000E+00 -0.32113250493E+03  0.32113250497E+03  0.50400001928E-02 0.  1.
    10030    2    1    2    0    0  0.00000000000E+00  0.00000000000E+00  0.82370047366E+03  0.14659654836E+04  0.12126715667E+04 0.  0.
        1    1    3    3  502    0 -0.26461968244E+03 -0.10498656112E+03  0.10590176162E+04  0.10966148210E+04  0.50400001928E-02 0. -1.
       -1    1    3    3    0  502  0.26461968244E+03  0.10498656112E+03 -0.23531714249E+03  0.36935066255E+03  0.50400001928E-02 0.  1.
</event>
<event>
 5   0  0.3725376E-03  0.1220924E+04  0.7818609E-02  0.9094736E-01
        2   -1    0    0  501    0  0.00000000000E+00  0.00000000000E+00  0.93613242146E+03  0.93613242146E+03  0.25500000920E-02 0.  1.
       -2   -1    0    0    0  501  0.00000000000E+00  0.00000000000E+00 -0.39808907806E+03  0.39808907807E+03  0.25500000920E-02 0. -1.
    10030    2    1    2    0    0  0.00000000000E+00  0.00000000000E+00  0.53804334340E+03  0.13342214995E+04  0.12209243918E+04 0.  0.
        4    1    3    3  502    0  0.23929702553E+03  0.36822225155E+03 -0.19437001967E+03  0.48024161670E+03  0.12699999809E+01 0. -1.
       -4    1    3    3    0  502 -0.23929702553E+03 -0.36822225155E+03  0.73241336307E+03  0.85397988283E+03  0.12699999809E+01 0.  1.
</event>
<event>
 5   0  0.3725376E-03  0.1183629E+04  0.7818609E-02  0.9127308E-01
       -2   -1    0    0    0  501  0.00000000000E+00  0.00000000000E+00  0.17732424434E+03  0.17732424435E+03  0.25500000920E-02 0. -1.
        2   -1    0    0  501    0  0.00000000000E+00  0.00000000000E+00 -0.19751625708E+04  0.19751625708E+04  0.25500000920E-02 0.  1.
    10030    2    1    2    0    0  0.00000000000E+00  0.00000000000E+00 -0.17978383265E+04  0.21524868152E+04  0.11836286754E+04 0.  0.
        4    1    3    3  502    0 -0.26911924913E+03  0.97723816848E+02  0.42990036826E+02  0.28952525071E+03  0.12699999809E+01 0. -1.
       -4    1    3    3    0  502  0.26911924913E+03 -0.97723816848E+02 -0.18408283633E+04  0.18629615644E+04  0.12699999809E+01 0.  1.
</event>
<event>
 5   0  0.3706035E-03  0.1201471E+04  0.7818609E-02  0.9111570E-01
        2   -1    0    0  501    0  0.00000000000E+00  0.00000000000E+00  0.75204184595E+03  0.75204184595E+03  0.25500000920E-02 0.  1.
       -2   -1    0    0    0  501  0.00000000000E+00  0.00000000000E+00 -0.47987072416E+03  0.47987072417E+03  0.25500000920E-02 0. -1.
    10030    2    1    2    0    0  0.00000000000E+00  0.00000000000E+00  0.27217112179E+03  0.12319125701E+04  0.12014705410E+04 0.  0.
        2    1    3    3  502    0 -0.24571211870E+03  0.41403097993E+03  0.50447538295E+03  0.69734604725E+03  0.25500000920E-02 0.  1.
       -2    1    3    3    0  502  0.24571211870E+03 -0.41403097993E+03 -0.23230426116E+03  0.53456652287E+03  0.25500000920E-02 0. -1.
</event>
<event>
 5   0  0.1397500E-03  0.1194969E+04  0.7818609E-02  0.9117271E-01
       -3   -1    0    0    0  501  0.00000000000E+00  0.00000000000E+00  0.11202900549E+04  0.11202900595E+04  0.10100000352E+00 0. -1.
        3   -1    0    0  501    0  0.00000000000E+00  0.00000000000E+00 -0.31865659867E+03  0.31865661468E+03  0.10100000352E+00 0.  1.
    10030    2    1    2    0    0  0.00000000000E+00  0.00000000000E+00  0.80163345624E+03  0.14389466741E+04  0.11949691765E+04 0.  0.
        2    1    3    3  502    0  0.47256613272E+03  0.19277766573E+02 -0.38825013046E+02  0.47455006450E+03  0.25500000920E-02 0.  1.
       -2    1    3    3    0  502 -0.47256613272E+03 -0.19277766573E+02  0.84045846928E+03  0.96439660963E+03  0.25500000920E-02 0. -1.
</event>
<event>
 5   0  0.2134992E-03  0.1186232E+04  0.7818609E-02  0.9124994E-01
       -1   -1    0    0    0  501  0.00000000000E+00  0.00000000000E+00  0.58978052917E+03  0.58978052919E+03  0.50400001928E-02 0.  1.
        1   -1    0    0  501    0  0.00000000000E+00  0.00000000000E+00 -0.59647003150E+03  0.59647003153E+03  0.50400001928E-02 0. -1.
    10030    2    1    2    0    0  0.00000000000E+00  0.00000000000E+00 -0.66895023370E+01  0.11862505607E+04  0.11862316988E+04 0.  0.
        4    1    3    3  502    0  0.12253933038E+03 -0.45175942501E+03 -0.36760640420E+03  0.59517942411E+03  0.12699999809E+01 0.  1.
       -4    1    3    3    0  502 -0.12253933038E+03  0.45175942501E+03  0.36091690187E+03  0.59107113660E+03  0.12699999809E+01 0. -1.
</event>
<event>
 5   0  0.2078258E-03  0.1203179E+04  0.7818609E-02  0.9110079E-01
       -1   -1    0    0    0  501  0.00000000000E+00  0.00000000000E+00  0.23701760284E+03  0.23701760290E+03  0.50400001928E-02 0.  1.
        1   -1    0    0  501    0  0.00000000000E+00  0.00000000000E+00 -0.15269319919E+04  0.15269319919E+04  0.50400001928E-02 0. -1.
    10030    2    1    2    0    0  0.00000000000E+00  0.00000000000E+00 -0.12899143890E+04  0.17639495948E+04  0.12031787240E+04 0.  0.
        3    1    3    3  502    0  0.56294973457E+03 -0.17696803645E+03 -0.47348500633E+03  0.75658320825E+03  0.10100000352E+00 0. -1.
       -3    1    3    3    0  502 -0.56294973457E+03  0.17696803645E+03 -0.81642938270E+03  0.10073663865E+04  0.10100000352E+00 0.  1.
</event>
<event>
 5   0  0.2134992E-03  0.1219627E+04  0.7818609E-02  0.9095849E-01
       -1   -1    0    0    0  501  0.00000000000E+00  0.00000000000E+00  0.58319863742E+03  0.58319863744E+03  0.50400001928E-02 0. -1.
        1   -1    0    0  501    0  0.00000000000E+00  0.00000000000E+00 -0.63764246353E+03  0.63764246355E+03  0.50400001928E-02 0.  1.
    10030    2    1    2    0    0  0.00000000000E+00  0.00000000000E+00 -0.54443826115E+02  0.12208411010E+04  0.12196265263E+04 0.  0.
        4    1    3    3  502    0 -0.43756796638E+03 -0.17773690170E+03 -0.41337086786E+03  0.62764099510E+03  0.12699999809E+01 0.  1.
       -4    1    3    3    0  502  0.43756796638E+03  0.17773690170E+03  0.35892704175E+03  0.59320010589E+03  0.12699999809E+01 0. -1.
</event>
<event>
 5   0  0.2134992E-03  0.1187560E+04  0.7818609E-02  0.9123815E-01
       -1   -1    0    0    0  501  0.00000000000E+00  0.00000000000E+00  0.42919003522E+03  0.42919003525E+03  0.50400001928E-02 0. -1.
        1   -1    0    0  501    0  0.00000000000E+00  0.00000000000E+00 -0.82148848403E+03  0.82148848405E+03  0.50400001928E-02 0.  1.
    10030    2    1    2    0    0  0.00000000000E+00  0.00000000000E+00 -0.39229844881E+03  0.12506785193E+04  0.11875599714E+04 0.  0.
        4    1    3    3  502    0  0.32021009969E+03  0.13605388909E+03 -0.70289693701E+03  0.78429005198E+03  0.12699999809E+01 0.  1.
       -4    1    3    3    0  502 -0.32021009969E+03 -0.13605388909E+03  0.31059848819E+03  0.46638846732E+03  0.12699999809E+01 0. -1.
</event>
<event>
 5   0  0.3626049E-03  0.1188936E+04  0.7818609E-02  0.9122596E-01
        2   -1    0    0  501    0  0.00000000000E+00  0.00000000000E+00  0.14534870398E+04  0.14534870398E+04  0.25500000920E-02 0.  1.
       -2   -1    0    0    0  501  0.00000000000E+00  0.00000000000E+00 -0.24313399983E+03  0.24313399984E+03  0.25500000920E-02 0. -1.
    10030    2    1    2    0    0  0.00000000000E+00  0.00000000000E+00  0.12103530400E+04  0.16966210397E+04  0.11889358565E+04 0.  0.
        1    1    3    3  502    0 -0.18085335705E+03  0.26448821650E+03  0.13197217362E+04  0.13580601660E+04  0.50400001928E-02 0.  1.
       -1    1    3    3    0  502  0.18085335705E+03 -0.26448821650E+03 -0.10936869624E+03  0.33856087364E+03  0.50400001928E-02 0. -1.
</event>
<event>
 5   0  0.3706035E-03  0.1155389E+04  0.7818609E-02  0.9152826E-01
        2   -1    0    0  501    0  0.00000000000E+00  0.00000000000E+00  0.74993420109E+03  0.74993420110E+03  0.25500000920E-02 0. -1.
       -2   -1    0    0    0  501  0.00000000000E+00  0.00000000000E+00 -0.44501374564E+03  0.44501374565E+03  0.25500000920E-02 0.  1.
    10030    2    1    2    0    0  0.00000000000E+00  0.00000000000E+00  0.30492045546E+03  0.11949479467E+04  0.11553891601E+04 0.  0.
        2    1    3    3  502    0 -0.34621461799E+03  0.34192270104E+03  0.47449780370E+03  0.67964980756E+03  0.25500000920E-02 0.  1.
       -2    1    3    3    0  502  0.34621461799E+03 -0.34192270104E+03 -0.16957734825E+03  0.51529813918E+03  0.25500000920E-02 0. -1.
</event>
<event>
 5   0  0.3650180E-03  0.1198528E+04  0.7818609E-02  0.9114146E-01
       -2   -1    0    0    0  501  0.00000000000E+00  0.00000000000E+00  0.33349768500E+03  0.33349768501E+03  0.25500000920E-02 0.  1.
        2   -1    0    0  501    0  0.00000000000E+00  0.00000000000E+00 -0.10768217868E+04  0.10768217869E+04  0.25500000920E-02 0. -1.
    10030    2    1    2    0    0  0.00000000000E+00  0.00000000000E+00 -0.74332410185E+03  0.14103194719E+04  0.11985283861E+04 0.  0.
        3    1    3    3  502    0  0.18066738343E+03 -0.30700133712E+03  0.19539345232E+03  0.40628701166E+03  0.10100000352E+00 0.  1.
       -3    1    3    3    0  502 -0.18066738343E+03  0.30700133712E+03 -0.93871755417E+03  0.10040324602E+04  0.10100000352E+00 0. -1.
</event>
<event>
 5   0  0.3751091E-03  0.1199953E+04  0.7818609E-02  0.9112898E-01
       -2   -1    0    0    0  501  0.00000000000E+00  0.00000000000E+00  0.26394342718E+03  0.26394342719E+03  0.25500000920E-02 0.  1.
        2   -1    0    0  501    0  0.00000000000E+00  0.00000000000E+00 -0.13638222067E+04  0.13638222067E+04  0.25500000920E-02 0. -1.
    10030    2    1    2    0    0  0.00000000000E+00  0.00000000000E+00 -0.10998787795E+04  0.16277656339E+04  0.11999531779E+04 0.  0.
        5    1    3    3  502    0 -0.50935972677E+03 -0.91058496420E+02 -0.13801400561E+03  0.53554545724E+03  0.46999998093E+01 0.  1.
       -5    1    3    3    0  502  0.50935972677E+03  0.91058496420E+02 -0.96186477391E+03  0.10922201767E+04  0.46999998093E+01 0. -1.
</event>
<event>
 5   0  0.2025294E-03  0.1174786E+04  0.7818609E-02  0.9135217E-01
        1   -1    0    0  501    0  0.00000000000E+00  0.00000000000E+00  0.16761430647E+04  0.16761430648E+04  0.50400001928E-02 0.  1.
       -1   -1    0    0    0  501  0.00000000000E+00  0.00000000000E+00 -0.20584786101E+03  0.20584786107E+03  0.50400001928E-02 0. -1.
    10030    2    1    2    0    0  0.00000000000E+00  0.00000000000E+00  0.14702952037E+04  0.18819909258E+04  0.11747858778E+04 0.  0.
        5    1    3    3  502    0  0.29061965521E+03  0.20774382051E+03 -0.11782020993E+02  0.35746074606E+03  0.46999998093E+01 0. -1.
       -5    1    3    3    0  502 -0.29061965521E+03 -0.20774382051E+03  0.14820772247E+04  0.15245301798E+04  0.46999998093E+01 0.  1.
</event>
<event>
 5   0  0.2096270E-03  0.1083640E+04  0.7818609E-02  0.9221285E-01
        1   -1    0    0  501    0  0.00000000000E+00  0.00000000000E+00  0.62321932490E+03  0.62321932492E+03  0.50400001928E-02 0. -1.
       -1   -1    0    0    0  501  0.00000000000E+00  0.00000000000E+00 -0.47105265350E+03  0.47105265353E+03  0.50400001928E-02 0.  1.
    10030    2    1    2    0    0  0.00000000000E+00  0.00000000000E+00  0.15216667140E+03  0.10942719784E+04  0.10836403771E+04 0.  0.
        2    1    3    3  502    0 -0.52291145216E+03  0.11869811084E+03  0.15458591862E+03  0.55805235826E+03  0.25500000920E-02 0.  1.
       -2    1    3    3    0  502  0.52291145216E+03 -0.11869811084E+03 -0.24192472233E+01  0.53621962019E+03  0.25500000920E-02 0. -1.
</event>
<event>
 5   0  0.2025294E-03  0.1186484E+04  0.7818609E-02  0.9124770E-01
        1   -1    0    0  501    0  0.00000000000E+00  0.00000000000E+00  0.15139106930E+04  0.15139106930E+04  0.50400001928E-02 0. -1.
       -1   -1    0    0    0  501  0.00000000000E+00  0.00000000000E+00 -0.23246799344E+03  0.23246799349E+03  0.50400001928E-02 0.  1.
    10030    2    1    2    0    0  0.00000000000E+00  0.00000000000E+00  0.12814426996E+04  0.17463786865E+04  0.11864835121E+04 0.  0.
        5    1    3    3  502    0  0.51101683630E+02 -0.40714872418E+02  0.15085709426E+04  0.15099925370E+04  0.46999998093E+01 0. -1.
       -5    1    3    3    0  502 -0.51101683630E+02  0.40714872418E+02 -0.22712824303E+03  0.23638614952E+03  0.46999998093E+01 0.  1.
</event>
<event>
 5   0  0.3706035E-03  0.1187025E+04  0.7818609E-02  0.9124290E-01
        2   -1    0    0  501    0  0.00000000000E+00  0.00000000000E+00  0.30218286663E+03  0.30218286664E+03  0.25500000920E-02 0. -1.
       -2   -1    0    0    0  501  0.00000000000E+00  0.00000000000E+00 -0.11657074669E+04  0.11657074669E+04  0.25500000920E-02 0.  1.
    10030    2    1    2    0    0  0.00000000000E+00  0.00000000000E+00 -0.86352460024E+03  0.14678903335E+04  0.11870245558E+04 0.  0.
        2    1    3    3  502    0 -0.13336927248E+03  0.15891018593E+03 -0.11194093724E+04  0.11384714108E+04  0.25500000920E-02 0.  1.
       -2    1    3    3    0  502  0.13336927248E+03 -0.15891018593E+03  0.25588477218E+03  0.32941892277E+03  0.25500000920E-02 0. -1.
</event>
<event>
 5   0  0.3626049E-03  0.1203944E+04  0.7818609E-02  0.9109412E-01
        2   -1    0    0  501    0  0.00000000000E+00  0.00000000000E+00  0.10354857662E+04  0.10354857662E+04  0.25500000920E-02 0.  1.
       -2   -1    0    0    0  501  0.00000000000E+00  0.00000000000E+00 -0.34995186051E+03  0.34995186052E+03  0.25500000920E-02 0. -1.
    10030    2    1    2    0    0  0.00000000000E+00  0.00000000000E+00  0.68553390567E+03  0.13854376267E+04  0.12039438034E+04 0.  0.
        1    1    3    3  502    0 -0.71185311868E+02 -0.33597729551E+03  0.91168666175E+03  0.97422823864E+03  0.50400001928E-02 0.  1.
       -1    1    3    3    0  502  0.71185311868E+02  0.33597729551E+03 -0.22615275608E+03  0.41120938806E+03  0.50400001928E-02 0. -1.
</event>
<event>
 5   0  0.3626049E-03  0.1230809E+04  0.7818609E-02  0.9086309E-01
        2   -1    0    0  501    0  0.00000000000E+00  0.00000000000E+00  0.14040025577E+04  0.14040025577E+04  0.25500000920E-02 0. -1.
       -2   -1    0    0    0  501  0.00000000000E+00  0.00000000000E+00 -0.26974489463E+03  0.26974489464E+03  0.25500000920E-02 0.  1.
    10030    2    1    2    0    0  0.00000000000E+00  0.00000000000E+00  0.11342576631E+04  0.16737474524E+04  0.12308087130E+04 0.  0.
        1    1    3    3  502    0 -0.14512334773E+03  0.49135295985E+03  0.10307528935E+04  0.11510604001E+04  0.50400001928E-02 0. -1.
       -1    1    3    3    0  502  0.14512334773E+03 -0.49135295985E+03  0.10350476954E+03  0.52268705221E+03  0.50400001928E-02 0.  1.
</event>
<event>
 5   0  0.3650180E-03  0.1190617E+04  0.7818609E-02  0.9121109E-01
        2   -1    0    0  501    0  0.00000000000E+00  0.00000000000E+00  0.11012566587E+04  0.11012566587E+04  0.25500000920E-02 0. -1.
       -2   -1    0    0    0  501  0.00000000000E+00  0.00000000000E+00 -0.32180728245E+03  0.32180728246E+03  0.25500000920E-02 0.  1.
    10030    2    1    2    0    0  0.00000000000E+00  0.00000000000E+00  0.77944937630E+03  0.14230639412E+04  0.11906173401E+04 0.  0.
        3    1    3    3  502    0 -0.37563829553E+03  0.16152225159E+03 -0.12741013374E+03  0.42828369010E+03  0.10100000352E+00 0.  1.
       -3    1    3    3    0  502  0.37563829553E+03 -0.16152225159E+03  0.90685951003E+03  0.99478025110E+03  0.10100000352E+00 0. -1.
</event>
<event>
 5   0  0.2134992E-03  0.1155638E+04  0.7818609E-02  0.9152598E-01
       -1   -1    0    0    0  501  0.00000000000E+00  0.00000000000E+00  0.58668132741E+03  0.58668132743E+03  0.50400001928E-02 0. -1.
        1   -1    0    0  501    0  0.00000000000E+00  0.00000000000E+00 -0.56909087233E+03  0.56909087236E+03  0.50400001928E-02 0.  1.
    10030    2    1    2    0    0  0.00000000000E+00  0.00000000000E+00  0.17590455074E+02  0.11557721998E+04  0.11556383317E+04 0.  0.
        4    1    3    3  502    0 -0.21863263780E+03  0.18029080725E+03  0.51240928581E+03  0.58555093252E+03  0.12699999809E+01 0. -1.
       -4    1    3    3    0  502  0.21863263780E+03 -0.18029080725E+03 -0.49481883074E+03  0.57022126727E+03  0.12699999809E+01 0.  1.
</event>
<event>
 5   0  0.3650180E-03  0.1232051E+04  0.7818609E-02  0.9085256E-01
        2   -1    0    0  501    0  0.00000000000E+00  0.00000000000E+00  0.16769050449E+04  0.16769050450E+04  0.25500000920E-02 0. -1.
       -2   -1    0    0    0  501  0.00000000000E+00  0.00000000000E+00 -0.22630215741E+03  0.22630215743E+03  0.25500000920E-02 0.  1.
    10030    2    1    2    0    0  0.00000000000E+00  0.00000000000E+00  0.14506028875E+04  0.19032072024E+04  0.12320506961E+04 0.  0.
        3    1    3    3  502    0 -0.42554664725E+01  0.60040636511E+03  0.51247746855E+03  0.78939158738E+03  0.10100000352E+00 0.  1.
       -3    1    3    3    0  502  0.42554664725E+01 -0.60040636511E+03  0.93812541899E+03  0.11138156150E+04  0.10100000352E+00 0. -1.
</event>
<event>
 5   0  0.2096270E-03  0.1188650E+04  0.7818609E-02  0.9122850E-01
       -1   -1    0    0    0  501  0.00000000000E+00  0.00000000000E+00  0.51158022137E+03  0.51158022139E+03  0.50400001928E-02 0.  1.
        1   -1    0    0  501    0  0.00000000000E+00  0.00000000000E+00 -0.69045300088E+03  0.69045300090E+03  0.50400001928E-02 0. -1.
    10030    2    1    2    0    0  0.00000000000E+00  0.00000000000E+00 -0.17887277951E+03  0.12020332223E+04  0.11886498207E+04 0.  0.
        2    1    3    3  502    0  0.50921733030E+03 -0.21972056969E+03  0.12661054764E+03  0.56886698709E+03  0.25500000920E-02 0.  1.
       -2    1    3    3    0  502 -0.50921733030E+03  0.21972056969E+03 -0.30548332716E+03  0.63316623520E+03  0.25500000920E-02 0. -1.
</event>
<event>
 5   0  0.1397500E-03  0.1203771E+04  0.7818609E-02  0.9109562E-01
       -4   -1    0    0    0  501  0.00000000000E+00  0.00000000000E+00  0.10137592267E+04  0.10137600222E+04  0.12699999809E+01 0. -1.
        4   -1    0    0  501    0  0.00000000000E+00  0.00000000000E+00 -0.35734713429E+03  0.35734939106E+03  0.12699999809E+01 0.  1.
    10030    2    1    2    0    0  0.00000000000E+00  0.00000000000E+00  0.65641209244E+03  0.13711094133E+04  0.12037708204E+04 0.  0.
        2    1    3    3  502    0 -0.11357800601E+03 -0.57038690809E+03  0.50475238736E+03  0.77007542547E+03  0.25500000920E-02 0. -1.
       -2    1    3    3    0  502  0.11357800601E+03  0.57038690809E+03  0.15165970508E+03  0.60103398782E+03  0.25500000920E-02 0.  1.
</event>
<event>
 5   0  0.3650180E-03  0.1195501E+04  0.7818609E-02  0.9116804E-01
        2   -1    0    0  501    0  0.00000000000E+00  0.00000000000E+00  0.18332399118E+04  0.18332399118E+04  0.25500000920E-02 0. -1.
       -2   -1    0    0    0  501  0.00000000000E+00  0.00000000000E+00 -0.19490389742E+03  0.19490389743E+03  0.25500000920E-02 0.  1.
    10030    2    1    2    0    0  0.00000000000E+00  0.00000000000E+00  0.16383360144E+04  0.20281438092E+04  0.11955009054E+04 0.  0.
        3    1    3    3  502    0  0.50378080292E+03 -0.31291679038E+03  0.94604816284E+03  0.11165657848E+04  0.10100000352E+00 0.  1.
       -3    1    3    3    0  502 -0.50378080292E+03  0.31291679038E+03  0.69228785154E+03  0.91157802447E+03  0.10100000352E+00 0. -1.
</event>
<event>
 5   0  0.2096270E-03  0.1214715E+04  0.7818609E-02  0.9100073E-01
        1   -1    0    0  501    0  0.00000000000E+00  0.00000000000E+00  0.67414630256E+03  0.67414630258E+03  0.50400001928E-02 0. -1.
       -1   -1    0    0    0  501  0.00000000000E+00  0.00000000000E+00 -0.54718543933E+03  0.54718543935E+03  0.50400001928E-02 0.  1.
    10030    2    1    2    0    0  0.00000000000E+00  0.00000000000E+00  0.12696086323E+03  0.12213317419E+04  0.12147148485E+04 0.  0.
        2    1    3    3  502    0 -0.25686035699E+03 -0.53743642212E+03  0.18273465958E+03  0.62306268275E+03  0.25500000920E-02 0. -1.
       -2    1    3    3    0  502  0.25686035699E+03  0.53743642212E+03 -0.55773796351E+02  0.59826905919E+03  0.25500000920E-02 0.  1.
</event>
<event>
 5   0  0.2096270E-03  0.1181157E+04  0.7818609E-02  0.9129512E-01
        1   -1    0    0  501    0  0.00000000000E+00  0.00000000000E+00  0.10151132987E+04  0.10151132987E+04  0.50400001928E-02 0. -1.
       -1   -1    0    0    0  501  0.00000000000E+00  0.00000000000E+00 -0.34358993101E+03  0.34358993105E+03  0.50400001928E-02 0.  1.
    10030    2    1    2    0    0  0.00000000000E+00  0.00000000000E+00  0.67152336765E+03  0.13587032297E+04  0.11811565659E+04 0.  0.
        2    1    3    3  502    0 -0.18171091551E+03 -0.43847370963E+03  0.74001985500E+03  0.87915154362E+03  0.25500000920E-02 0. -1.
       -2    1    3    3    0  502  0.18171091551E+03  0.43847370963E+03 -0.68496487346E+02  0.47955168610E+03  0.25500000920E-02 0.  1.
</event>
<event>
 5   0  0.2025294E-03  0.1270742E+04  0.7818609E-02  0.9053094E-01
       -1   -1    0    0    0  501  0.00000000000E+00  0.00000000000E+00  0.48676360981E+03  0.48676360984E+03  0.50400001928E-02 0.  1.
        1   -1    0    0  501    0  0.00000000000E+00  0.00000000000E+00 -0.82934774276E+03  0.82934774277E+03  0.50400001928E-02 0. -1.
    10030    2    1    2    0    0  0.00000000000E+00  0.00000000000E+00 -0.34258413294E+03  0.13161113526E+04  0.12707419897E+04 0.  0.
        5    1    3    3  502    0 -0.46925835640E+03 -0.23420211631E+03 -0.54273303427E+03  0.75474185840E+03  0.46999998093E+01 0. -1.
       -5    1    3    3    0  502  0.46925835640E+03  0.23420211631E+03  0.20014890133E+03  0.56136949421E+03  0.46999998093E+01 0.  1.
</event>
<event>
 5   0  0.3706035E-03  0.1217656E+04  0.7818609E-02  0.9097541E-01
       -2   -1    0    0    0  501  0.00000000000E+00  0.00000000000E+00  0.10030356670E+04  0.10030356670E+04  0.25500000920E-02 0.  1.
        2   -1    0    0  501    0  0.00000000000E+00  0.00000000000E+00 -0.36954954796E+03  0.36954954797E+03  0.25500000920E-02 0. -1.
    10030    2    1    2    0    0  0.00000000000E+00  0.00000000000E+00  0.63348611906E+03  0.13725852150E+04  0.12176557434E+04 0.  0.
        2    1    3    3  502    0 -0.37798608917E+03  0.17562486400E+03 -0.18351832202E+03  0.45540811475E+03  0.25500000920E-02 0. -1.
       -2    1    3    3    0  502  0.37798608917E+03 -0.17562486400E+03  0.81700444108E+03  0.91717710024E+03  0.25500000920E-02 0.  1.
</event>
<event>
 5   0  0.3706035E-03  0.1199264E+04  0.7818609E-02  0.9113501E-01
        2   -1    0    0  501    0  0.00000000000E+00  0.00000000000E+00  0.34626710484E+03  0.34626710485E+03  0.25500000920E-02 0. -1.
       -2   -1    0    0    0  501  0.00000000000E+00  0.00000000000E+00 -0.10383847204E+04  0.10383847204E+04  0.25500000920E-02 0.  1.
    10030    2    1    2    0    0  0.00000000000E+00  0.00000000000E+00 -0.69211761558E+03  0.13846518253E+04  0.11992638923E+04 0.  0.
        2    1    3    3  502    0  0.43024989158E+03 -0.74091663389E+02  0.12852177992E+03  0.45510701127E+03  0.25500000920E-02 0. -1.
       -2    1    3    3    0  502 -0.43024989158E+03  0.74091663389E+02 -0.82063939549E+03  0.92954481400E+03  0.25500000920E-02 0.  1.
</event>
<event>
 5   0  0.2078258E-03  0.1228170E+04  0.7818609E-02  0.9088551E-01
        1   -1    0    0  501    0  0.00000000000E+00  0.00000000000E+00  0.47791005492E+03  0.47791005495E+03  0.50400001928E-02 0.  1.
       -1   -1    0    0    0  501  0.00000000000E+00  0.00000000000E+00 -0.78906081701E+03  0.78906081703E+03  0.50400001928E-02 0. -1.
    10030    2    1    2    0    0  0.00000000000E+00  0.00000000000E+00 -0.31115076209E+03  0.12669708720E+04  0.12281695297E+04 0.  0.
        3    1    3    3  502    0  0.36111987304E+02 -0.53836262715E+03  0.14687963767E+03  0.55920660949E+03  0.10100000352E+00 0.  1.
       -3    1    3    3    0  502 -0.36111987304E+02  0.53836262715E+03 -0.45803039976E+03  0.70776426248E+03  0.10100000352E+00 0. -1.
</event>
<event>
 5   0  0.3725376E-03  0.1170761E+04  0.7818609E-02  0.9138841E-01
       -2   -1    0    0    0  501  0.00000000000E+00  0.00000000000E+00  0.45893528797E+03  0.45893528798E+03  0.25500000920E-02 0. -1.
        2   -1    0    0  501    0  0.00000000000E+00  0.00000000000E+00 -0.74666435292E+03  0.74666435292E+03  0.25500000920E-02 0.  1.
    10030    2    1    2    0    0  0.00000000000E+00  0.00000000000E+00 -0.28772906494E+03  0.12055996409E+04  0.11707614955E+04 0.  0.
        4    1    3    3  502    0 -0.82196629121E+00  0.27237556244E+03  0.38970442549E+03  0.47545796322E+03  0.12699999809E+01 0. -1.
       -4    1    3    3    0  502  0.82196629121E+00 -0.27237556244E+03 -0.67743349043E+03  0.73014167769E+03  0.12699999809E+01 0.  1.
</event>
<event>
 5   0  0.2047109E-03  0.1212188E+04  0.7818609E-02  0.9102255E-01
       -1   -1    0    0    0  501  0.00000000000E+00  0.00000000000E+00  0.47181461787E+03  0.47181461790E+03  0.50400001928E-02 0.  1.
        1   -1    0    0  501    0  0.00000000000E+00  0.00000000000E+00 -0.77858995720E+03  0.77858995722E+03  0.50400001928E-02 0. -1.
    10030    2    1    2    0    0  0.00000000000E+00  0.00000000000E+00 -0.30677533934E+03  0.12504045751E+04  0.12121883074E+04 0.  0.
        1    1    3    3  502    0 -0.78491702296E+02  0.36135202903E+03  0.34197490436E+03  0.50366960544E+03  0.50400001928E-02 0.  1.
       -1    1    3    3    0  502  0.78491702296E+02 -0.36135202903E+03 -0.64875024369E+03  0.74673496967E+03  0.50400001928E-02 0. -1.
</event>
<event>
 5   0  0.3706035E-03  0.1143507E+04  0.7818609E-02  0.9163795E-01
        2   -1    0    0  501    0  0.00000000000E+00  0.00000000000E+00  0.10691803402E+04  0.10691803402E+04  0.25500000920E-02 0. -1.
       -2   -1    0    0    0  501  0.00000000000E+00  0.00000000000E+00 -0.30574999874E+03  0.30574999875E+03  0.25500000920E-02 0.  1.
    10030    2    1    2    0    0  0.00000000000E+00  0.00000000000E+00  0.76343034147E+03  0.13749303390E+04  0.11435066903E+04 0.  0.
        2    1    3    3  502    0  0.15616030040E+03  0.26390086973E+03 -0.19851564327E+03  0.36529189575E+03  0.25500000920E-02 0.  1.
       -2    1    3    3    0  502 -0.15616030040E+03 -0.26390086973E+03  0.96194598475E+03  0.10096384432E+04  0.25500000920E-02 0. -1.
</event>
<event>
 5   0  0.2078258E-03  0.1189711E+04  0.7818609E-02  0.9121911E-01
       -1   -1    0    0    0  501  0.00000000000E+00  0.00000000000E+00  0.11933860944E+04  0.11933860944E+04  0.50400001928E-02 0. -1.
        1   -1    0    0  501    0  0.00000000000E+00  0.00000000000E+00 -0.29651162790E+03  0.29651162794E+03  0.50400001928E-02 0.  1.
    10030    2    1    2    0    0  0.00000000000E+00  0.00000000000E+00  0.89687446653E+03  0.14898977224E+04  0.11897106432E+04 0.  0.
        3    1    3    3  502    0 -0.43691663808E+03  0.15583406724E+03 -0.17910838424E+02  0.46422108255E+03  0.10100000352E+00 0. -1.
       -3    1    3    3    0  502  0.43691663808E+03 -0.15583406724E+03  0.91478530495E+03  0.10256766398E+04  0.10100000352E+00 0.  1.
</event>
<event>
 5   0  0.3626049E-03  0.1207917E+04  0.7818609E-02  0.9105955E-01
        2   -1    0    0  501    0  0.00000000000E+00  0.00000000000E+00  0.27399923728E+03  0.27399923729E+03  0.25500000920E-02 0.  1.
       -2   -1    0    0    0  501  0.00000000000E+00  0.00000000000E+00 -0.13312657558E+04  0.13312657558E+04  0.25500000920E-02 0. -1.
    10030    2    1    2    0    0  0.00000000000E+00  0.00000000000E+00 -0.10572665185E+04  0.16052649931E+04  0.12079168874E+04 0.  0.
        1    1    3    3  502    0 -0.41197707699E+03  0.37916603385E+03 -0.22770881274E+03  0.60443634621E+03  0.50400001928E-02 0.  1.
       -1    1    3    3    0  502  0.41197707699E+03 -0.37916603385E+03 -0.82955770581E+03  0.10008286469E+04  0.50400001928E-02 0. -1.
</event>
<event>
 5   0  0.1397500E-03  0.1223256E+04  0.7818609E-02  0.9092740E-01
       -4   -1    0    0    0  501  0.00000000000E+00  0.00000000000E+00  0.32026053113E+03  0.32026304923E+03  0.12699999809E+01 0. -1.
        4   -1    0    0  501    0  0.00000000000E+00  0.00000000000E+00 -0.11680699717E+04  0.11680706622E+04  0.12699999809E+01 0.  1.
    10030    2    1    2    0    0  0.00000000000E+00  0.00000000000E+00 -0.84780944061E+03  0.14883337114E+04  0.12232564690E+04 0.  0.
        4    1    3    3  502    0 -0.24684195400E+03  0.24979351201E+03 -0.10331773926E+04  0.10912309043E+04  0.12699999809E+01 0.  1.
       -4    1    3    3    0  502  0.24684195400E+03 -0.24979351201E+03  0.18536795200E+03  0.39710280712E+03  0.12699999809E+01 0. -1.
</event>
<event>
 5   0  0.2047109E-03  0.1195534E+04  0.7818609E-02  0.9116774E-01
        1   -1    0    0  501    0  0.00000000000E+00  0.00000000000E+00  0.11282256863E+04  0.11282256863E+04  0.50400001928E-02 0. -1.
       -1   -1    0    0    0  501  0.00000000000E+00  0.00000000000E+00 -0.31671462256E+03  0.31671462260E+03  0.50400001928E-02 0.  1.
    10030    2    1    2    0    0  0.00000000000E+00  0.00000000000E+00  0.81151106373E+03  0.14449403089E+04  0.11955343114E+04 0.  0.
        1    1    3    3  502    0 -0.55052564970E+03  0.19431756014E+03  0.56094733742E+03  0.80962937233E+03  0.50400001928E-02 0.  1.
       -1    1    3    3    0  502  0.55052564970E+03 -0.19431756014E+03  0.25056372632E+03  0.63531093657E+03  0.50400001928E-02 0. -1.
</event>
<event>
 5   0  0.2134992E-03  0.1202296E+04  0.7818609E-02  0.9110850E-01
        1   -1    0    0  501    0  0.00000000000E+00  0.00000000000E+00  0.12693481524E+04  0.12693481524E+04  0.50400001928E-02 0. -1.
       -1   -1    0    0    0  501  0.00000000000E+00  0.00000000000E+00 -0.28469624793E+03  0.28469624798E+03  0.50400001928E-02 0.  1.
    10030    2    1    2    0    0  0.00000000000E+00  0.00000000000E+00  0.98465190444E+03  0.15540444004E+04  0.12022955649E+04 0.  0.
        4    1    3    3  502    0 -0.26101627608E+03  0.93148557327E+02 -0.19719491886E+03  0.34013761779E+03  0.12699999809E+01 0.  1.
       -4    1    3    3    0  502  0.26101627608E+03 -0.93148557327E+02  0.11818468233E+04  0.12139067826E+04  0.12699999809E+01 0. -1.
</event>
<event>
 5   0  0.2134992E-03  0.1192786E+04  0.7818609E-02  0.9119195E-01
       -1   -1    0    0    0  501  0.00000000000E+00  0.00000000000E+00  0.30490500542E+03  0.30490500546E+03  0.50400001928E-02 0.  1.
        1   -1    0    0  501    0  0.00000000000E+00  0.00000000000E+00 -0.11665421777E+04  0.11665421777E+04  0.50400001928E-02 0. -1.
    10030    2    1    2    0    0  0.00000000000E+00  0.00000000000E+00 -0.86163717231E+03  0.14714471832E+04  0.11927858971E+04 0.  0.
        4    1    3    3  502    0 -0.50317368647E+03 -0.27509560690E+02 -0.82430811019E+03  0.96613974564E+03  0.12699999809E+01 0.  1.
       -4    1    3    3    0  502  0.50317368647E+03  0.27509560690E+02 -0.37329062125E+02  0.50530743757E+03  0.12699999809E+01 0. -1.
</event>
<event>
 5   0  0.3706035E-03  0.1231674E+04  0.7818609E-02  0.9085575E-01
       -2   -1    0    0    0  501  0.00000000000E+00  0.00000000000E+00  0.36380846882E+03  0.36380846883E+03  0.25500000920E-02 0.  1.
        2   -1    0    0  501    0  0.00000000000E+00  0.00000000000E+00 -0.10424583200E+04  0.10424583200E+04  0.25500000920E-02 0. -1.
    10030    2    1    2    0    0  0.00000000000E+00  0.00000000000E+00 -0.67864985118E+03  0.14062667888E+04  0.12316739264E+04 0.  0.
        2    1    3    3  502    0  0.43698607660E+03  0.36073202043E+03 -0.63950071588E+02  0.57024032948E+03  0.25500000920E-02 0.  1.
       -2    1    3    3    0  502 -0.43698607660E+03 -0.36073202043E+03 -0.61469977959E+03  0.83602645936E+03  0.25500000920E-02 0. -1.
</event>
<event>
 5   0  0.3706035E-03  0.1206486E+04  0.7818609E-02  0.9107198E-01
       -2   -1    0    0    0  501  0.00000000000E+00  0.00000000000E+00  0.27415543449E+03  0.27415543450E+03  0.25500000920E-02 0. -1.
        2   -1    0    0  501    0  0.00000000000E+00  0.00000000000E+00 -0.13273577292E+04  0.13273577292E+04  0.25500000920E-02 0.  1.
    10030    2    1    2    0    0  0.00000000000E+00  0.00000000000E+00 -0.10532022947E+04  0.16015131637E+04  0.12064863613E+04 0.  0.
        2    1    3    3  502    0 -0.17664616469E+03  0.15971251749E+02  0.23876093900E+03  0.29743189873E+03  0.25500000920E-02 0. -1.
       -2    1    3    3    0  502  0.17664616469E+03 -0.15971251749E+02 -0.12919632337E+04  0.13040812650E+04  0.25500000920E-02 0.  1.
</event>
<event>
 5   0  0.3725376E-03  0.1210268E+04  0.7818609E-02  0.9103916E-01
        2   -1    0    0  501    0  0.00000000000E+00  0.00000000000E+00  0.48064201328E+03  0.48064201328E+03  0.25500000920E-02 0.  1.
       -2   -1    0    0    0  501  0.00000000000E+00  0.00000000000E+00 -0.76187064705E+03  0.76187064705E+03  0.25500000920E-02 0. -1.
    10030    2    1    2    0    0  0.00000000000E+00  0.00000000000E+00 -0.28122863377E+03  0.12425126603E+04  0.12102678078E+04 0.  0.
        4    1    3    3  502    0  0.55795156991E+02  0.36039148220E+03 -0.63637786322E+03  0.73346678022E+03  0.12699999809E+01 0. -1.
       -4    1    3    3    0  502 -0.55795156991E+02 -0.36039148220E+03  0.35514922945E+03  0.50904588012E+03  0.12699999809E+01 0.  1.
</event>
<event>
 5   0  0.3751091E-03  0.1215244E+04  0.7818609E-02  0.9099617E-01
        2   -1    0    0  501    0  0.00000000000E+00  0.00000000000E+00  0.40157344977E+03  0.40157344978E+03  0.25500000920E-02 0. -1.
       -2   -1    0    0    0  501  0.00000000000E+00  0.00000000000E+00 -0.91939455315E+03  0.91939455315E+03  0.25500000920E-02 0.  1.
    10030    2    1    2    0    0  0.00000000000E+00  0.00000000000E+00 -0.51782110337E+03  0.13209680029E+04  0.12152439137E+04 0.  0.
        5    1    3    3  502    0  0.20266999931E+03  0.52192508377E+03 -0.23664591106E+01  0.55991839747E+03  0.46999998093E+01 0. -1.
       -5    1    3    3    0  502 -0.20266999931E+03 -0.52192508377E+03 -0.51545464426E+03  0.76104960547E+03  0.46999998093E+01 0.  1.
</event>
<event>
 5   0  0.3706035E-03  0.1198681E+04  0.7818609E-02  0.9114012E-01
       -2   -1    0    0    0  501  0.00000000000E+00  0.00000000000E+00  0.20227376733E+03  0.20227376734E+03  0.25500000920E-02 0. -1.
        2   -1    0    0  501    0  0.00000000000E+00  0.00000000000E+00 -0.17758562900E+04  0.17758562900E+04  0.25500000920E-02 0.  1.
    10030    2    1    2    0    0  0.00000000000E+00  0.00000000000E+00 -0.15735825227E+04  0.19781300573E+04  0.11986811787E+04 0.  0.
        2    1    3    3  502    0 -0.59136707201E+02  0.48877162859E+03 -0.13508172780E+04  0.14377420400E+04  0.25500000920E-02 0.  1.
       -2    1    3    3    0  502  0.59136707201E+02 -0.48877162859E+03 -0.22276524470E+03  0.54038801736E+03  0.25500000920E-02 0. -1.
</event>
<event>
 5   0  0.3626049E-03  0.1202521E+04  0.7818609E-02  0.9110653E-01
        2   -1    0    0  501    0  0.00000000000E+00  0.00000000000E+00  0.58090105215E+03  0.58090105216E+03  0.25500000920E-02 0. -1.
       -2   -1    0    0    0  501  0.00000000000E+00  0.00000000000E+00 -0.62233365596E+03  0.62233365597E+03  0.25500000920E-02 0.  1.
    10030    2    1    2    0    0  0.00000000000E+00  0.00000000000E+00 -0.41432603812E+02  0.12032347081E+04  0.12025211442E+04 0.  0.
        1    1    3    3  502    0  0.35493987932E+03  0.44409345770E+02  0.46285068815E+03  0.58496603958E+03  0.50400001928E-02 0. -1.
       -1    1    3    3    0  502 -0.35493987932E+03 -0.44409345770E+02 -0.50428329196E+03  0.61826866854E+03  0.50400001928E-02 0.  1.
</event>
<event>
 5   0  0.3725376E-03  0.1201287E+04  0.7818609E-02  0.9111731E-01
        2   -1    0    0  501    0  0.00000000000E+00  0.00000000000E+00  0.19312927843E+04  0.19312927843E+04  0.25500000920E-02 0. -1.
       -2   -1    0    0    0  501  0.00000000000E+00  0.00000000000E+00 -0.18680359669E+03  0.18680359671E+03  0.25500000920E-02 0.  1.
    10030    2    1    2    0    0  0.00000000000E+00  0.00000000000E+00  0.17444891876E+04  0.21180963810E+04  0.12012867075E+04 0.  0.
        4    1    3    3  502    0  0.26362986595E+02 -0.58289512787E+03  0.62097249866E+03  0.85209752620E+03  0.12699999809E+01 0. -1.
       -4    1    3    3    0  502 -0.26362986595E+02  0.58289512787E+03  0.11235166890E+04  0.12659988548E+04  0.12699999809E+01 0.  1.
</event>
<event>
 5   0  0.3725376E-03  0.1207274E+04  0.7818609E-02  0.9106514E-01
        2   -1    0    0  501    0  0.00000000000E+00  0.00000000000E+00  0.77005071204E+03  0.77005071204E+03  0.25500000920E-02 0. -1.
       -2   -1    0    0    0  501  0.00000000000E+00  0.00000000000E+00 -0.47318633945E+03  0.47318633946E+03  0.25500000920E-02 0.  1.
    10030    2    1    2    0    0  0.00000000000E+00  0.00000000000E+00  0.29686437259E+03  0.12432370515E+04  0.12072737513E+04 0.  0.
        4    1    3    3  502    0 -0.18464188705E+03  0.14219097901E+03 -0.42499005526E+03  0.48469481216E+03  0.12699999809E+01 0.  1.
       -4    1    3    3    0  502  0.18464188705E+03 -0.14219097901E+03  0.72185442785E+03  0.75854223934E+03  0.12699999809E+01 0. -1.
</event>
<event>
 5   0  0.3751091E-03  0.1200717E+04  0.7818609E-02  0.9112229E-01
        2   -1    0    0  501    0  0.00000000000E+00  0.00000000000E+00  0.58331447726E+03  0.58331447726E+03  0.25500000920E-02 0. -1.
       -2   -1    0    0    0  501  0.00000000000E+00  0.00000000000E+00 -0.61790035629E+03  0.61790035630E+03  0.25500000920E-02 0.  1.
    10030    2    1    2    0    0  0.00000000000E+00  0.00000000000E+00 -0.34585879038E+02  0.12012148336E+04  0.12007168248E+04 0.  0.
        5    1    3    3  502    0 -0.24114082409E+03  0.53756144194E+03  0.98023826308E+02  0.59728716831E+03  0.46999998093E+01 0. -1.
       -5    1    3    3    0  502  0.24114082409E+03 -0.53756144194E+03 -0.13260970535E+03  0.60392766525E+03  0.46999998093E+01 0.  1.
</event>
<event>
 5   0  0.2134992E-03  0.1281691E+04  0.7818609E-02  0.9044212E-01
        1   -1    0    0  501    0  0.00000000000E+00  0.00000000000E+00  0.20856043380E+04  0.20856043380E+04  0.50400001928E-02 0.  1.
       -1   -1    0    0    0  501  0.00000000000E+00  0.00000000000E+00 -0.19691307854E+03  0.19691307860E+03  0.50400001928E-02 0. -1.
    10030    2    1    2    0    0  0.00000000000E+00  0.00000000000E+00  0.18886912594E+04  0.22825174166E+04  0.12816907129E+04 0.  0.
        4    1    3    3  502    0 -0.32122896992E+03  0.55428802352E+03  0.91574659660E+03  0.11175941599E+04  0.12699999809E+01 0.  1.
       -4    1    3    3    0  502  0.32122896992E+03 -0.55428802352E+03  0.97294466283E+03  0.11649232567E+04  0.12699999809E+01 0. -1.
</event>
<event>
 5   0  0.3751091E-03  0.1207595E+04  0.7818609E-02  0.9106234E-01
       -2   -1    0    0    0  501  0.00000000000E+00  0.00000000000E+00  0.18177357028E+03  0.18177357029E+03  0.25500000920E-02 0. -1.
        2   -1    0    0  501    0  0.00000000000E+00  0.00000000000E+00 -0.20056365219E+04  0.20056365219E+04  0.25500000920E-02 0.  1.
    10030    2    1    2    0    0  0.00000000000E+00  0.00000000000E+00 -0.18238629516E+04  0.21874100922E+04  0.12075954808E+04 0.  0.
        5    1    3    3  502    0  0.57344443286E+03 -0.98566714192E+02 -0.12039830459E+04  0.13372177009E+04  0.46999998093E+01 0.  1.
       -5    1    3    3    0  502 -0.57344443286E+03  0.98566714192E+02 -0.61987990568E+03  0.85019239128E+03  0.46999998093E+01 0. -1.
</event>
<event>
 5   0  0.3650180E-03  0.1198920E+04  0.7818609E-02  0.9113802E-01
       -2   -1    0    0    0  501  0.00000000000E+00  0.00000000000E+00  0.51401517648E+03  0.51401517649E+03  0.25500000920E-02 0.  1.
        2   -1    0    0  501    0  0.00000000000E+00  0.00000000000E+00 -0.69910872506E+03  0.69910872506E+03  0.25500000920E-02 0. -1.
    10030    2    1    2    0    0  0.00000000000E+00  0.00000000000E+00 -0.18509354857E+03  0.12131239015E+04  0.11989203388E+04 0.  0.
        3    1    3    3  502    0  0.33738057127E+03  0.49629674210E+02 -0.59140244213E+03  0.68267533513E+03  0.10100000352E+00 0. -1.
       -3    1    3    3    0  502 -0.33738057127E+03 -0.49629674210E+02  0.40630889356E+03  0.53044856642E+03  0.10100000352E+00 0.  1.
</event>
<event>
 5   0  0.1397500E-03  0.1223149E+04  0.7818609E-02  0.9092832E-01
       -4   -1    0    0    0  501  0.00000000000E+00  0.00000000000E+00  0.46746785127E+03  0.46746957641E+03  0.12699999809E+01 0. -1.
        4   -1    0    0  501    0  0.00000000000E+00  0.00000000000E+00 -0.80010183664E+03  0.80010284457E+03  0.12699999809E+01 0.  1.
    10030    2    1    2    0    0  0.00000000000E+00  0.00000000000E+00 -0.33263398537E+03  0.12675724210E+04  0.12231494080E+04 0.  0.
        1    1    3    3  502    0  0.45990722416E+03 -0.35869663883E+03  0.24336570375E+02  0.58375525884E+03  0.50400001928E-02 0.  1.
       -1    1    3    3    0  502 -0.45990722416E+03  0.35869663883E+03 -0.35697055574E+03  0.68381716214E+03  0.50400001928E-02 0. -1.
</event>
<event>
 5   0  0.2047109E-03  0.1197214E+04  0.7818609E-02  0.9115299E-01
       -1   -1    0    0    0  501  0.00000000000E+00  0.00000000000E+00  0.33331812636E+03  0.33331812640E+03  0.50400001928E-02 0.  1.
        1   -1    0    0  501    0  0.00000000000E+00  0.00000000000E+00 -0.10750394211E+04  0.10750394211E+04  0.50400001928E-02 0. -1.
    10030    2    1    2    0    0  0.00000000000E+00  0.00000000000E+00 -0.74172129475E+03  0.14083575475E+04  0.11972136412E+04 0.  0.
        1    1    3    3  502    0  0.32072200700E+03  0.33007308593E+03 -0.82114686432E+03  0.94132514077E+03  0.50400001928E-02 0. -1.
       -1    1    3    3    0  502 -0.32072200700E+03 -0.33007308593E+03  0.79425569568E+02  0.46703240675E+03  0.50400001928E-02 0.  1.
</event>
<event>
 5   0  0.2025294E-03  0.1228983E+04  0.7818609E-02  0.9087859E-01
        1   -1    0    0  501    0  0.00000000000E+00  0.00000000000E+00  0.11828582151E+04  0.11828582151E+04  0.50400001928E-02 0.  1.
       -1   -1    0    0    0  501  0.00000000000E+00  0.00000000000E+00 -0.31922667706E+03  0.31922667710E+03  0.50400001928E-02 0. -1.
    10030    2    1    2    0    0  0.00000000000E+00  0.00000000000E+00  0.86363153804E+03  0.15020848922E+04  0.12289831528E+04 0.  0.
        5    1    3    3  502    0 -0.10779825219E+03 -0.60452180291E+03  0.45943718785E+03  0.76692352484E+03  0.46999998093E+01 0.  1.
       -5    1    3    3    0  502  0.10779825219E+03  0.60452180291E+03  0.40419435019E+03  0.73516136738E+03  0.46999998093E+01 0. -1.
</event>
<event>
 5   0  0.2025294E-03  0.1203206E+04  0.7818609E-02  0.9110055E-01
        1   -1    0    0  501    0  0.00000000000E+00  0.00000000000E+00  0.14912208425E+04  0.14912208425E+04  0.50400001928E-02 0. -1.
       -1   -1    0    0    0  501  0.00000000000E+00  0.00000000000E+00 -0.24270471538E+03  0.24270471543E+03  0.50400001928E-02 0.  1.
    10030    2    1    2    0    0  0.00000000000E+00  0.00000000000E+00  0.12485161271E+04  0.17339255579E+04  0.12032062669E+04 0.  0.
        5    1    3    3  502    0 -0.45057981471E+02 -0.35953397914E+03 -0.67778125409E+02  0.36866091213E+03  0.46999998093E+01 0.  1.
       -5    1    3    3    0  502  0.45057981471E+02  0.35953397914E+03  0.13162942525E+04  0.13652646458E+04  0.46999998093E+01 0. -1.
</event>
<event>
 5   0  0.3626049E-03  0.1207277E+04  0.7818609E-02  0.9106511E-01
       -2   -1    0    0    0  501  0.00000000000E+00  0.00000000000E+00  0.31935734203E+03  0.31935734204E+03  0.25500000920E-02 0. -1.
        2   -1    0    0  501    0  0.00000000000E+00  0.00000000000E+00 -0.11409765709E+04  0.11409765709E+04  0.25500000920E-02 0.  1.
    10030    2    1    2    0    0  0.00000000000E+00  0.00000000000E+00 -0.82161922885E+03  0.14603339129E+04  0.12072766791E+04 0.  0.
        1    1    3    3  502    0 -0.93235406241E+02 -0.43679173831E+03  0.80386443227E+02  0.45380815761E+03  0.50400001928E-02 0. -1.
       -1    1    3    3    0  502  0.93235406241E+02  0.43679173831E+03 -0.90200567208E+03  0.10065257553E+04  0.50400001928E-02 0.  1.
</event>
<event>
 5   0  0.3626049E-03  0.1235470E+04  0.7818609E-02  0.9082364E-01
        2   -1    0    0  501    0  0.00000000000E+00  0.00000000000E+00  0.43095977197E+03  0.43095977197E+03  0.25500000920E-02 0. -1.
       -2   -1    0    0    0  501  0.00000000000E+00  0.00000000000E+00 -0.88545809401E+03  0.88545809402E+03  0.25500000920E-02 0.  1.
    10030    2    1    2    0    0  0.00000000000E+00  0.00000000000E+00 -0.45449832205E+03  0.13164178660E+04  0.12354704663E+04 0.  0.
        1    1    3    3  502    0  0.37205967895E+03 -0.39749001708E+03  0.83711161383E+02  0.55084868789E+03  0.50400001928E-02 0. -1.
       -1    1    3    3    0  502 -0.37205967895E+03  0.39749001708E+03 -0.53820948343E+03  0.76556917810E+03  0.50400001928E-02 0.  1.
</event>
<event>
 5   0  0.2134992E-03  0.1225331E+04  0.7818609E-02  0.9090969E-01
        1   -1    0    0  501    0  0.00000000000E+00  0.00000000000E+00  0.83601402042E+03  0.83601402044E+03  0.50400001928E-02 0.  1.
       -1   -1    0    0    0  501  0.00000000000E+00  0.00000000000E+00 -0.44898626292E+03  0.44898626294E+03  0.50400001928E-02 0. -1.
    10030    2    1    2    0    0  0.00000000000E+00  0.00000000000E+00  0.38702775750E+03  0.12850002834E+04  0.12253306669E+04 0.  0.
        4    1    3    3  502    0 -0.57288293095E+03 -0.21710277107E+03  0.19913514045E+03  0.64419320304E+03  0.12699999809E+01 0.  1.
       -4    1    3    3    0  502  0.57288293095E+03  0.21710277107E+03  0.18789261706E+03  0.64080708034E+03  0.12699999809E+01 0. -1.
</event>
<event>
 5   0  0.3706035E-03  0.1212336E+04  0.7818609E-02  0.9102127E-01
        2   -1    0    0  501    0  0.00000000000E+00  0.00000000000E+00  0.51452434610E+03  0.51452434611E+03  0.25500000920E-02 0. -1.
       -2   -1    0    0    0  501  0.00000000000E+00  0.00000000000E+00 -0.71413423489E+03  0.71413423489E+03  0.25500000920E-02 0.  1.
    10030    2    1    2    0    0  0.00000000000E+00  0.00000000000E+00 -0.19960988879E+03  0.12286585810E+04  0.12123356800E+04 0.  0.
        2    1    3    3  502    0  0.10438508065E+03 -0.18105754528E+03 -0.67646629662E+03  0.70801463984E+03  0.25500000920E-02 0.  1.
       -2    1    3    3    0  502 -0.10438508065E+03  0.18105754528E+03  0.47685640783E+03  0.52064394116E+03  0.25500000920E-02 0. -1.
</event>
<event>
 5   0  0.1397500E-03  0.1195755E+04  0.7818609E-02  0.9116581E-01
       -3   -1    0    0    0  501  0.00000000000E+00  0.00000000000E+00  0.82897937543E+03  0.82897938158E+03  0.10100000352E+00 0.  1.
        3   -1    0    0  501    0  0.00000000000E+00  0.00000000000E+00 -0.43120159030E+03  0.43120160213E+03  0.10100000352E+00 0. -1.
    10030    2    1    2    0    0  0.00000000000E+00  0.00000000000E+00  0.39777778512E+03  0.12601809837E+04  0.11957545506E+04 0.  0.
        4    1    3    3  502    0 -0.16316268404E+02 -0.27340829509E+03 -0.36119348779E+03  0.45329975178E+03  0.12699999809E+01 0. -1.
       -4    1    3    3    0  502  0.16316268404E+02  0.27340829509E+03  0.75897127292E+03  0.80688123193E+03  0.12699999809E+01 0.  1.
</event>
<event>
 5   0  0.3751091E-03  0.1193864E+04  0.7818609E-02  0.9118244E-01
       -2   -1    0    0    0  501  0.00000000000E+00  0.00000000000E+00  0.32732102685E+03  0.32732102686E+03  0.25500000920E-02 0.  1.
        2   -1    0    0  501    0  0.00000000000E+00  0.00000000000E+00 -0.10886196048E+04  0.10886196048E+04  0.25500000920E-02 0. -1.
    10030    2    1    2    0    0  0.00000000000E+00  0.00000000000E+00 -0.76129857798E+03  0.14159406317E+04  0.11938644595E+04 0.  0.
        5    1    3    3  502    0 -0.35271039990E+03 -0.23228464690E+03  0.11965379037E+03  0.43897597079E+03  0.46999998093E+01 0.  1.
       -5    1    3    3    0  502  0.35271039990E+03  0.23228464690E+03 -0.88095236835E+03  0.97696466092E+03  0.46999998093E+01 0. -1.
</event>
<event>
 5   0  0.3751091E-03  0.1203416E+04  0.7818609E-02  0.9109872E-01
       -2   -1    0    0    0  501  0.00000000000E+00  0.00000000000E+00  0.49759557647E+03  0.49759557648E+03  0.25500000920E-02 0. -1.
        2   -1    0    0  501    0  0.00000000000E+00  0.00000000000E+00 -0.72760423890E+03  0.72760423890E+03  0.25500000920E-02 0.  1.
    10030    2    1    2    0    0  0.00000000000E+00  0.00000000000E+00 -0.23000866242E+03  0.12251998154E+04  0.12034162218E+04 0.  0.
        5    1    3    3  502    0  0.23783602387E+03 -0.14743272625E+03  0.42729902931E+03  0.51079245635E+03  0.46999998093E+01 0. -1.
       -5    1    3    3    0  502 -0.23783602387E+03  0.14743272625E+03 -0.65730769173E+03  0.71440735903E+03  0.46999998093E+01 0.  1.
</event>
<event>
 5   0  0.2047109E-03  0.1108753E+04  0.7818609E-02  0.9196702E-01
       -1   -1    0    0    0  501  0.00000000000E+00  0.00000000000E+00  0.23167956605E+03  0.23167956610E+03  0.50400001928E-02 0. -1.
        1   -1    0    0  501    0  0.00000000000E+00  0.00000000000E+00 -0.13265447974E+04  0.13265447974E+04  0.50400001928E-02 0.  1.
    10030    2    1    2    0    0  0.00000000000E+00  0.00000000000E+00 -0.10948652313E+04  0.15582243635E+04  0.11087530348E+04 0.  0.
        1    1    3    3  502    0 -0.13512472037E+02 -0.44182032620E+03 -0.10176498664E+04  0.11095039604E+04  0.50400001928E-02 0.  1.
       -1    1    3    3    0  502  0.13512472037E+02  0.44182032620E+03 -0.77215364929E+02  0.44872040309E+03  0.50400001928E-02 0. -1.
</event>
<event>
 5   0  0.2134992E-03  0.1194397E+04  0.7818609E-02  0.9117775E-01
       -1   -1    0    0    0  501  0.00000000000E+00  0.00000000000E+00  0.47756698722E+03  0.47756698725E+03  0.50400001928E-02 0. -1.
        1   -1    0    0  501    0  0.00000000000E+00  0.00000000000E+00 -0.74679753347E+03  0.74679753349E+03  0.50400001928E-02 0.  1.
    10030    2    1    2    0    0  0.00000000000E+00  0.00000000000E+00 -0.26923054625E+03  0.12243645207E+04  0.11943966647E+04 0.  0.
        4    1    3    3  502    0 -0.36276726360E+03  0.25962449026E+03 -0.54161523097E+03  0.70167915375E+03  0.12699999809E+01 0.  1.
       -4    1    3    3    0  502  0.36276726360E+03 -0.25962449026E+03  0.27238468473E+03  0.52268536698E+03  0.12699999809E+01 0. -1.
</event>
<event>
 5   0  0.3650180E-03  0.1214953E+04  0.7818609E-02  0.9099868E-01
       -2   -1    0    0    0  501  0.00000000000E+00  0.00000000000E+00  0.43800977679E+03  0.43800977680E+03  0.25500000920E-02 0.  1.
        2   -1    0    0  501    0  0.00000000000E+00  0.00000000000E+00 -0.84251059171E+03  0.84251059171E+03  0.25500000920E-02 0. -1.
    10030    2    1    2    0    0  0.00000000000E+00  0.00000000000E+00 -0.40450081492E+03  0.12805203685E+04  0.12149532933E+04 0.  0.
        3    1    3    3  502    0  0.11362838478E+03 -0.11450348480E+03  0.41502275053E+03  0.44527109890E+03  0.10100000352E+00 0.  1.
       -3    1    3    3    0  502 -0.11362838478E+03  0.11450348480E+03 -0.81952356545E+03  0.83524926961E+03  0.10100000352E+00 0. -1.
</event>
<event>
 5   0  0.3626049E-03  0.1166093E+04  0.7818609E-02  0.9143064E-01
        2   -1    0    0  501    0  0.00000000000E+00  0.00000000000E+00  0.57106785165E+03  0.57106785165E+03  0.25500000920E-02 0.  1.
       -2   -1    0    0    0  501  0.00000000000E+00  0.00000000000E+00 -0.59527665976E+03  0.59527665976E+03  0.25500000920E-02 0. -1.
    10030    2    1    2    0    0  0.00000000000E+00  0.00000000000E+00 -0.24208808109E+02  0.11663445114E+04  0.11660932437E+04 0.  0.
        1    1    3    3  502    0  0.20442412261E+03 -0.38980571808E+03  0.37034645359E+03  0.57523405277E+03  0.50400001928E-02 0.  1.
       -1    1    3    3    0  502 -0.20442412261E+03  0.38980571808E+03 -0.39455526170E+03  0.59111045864E+03  0.50400001928E-02 0. -1.
</event>
<event>
 5   0  0.3751091E-03  0.1209221E+04  0.7818609E-02  0.9104824E-01
        2   -1    0    0  501    0  0.00000000000E+00  0.00000000000E+00  0.13678071137E+04  0.13678071137E+04  0.25500000920E-02 0. -1.
       -2   -1    0    0    0  501  0.00000000000E+00  0.00000000000E+00 -0.26725528791E+03  0.26725528792E+03  0.25500000920E-02 0.  1.
    10030    2    1    2    0    0  0.00000000000E+00  0.00000000000E+00  0.11005518258E+04  0.16350624016E+04  0.12092207143E+04 0.  0.
        5    1    3    3  502    0 -0.14829047711E+03  0.22638889256E+03 -0.18075448052E+03  0.32547852234E+03  0.46999998093E+01 0.  1.
       -5    1    3    3    0  502  0.14829047711E+03 -0.22638889256E+03  0.12813063063E+04  0.13095838793E+04  0.46999998093E+01 0. -1.
</event>
<event>
 5   0  0.1397500E-03  0.1209899E+04  0.7818609E-02  0.9104236E-01
       -4   -1    0    0    0  501  0.00000000000E+00  0.00000000000E+00  0.42245078256E+03  0.42245269153E+03  0.12699999809E+01 0.  1.
        4   -1    0    0  501    0  0.00000000000E+00  0.00000000000E+00 -0.86628362794E+03  0.86628455887E+03  0.12699999809E+01 0. -1.
    10030    2    1    2    0    0  0.00000000000E+00  0.00000000000E+00 -0.44383284538E+03  0.12887372504E+04  0.12098992131E+04 0.  0.
        1    1    3    3  502    0  0.35893885052E+03 -0.13481084413E+02  0.29657208481E+03  0.46580450788E+03  0.50400001928E-02 0.  1.
       -1    1    3    3    0  502 -0.35893885052E+03  0.13481084413E+02 -0.74040493018E+03  0.82293274252E+03  0.50400001928E-02 0. -1.
</event>
<event>
 5   0  0.3650180E-03  0.1209324E+04  0.7818609E-02  0.9104735E-01
        2   -1    0    0  501    0  0.00000000000E+00  0.00000000000E+00  0.14037353268E+04  0.14037353268E+04  0.25500000920E-02 0.  1.
       -2   -1    0    0    0  501  0.00000000000E+00  0.00000000000E+00 -0.26045928769E+03  0.26045928770E+03  0.25500000920E-02 0. -1.
    10030    2    1    2    0    0  0.00000000000E+00  0.00000000000E+00  0.11432760391E+04  0.16641946145E+04  0.12093236181E+04 0.  0.
        3    1    3    3  502    0  0.52117767891E+03 -0.78340068625E+02  0.97952399479E+03  0.11123086828E+04  0.10100000352E+00 0.  1.
       -3    1    3    3    0  502 -0.52117767891E+03  0.78340068625E+02  0.16375204432E+03  0.55188593166E+03  0.10100000352E+00 0. -1.
</event>
<event>
 5   0  0.3725376E-03  0.1285348E+04  0.7818609E-02  0.9041265E-01
       -2   -1    0    0    0  501  0.00000000000E+00  0.00000000000E+00  0.33662378537E+03  0.33662378538E+03  0.25500000920E-02 0. -1.
        2   -1    0    0  501    0  0.00000000000E+00  0.00000000000E+00 -0.12269785662E+04  0.12269785662E+04  0.25500000920E-02 0.  1.
    10030    2    1    2    0    0  0.00000000000E+00  0.00000000000E+00 -0.89035478085E+03  0.15636023516E+04  0.12853484656E+04 0.  0.
        4    1    3    3  502    0  0.43028262957E+03 -0.11738056981E+03  0.11770943618E+03  0.46127916032E+03  0.12699999809E+01 0. -1.
       -4    1    3    3    0  502 -0.43028262957E+03  0.11738056981E+03 -0.10080642170E+04  0.11023231913E+04  0.12699999809E+01 0.  1.
</event>
<event>
 5   0  0.1397500E-03  0.1206716E+04  0.7818609E-02  0.9106998E-01
        3   -1    0    0  501    0  0.00000000000E+00  0.00000000000E+00  0.17286516707E+04  0.17286516737E+04  0.10100000352E+00 0. -1.
       -3   -1    0    0    0  501  0.00000000000E+00  0.00000000000E+00 -0.21059253021E+03  0.21059255442E+03  0.10100000352E+00 0.  1.
    10030    2    1    2    0    0  0.00000000000E+00  0.00000000000E+00  0.15180591405E+04  0.19392442281E+04  0.12067164630E+04 0.  0.
        2    1    3    3  502    0  0.33761853433E+02 -0.39289151484E+03  0.25159115558E+02  0.39514122321E+03  0.25500000920E-02 0.  1.
       -2    1    3    3    0  502 -0.33761853433E+02  0.39289151484E+03  0.14929000249E+04  0.15441030049E+04  0.25500000920E-02 0. -1.
</event>
<event>
 5   0  0.3650180E-03  0.1215095E+04  0.7818609E-02  0.9099745E-01
       -2   -1    0    0    0  501  0.00000000000E+00  0.00000000000E+00  0.51535342471E+03  0.51535342472E+03  0.25500000920E-02 0.  1.
        2   -1    0    0  501    0  0.00000000000E+00  0.00000000000E+00 -0.71623477991E+03  0.71623477991E+03  0.25500000920E-02 0. -1.
    10030    2    1    2    0    0  0.00000000000E+00  0.00000000000E+00 -0.20088135520E+03  0.12315882046E+04  0.12150951349E+04 0.  0.
        3    1    3    3  502    0  0.31561859880E+03 -0.43255083787E+02 -0.62479030033E+03  0.70131949336E+03  0.10100000352E+00 0. -1.
       -3    1    3    3    0  502 -0.31561859880E+03  0.43255083787E+02  0.42390894513E+03  0.53026871127E+03  0.10100000352E+00 0.  1.
</event>
<event>
 5   0  0.3725376E-03  0.1199817E+04  0.7818609E-02  0.9113017E-01
        2   -1    0    0  501    0  0.00000000000E+00  0.00000000000E+00  0.51006263544E+03  0.51006263544E+03  0.25500000920E-02 0. -1.
       -2   -1    0    0    0  501  0.00000000000E+00  0.00000000000E+00 -0.70558029314E+03  0.70558029314E+03  0.25500000920E-02 0.  1.
    10030    2    1    2    0    0  0.00000000000E+00  0.00000000000E+00 -0.19551765770E+03  0.12156429286E+04  0.11998168924E+04 0.  0.
        4    1    3    3  502    0  0.18314067824E+03 -0.88152717309E+02  0.47411253208E+03  0.51584466225E+03  0.12699999809E+01 0. -1.
       -4    1    3    3    0  502 -0.18314067824E+03  0.88152717309E+02 -0.66963018978E+03  0.69979826633E+03  0.12699999809E+01 0.  1.
</event>
<event>
 5   0  0.3626049E-03  0.1184361E+04  0.7818609E-02  0.9126656E-01
        2   -1    0    0  501    0  0.00000000000E+00  0.00000000000E+00  0.32214722062E+03  0.32214722063E+03  0.25500000920E-02 0. -1.
       -2   -1    0    0    0  501  0.00000000000E+00  0.00000000000E+00 -0.10885644944E+04  0.10885644944E+04  0.25500000920E-02 0.  1.
    10030    2    1    2    0    0  0.00000000000E+00  0.00000000000E+00 -0.76641727375E+03  0.14107117150E+04  0.11843614758E+04 0.  0.
        1    1    3    3  502    0 -0.31447310911E+03 -0.40550368262E+03 -0.31171023589E+02  0.51409941228E+03  0.50400001928E-02 0. -1.
       -1    1    3    3    0  502  0.31447310911E+03  0.40550368262E+03 -0.73524625016E+03  0.89661230271E+03  0.50400001928E-02 0.  1.
</event>
<event>
 5   0  0.2134992E-03  0.1191642E+04  0.7818609E-02  0.9120204E-01
        1   -1    0    0  501    0  0.00000000000E+00  0.00000000000E+00  0.49449811942E+03  0.49449811945E+03  0.50400001928E-02 0. -1.
       -1   -1    0    0    0  501  0.00000000000E+00  0.00000000000E+00 -0.71790505241E+03  0.71790505243E+03  0.50400001928E-02 0.  1.
    10030    2    1    2    0    0  0.00000000000E+00  0.00000000000E+00 -0.22340693299E+03  0.12124031719E+04  0.11916420576E+04 0.  0.
        4    1    3    3  502    0  0.30125039884E+03  0.36077935894E+03 -0.48426279968E+03  0.67485229547E+03  0.12699999809E+01 0.  1.
       -4    1    3    3    0  502 -0.30125039884E+03 -0.36077935894E+03  0.26085586670E+03  0.53755087641E+03  0.12699999809E+01 0. -1.
</event>
<event>
 5   0  0.3650180E-03  0.1214419E+04  0.7818609E-02  0.9100329E-01
        2   -1    0    0  501    0  0.00000000000E+00  0.00000000000E+00  0.50215831834E+03  0.50215831835E+03  0.25500000920E-02 0.  1.
       -2   -1    0    0    0  501  0.00000000000E+00  0.00000000000E+00 -0.73423709209E+03  0.73423709209E+03  0.25500000920E-02 0. -1.
    10030    2    1    2    0    0  0.00000000000E+00  0.00000000000E+00 -0.23207877375E+03  0.12363954104E+04  0.12144188131E+04 0.  0.
        3    1    3    3  502    0 -0.44466905389E+02 -0.32866879567E+03  0.40179327232E+03  0.52099743455E+03  0.10100000352E+00 0.  1.
       -3    1    3    3    0  502  0.44466905389E+02  0.32866879567E+03 -0.63387204607E+03  0.71539797589E+03  0.10100000352E+00 0. -1.
</event>
<event>
 5   0  0.3751091E-03  0.1191592E+04  0.7818609E-02  0.9120248E-01
       -2   -1    0    0    0  501  0.00000000000E+00  0.00000000000E+00  0.79142254316E+03  0.79142254316E+03  0.25500000920E-02 0. -1.
        2   -1    0    0  501    0  0.00000000000E+00  0.00000000000E+00 -0.44852501894E+03  0.44852501895E+03  0.25500000920E-02 0.  1.
    10030    2    1    2    0    0  0.00000000000E+00  0.00000000000E+00  0.34289752422E+03  0.12399475621E+04  0.11915918952E+04 0.  0.
        5    1    3    3  502    0  0.44696640882E+03  0.35882267279E+03  0.23166487546E+01  0.57320165560E+03  0.46999998093E+01 0.  1.
       -5    1    3    3    0  502 -0.44696640882E+03 -0.35882267279E+03  0.34058087546E+03  0.66674590651E+03  0.46999998093E+01 0. -1.
</event>
<event>
 5   0  0.2078258E-03  0.1186366E+04  0.7818609E-02  0.9124874E-01
       -1   -1    0    0    0  501  0.00000000000E+00  0.00000000000E+00  0.24593106824E+03  0.24593106830E+03  0.50400001928E-02 0. -1.
        1   -1    0    0  501    0  0.00000000000E+00  0.00000000000E+00 -0.14307517895E+04  0.14307517895E+04  0.50400001928E-02 0.  1.
    10030    2    1    2    0    0  0.00000000000E+00  0.00000000000E+00 -0.11848207213E+04  0.16766828578E+04  0.11863664123E+04 0.  0.
        3    1    3    3  502    0  0.23449690873E+03  0.13611689471E+02  0.17740250690E+03  0.29435648107E+03  0.10100000352E+00 0. -1.
       -3    1    3    3    0  502 -0.23449690873E+03 -0.13611689471E+02 -0.13622232282E+04  0.13823263768E+04  0.10100000352E+00 0.  1.
</event>
<event>
 5   0  0.1397500E-03  0.1188621E+04  0.7818609E-02  0.9122875E-01
        3   -1    0    0  501    0  0.00000000000E+00  0.00000000000E+00  0.47365177586E+03  0.47365178663E+03  0.10100000352E+00 0. -1.
       -3   -1    0    0    0  501  0.00000000000E+00  0.00000000000E+00 -0.74570578506E+03  0.74570579190E+03  0.10100000352E+00 0.  1.
    10030    2    1    2    0    0  0.00000000000E+00  0.00000000000E+00 -0.27205400920E+03  0.12193575785E+04  0.11886208480E+04 0.  0.
        5    1    3    3  502    0  0.21097850067E+03  0.26757364763E+03 -0.63552161470E+03  0.72112231792E+03  0.46999998093E+01 0.  1.
       -5    1    3    3    0  502 -0.21097850067E+03 -0.26757364763E+03  0.36346760551E+03  0.49823526060E+03  0.46999998093E+01 0. -1.
</event>
<event>
 5   0  0.2134992E-03  0.1197660E+04  0.7818609E-02  0.9114907E-01
        1   -1    0    0  501    0  0.00000000000E+00  0.00000000000E+00  0.29381647541E+03  0.29381647546E+03  0.50400001928E-02 0.  1.
       -1   -1    0    0    0  501  0.00000000000E+00  0.00000000000E+00 -0.12204809299E+04  0.12204809299E+04  0.50400001928E-02 0. -1.
    10030    2    1    2    0    0  0.00000000000E+00  0.00000000000E+00 -0.92666445451E+03  0.15142974054E+04  0.11976600606E+04 0.  0.
        4    1    3    3  502    0  0.42454973259E+03 -0.98843737396E+02  0.55808139503E+02  0.43946412960E+03  0.12699999809E+01 0.  1.
       -4    1    3    3    0  502 -0.42454973259E+03  0.98843737396E+02 -0.98247259402E+03  0.10748332758E+04  0.12699999809E+01 0. -1.
</event>
<event>
 5   0  0.3725376E-03  0.1212176E+04  0.7818609E-02  0.9102265E-01
        2   -1    0    0  501    0  0.00000000000E+00  0.00000000000E+00  0.50984871807E+03  0.50984871807E+03  0.25500000920E-02 0.  1.
       -2   -1    0    0    0  501  0.00000000000E+00  0.00000000000E+00 -0.72049367945E+03  0.72049367946E+03  0.25500000920E-02 0. -1.
    10030    2    1    2    0    0  0.00000000000E+00  0.00000000000E+00 -0.21064496139E+03  0.12303423975E+04  0.12121761899E+04 0.  0.
        4    1    3    3  502    0 -0.11292669759E+03  0.60609608724E+02 -0.70658112374E+03  0.71811173296E+03  0.12699999809E+01 0. -1.
       -4    1    3    3    0  502  0.11292669759E+03 -0.60609608724E+02  0.49593616235E+03  0.51223066457E+03  0.12699999809E+01 0.  1.
</event>
<event>
 5   0  0.2078258E-03  0.1127695E+04  0.7818609E-02  0.9178611E-01
        1   -1    0    0  501    0  0.00000000000E+00  0.00000000000E+00  0.10113559525E+04  0.10113559525E+04  0.50400001928E-02 0.  1.
       -1   -1    0    0    0  501  0.00000000000E+00  0.00000000000E+00 -0.31435403344E+03  0.31435403348E+03  0.50400001928E-02 0. -1.
    10030    2    1    2    0    0  0.00000000000E+00  0.00000000000E+00  0.69700191902E+03  0.13257099859E+04  0.11276946802E+04 0.  0.
        3    1    3    3  502    0 -0.20190029023E+03  0.20614007337E+03 -0.22098419911E+03  0.36344392071E+03  0.10100000352E+00 0. -1.
       -3    1    3    3    0  502  0.20190029023E+03 -0.20614007337E+03  0.91798611813E+03  0.96226606524E+03  0.10100000352E+00 0.  1.
</event>
<event>
 5   0  0.3751091E-03  0.1213545E+04  0.7818609E-02  0.9101082E-01
       -2   -1    0    0    0  501  0.00000000000E+00  0.00000000000E+00  0.23937336657E+03  0.23937336659E+03  0.25500000920E-02 0.  1.
        2   -1    0    0  501    0  0.00000000000E+00  0.00000000000E+00 -0.15380705268E+04  0.15380705268E+04  0.25500000920E-02 0. -1.
    10030    2    1    2    0    0  0.00000000000E+00  0.00000000000E+00 -0.12986971602E+04  0.17774438934E+04  0.12135454174E+04 0.  0.
        5    1    3    3  502    0  0.46902902058E+02 -0.75663292234E+02 -0.15284268058E+04  0.15310242998E+04  0.46999998093E+01 0. -1.
       -5    1    3    3    0  502 -0.46902902058E+02  0.75663292234E+02  0.22972964559E+03  0.24641959353E+03  0.46999998093E+01 0.  1.
</event>
<event>
 5   0  0.3706035E-03  0.1205547E+04  0.7818609E-02  0.9108015E-01
        2   -1    0    0  501    0  0.00000000000E+00  0.00000000000E+00  0.53222746668E+03  0.53222746668E+03  0.25500000920E-02 0. -1.
       -2   -1    0    0    0  501  0.00000000000E+00  0.00000000000E+00 -0.68267036310E+03  0.68267036311E+03  0.25500000920E-02 0.  1.
    10030    2    1    2    0    0  0.00000000000E+00  0.00000000000E+00 -0.15044289643E+03  0.12148978298E+04  0.12055470425E+04 0.  0.
        2    1    3    3  502    0 -0.34196503288E+03 -0.23184941292E+03  0.36709259405E+03  0.55267640315E+03  0.25500000920E-02 0. -1.
       -2    1    3    3    0  502  0.34196503288E+03  0.23184941292E+03 -0.51753549048E+03  0.66222142664E+03  0.25500000920E-02 0.  1.
</event>
<event>
 5   0  0.3751091E-03  0.1213998E+04  0.7818609E-02  0.9100691E-01
        2   -1    0    0  501    0  0.00000000000E+00  0.00000000000E+00  0.30835843135E+04  0.30835843135E+04  0.25500000920E-02 0.  1.
       -2   -1    0    0    0  501  0.00000000000E+00  0.00000000000E+00 -0.11948689696E+03  0.11948689699E+03  0.25500000920E-02 0. -1.
    10030    2    1    2    0    0  0.00000000000E+00  0.00000000000E+00  0.29640974165E+04  0.32030712105E+04  0.12139982227E+04 0.  0.
        5    1    3    3  502    0  0.16960319992E+03 -0.62204858180E+02  0.30109630707E+04  0.30163811750E+04  0.46999998093E+01 0.  1.
       -5    1    3    3    0  502 -0.16960319992E+03  0.62204858180E+02 -0.46865654171E+02  0.18669003547E+03  0.46999998093E+01 0. -1.
</event>
<event>
 5   0  0.2025294E-03  0.1200112E+04  0.7818609E-02  0.9112759E-01
       -1   -1    0    0    0  501  0.00000000000E+00  0.00000000000E+00  0.70991209045E+03  0.70991209046E+03  0.50400001928E-02 0.  1.
        1   -1    0    0  501    0  0.00000000000E+00  0.00000000000E+00 -0.50719945378E+03  0.50719945381E+03  0.50400001928E-02 0. -1.
    10030    2    1    2    0    0  0.00000000000E+00  0.00000000000E+00  0.20271263666E+03  0.12171115443E+04  0.12001117024E+04 0.  0.
        5    1    3    3  502    0 -0.31776393080E+02  0.39005525602E+03 -0.35994071042E+03  0.53172572528E+03  0.46999998093E+01 0. -1.
       -5    1    3    3    0  502  0.31776393080E+02 -0.39005525602E+03  0.56265334708E+03  0.68538581900E+03  0.46999998093E+01 0.  1.
</event>
<event>
 5   0  0.2134992E-03  0.1200714E+04  0.7818609E-02  0.9112232E-01
       -1   -1    0    0    0  501  0.00000000000E+00  0.00000000000E+00  0.65747825919E+03  0.65747825921E+03  0.50400001928E-02 0. -1.
        1   -1    0    0  501    0  0.00000000000E+00  0.00000000000E+00 -0.54819805160E+03  0.54819805162E+03  0.50400001928E-02 0.  1.
    10030    2    1    2    0    0  0.00000000000E+00  0.00000000000E+00  0.10928020759E+03  0.12056763108E+04  0.12007136223E+04 0.  0.
        4    1    3    3  502    0 -0.43432546795E+03 -0.25717946454E+03  0.38101703978E+03  0.63242034012E+03  0.12699999809E+01 0. -1.
       -4    1    3    3    0  502  0.43432546795E+03  0.25717946454E+03 -0.27173683219E+03  0.57325597072E+03  0.12699999809E+01 0.  1.
</event>
<event>
 5   0  0.3650180E-03  0.1194896E+04  0.7818609E-02  0.9117336E-01
        2   -1    0    0  501    0  0.00000000000E+00  0.00000000000E+00  0.46408610681E+03  0.46408610682E+03  0.25500000920E-02 0.  1.
       -2   -1    0    0    0  501  0.00000000000E+00  0.00000000000E+00 -0.76913292247E+03  0.76913292247E+03  0.25500000920E-02 0. -1.
    10030    2    1    2    0    0  0.00000000000E+00  0.00000000000E+00 -0.30504681566E+03  0.12332190293E+04  0.11948956500E+04 0.  0.
        3    1    3    3  502    0  0.98084266018E+02 -0.27865560807E+03  0.38343380001E+03  0.48403611471E+03  0.10100000352E+00 0.  1.
       -3    1    3    3    0  502 -0.98084266018E+02  0.27865560807E+03 -0.68848061567E+03  0.74918291458E+03  0.10100000352E+00 0. -1.
</event>
<event>
 5   0  0.2096270E-03  0.1211428E+04  0.7818609E-02  0.9102912E-01
       -1   -1    0    0    0  501  0.00000000000E+00  0.00000000000E+00  0.91259500739E+03  0.91259500740E+03  0.50400001928E-02 0. -1.
        1   -1    0    0  501    0  0.00000000000E+00  0.00000000000E+00 -0.40202889720E+03  0.40202889723E+03  0.50400001928E-02 0.  1.
    10030    2    1    2    0    0  0.00000000000E+00  0.00000000000E+00  0.51056611018E+03  0.13146239046E+04  0.12114281893E+04 0.  0.
        2    1    3    3  502    0  0.27504197518E+03  0.25082921267E+03  0.77382239141E+03  0.85869929283E+03  0.25500000920E-02 0. -1.
       -2    1    3    3    0  502 -0.27504197518E+03 -0.25082921267E+03 -0.26325628123E+03  0.45592461181E+03  0.25500000920E-02 0.  1.
</event>
<event>
 5   0  0.3725376E-03  0.1195480E+04  0.7818609E-02  0.9116822E-01
        2   -1    0    0  501    0  0.00000000000E+00  0.00000000000E+00  0.45498694133E+03  0.45498694134E+03  0.25500000920E-02 0. -1.
       -2   -1    0    0    0  501  0.00000000000E+00  0.00000000000E+00 -0.78528199375E+03  0.78528199376E+03  0.25500000920E-02 0.  1.
    10030    2    1    2    0    0  0.00000000000E+00  0.00000000000E+00 -0.33029505242E+03  0.12402689351E+04  0.11954799077E+04 0.  0.
        4    1    3    3  502    0  0.54079606272E+03  0.16970459338E+03  0.31783528936E+02  0.56768991190E+03  0.12699999809E+01 0.  1.
       -4    1    3    3    0  502 -0.54079606272E+03 -0.16970459338E+03 -0.36207858135E+03  0.67257902319E+03  0.12699999809E+01 0. -1.
</event>
<event>
 5   0  0.2134992E-03  0.1198692E+04  0.7818609E-02  0.9114002E-01
       -1   -1    0    0    0  501  0.00000000000E+00  0.00000000000E+00  0.45658949364E+03  0.45658949366E+03  0.50400001928E-02 0. -1.
        1   -1    0    0  501    0  0.00000000000E+00  0.00000000000E+00 -0.78673625277E+03  0.78673625279E+03  0.50400001928E-02 0.  1.
    10030    2    1    2    0    0  0.00000000000E+00  0.00000000000E+00 -0.33014675914E+03  0.12433257465E+04  0.11986917991E+04 0.  0.
        4    1    3    3  502    0 -0.16869303826E+03  0.56169080800E+03 -0.36942292825E+02  0.58763955862E+03  0.12699999809E+01 0. -1.
       -4    1    3    3    0  502  0.16869303826E+03 -0.56169080800E+03 -0.29320446631E+03  0.65568618784E+03  0.12699999809E+01 0.  1.
</event>
<event>
 5   0  0.2047109E-03  0.1183801E+04  0.7818609E-02  0.9127155E-01
       -1   -1    0    0    0  501  0.00000000000E+00  0.00000000000E+00  0.30122161707E+03  0.30122161711E+03  0.50400001928E-02 0. -1.
        1   -1    0    0  501    0  0.00000000000E+00  0.00000000000E+00 -0.11630845385E+04  0.11630845385E+04  0.50400001928E-02 0.  1.
    10030    2    1    2    0    0  0.00000000000E+00  0.00000000000E+00 -0.86186292139E+03  0.14643061556E+04  0.11838010061E+04 0.  0.
        1    1    3    3  502    0 -0.21402031214E+02  0.22393269320E+03 -0.11081474547E+04  0.11307496095E+04  0.50400001928E-02 0.  1.
       -1    1    3    3    0  502  0.21402031214E+02 -0.22393269320E+03  0.24628453333E+03  0.33355654604E+03  0.50400001928E-02 0. -1.
</event>
<event>
 5   0  0.2025294E-03  0.1200971E+04  0.7818609E-02  0.9112007E-01
       -1   -1    0    0    0  501  0.00000000000E+00  0.00000000000E+00  0.34962946253E+03  0.34962946257E+03  0.50400001928E-02 0.  1.
        1   -1    0    0  501    0  0.00000000000E+00  0.00000000000E+00 -0.10313281938E+04  0.10313281939E+04  0.50400001928E-02 0. -1.
    10030    2    1    2    0    0  0.00000000000E+00  0.00000000000E+00 -0.68169873131E+03  0.13809576564E+04  0.12009708109E+04 0.  0.
        5    1    3    3  502    0 -0.21657741122E+01 -0.21182036319E+03 -0.98691553278E+03  0.10094042380E+04  0.46999998093E+01 0. -1.
       -5    1    3    3    0  502  0.21657741122E+01  0.21182036319E+03  0.30521680148E+03  0.37155341842E+03  0.46999998093E+01 0.  1.
</event>
<event>
 5   0  0.2078258E-03  0.1171623E+04  0.7818609E-02  0.9138064E-01
        1   -1    0    0  501    0  0.00000000000E+00  0.00000000000E+00  0.40318269492E+03  0.40318269495E+03  0.50400001928E-02 0.  1.
       -1   -1    0    0    0  501  0.00000000000E+00  0.00000000000E+00 -0.85116503271E+03  0.85116503273E+03  0.50400001928E-02 0. -1.
    10030    2    1    2    0    0  0.00000000000E+00  0.00000000000E+00 -0.44798233779E+03  0.12543477277E+04  0.11716228262E+04 0.  0.
        3    1    3    3  502    0  0.28192387515E+03 -0.21295850757E+03 -0.72425530111E+03  0.80584002675E+03  0.10100000352E+00 0. -1.
       -3    1    3    3    0  502 -0.28192387515E+03  0.21295850757E+03  0.27627296332E+03  0.44850770092E+03  0.10100000352E+00 0.  1.
</event>
<event>
 5   0  0.3706035E-03  0.1241824E+04  0.7818609E-02  0.9077016E-01
       -2   -1    0    0    0  501  0.00000000000E+00  0.00000000000E+00  0.18041427025E+03  0.18041427027E+03  0.25500000920E-02 0.  1.
        2   -1    0    0  501    0  0.00000000000E+00  0.00000000000E+00 -0.21369238725E+04  0.21369238725E+04  0.25500000920E-02 0. -1.
    10030    2    1    2    0    0  0.00000000000E+00  0.00000000000E+00 -0.19565096022E+04  0.23173381428E+04  0.12418237573E+04 0.  0.
        2    1    3    3  502    0 -0.29831975660E+03  0.54095596758E+03 -0.86166570648E+03  0.10602338543E+04  0.25500000920E-02 0.  1.
       -2    1    3    3    0  502  0.29831975660E+03 -0.54095596758E+03 -0.10948438957E+04  0.12571042885E+04  0.25500000920E-02 0. -1.
</event>
<event>
 5   0  0.2134992E-03  0.1204326E+04  0.7818609E-02  0.9109079E-01
       -1   -1    0    0    0  501  0.00000000000E+00  0.00000000000E+00  0.30611731028E+03  0.30611731032E+03  0.50400001928E-02 0. -1.
        1   -1    0    0  501    0  0.00000000000E+00  0.00000000000E+00 -0.11845133254E+04  0.11845133254E+04  0.50400001928E-02 0.  1.
    10030    2    1    2    0    0  0.00000000000E+00  0.00000000000E+00 -0.87839601512E+03  0.14906306357E+04  0.12043255925E+04 0.  0.
        4    1    3    3  502    0  0.34558688436E+03 -0.47547781764E+03 -0.27739593567E+03  0.64996889752E+03  0.12699999809E+01 0.  1.
       -4    1    3    3    0  502 -0.34558688436E+03  0.47547781764E+03 -0.60100007945E+03  0.84066173822E+03  0.12699999809E+01 0. -1.
</event>
<event>
 5   0  0.3751091E-03  0.1187608E+04  0.7818609E-02  0.9123773E-01
       -2   -1    0    0    0  501  0.00000000000E+00  0.00000000000E+00  0.24297331781E+03  0.24297331782E+03  0.25500000920E-02 0.  1.
        2   -1    0    0  501    0  0.00000000000E+00  0.00000000000E+00 -0.14512014190E+04  0.14512014190E+04  0.25500000920E-02 0. -1.
    10030    2    1    2    0    0  0.00000000000E+00  0.00000000000E+00 -0.12082281012E+04  0.16941747368E+04  0.11876080559E+04 0.  0.
        5    1    3    3  502    0  0.53728253318E+02 -0.22143853738E+03 -0.13863223995E+04  0.14049318975E+04  0.46999998093E+01 0. -1.
       -5    1    3    3    0  502 -0.53728253318E+02  0.22143853738E+03  0.17809429833E+03  0.28924283938E+03  0.46999998093E+01 0.  1.
</event>
<event>
 5   0  0.1397500E-03  0.1203411E+04  0.7818609E-02  0.9109876E-01
       -3   -1    0    0    0  501  0.00000000000E+00  0.00000000000E+00  0.17024535801E+03  0.17024538797E+03  0.10100000352E+00 0. -1.
        3   -1    0    0  501    0  0.00000000000E+00  0.00000000000E+00 -0.21266351329E+04  0.21266351353E+04  0.10100000352E+00 0.  1.
    10030    2    1    2    0    0  0.00000000000E+00  0.00000000000E+00 -0.19563897749E+04  0.22968805232E+04  0.12034114786E+04 0.  0.
        5    1    3    3  502    0 -0.14473494352E+03 -0.54914427292E+03 -0.13576261491E+04  0.14716244382E+04  0.46999998093E+01 0.  1.
       -5    1    3    3    0  502  0.14473494352E+03  0.54914427292E+03 -0.59876362573E+03  0.82525608502E+03  0.46999998093E+01 0. -1.
</event>
<event>
 5   0  0.3725376E-03  0.1289690E+04  0.7818609E-02  0.9037781E-01
       -2   -1    0    0    0  501  0.00000000000E+00  0.00000000000E+00  0.30411113666E+03  0.30411113667E+03  0.25500000920E-02 0. -1.
        2   -1    0    0  501    0  0.00000000000E+00  0.00000000000E+00 -0.13673464520E+04  0.13673464520E+04  0.25500000920E-02 0.  1.
    10030    2    1    2    0    0  0.00000000000E+00  0.00000000000E+00 -0.10632353153E+04  0.16714575886E+04  0.12896903252E+04 0.  0.
        4    1    3    3  502    0 -0.22699061187E+03  0.59347370190E+02 -0.13100649889E+04  0.13309089887E+04  0.12699999809E+01 0.  1.
       -4    1    3    3    0  502  0.22699061187E+03 -0.59347370190E+02  0.24682967360E+03  0.34054859990E+03  0.12699999809E+01 0. -1.
</event>
<event>
 5   0  0.2047109E-03  0.1232435E+04  0.7818609E-02  0.9084931E-01
       -1   -1    0    0    0  501  0.00000000000E+00  0.00000000000E+00  0.68679695104E+03  0.68679695106E+03  0.50400001928E-02 0.  1.
        1   -1    0    0  501    0  0.00000000000E+00  0.00000000000E+00 -0.55289101888E+03  0.55289101890E+03  0.50400001928E-02 0. -1.
    10030    2    1    2    0    0  0.00000000000E+00  0.00000000000E+00  0.13390593216E+03  0.12396879700E+04  0.12324347708E+04 0.  0.
        1    1    3    3  502    0  0.60077257176E+03 -0.11894704003E+03 -0.16229228460E+01  0.61243670303E+03  0.50400001928E-02 0.  1.
       -1    1    3    3    0  502 -0.60077257176E+03  0.11894704003E+03  0.13552885500E+03  0.62725126694E+03  0.50400001928E-02 0. -1.
</event>
<event>
 5   0  0.3751091E-03  0.1243295E+04  0.7818609E-02  0.9075782E-01
       -2   -1    0    0    0  501  0.00000000000E+00  0.00000000000E+00  0.68781061640E+03  0.68781061641E+03  0.25500000920E-02 0.  1.
        2   -1    0    0  501    0  0.00000000000E+00  0.00000000000E+00 -0.56184907846E+03  0.56184907846E+03  0.25500000920E-02 0. -1.
    10030    2    1    2    0    0  0.00000000000E+00  0.00000000000E+00  0.12596153794E+03  0.12496596949E+04  0.12432952360E+04 0.  0.
        5    1    3    3  502    0 -0.51329608416E+03  0.12419829247E+03 -0.26660875601E+03  0.59160832030E+03  0.46999998093E+01 0. -1.
       -5    1    3    3    0  502  0.51329608416E+03 -0.12419829247E+03  0.39257029396E+03  0.65805137456E+03  0.46999998093E+01 0.  1.
</event>
<event>
 5   0  0.1397500E-03  0.1187621E+04  0.7818609E-02  0.9123761E-01
       -3   -1    0    0    0  501  0.00000000000E+00  0.00000000000E+00  0.51611835457E+03  0.51611836445E+03  0.10100000352E+00 0.  1.
        3   -1    0    0  501    0  0.00000000000E+00  0.00000000000E+00 -0.68319791244E+03  0.68319791991E+03  0.10100000352E+00 0. -1.
    10030    2    1    2    0    0  0.00000000000E+00  0.00000000000E+00 -0.16707955787E+03  0.11993162844E+04  0.11876211396E+04 0.  0.
        3    1    3    3  502    0 -0.12570713587E+03 -0.20345017116E+03  0.46533509688E+03  0.52319309891E+03  0.10100000352E+00 0.  1.
       -3    1    3    3    0  502  0.12570713587E+03  0.20345017116E+03 -0.63241465476E+03  0.67612318545E+03  0.10100000352E+00 0. -1.
</event>
<event>
 5   0  0.3626049E-03  0.1203004E+04  0.7818609E-02  0.9110231E-01
       -2   -1    0    0    0  501  0.00000000000E+00  0.00000000000E+00  0.48622379189E+03  0.48622379190E+03  0.25500000920E-02 0. -1.
        2   -1    0    0  501    0  0.00000000000E+00  0.00000000000E+00 -0.74411135551E+03  0.74411135552E+03  0.25500000920E-02 0.  1.
    10030    2    1    2    0    0  0.00000000000E+00  0.00000000000E+00 -0.25788756362E+03  0.12303351474E+04  0.12030039815E+04 0.  0.
        1    1    3    3  502    0 -0.38302689453E+03  0.32054401708E+03 -0.47174020886E+03  0.68702030065E+03  0.50400001928E-02 0.  1.
       -1    1    3    3    0  502  0.38302689453E+03 -0.32054401708E+03  0.21385264523E+03  0.54331484677E+03  0.50400001928E-02 0. -1.
</event>
<event>
 5   0  0.3650180E-03  0.1204592E+04  0.7818609E-02  0.9108847E-01
        2   -1    0    0  501    0  0.00000000000E+00  0.00000000000E+00  0.19865318192E+04  0.19865318192E+04  0.25500000920E-02 0. -1.
       -2   -1    0    0    0  501  0.00000000000E+00  0.00000000000E+00 -0.18260996636E+03  0.18260996638E+03  0.25500000920E-02 0.  1.
    10030    2    1    2    0    0  0.00000000000E+00  0.00000000000E+00  0.18039218529E+04  0.21691417856E+04  0.12045920616E+04 0.  0.
        3    1    3    3  502    0  0.45468203761E+02 -0.14815848388E+03  0.19500123654E+04  0.19561611716E+04  0.10100000352E+00 0. -1.
       -3    1    3    3    0  502 -0.45468203761E+02  0.14815848388E+03 -0.14609051252E+03  0.21298061402E+03  0.10100000352E+00 0.  1.
</event>
<event>
 5   0  0.2047109E-03  0.1209378E+04  0.7818609E-02  0.9104688E-01
        1   -1    0    0  501    0  0.00000000000E+00  0.00000000000E+00  0.54788077639E+03  0.54788077642E+03  0.50400001928E-02 0. -1.
       -1   -1    0    0    0  501  0.00000000000E+00  0.00000000000E+00 -0.66738712521E+03  0.66738712523E+03  0.50400001928E-02 0.  1.
    10030    2    1    2    0    0  0.00000000000E+00  0.00000000000E+00 -0.11950634882E+03  0.12152679017E+04  0.12093776521E+04 0.  0.
        1    1    3    3  502    0 -0.10462920769E+03  0.40455456032E+03  0.37945330042E+03  0.56444350523E+03  0.50400001928E-02 0. -1.
       -1    1    3    3    0  502  0.10462920769E+03 -0.40455456032E+03 -0.49895964924E+03  0.65082439642E+03  0.50400001928E-02 0.  1.
</event>
<event>
 5   0  0.2096270E-03  0.1196204E+04  0.7818609E-02  0.9116185E-01
        1   -1    0    0  501    0  0.00000000000E+00  0.00000000000E+00  0.79049826620E+03  0.79049826622E+03  0.50400001928E-02 0.  1.
       -1   -1    0    0    0  501  0.00000000000E+00  0.00000000000E+00 -0.45253256151E+03  0.45253256154E+03  0.50400001928E-02 0. -1.
    10030    2    1    2    0    0  0.00000000000E+00  0.00000000000E+00  0.33796570470E+03  0.12430308278E+04  0.11962043392E+04 0.  0.
        2    1    3    3  502    0  0.23386237896E+03  0.52311052245E+03  0.34712887440E+03  0.66995125677E+03  0.25500000920E-02 0.  1.
       -2    1    3    3    0  502 -0.23386237896E+03 -0.52311052245E+03 -0.91631697079E+01  0.57307957099E+03  0.25500000920E-02 0. -1.
</event>
<event>
 5   0  0.3626049E-03  0.1218823E+04  0.7818609E-02  0.9096539E-01
       -2   -1    0    0    0  501  0.00000000000E+00  0.00000000000E+00  0.55650897251E+03  0.55650897252E+03  0.25500000920E-02 0.  1.
        2   -1    0    0  501    0  0.00000000000E+00  0.00000000000E+00 -0.66734279553E+03  0.66734279554E+03  0.25500000920E-02 0. -1.
    10030    2    1    2    0    0  0.00000000000E+00  0.00000000000E+00 -0.11083382302E+03  0.12238517681E+04  0.12188227984E+04 0.  0.
        1    1    3    3  502    0 -0.25153136535E+03 -0.26414965290E+02 -0.61215613553E+03  0.66234501013E+03  0.50400001928E-02 0. -1.
       -1    1    3    3    0  502  0.25153136535E+03  0.26414965290E+02  0.50132231252E+03  0.56150675793E+03  0.50400001928E-02 0.  1.
</event>
<event>
 5   0  0.3650180E-03  0.1208828E+04  0.7818609E-02  0.9105164E-01
        2   -1    0    0  501    0  0.00000000000E+00  0.00000000000E+00  0.16561839615E+04  0.16561839615E+04  0.25500000920E-02 0. -1.
       -2   -1    0    0    0  501  0.00000000000E+00  0.00000000000E+00 -0.22057728288E+03  0.22057728290E+03  0.25500000920E-02 0.  1.
    10030    2    1    2    0    0  0.00000000000E+00  0.00000000000E+00  0.14356066786E+04  0.18767612444E+04  0.12088284547E+04 0.  0.
        3    1    3    3  502    0  0.23644311654E+03 -0.18920345222E+03 -0.94303032553E+02  0.31716930154E+03  0.10100000352E+00 0.  1.
       -3    1    3    3    0  502 -0.23644311654E+03  0.18920345222E+03  0.15299097112E+04  0.15595919428E+04  0.10100000352E+00 0. -1.
</event>
<event>
 5   0  0.2025294E-03  0.1206291E+04  0.7818609E-02  0.9107368E-01
        1   -1    0    0  501    0  0.00000000000E+00  0.00000000000E+00  0.61805477595E+03  0.61805477597E+03  0.50400001928E-02 0. -1.
       -1   -1    0    0    0  501  0.00000000000E+00  0.00000000000E+00 -0.58859563587E+03  0.58859563589E+03  0.50400001928E-02 0.  1.
    10030    2    1    2    0    0  0.00000000000E+00  0.00000000000E+00  0.29459140082E+02  0.12066504119E+04  0.12062907508E+04 0.  0.
        5    1    3    3  502    0 -0.85291889196E+02 -0.15548076195E+02  0.61177083253E+03  0.61790135990E+03  0.46999998093E+01 0. -1.
       -5    1    3    3    0  502  0.85291889196E+02  0.15548076195E+02 -0.58231169244E+03  0.58874905197E+03  0.46999998093E+01 0.  1.
</event>
<event>
 5   0  0.3650180E-03  0.1198590E+04  0.7818609E-02  0.9114092E-01
        2   -1    0    0  501    0  0.00000000000E+00  0.00000000000E+00  0.90509922627E+03  0.90509922628E+03  0.25500000920E-02 0.  1.
       -2   -1    0    0    0  501  0.00000000000E+00  0.00000000000E+00 -0.39681220865E+03  0.39681220865E+03  0.25500000920E-02 0. -1.
    10030    2    1    2    0    0  0.00000000000E+00  0.00000000000E+00  0.50828701763E+03  0.13019114349E+04  0.11985898765E+04 0.  0.
        3    1    3    3  502    0  0.32916627936E+03 -0.32410194581E+03  0.66884237663E+03  0.81286077881E+03  0.10100000352E+00 0.  1.
       -3    1    3    3    0  502 -0.32916627936E+03  0.32410194581E+03 -0.16055535900E+03  0.48905065612E+03  0.10100000352E+00 0. -1.
</event>
<event>
 5   0  0.2134992E-03  0.1191607E+04  0.7818609E-02  0.9120234E-01
       -1   -1    0    0    0  501  0.00000000000E+00  0.00000000000E+00  0.13080733115E+04  0.13080733115E+04  0.50400001928E-02 0. -1.
        1   -1    0    0  501    0  0.00000000000E+00  0.00000000000E+00 -0.27137779213E+03  0.27137779218E+03  0.50400001928E-02 0.  1.
    10030    2    1    2    0    0  0.00000000000E+00  0.00000000000E+00  0.10366955193E+04  0.15794511037E+04  0.11916073972E+04 0.  0.
        4    1    3    3  502    0 -0.37672502479E+03 -0.24955218578E+03  0.10330408241E+04  0.11275517704E+04  0.12699999809E+01 0. -1.
       -4    1    3    3    0  502  0.37672502479E+03  0.24955218578E+03  0.36546952481E+01  0.45189933329E+03  0.12699999809E+01 0.  1.
</event>
<event>
 5   0  0.2134992E-03  0.1194179E+04  0.7818609E-02  0.9117967E-01
        1   -1    0    0  501    0  0.00000000000E+00  0.00000000000E+00  0.93646151664E+03  0.93646151665E+03  0.50400001928E-02 0. -1.
       -1   -1    0    0    0  501  0.00000000000E+00  0.00000000000E+00 -0.38070560758E+03  0.38070560761E+03  0.50400001928E-02 0.  1.
    10030    2    1    2    0    0  0.00000000000E+00  0.00000000000E+00  0.55575590906E+03  0.13171671243E+04  0.11941794684E+04 0.  0.
        4    1    3    3  502    0 -0.42522719802E+03 -0.37662356982E+03  0.48081315436E+03  0.74420856323E+03  0.12699999809E+01 0. -1.
       -4    1    3    3    0  502  0.42522719802E+03  0.37662356982E+03  0.74942754702E+02  0.57295856103E+03  0.12699999809E+01 0.  1.
</event>
<event>
 5   0  0.3650180E-03  0.1066449E+04  0.7818609E-02  0.9238524E-01
        2   -1    0    0  501    0  0.00000000000E+00  0.00000000000E+00  0.41763184861E+03  0.41763184862E+03  0.25500000920E-02 0. -1.
       -2   -1    0    0    0  501  0.00000000000E+00  0.00000000000E+00 -0.68081155944E+03  0.68081155944E+03  0.25500000920E-02 0.  1.
    10030    2    1    2    0    0  0.00000000000E+00  0.00000000000E+00 -0.26317971083E+03  0.10984434081E+04  0.10664494177E+04 0.  0.
        3    1    3    3  502    0 -0.21447729861E+03 -0.25406465482E+03  0.29778474143E+03  0.44634641578E+03  0.10100000352E+00 0. -1.
       -3    1    3    3    0  502  0.21447729861E+03  0.25406465482E+03 -0.56096445226E+03  0.65209699229E+03  0.10100000352E+00 0.  1.
</event>
<event>
 5   0  0.2078258E-03  0.1187649E+04  0.7818609E-02  0.9123736E-01
       -1   -1    0    0    0  501  0.00000000000E+00  0.00000000000E+00  0.36003818817E+03  0.36003818821E+03  0.50400001928E-02 0.  1.
        1   -1    0    0  501    0  0.00000000000E+00  0.00000000000E+00 -0.97941717638E+03  0.97941717640E+03  0.50400001928E-02 0. -1.
    10030    2    1    2    0    0  0.00000000000E+00  0.00000000000E+00 -0.61937898821E+03  0.13394553646E+04  0.11876490823E+04 0.  0.
        3    1    3    3  502    0  0.43580779699E+03 -0.18981492456E+03 -0.71108825121E+03  0.85533891103E+03  0.10100000352E+00 0. -1.
       -3    1    3    3    0  502 -0.43580779699E+03  0.18981492456E+03  0.91709263006E+02  0.48411645358E+03  0.10100000352E+00 0.  1.
</event>
<event>
 5   0  0.2047109E-03  0.1249156E+04  0.7818609E-02  0.9070886E-01
        1   -1    0    0  501    0  0.00000000000E+00  0.00000000000E+00  0.23171523189E+04  0.23171523189E+04  0.50400001928E-02 0. -1.
       -1   -1    0    0    0  501  0.00000000000E+00  0.00000000000E+00 -0.16835229507E+03  0.16835229514E+03  0.50400001928E-02 0.  1.
    10030    2    1    2    0    0  0.00000000000E+00  0.00000000000E+00  0.21488000239E+04  0.24855046141E+04  0.12491563729E+04 0.  0.
        1    1    3    3  502    0  0.51227813203E+01 -0.62423580977E+03  0.11142606455E+04  0.12772131284E+04  0.50400001928E-02 0. -1.
       -1    1    3    3    0  502 -0.51227813203E+01  0.62423580977E+03  0.10345393783E+04  0.12082914857E+04  0.50400001928E-02 0.  1.
</event>
<event>
 5   0  0.2134992E-03  0.1162929E+04  0.7818609E-02  0.9145938E-01
        1   -1    0    0  501    0  0.00000000000E+00  0.00000000000E+00  0.54087410655E+03  0.54087410657E+03  0.50400001928E-02 0.  1.
       -1   -1    0    0    0  501  0.00000000000E+00  0.00000000000E+00 -0.62510105259E+03  0.62510105261E+03  0.50400001928E-02 0. -1.
    10030    2    1    2    0    0  0.00000000000E+00  0.00000000000E+00 -0.84226946041E+02  0.11659751592E+04  0.11629290148E+04 0.  0.
        4    1    3    3  502    0  0.52477140241E+03 -0.15525245203E+03  0.15489807478E+03  0.56875598908E+03  0.12699999809E+01 0.  1.
       -4    1    3    3    0  502 -0.52477140241E+03  0.15525245203E+03 -0.23912502082E+03  0.59721917010E+03  0.12699999809E+01 0. -1.
</event>
<event>
 5   0  0.3706035E-03  0.1197595E+04  0.7818609E-02  0.9114965E-01
        2   -1    0    0  501    0  0.00000000000E+00  0.00000000000E+00  0.12868330515E+04  0.12868330515E+04  0.25500000920E-02 0.  1.
       -2   -1    0    0    0  501  0.00000000000E+00  0.00000000000E+00 -0.27863618175E+03  0.27863618176E+03  0.25500000920E-02 0. -1.
    10030    2    1    2    0    0  0.00000000000E+00  0.00000000000E+00  0.10081968697E+04  0.15654692332E+04  0.11975946694E+04 0.  0.
        2    1    3    3  502    0 -0.85923170348E+02 -0.65142648080E+02  0.12740382791E+04  0.12785929346E+04  0.25500000920E-02 0.  1.
       -2    1    3    3    0  502  0.85923170348E+02  0.65142648080E+02 -0.26584140935E+03  0.28687629866E+03  0.25500000920E-02 0. -1.
</event>
<event>
 5   0  0.3706035E-03  0.1209404E+04  0.7818609E-02  0.9104665E-01
       -2   -1    0    0    0  501  0.00000000000E+00  0.00000000000E+00  0.59313084491E+03  0.59313084492E+03  0.25500000920E-02 0. -1.
        2   -1    0    0  501    0  0.00000000000E+00  0.00000000000E+00 -0.61649893391E+03  0.61649893392E+03  0.25500000920E-02 0.  1.
    10030    2    1    2    0    0  0.00000000000E+00  0.00000000000E+00 -0.23368089001E+02  0.12096297788E+04  0.12094040409E+04 0.  0.
        2    1    3    3  502    0  0.48519612087E+03  0.35998899314E+03  0.13956314772E+02  0.60431955919E+03  0.25500000920E-02 0. -1.
       -2    1    3    3    0  502 -0.48519612087E+03 -0.35998899314E+03 -0.37324403774E+02  0.60531021965E+03  0.25500000920E-02 0.  1.
</event>
<event>
 5   0  0.3706035E-03  0.1203034E+04  0.7818609E-02  0.9110205E-01
       -2   -1    0    0    0  501  0.00000000000E+00  0.00000000000E+00  0.17408462437E+03  0.17408462439E+03  0.25500000920E-02 0.  1.
        2   -1    0    0  501    0  0.00000000000E+00  0.00000000000E+00 -0.20784300236E+04  0.20784300236E+04  0.25500000920E-02 0. -1.
    10030    2    1    2    0    0  0.00000000000E+00  0.00000000000E+00 -0.19043453992E+04  0.22525146480E+04  0.12030340144E+04 0.  0.
        2    1    3    3  502    0  0.29386371585E+03 -0.87312982245E+02 -0.19211867764E+04  0.19454917297E+04  0.25500000920E-02 0. -1.
       -2    1    3    3    0  502 -0.29386371585E+03  0.87312982245E+02  0.16841377212E+02  0.30702291829E+03  0.25500000920E-02 0.  1.
</event>
<event>
 5   0  0.2096270E-03  0.1146794E+04  0.7818609E-02  0.9160747E-01
       -1   -1    0    0    0  501  0.00000000000E+00  0.00000000000E+00  0.95607486142E+03  0.95607486143E+03  0.50400001928E-02 0.  1.
        1   -1    0    0  501    0  0.00000000000E+00  0.00000000000E+00 -0.34388938757E+03  0.34388938761E+03  0.50400001928E-02 0. -1.
    10030    2    1    2    0    0  0.00000000000E+00  0.00000000000E+00  0.61218547384E+03  0.12999642490E+04  0.11467937890E+04 0.  0.
        2    1    3    3  502    0 -0.27068987665E+02  0.57189705374E+03  0.27051564411E+03  0.63322798729E+03  0.25500000920E-02 0. -1.
       -2    1    3    3    0  502  0.27068987665E+02 -0.57189705374E+03  0.34166982973E+03  0.66673626175E+03  0.25500000920E-02 0.  1.
</event>
<event>
 5   0  0.2134992E-03  0.8896988E+03  0.7818609E-02  0.9438551E-01
       -1   -1    0    0    0  501  0.00000000000E+00  0.00000000000E+00  0.99180104701E+02  0.99180104829E+02  0.50400001928E-02 0.  1.
        1   -1    0    0  501    0  0.00000000000E+00  0.00000000000E+00 -0.19952690649E+04  0.19952690649E+04  0.50400001928E-02 0. -1.
    10030    2    1    2    0    0  0.00000000000E+00  0.00000000000E+00 -0.18960889602E+04  0.20944491697E+04  0.88969881399E+03 0.  0.
        4    1    3    3  502    0  0.98016145357E+02 -0.38332531525E+03 -0.46937841565E+03  0.61389182438E+03  0.12699999809E+01 0.  1.
       -4    1    3    3    0  502 -0.98016145357E+02  0.38332531525E+03 -0.14267105445E+04  0.14805573453E+04  0.12699999809E+01 0. -1.
</event>
<event>
 5   0  0.2078258E-03  0.1197690E+04  0.7818609E-02  0.9114881E-01
        1   -1    0    0  501    0  0.00000000000E+00  0.00000000000E+00  0.13459793698E+04  0.13459793698E+04  0.50400001928E-02 0.  1.
       -1   -1    0    0    0  501  0.00000000000E+00  0.00000000000E+00 -0.26643439299E+03  0.26643439303E+03  0.50400001928E-02 0. -1.
    10030    2    1    2    0    0  0.00000000000E+00  0.00000000000E+00  0.10795449768E+04  0.16124137628E+04  0.11976897702E+04 0.  0.
        3    1    3    3  502    0  0.51744077193E+02 -0.11945531233E+03 -0.24715445257E+03  0.27934271924E+03  0.10100000352E+00 0. -1.
       -3    1    3    3    0  502 -0.51744077193E+02  0.11945531233E+03  0.13266994294E+04  0.13330710436E+04  0.10100000352E+00 0.  1.
</event>
<event>
 5   0  0.3751091E-03  0.1207788E+04  0.7818609E-02  0.9106067E-01
        2   -1    0    0  501    0  0.00000000000E+00  0.00000000000E+00  0.54569559762E+03  0.54569559763E+03  0.25500000920E-02 0. -1.
       -2   -1    0    0    0  501  0.00000000000E+00  0.00000000000E+00 -0.66829973821E+03  0.66829973821E+03  0.25500000920E-02 0.  1.
    10030    2    1    2    0    0  0.00000000000E+00  0.00000000000E+00 -0.12260414059E+03  0.12139953358E+04  0.12077884335E+04 0.  0.
        5    1    3    3  502    0  0.28013134138E+03  0.50082436556E+03 -0.25033108251E+03  0.62608813631E+03  0.46999998093E+01 0.  1.
       -5    1    3    3    0  502 -0.28013134138E+03 -0.50082436556E+03  0.12772694192E+03  0.58790719953E+03  0.46999998093E+01 0. -1.
</event>
<event>
 5   0  0.2134992E-03  0.1198439E+04  0.7818609E-02  0.9114224E-01
        1   -1    0    0  501    0  0.00000000000E+00  0.00000000000E+00  0.80465468107E+03  0.80465468109E+03  0.50400001928E-02 0. -1.
       -1   -1    0    0    0  501  0.00000000000E+00  0.00000000000E+00 -0.44623359922E+03  0.44623359925E+03  0.50400001928E-02 0.  1.
    10030    2    1    2    0    0  0.00000000000E+00  0.00000000000E+00  0.35842108186E+03  0.12508882803E+04  0.11984389087E+04 0.  0.
        4    1    3    3  502    0 -0.14873444681E+02  0.38103250010E+03 -0.30324746269E+03  0.48720388136E+03  0.12699999809E+01 0.  1.
       -4    1    3    3    0  502  0.14873444681E+02 -0.38103250010E+03  0.66166854455E+03  0.76368439897E+03  0.12699999809E+01 0. -1.
</event>
<event>
 5   0  0.3751091E-03  0.1192117E+04  0.7818609E-02  0.9119785E-01
       -2   -1    0    0    0  501  0.00000000000E+00  0.00000000000E+00  0.11786713142E+04  0.11786713142E+04  0.25500000920E-02 0.  1.
        2   -1    0    0  501    0  0.00000000000E+00  0.00000000000E+00 -0.30142878689E+03  0.30142878690E+03  0.25500000920E-02 0. -1.
    10030    2    1    2    0    0  0.00000000000E+00  0.00000000000E+00  0.87724252730E+03  0.14801001011E+04  0.11921165453E+04 0.  0.
        5    1    3    3  502    0  0.20133086179E+03  0.91798484569E+01  0.11350597813E+04  0.11528231359E+04  0.46999998093E+01 0.  1.
       -5    1    3    3    0  502 -0.20133086179E+03 -0.91798484569E+01 -0.25781725397E+03  0.32727696523E+03  0.46999998093E+01 0. -1.
</event>
<event>
 5   0  0.2134992E-03  0.1206947E+04  0.7818609E-02  0.9106798E-01
        1   -1    0    0  501    0  0.00000000000E+00  0.00000000000E+00  0.53675589216E+03  0.53675589218E+03  0.50400001928E-02 0.  1.
       -1   -1    0    0    0  501  0.00000000000E+00  0.00000000000E+00 -0.67848342284E+03  0.67848342286E+03  0.50400001928E-02 0. -1.
    10030    2    1    2    0    0  0.00000000000E+00  0.00000000000E+00 -0.14172753068E+03  0.12152393150E+04  0.12069465191E+04 0.  0.
        4    1    3    3  502    0  0.10225461657E+03 -0.35252924069E+03  0.41143210959E+03  0.55137180365E+03  0.12699999809E+01 0.  1.
       -4    1    3    3    0  502 -0.10225461657E+03  0.35252924069E+03 -0.55315964027E+03  0.66386751139E+03  0.12699999809E+01 0. -1.
</event>
<event>
 5   0  0.2025294E-03  0.1198395E+04  0.7818609E-02  0.9114262E-01
        1   -1    0    0  501    0  0.00000000000E+00  0.00000000000E+00  0.17378028728E+04  0.17378028728E+04  0.50400001928E-02 0.  1.
       -1   -1    0    0    0  501  0.00000000000E+00  0.00000000000E+00 -0.20660442906E+03  0.20660442913E+03  0.50400001928E-02 0. -1.
    10030    2    1    2    0    0  0.00000000000E+00  0.00000000000E+00  0.15311984437E+04  0.19444073019E+04  0.11983952110E+04 0.  0.
        5    1    3    3  502    0 -0.22785773456E+03  0.50388739122E+03  0.11398120113E+04  0.12668919296E+04  0.46999998093E+01 0.  1.
       -5    1    3    3    0  502  0.22785773456E+03 -0.50388739122E+03  0.39138643242E+03  0.67751537230E+03  0.46999998093E+01 0. -1.
</event>
<event>
 5   0  0.2078258E-03  0.1202132E+04  0.7818609E-02  0.9110992E-01
       -1   -1    0    0    0  501  0.00000000000E+00  0.00000000000E+00  0.89579461846E+03  0.89579461848E+03  0.50400001928E-02 0. -1.
        1   -1    0    0  501    0  0.00000000000E+00  0.00000000000E+00 -0.40330743090E+03  0.40330743093E+03  0.50400001928E-02 0.  1.
    10030    2    1    2    0    0  0.00000000000E+00  0.00000000000E+00  0.49248718756E+03  0.12991020494E+04  0.12021324822E+04 0.  0.
        3    1    3    3  502    0  0.54462716191E+03  0.15297729853E+03  0.46575373170E+03  0.73276691257E+03  0.10100000352E+00 0. -1.
       -3    1    3    3    0  502 -0.54462716191E+03 -0.15297729853E+03  0.26733455864E+02  0.56633513684E+03  0.10100000352E+00 0.  1.
</event>
<event>
 5   0  0.2078258E-03  0.1204708E+04  0.7818609E-02  0.9108746E-01
       -1   -1    0    0    0  501  0.00000000000E+00  0.00000000000E+00  0.47394792159E+03  0.47394792162E+03  0.50400001928E-02 0. -1.
        1   -1    0    0  501    0  0.00000000000E+00  0.00000000000E+00 -0.76554849083E+03  0.76554849084E+03  0.50400001928E-02 0.  1.
    10030    2    1    2    0    0  0.00000000000E+00  0.00000000000E+00 -0.29160056923E+03  0.12394964125E+04  0.12047076262E+04 0.  0.
        3    1    3    3  502    0  0.93046976119E+02 -0.47776701458E+03 -0.51088657971E+03  0.70563741930E+03  0.10100000352E+00 0.  1.
       -3    1    3    3    0  502 -0.93046976119E+02  0.47776701458E+03  0.21928601047E+03  0.53385899316E+03  0.10100000352E+00 0. -1.
</event>
<event>
 5   0  0.3725376E-03  0.1190255E+04  0.7818609E-02  0.9121430E-01
        2   -1    0    0  501    0  0.00000000000E+00  0.00000000000E+00  0.20260035645E+04  0.20260035645E+04  0.25500000920E-02 0.  1.
       -2   -1    0    0    0  501  0.00000000000E+00  0.00000000000E+00 -0.17481535230E+03  0.17481535232E+03  0.25500000920E-02 0. -1.
    10030    2    1    2    0    0  0.00000000000E+00  0.00000000000E+00  0.18511882122E+04  0.22008189168E+04  0.11902546398E+04 0.  0.
        4    1    3    3  502    0  0.36477384431E+03 -0.19154840096E+03  0.13153406481E+03  0.43249690232E+03  0.12699999809E+01 0. -1.
       -4    1    3    3    0  502 -0.36477384431E+03  0.19154840096E+03  0.17196541474E+04  0.17683220145E+04  0.12699999809E+01 0.  1.
</event>
<event>
 5   0  0.3706035E-03  0.1159069E+04  0.7818609E-02  0.9149457E-01
        2   -1    0    0  501    0  0.00000000000E+00  0.00000000000E+00  0.49609491405E+03  0.49609491405E+03  0.25500000920E-02 0. -1.
       -2   -1    0    0    0  501  0.00000000000E+00  0.00000000000E+00 -0.67700852608E+03  0.67700852609E+03  0.25500000920E-02 0.  1.
    10030    2    1    2    0    0  0.00000000000E+00  0.00000000000E+00 -0.18091361203E+03  0.11731034401E+04  0.11590694312E+04 0.  0.
        2    1    3    3  502    0  0.31946033343E+03 -0.48152727161E+03 -0.45911765403E+02  0.57968207506E+03  0.25500000920E-02 0.  1.
       -2    1    3    3    0  502 -0.31946033343E+03  0.48152727161E+03 -0.13500184663E+03  0.59342136508E+03  0.25500000920E-02 0. -1.
</event>
<event>
 5   0  0.2078258E-03  0.1382106E+04  0.7818609E-02  0.8966874E-01
       -1   -1    0    0    0  501  0.00000000000E+00  0.00000000000E+00  0.63779574841E+03  0.63779574843E+03  0.50400001928E-02 0.  1.
        1   -1    0    0  501    0  0.00000000000E+00  0.00000000000E+00 -0.74875781778E+03  0.74875781780E+03  0.50400001928E-02 0. -1.
    10030    2    1    2    0    0  0.00000000000E+00  0.00000000000E+00 -0.11096206937E+03  0.13865535662E+04  0.13821064399E+04 0.  0.
        3    1    3    3  502    0  0.44022795746E+03  0.47744707876E+03 -0.29245746823E+03  0.71224135549E+03  0.10100000352E+00 0. -1.
       -3    1    3    3    0  502 -0.44022795746E+03 -0.47744707876E+03  0.18149539886E+03  0.67431221074E+03  0.10100000352E+00 0.  1.
</event>
<event>
 5   0  0.3650180E-03  0.1221516E+04  0.7818609E-02  0.9094229E-01
        2   -1    0    0  501    0  0.00000000000E+00  0.00000000000E+00  0.96339800494E+03  0.96339800494E+03  0.25500000920E-02 0.  1.
       -2   -1    0    0    0  501  0.00000000000E+00  0.00000000000E+00 -0.38719773009E+03  0.38719773009E+03  0.25500000920E-02 0. -1.
    10030    2    1    2    0    0  0.00000000000E+00  0.00000000000E+00  0.57620027485E+03  0.13505957350E+04  0.12215163047E+04 0.  0.
        3    1    3    3  502    0  0.30642952425E+03 -0.11277572776E+03 -0.28258927050E+03  0.43182649768E+03  0.10100000352E+00 0. -1.
       -3    1    3    3    0  502 -0.30642952425E+03  0.11277572776E+03  0.85878954535E+03  0.91876923735E+03  0.10100000352E+00 0.  1.
</event>
<event>
 5   0  0.2047109E-03  0.1243631E+04  0.7818609E-02  0.9075501E-01
        1   -1    0    0  501    0  0.00000000000E+00  0.00000000000E+00  0.48931419831E+03  0.48931419834E+03  0.50400001928E-02 0. -1.
       -1   -1    0    0    0  501  0.00000000000E+00  0.00000000000E+00 -0.79019735127E+03  0.79019735129E+03  0.50400001928E-02 0.  1.
    10030    2    1    2    0    0  0.00000000000E+00  0.00000000000E+00 -0.30088315296E+03  0.12795115496E+04  0.12436314301E+04 0.  0.
        1    1    3    3  502    0  0.54429692348E+03  0.36448404776E+01  0.15886870347E+03  0.56702000912E+03  0.50400001928E-02 0. -1.
       -1    1    3    3    0  502 -0.54429692348E+03 -0.36448404776E+01 -0.45975185643E+03  0.71249154051E+03  0.50400001928E-02 0.  1.
</event>
<event>
 5   0  0.2134992E-03  0.1213641E+04  0.7818609E-02  0.9101000E-01
       -1   -1    0    0    0  501  0.00000000000E+00  0.00000000000E+00  0.21516515118E+03  0.21516515124E+03  0.50400001928E-02 0. -1.
        1   -1    0    0  501    0  0.00000000000E+00  0.00000000000E+00 -0.17113873444E+04  0.17113873444E+04  0.50400001928E-02 0.  1.
    10030    2    1    2    0    0  0.00000000000E+00  0.00000000000E+00 -0.14962221933E+04  0.19265524957E+04  0.12136406664E+04 0.  0.
        4    1    3    3  502    0  0.41810177844E+03  0.10284960603E+03 -0.69331303769E+02  0.43611418365E+03  0.12699999809E+01 0. -1.
       -4    1    3    3    0  502 -0.41810177844E+03 -0.10284960603E+03 -0.14268908895E+04  0.14904383120E+04  0.12699999809E+01 0.  1.
</event>
<event>
 5   0  0.2025294E-03  0.1195009E+04  0.7818609E-02  0.9117236E-01
       -1   -1    0    0    0  501  0.00000000000E+00  0.00000000000E+00  0.32022615975E+03  0.32022615979E+03  0.50400001928E-02 0.  1.
        1   -1    0    0  501    0  0.00000000000E+00  0.00000000000E+00 -0.11148740470E+04  0.11148740470E+04  0.50400001928E-02 0. -1.
    10030    2    1    2    0    0  0.00000000000E+00  0.00000000000E+00 -0.79464788721E+03  0.14351002068E+04  0.11950093467E+04 0.  0.
        5    1    3    3  502    0 -0.28691862252E+03 -0.79745453403E+02 -0.10193775697E+04  0.10619954581E+04  0.46999998093E+01 0. -1.
       -5    1    3    3    0  502  0.28691862252E+03  0.79745453403E+02  0.22472968253E+03  0.37310474869E+03  0.46999998093E+01 0.  1.
</event>
<event>
 5   0  0.3650180E-03  0.1191396E+04  0.7818609E-02  0.9120421E-01
       -2   -1    0    0    0  501  0.00000000000E+00  0.00000000000E+00  0.39290330401E+03  0.39290330402E+03  0.25500000920E-02 0. -1.
        2   -1    0    0  501    0  0.00000000000E+00  0.00000000000E+00 -0.90316340418E+03  0.90316340418E+03  0.25500000920E-02 0.  1.
    10030    2    1    2    0    0  0.00000000000E+00  0.00000000000E+00 -0.51026010017E+03  0.12960667082E+04  0.11913956279E+04 0.  0.
        3    1    3    3  502    0 -0.27533235490E+03 -0.83572391826E+02  0.31229250272E+03  0.42463969172E+03  0.10100000352E+00 0. -1.
       -3    1    3    3    0  502  0.27533235490E+03  0.83572391826E+02 -0.82255260289E+03  0.87142701648E+03  0.10100000352E+00 0.  1.
</event>
<event>
 5   0  0.2047109E-03  0.1270367E+04  0.7818609E-02  0.9053400E-01
        1   -1    0    0  501    0  0.00000000000E+00  0.00000000000E+00  0.77235984313E+03  0.77235984315E+03  0.50400001928E-02 0. -1.
       -1   -1    0    0    0  501  0.00000000000E+00  0.00000000000E+00 -0.52237038492E+03  0.52237038494E+03  0.50400001928E-02 0.  1.
    10030    2    1    2    0    0  0.00000000000E+00  0.00000000000E+00  0.24998945821E+03  0.12947302281E+04  0.12703667322E+04 0.  0.
        1    1    3    3  502    0  0.44822416975E+03 -0.81748730478E+02  0.57605471335E+03  0.73445680206E+03  0.50400001928E-02 0. -1.
       -1    1    3    3    0  502 -0.44822416975E+03  0.81748730478E+02 -0.32606525514E+03  0.56027342604E+03  0.50400001928E-02 0.  1.
</event>
<event>
 5   0  0.3626049E-03  0.1204079E+04  0.7818609E-02  0.9109293E-01
        2   -1    0    0  501    0  0.00000000000E+00  0.00000000000E+00  0.48779841031E+03  0.48779841031E+03  0.25500000920E-02 0. -1.
       -2   -1    0    0    0  501  0.00000000000E+00  0.00000000000E+00 -0.74303581323E+03  0.74303581324E+03  0.25500000920E-02 0.  1.
    10030    2    1    2    0    0  0.00000000000E+00  0.00000000000E+00 -0.25523740293E+03  0.12308342236E+04  0.12040792142E+04 0.  0.
        1    1    3    3  502    0  0.71198098691E+02 -0.23288651725E+03 -0.69044023346E+03  0.73212909735E+03  0.50400001928E-02 0.  1.
       -1    1    3    3    0  502 -0.71198098691E+02  0.23288651725E+03  0.43520283053E+03  0.49870512621E+03  0.50400001928E-02 0. -1.
</event>
<event>
 5   0  0.2134992E-03  0.1249698E+04  0.7818609E-02  0.9070435E-01
        1   -1    0    0  501    0  0.00000000000E+00  0.00000000000E+00  0.64543142849E+03  0.64543142851E+03  0.50400001928E-02 0. -1.
       -1   -1    0    0    0  501  0.00000000000E+00  0.00000000000E+00 -0.60492251808E+03  0.60492251811E+03  0.50400001928E-02 0.  1.
    10030    2    1    2    0    0  0.00000000000E+00  0.00000000000E+00  0.40508910406E+02  0.12503539466E+04  0.12496975714E+04 0.  0.
        4    1    3    3  502    0  0.18188370159E+03 -0.12790287011E+03  0.60450770449E+03  0.64410558356E+03  0.12699999809E+01 0. -1.
       -4    1    3    3    0  502 -0.18188370159E+03  0.12790287011E+03 -0.56399879408E+03  0.60624836306E+03  0.12699999809E+01 0.  1.
</event>
<event>
 5   0  0.2025294E-03  0.9948648E+03  0.7818609E-02  0.9314195E-01
       -1   -1    0    0    0  501  0.00000000000E+00  0.00000000000E+00  0.26271525802E+03  0.26271525807E+03  0.50400001928E-02 0.  1.
        1   -1    0    0  501    0  0.00000000000E+00  0.00000000000E+00 -0.94185236393E+03  0.94185236394E+03  0.50400001928E-02 0. -1.
    10030    2    1    2    0    0  0.00000000000E+00  0.00000000000E+00 -0.67913710590E+03  0.12045676220E+04  0.99486478849E+03 0.  0.
        5    1    3    3  502    0 -0.12779681333E+03 -0.17962687213E+01 -0.92160455701E+03  0.93043661879E+03  0.46999998093E+01 0. -1.
       -5    1    3    3    0  502  0.12779681333E+03  0.17962687213E+01  0.24246745111E+03  0.27413100322E+03  0.46999998093E+01 0.  1.
</event>
<event>
 5   0  0.2096270E-03  0.1207348E+04  0.7818609E-02  0.9106449E-01
        1   -1    0    0  501    0  0.00000000000E+00  0.00000000000E+00  0.26793851220E+03  0.26793851225E+03  0.50400001928E-02 0.  1.
       -1   -1    0    0    0  501  0.00000000000E+00  0.00000000000E+00 -0.13600957501E+04  0.13600957501E+04  0.50400001928E-02 0. -1.
    10030    2    1    2    0    0  0.00000000000E+00  0.00000000000E+00 -0.10921572379E+04  0.16280342624E+04  0.12073475585E+04 0.  0.
        2    1    3    3  502    0 -0.37762292977E+03 -0.39236982572E+03 -0.89736924088E+03  0.10496783849E+04  0.25500000920E-02 0. -1.
       -2    1    3    3    0  502  0.37762292977E+03  0.39236982572E+03 -0.19478799704E+03  0.57835587749E+03  0.25500000920E-02 0.  1.
</event>
<event>
 5   0  0.2096270E-03  0.1084136E+04  0.7818609E-02  0.9220794E-01
        1   -1    0    0  501    0  0.00000000000E+00  0.00000000000E+00  0.26806511390E+03  0.26806511394E+03  0.50400001928E-02 0.  1.
       -1   -1    0    0    0  501  0.00000000000E+00  0.00000000000E+00 -0.10961426050E+04  0.10961426050E+04  0.50400001928E-02 0. -1.
    10030    2    1    2    0    0  0.00000000000E+00  0.00000000000E+00 -0.82807749114E+03  0.13642077190E+04  0.10841357707E+04 0.  0.
        2    1    3    3  502    0 -0.62550260370E+01  0.49781341801E+03 -0.68386398845E+03  0.84588845554E+03  0.25500000920E-02 0. -1.
       -2    1    3    3    0  502  0.62550260370E+01 -0.49781341801E+03 -0.14421350269E+03  0.51831926346E+03  0.25500000920E-02 0.  1.
</event>
<event>
 5   0  0.2025294E-03  0.1185876E+04  0.7818609E-02  0.9125310E-01
       -1   -1    0    0    0  501  0.00000000000E+00  0.00000000000E+00  0.21080010366E+03  0.21080010372E+03  0.50400001928E-02 0.  1.
        1   -1    0    0  501    0  0.00000000000E+00  0.00000000000E+00 -0.16678133446E+04  0.16678133446E+04  0.50400001928E-02 0. -1.
    10030    2    1    2    0    0  0.00000000000E+00  0.00000000000E+00 -0.14570132409E+04  0.18786134483E+04  0.11858755854E+04 0.  0.
        5    1    3    3  502    0  0.17060890593E+03  0.76680580148E+02 -0.16198197704E+04  0.16305905337E+04  0.46999998093E+01 0. -1.
       -5    1    3    3    0  502 -0.17060890593E+03 -0.76680580148E+02  0.16280652943E+03  0.24802291462E+03  0.46999998093E+01 0.  1.
</event>
<event>
 5   0  0.3706035E-03  0.1200874E+04  0.7818609E-02  0.9112092E-01
       -2   -1    0    0    0  501  0.00000000000E+00  0.00000000000E+00  0.36728499756E+03  0.36728499757E+03  0.25500000920E-02 0. -1.
        2   -1    0    0  501    0  0.00000000000E+00  0.00000000000E+00 -0.98159337827E+03  0.98159337827E+03  0.25500000920E-02 0.  1.
    10030    2    1    2    0    0  0.00000000000E+00  0.00000000000E+00 -0.61430838071E+03  0.13488783758E+04  0.12008738844E+04 0.  0.
        2    1    3    3  502    0  0.42590884644E+03  0.36763526485E+03 -0.71618873623E+02  0.56717131143E+03  0.25500000920E-02 0. -1.
       -2    1    3    3    0  502 -0.42590884644E+03 -0.36763526485E+03 -0.54268950709E+03  0.78170706441E+03  0.25500000920E-02 0.  1.
</event>
<event>
 5   0  0.2047109E-03  0.1209314E+04  0.7818609E-02  0.9104743E-01
       -1   -1    0    0    0  501  0.00000000000E+00  0.00000000000E+00  0.27499247171E+03  0.27499247176E+03  0.50400001928E-02 0.  1.
        1   -1    0    0  501    0  0.00000000000E+00  0.00000000000E+00 -0.13295281250E+04  0.13295281250E+04  0.50400001928E-02 0. -1.
    10030    2    1    2    0    0  0.00000000000E+00  0.00000000000E+00 -0.10545356533E+04  0.16045205968E+04  0.12093142277E+04 0.  0.
        1    1    3    3  502    0 -0.15538493646E+03 -0.10159484371E+02 -0.13024683538E+04  0.13117436892E+04  0.50400001928E-02 0. -1.
       -1    1    3    3    0  502  0.15538493646E+03  0.10159484371E+02  0.24793270048E+03  0.29277690755E+03  0.50400001928E-02 0.  1.
</event>
<event>
 5   0  0.2047109E-03  0.1197062E+04  0.7818609E-02  0.9115432E-01
       -1   -1    0    0    0  501  0.00000000000E+00  0.00000000000E+00  0.44751843180E+03  0.44751843183E+03  0.50400001928E-02 0. -1.
        1   -1    0    0  501    0  0.00000000000E+00  0.00000000000E+00 -0.80050167481E+03  0.80050167482E+03  0.50400001928E-02 0.  1.
    10030    2    1    2    0    0  0.00000000000E+00  0.00000000000E+00 -0.35298324300E+03  0.12480201067E+04  0.11970618266E+04 0.  0.
        1    1    3    3  502    0 -0.41911750285E+03 -0.10018353323E+03  0.25657400498E+03  0.50152411864E+03  0.50400001928E-02 0. -1.
       -1    1    3    3    0  502  0.41911750285E+03  0.10018353323E+03 -0.60955724799E+03  0.74649598801E+03  0.50400001928E-02 0.  1.
</event>
<event>
 5   0  0.2047109E-03  0.1207831E+04  0.7818609E-02  0.9106029E-01
        1   -1    0    0  501    0  0.00000000000E+00  0.00000000000E+00  0.11758975973E+04  0.11758975973E+04  0.50400001928E-02 0. -1.
       -1   -1    0    0    0  501  0.00000000000E+00  0.00000000000E+00 -0.31015805161E+03  0.31015805165E+03  0.50400001928E-02 0.  1.
    10030    2    1    2    0    0  0.00000000000E+00  0.00000000000E+00  0.86573954571E+03  0.14860556490E+04  0.12078312924E+04 0.  0.
        1    1    3    3  502    0 -0.39700618188E+03  0.17173159957E+03 -0.85644381775E+02  0.44095420498E+03  0.50400001928E-02 0.  1.
       -1    1    3    3    0  502  0.39700618188E+03 -0.17173159957E+03  0.95138392748E+03  0.10451014440E+04  0.50400001928E-02 0. -1.
</event>
<event>
 5   0  0.3725376E-03  0.1207682E+04  0.7818609E-02  0.9106159E-01
        2   -1    0    0  501    0  0.00000000000E+00  0.00000000000E+00  0.15511183738E+04  0.15511183738E+04  0.25500000920E-02 0.  1.
       -2   -1    0    0    0  501  0.00000000000E+00  0.00000000000E+00 -0.23507161579E+03  0.23507161580E+03  0.25500000920E-02 0. -1.
    10030    2    1    2    0    0  0.00000000000E+00  0.00000000000E+00  0.13160467580E+04  0.17861899896E+04  0.12076819158E+04 0.  0.
        4    1    3    3  502    0  0.65567721407E+02  0.50342683027E+03  0.11415636347E+04  0.12493625753E+04  0.12699999809E+01 0. -1.
       -4    1    3    3    0  502 -0.65567721407E+02 -0.50342683027E+03  0.17448312327E+03  0.53682741429E+03  0.12699999809E+01 0.  1.
</event>
<event>
 5   0  0.2078258E-03  0.1162929E+04  0.7818609E-02  0.9145938E-01
       -1   -1    0    0    0  501  0.00000000000E+00  0.00000000000E+00  0.25878819602E+03  0.25878819607E+03  0.50400001928E-02 0.  1.
        1   -1    0    0  501    0  0.00000000000E+00  0.00000000000E+00 -0.13064780737E+04  0.13064780737E+04  0.50400001928E-02 0. -1.
    10030    2    1    2    0    0  0.00000000000E+00  0.00000000000E+00 -0.10476898777E+04  0.15652662698E+04  0.11629292393E+04 0.  0.
        3    1    3    3  502    0  0.43797242051E+03 -0.48994518593E+01 -0.90981628009E+01  0.43809431921E+03  0.10100000352E+00 0.  1.
       -3    1    3    3    0  502 -0.43797242051E+03  0.48994518593E+01 -0.10385917148E+04  0.11271719506E+04  0.10100000352E+00 0. -1.
</event>
<event>
 5   0  0.3725376E-03  0.8679940E+03  0.7818609E-02  0.9466499E-01
        2   -1    0    0  501    0  0.00000000000E+00  0.00000000000E+00  0.94403640693E+03  0.94403640693E+03  0.25500000920E-02 0.  1.
       -2   -1    0    0    0  501  0.00000000000E+00  0.00000000000E+00 -0.19951922017E+03  0.19951922018E+03  0.25500000920E-02 0. -1.
    10030    2    1    2    0    0  0.00000000000E+00  0.00000000000E+00  0.74451718676E+03  0.11435556271E+04  0.86799402701E+03 0.  0.
        4    1    3    3  502    0  0.22287076537E+03 -0.20401619349E+03 -0.38187192960E+02  0.30455518361E+03  0.12699999809E+01 0. -1.
       -4    1    3    3    0  502 -0.22287076537E+03  0.20401619349E+03  0.78270437972E+03  0.83900044350E+03  0.12699999809E+01 0.  1.
</event>
<event>
 5   0  0.3650180E-03  0.1204494E+04  0.7818609E-02  0.9108932E-01
       -2   -1    0    0    0  501  0.00000000000E+00  0.00000000000E+00  0.30174645287E+03  0.30174645288E+03  0.25500000920E-02 0. -1.
        2   -1    0    0  501    0  0.00000000000E+00  0.00000000000E+00 -0.12020070442E+04  0.12020070442E+04  0.25500000920E-02 0.  1.
    10030    2    1    2    0    0  0.00000000000E+00  0.00000000000E+00 -0.90026059129E+03  0.15037534970E+04  0.12044938554E+04 0.  0.
        3    1    3    3  502    0  0.33698859347E+03 -0.10004516120E+03 -0.10606363938E+04  0.11173718792E+04  0.10100000352E+00 0.  1.
       -3    1    3    3    0  502 -0.33698859347E+03  0.10004516120E+03  0.16037580246E+03  0.38638161787E+03  0.10100000352E+00 0. -1.
</event>
<event>
 5   0  0.3626049E-03  0.1207345E+04  0.7818609E-02  0.9106452E-01
        2   -1    0    0  501    0  0.00000000000E+00  0.00000000000E+00  0.60488133406E+03  0.60488133407E+03  0.25500000920E-02 0.  1.
       -2   -1    0    0    0  501  0.00000000000E+00  0.00000000000E+00 -0.60246620785E+03  0.60246620785E+03  0.25500000920E-02 0. -1.
    10030    2    1    2    0    0  0.00000000000E+00  0.00000000000E+00  0.24151262149E+01  0.12073475419E+04  0.12073451264E+04 0.  0.
        1    1    3    3  502    0  0.30875176546E+03 -0.32621276434E+03  0.40454215643E+03  0.60448058417E+03  0.50400001928E-02 0.  1.
       -1    1    3    3    0  502 -0.30875176546E+03  0.32621276434E+03 -0.40212703021E+03  0.60286695775E+03  0.50400001928E-02 0. -1.
</event>
<event>
 5   0  0.3725376E-03  0.1192519E+04  0.7818609E-02  0.9119430E-01
        2   -1    0    0  501    0  0.00000000000E+00  0.00000000000E+00  0.11673344251E+04  0.11673344251E+04  0.25500000920E-02 0. -1.
       -2   -1    0    0    0  501  0.00000000000E+00  0.00000000000E+00 -0.30456152796E+03  0.30456152797E+03  0.25500000920E-02 0.  1.
    10030    2    1    2    0    0  0.00000000000E+00  0.00000000000E+00  0.86277289717E+03  0.14718959531E+04  0.11925186056E+04 0.  0.
        4    1    3    3  502    0 -0.43925153079E+03  0.13581609509E+03 -0.37208512677E+02  0.46127432760E+03  0.12699999809E+01 0.  1.
       -4    1    3    3    0  502  0.43925153079E+03 -0.13581609509E+03  0.89998140985E+03  0.10106216255E+04  0.12699999809E+01 0. -1.
</event>
<event>
 5   0  0.2078258E-03  0.1251776E+04  0.7818609E-02  0.9068707E-01
       -1   -1    0    0    0  501  0.00000000000E+00  0.00000000000E+00  0.58520533285E+03  0.58520533287E+03  0.50400001928E-02 0. -1.
        1   -1    0    0  501    0  0.00000000000E+00  0.00000000000E+00 -0.66939855952E+03  0.66939855954E+03  0.50400001928E-02 0.  1.
    10030    2    1    2    0    0  0.00000000000E+00  0.00000000000E+00 -0.84193226669E+02  0.12546038924E+04  0.12517757097E+04 0.  0.
        3    1    3    3  502    0  0.15250274273E+03  0.26796378327E+03  0.50381181111E+03  0.59066744188E+03  0.10100000352E+00 0. -1.
       -3    1    3    3    0  502 -0.15250274273E+03 -0.26796378327E+03 -0.58800503778E+03  0.66393645053E+03  0.10100000352E+00 0.  1.
</event>
<event>
 5   0  0.3650180E-03  0.1006646E+04  0.7818609E-02  0.9301286E-01
        2   -1    0    0  501    0  0.00000000000E+00  0.00000000000E+00  0.17425289559E+03  0.17425289561E+03  0.25500000920E-02 0.  1.
       -2   -1    0    0    0  501  0.00000000000E+00  0.00000000000E+00 -0.14538283640E+04  0.14538283640E+04  0.25500000920E-02 0. -1.
    10030    2    1    2    0    0  0.00000000000E+00  0.00000000000E+00 -0.12795754684E+04  0.16280812597E+04  0.10066455228E+04 0.  0.
        3    1    3    3  502    0  0.22074112744E+03 -0.16377204012E+03  0.42155344813E+02  0.27807374879E+03  0.10100000352E+00 0.  1.
       -3    1    3    3    0  502 -0.22074112744E+03  0.16377204012E+03 -0.13217308133E+04  0.13500075109E+04  0.10100000352E+00 0. -1.
</event>
<event>
 5   0  0.2078258E-03  0.1160762E+04  0.7818609E-02  0.9147912E-01
       -1   -1    0    0    0  501  0.00000000000E+00  0.00000000000E+00  0.84265009434E+03  0.84265009435E+03  0.50400001928E-02 0. -1.
        1   -1    0    0  501    0  0.00000000000E+00  0.00000000000E+00 -0.39974171045E+03  0.39974171049E+03  0.50400001928E-02 0.  1.
    10030    2    1    2    0    0  0.00000000000E+00  0.00000000000E+00  0.44290838388E+03  0.12423918048E+04  0.11607624909E+04 0.  0.
        3    1    3    3  502    0 -0.50695080773E+03 -0.26950700149E+03  0.31233240724E+03  0.65359367203E+03  0.10100000352E+00 0. -1.
       -3    1    3    3    0  502  0.50695080773E+03  0.26950700149E+03  0.13057597664E+03  0.58879813280E+03  0.10100000352E+00 0.  1.
</event>
<event>
 5   0  0.3725376E-03  0.1206782E+04  0.7818609E-02  0.9106941E-01
       -2   -1    0    0    0  501  0.00000000000E+00  0.00000000000E+00  0.10265274795E+04  0.10265274795E+04  0.25500000920E-02 0.  1.
        2   -1    0    0  501    0  0.00000000000E+00  0.00000000000E+00 -0.35467224082E+03  0.35467224083E+03  0.25500000920E-02 0. -1.
    10030    2    1    2    0    0  0.00000000000E+00  0.00000000000E+00  0.67185523871E+03  0.13811997204E+04  0.12067821700E+04 0.  0.
        4    1    3    3  502    0  0.54979569067E+03  0.16100357999E+03  0.11912510742E+03  0.58514088763E+03  0.12699999809E+01 0. -1.
       -4    1    3    3    0  502 -0.54979569067E+03 -0.16100357999E+03  0.55273013129E+03  0.79605883274E+03  0.12699999809E+01 0.  1.
</event>
<event>
 5   0  0.3706035E-03  0.1174299E+04  0.7818609E-02  0.9135655E-01
        2   -1    0    0  501    0  0.00000000000E+00  0.00000000000E+00  0.34083196713E+03  0.34083196714E+03  0.25500000920E-02 0.  1.
       -2   -1    0    0    0  501  0.00000000000E+00  0.00000000000E+00 -0.10114789200E+04  0.10114789200E+04  0.25500000920E-02 0. -1.
    10030    2    1    2    0    0  0.00000000000E+00  0.00000000000E+00 -0.67064695290E+03  0.13523108872E+04  0.11742986844E+04 0.  0.
        2    1    3    3  502    0  0.31581344546E+03 -0.12123417850E+03  0.21733005011E+03  0.40207985408E+03  0.25500000920E-02 0. -1.
       -2    1    3    3    0  502 -0.31581344546E+03  0.12123417850E+03 -0.88797700301E+03  0.95023103309E+03  0.25500000920E-02 0.  1.
</event>
<event>
 5   0  0.3626049E-03  0.1135308E+04  0.7818609E-02  0.9171446E-01
        2   -1    0    0  501    0  0.00000000000E+00  0.00000000000E+00  0.12814918780E+04  0.12814918780E+04  0.25500000920E-02 0.  1.
       -2   -1    0    0    0  501  0.00000000000E+00  0.00000000000E+00 -0.25144989536E+03  0.25144989537E+03  0.25500000920E-02 0. -1.
    10030    2    1    2    0    0  0.00000000000E+00  0.00000000000E+00  0.10300419827E+04  0.15329417734E+04  0.11353078854E+04 0.  0.
        1    1    3    3  502    0 -0.27822948713E+02  0.48592910727E+03  0.12059790224E+03  0.50144298561E+03  0.50400001928E-02 0. -1.
       -1    1    3    3    0  502  0.27822948713E+02 -0.48592910727E+03  0.90944408044E+03  0.10314987878E+04  0.50400001928E-02 0.  1.
</event>
<event>
 5   0  0.3650180E-03  0.1217549E+04  0.7818609E-02  0.9097633E-01
       -2   -1    0    0    0  501  0.00000000000E+00  0.00000000000E+00  0.24343471142E+03  0.24343471143E+03  0.25500000920E-02 0. -1.
        2   -1    0    0  501    0  0.00000000000E+00  0.00000000000E+00 -0.15224046021E+04  0.15224046021E+04  0.25500000920E-02 0.  1.
    10030    2    1    2    0    0  0.00000000000E+00  0.00000000000E+00 -0.12789698907E+04  0.17658393135E+04  0.12175485616E+04 0.  0.
        3    1    3    3  502    0  0.58664682918E+03  0.11631547992E+03 -0.80435248779E+03  0.10023306480E+04  0.10100000352E+00 0.  1.
       -3    1    3    3    0  502 -0.58664682918E+03 -0.11631547992E+03 -0.47461740291E+03  0.76350866557E+03  0.10100000352E+00 0. -1.
</event>
<event>
 5   0  0.3706035E-03  0.1204448E+04  0.7818609E-02  0.9108972E-01
        2   -1    0    0  501    0  0.00000000000E+00  0.00000000000E+00  0.67008270706E+03  0.67008270707E+03  0.25500000920E-02 0. -1.
       -2   -1    0    0    0  501  0.00000000000E+00  0.00000000000E+00 -0.54123751052E+03  0.54123751052E+03  0.25500000920E-02 0.  1.
    10030    2    1    2    0    0  0.00000000000E+00  0.00000000000E+00  0.12884519655E+03  0.12113202176E+04  0.12044482491E+04 0.  0.
        2    1    3    3  502    0 -0.57618044837E+03 -0.95804613797E+02  0.21192727707E+03  0.62134982408E+03  0.25500000920E-02 0. -1.
       -2    1    3    3    0  502  0.57618044837E+03  0.95804613797E+02 -0.83082080529E+02  0.58997039351E+03  0.25500000920E-02 0.  1.
</event>
<event>
 5   0  0.2096270E-03  0.1202386E+04  0.7818609E-02  0.9110771E-01
        1   -1    0    0  501    0  0.00000000000E+00  0.00000000000E+00  0.15509591714E+04  0.15509591714E+04  0.50400001928E-02 0.  1.
       -1   -1    0    0    0  501  0.00000000000E+00  0.00000000000E+00 -0.23303821651E+03  0.23303821657E+03  0.50400001928E-02 0. -1.
    10030    2    1    2    0    0  0.00000000000E+00  0.00000000000E+00  0.13179209549E+04  0.17839973880E+04  0.12023855609E+04 0.  0.
        2    1    3    3  502    0  0.20521225052E+03  0.50367907797E+03  0.27886272261E+03  0.61120299363E+03  0.25500000920E-02 0. -1.
       -2    1    3    3    0  502 -0.20521225052E+03 -0.50367907797E+03  0.10390582323E+04  0.11727943944E+04  0.25500000920E-02 0.  1.
</event>
<event>
 5   0  0.2096270E-03  0.1183236E+04  0.7818609E-02  0.9127658E-01
        1   -1    0    0  501    0  0.00000000000E+00  0.00000000000E+00  0.75352568118E+03  0.75352568119E+03  0.50400001928E-02 0.  1.
       -1   -1    0    0    0  501  0.00000000000E+00  0.00000000000E+00 -0.46449865753E+03  0.46449865756E+03  0.50400001928E-02 0. -1.
    10030    2    1    2    0    0  0.00000000000E+00  0.00000000000E+00  0.28902702365E+03  0.12180243388E+04  0.11832356779E+04 0.  0.
        2    1    3    3  502    0  0.17622557839E+03  0.48302894308E+03  0.44575941222E+03  0.68049531073E+03  0.25500000920E-02 0.  1.
       -2    1    3    3    0  502 -0.17622557839E+03 -0.48302894308E+03 -0.15673238857E+03  0.53752902802E+03  0.25500000920E-02 0. -1.
</event>
<event>
 5   0  0.2134992E-03  0.1206532E+04  0.7818609E-02  0.9107158E-01
       -1   -1    0    0    0  501  0.00000000000E+00  0.00000000000E+00  0.11832514078E+04  0.11832514078E+04  0.50400001928E-02 0. -1.
        1   -1    0    0  501    0  0.00000000000E+00  0.00000000000E+00 -0.30756768692E+03  0.30756768696E+03  0.50400001928E-02 0.  1.
    10030    2    1    2    0    0  0.00000000000E+00  0.00000000000E+00  0.87568372087E+03  0.14908190948E+04  0.12065320527E+04 0.  0.
        4    1    3    3  502    0  0.55698082950E+03  0.21960209927E+03  0.34640941749E+03  0.69170356647E+03  0.12699999809E+01 0. -1.
       -4    1    3    3    0  502 -0.55698082950E+03 -0.21960209927E+03  0.52927430338E+03  0.79911552829E+03  0.12699999809E+01 0.  1.
</event>
<event>
 5   0  0.2025294E-03  0.1210731E+04  0.7818609E-02  0.9103516E-01
        1   -1    0    0  501    0  0.00000000000E+00  0.00000000000E+00  0.10457555763E+04  0.10457555763E+04  0.50400001928E-02 0.  1.
       -1   -1    0    0    0  501  0.00000000000E+00  0.00000000000E+00 -0.35043287046E+03  0.35043287050E+03  0.50400001928E-02 0. -1.
    10030    2    1    2    0    0  0.00000000000E+00  0.00000000000E+00  0.69532270583E+03  0.13961884468E+04  0.12107305702E+04 0.  0.
        5    1    3    3  502    0 -0.42748914951E+03  0.14035169131E+03  0.81466228962E+03  0.93066766696E+03  0.46999998093E+01 0.  1.
       -5    1    3    3    0  502  0.42748914951E+03 -0.14035169131E+03 -0.11933958379E+03  0.46552077984E+03  0.46999998093E+01 0. -1.
</event>
<event>
 5   0  0.2025294E-03  0.1010358E+04  0.7818609E-02  0.9297257E-01
       -1   -1    0    0    0  501  0.00000000000E+00  0.00000000000E+00  0.44731266136E+03  0.44731266139E+03  0.50400001928E-02 0. -1.
        1   -1    0    0  501    0  0.00000000000E+00  0.00000000000E+00 -0.57053108983E+03  0.57053108985E+03  0.50400001928E-02 0.  1.
    10030    2    1    2    0    0  0.00000000000E+00  0.00000000000E+00 -0.12321842846E+03  0.10178437512E+04  0.10103579172E+04 0.  0.
        5    1    3    3  502    0  0.44865529464E+03 -0.15907795505E+03  0.10871837477E+03  0.48830230821E+03  0.46999998093E+01 0. -1.
       -5    1    3    3    0  502 -0.44865529464E+03  0.15907795505E+03 -0.23193680323E+03  0.52954144303E+03  0.46999998093E+01 0.  1.
</event>
<event>
 5   0  0.3650180E-03  0.1211886E+04  0.7818609E-02  0.9102516E-01
       -2   -1    0    0    0  501  0.00000000000E+00  0.00000000000E+00  0.73738553485E+03  0.73738553485E+03  0.25500000920E-02 0. -1.
        2   -1    0    0  501    0  0.00000000000E+00  0.00000000000E+00 -0.49793082038E+03  0.49793082038E+03  0.25500000920E-02 0.  1.
    10030    2    1    2    0    0  0.00000000000E+00  0.00000000000E+00  0.23945471447E+03  0.12353163552E+04  0.12118861074E+04 0.  0.
        3    1    3    3  502    0 -0.31736781444E+03  0.14171720687E+03  0.62567113110E+03  0.71573072511E+03  0.10100000352E+00 0. -1.
       -3    1    3    3    0  502  0.31736781444E+03 -0.14171720687E+03 -0.38621641663E+03  0.51958563013E+03  0.10100000352E+00 0.  1.
</event>
<event>
 5   0  0.3650180E-03  0.1214153E+04  0.7818609E-02  0.9100558E-01
        2   -1    0    0  501    0  0.00000000000E+00  0.00000000000E+00  0.14694697982E+04  0.14694697982E+04  0.25500000920E-02 0.  1.
       -2   -1    0    0    0  501  0.00000000000E+00  0.00000000000E+00 -0.25079937350E+03  0.25079937351E+03  0.25500000920E-02 0. -1.
    10030    2    1    2    0    0  0.00000000000E+00  0.00000000000E+00  0.12186704247E+04  0.17202691717E+04  0.12141533754E+04 0.  0.
        3    1    3    3  502    0 -0.79695792018E+02 -0.35828708009E+03 -0.75781643011E+02  0.37478516332E+03  0.10100000352E+00 0. -1.
       -3    1    3    3    0  502  0.79695792018E+02  0.35828708009E+03  0.12944520677E+04  0.13454840084E+04  0.10100000352E+00 0.  1.
</event>
<event>
 5   0  0.2025294E-03  0.1225523E+04  0.7818609E-02  0.9090805E-01
        1   -1    0    0  501    0  0.00000000000E+00  0.00000000000E+00  0.92312598585E+03  0.92312598587E+03  0.50400001928E-02 0. -1.
       -1   -1    0    0    0  501  0.00000000000E+00  0.00000000000E+00 -0.40674496873E+03  0.40674496876E+03  0.50400001928E-02 0.  1.
    10030    2    1    2    0    0  0.00000000000E+00  0.00000000000E+00  0.51638101712E+03  0.13298709546E+04  0.12255233172E+04 0.  0.
        5    1    3    3  502    0  0.49571125668E+03 -0.38335498994E+02 -0.13043018347E+03  0.51403636373E+03  0.46999998093E+01 0.  1.
       -5    1    3    3    0  502 -0.49571125668E+03  0.38335498994E+02  0.64681120060E+03  0.81583459089E+03  0.46999998093E+01 0. -1.
</event>
<event>
 5   0  0.3626049E-03  0.1198925E+04  0.7818609E-02  0.9113798E-01
       -2   -1    0    0    0  501  0.00000000000E+00  0.00000000000E+00  0.47360600093E+03  0.47360600093E+03  0.25500000920E-02 0.  1.
        2   -1    0    0  501    0  0.00000000000E+00  0.00000000000E+00 -0.75876435425E+03  0.75876435425E+03  0.25500000920E-02 0. -1.
    10030    2    1    2    0    0  0.00000000000E+00  0.00000000000E+00 -0.28515835332E+03  0.12323703552E+04  0.11989251044E+04 0.  0.
        1    1    3    3  502    0 -0.34699040801E+03  0.20072584357E+03  0.31556982837E+03  0.51017401358E+03  0.50400001928E-02 0.  1.
       -1    1    3    3    0  502  0.34699040801E+03 -0.20072584357E+03 -0.60072818169E+03  0.72219634161E+03  0.50400001928E-02 0. -1.
</event>
<event>
 5   0  0.2096270E-03  0.1181328E+04  0.7818609E-02  0.9129359E-01
        1   -1    0    0  501    0  0.00000000000E+00  0.00000000000E+00  0.54414128341E+03  0.54414128344E+03  0.50400001928E-02 0. -1.
       -1   -1    0    0    0  501  0.00000000000E+00  0.00000000000E+00 -0.64116411545E+03  0.64116411547E+03  0.50400001928E-02 0.  1.
    10030    2    1    2    0    0  0.00000000000E+00  0.00000000000E+00 -0.97022832039E+02  0.11853053989E+04  0.11813278371E+04 0.  0.
        2    1    3    3  502    0 -0.22861639520E+03 -0.19247393843E+03  0.46268630212E+03  0.55080875747E+03  0.25500000920E-02 0. -1.
       -2    1    3    3    0  502  0.22861639520E+03  0.19247393843E+03 -0.55970913416E+03  0.63449664144E+03  0.25500000920E-02 0.  1.
</event>
<event>
 5   0  0.3650180E-03  0.1217833E+04  0.7818609E-02  0.9097389E-01
        2   -1    0    0  501    0  0.00000000000E+00  0.00000000000E+00  0.65909194171E+03  0.65909194172E+03  0.25500000920E-02 0. -1.
       -2   -1    0    0    0  501  0.00000000000E+00  0.00000000000E+00 -0.56256118885E+03  0.56256118885E+03  0.25500000920E-02 0.  1.
    10030    2    1    2    0    0  0.00000000000E+00  0.00000000000E+00  0.96530752867E+02  0.12216531306E+04  0.12178333980E+04 0.  0.
        3    1    3    3  502    0  0.12971333538E+03  0.10286988534E+03 -0.53955187533E+03  0.56437930424E+03  0.10100000352E+00 0.  1.
       -3    1    3    3    0  502 -0.12971333538E+03 -0.10286988534E+03  0.63608262819E+03  0.65727382633E+03  0.10100000352E+00 0. -1.
</event>
<event>
 5   0  0.3725376E-03  0.1202967E+04  0.7818609E-02  0.9110264E-01
       -2   -1    0    0    0  501  0.00000000000E+00  0.00000000000E+00  0.10640073034E+04  0.10640073034E+04  0.25500000920E-02 0.  1.
        2   -1    0    0  501    0  0.00000000000E+00  0.00000000000E+00 -0.34001852331E+03  0.34001852332E+03  0.25500000920E-02 0. -1.
    10030    2    1    2    0    0  0.00000000000E+00  0.00000000000E+00  0.72398878011E+03  0.14040258268E+04  0.12029666531E+04 0.  0.
        4    1    3    3  502    0 -0.14515506604E+03  0.57682706981E+03  0.25772583348E+03  0.64824661959E+03  0.12699999809E+01 0.  1.
       -4    1    3    3    0  502  0.14515506604E+03 -0.57682706981E+03  0.46626294664E+03  0.75577920716E+03  0.12699999809E+01 0. -1.
</event>
<event>
 5   0  0.3751091E-03  0.1153713E+04  0.7818609E-02  0.9154365E-01
       -2   -1    0    0    0  501  0.00000000000E+00  0.00000000000E+00  0.54241259569E+03  0.54241259570E+03  0.25500000920E-02 0. -1.
        2   -1    0    0  501    0  0.00000000000E+00  0.00000000000E+00 -0.61348751673E+03  0.61348751674E+03  0.25500000920E-02 0.  1.
    10030    2    1    2    0    0  0.00000000000E+00  0.00000000000E+00 -0.71074921041E+02  0.11559001124E+04  0.11537128870E+04 0.  0.
        5    1    3    3  502    0 -0.22294506165E+03 -0.32550087157E+03 -0.45715106220E+03  0.60387457437E+03  0.46999998093E+01 0.  1.
       -5    1    3    3    0  502  0.22294506165E+03  0.32550087157E+03  0.38607614115E+03  0.55202553806E+03  0.46999998093E+01 0. -1.
</event>
<event>
 5   0  0.2047109E-03  0.1132768E+04  0.7818609E-02  0.9173829E-01
       -1   -1    0    0    0  501  0.00000000000E+00  0.00000000000E+00  0.26435892572E+03  0.26435892577E+03  0.50400001928E-02 0. -1.
        1   -1    0    0  501    0  0.00000000000E+00  0.00000000000E+00 -0.12134680079E+04  0.12134680079E+04  0.50400001928E-02 0.  1.
    10030    2    1    2    0    0  0.00000000000E+00  0.00000000000E+00 -0.94910908221E+03  0.14778269337E+04  0.11327684653E+04 0.  0.
        1    1    3    3  502    0  0.28647420112E+03 -0.22856689208E+03  0.88822957134E+02  0.37709390051E+03  0.50400001928E-02 0. -1.
       -1    1    3    3    0  502 -0.28647420112E+03  0.22856689208E+03 -0.10379320393E+04  0.11007330332E+04  0.50400001928E-02 0.  1.
</event>
<event>
 5   0  0.2078258E-03  0.1173027E+04  0.7818609E-02  0.9136799E-01
        1   -1    0    0  501    0  0.00000000000E+00  0.00000000000E+00  0.74317351743E+03  0.74317351745E+03  0.50400001928E-02 0. -1.
       -1   -1    0    0    0  501  0.00000000000E+00  0.00000000000E+00 -0.46287754674E+03  0.46287754677E+03  0.50400001928E-02 0.  1.
    10030    2    1    2    0    0  0.00000000000E+00  0.00000000000E+00  0.28029597069E+03  0.12060510642E+04  0.11730274244E+04 0.  0.
        3    1    3    3  502    0  0.85116479203E+02 -0.27715674280E+03 -0.38404610937E+03  0.48119860706E+03  0.10100000352E+00 0.  1.
       -3    1    3    3    0  502 -0.85116479203E+02  0.27715674280E+03  0.66434208006E+03  0.72485245716E+03  0.10100000352E+00 0. -1.
</event>
<event>
 5   0  0.2134992E-03  0.1201404E+04  0.7818609E-02  0.9111629E-01
       -1   -1    0    0    0  501  0.00000000000E+00  0.00000000000E+00  0.52779600589E+03  0.52779600592E+03  0.50400001928E-02 0. -1.
        1   -1    0    0  501    0  0.00000000000E+00  0.00000000000E+00 -0.68367864803E+03  0.68367864805E+03  0.50400001928E-02 0.  1.
    10030    2    1    2    0    0  0.00000000000E+00  0.00000000000E+00 -0.15588264213E+03  0.12114746540E+04  0.12014039450E+04 0.  0.
        4    1    3    3  502    0  0.11499099071E+03  0.43208775678E+03 -0.48245038016E+03  0.65778624166E+03  0.12699999809E+01 0.  1.
       -4    1    3    3    0  502 -0.11499099071E+03 -0.43208775678E+03  0.32656773803E+03  0.55368841230E+03  0.12699999809E+01 0. -1.
</event>
<event>
 5   0  0.2025294E-03  0.1254248E+04  0.7818609E-02  0.9066655E-01
        1   -1    0    0  501    0  0.00000000000E+00  0.00000000000E+00  0.32155017606E+03  0.32155017610E+03  0.50400001928E-02 0. -1.
       -1   -1    0    0    0  501  0.00000000000E+00  0.00000000000E+00 -0.12230890657E+04  0.12230890657E+04  0.50400001928E-02 0.  1.
    10030    2    1    2    0    0  0.00000000000E+00  0.00000000000E+00 -0.90153888967E+03  0.15446392418E+04  0.12542479890E+04 0.  0.
        5    1    3    3  502    0 -0.37098319813E+03  0.25110721147E+03 -0.99121029694E+03  0.10877514917E+04  0.46999998093E+01 0.  1.
       -5    1    3    3    0  502  0.37098319813E+03 -0.25110721147E+03  0.89671407270E+02  0.45688775014E+03  0.46999998093E+01 0. -1.
</event>
<event>
 5   0  0.3650180E-03  0.1215052E+04  0.7818609E-02  0.9099783E-01
       -2   -1    0    0    0  501  0.00000000000E+00  0.00000000000E+00  0.23251562239E+03  0.23251562240E+03  0.25500000920E-02 0.  1.
        2   -1    0    0  501    0  0.00000000000E+00  0.00000000000E+00 -0.15873671822E+04  0.15873671822E+04  0.25500000920E-02 0. -1.
    10030    2    1    2    0    0  0.00000000000E+00  0.00000000000E+00 -0.13548515598E+04  0.18198828046E+04  0.12150517163E+04 0.  0.
        3    1    3    3  502    0 -0.15223359911E+03  0.58393995110E+03 -0.78255603755E+03  0.98820792210E+03  0.10100000352E+00 0.  1.
       -3    1    3    3    0  502  0.15223359911E+03 -0.58393995110E+03 -0.57229552228E+03  0.83167488252E+03  0.10100000352E+00 0. -1.
</event>
<event>
 5   0  0.2096270E-03  0.1198823E+04  0.7818609E-02  0.9113887E-01
       -1   -1    0    0    0  501  0.00000000000E+00  0.00000000000E+00  0.27803008419E+03  0.27803008424E+03  0.50400001928E-02 0.  1.
        1   -1    0    0  501    0  0.00000000000E+00  0.00000000000E+00 -0.12922853793E+04  0.12922853793E+04  0.50400001928E-02 0. -1.
    10030    2    1    2    0    0  0.00000000000E+00  0.00000000000E+00 -0.10142552951E+04  0.15703154635E+04  0.11988231110E+04 0.  0.
        2    1    3    3  502    0  0.25209418851E+03 -0.17956133825E+03  0.16526427640E+03  0.35086469634E+03  0.25500000920E-02 0.  1.
       -2    1    3    3    0  502 -0.25209418851E+03  0.17956133825E+03 -0.11795195715E+04  0.12194507672E+04  0.25500000920E-02 0. -1.
</event>
<event>
 5   0  0.2134992E-03  0.1207178E+04  0.7818609E-02  0.9106597E-01
        1   -1    0    0  501    0  0.00000000000E+00  0.00000000000E+00  0.81582664597E+03  0.81582664599E+03  0.50400001928E-02 0.  1.
       -1   -1    0    0    0  501  0.00000000000E+00  0.00000000000E+00 -0.44656476036E+03  0.44656476039E+03  0.50400001928E-02 0. -1.
    10030    2    1    2    0    0  0.00000000000E+00  0.00000000000E+00  0.36926188561E+03  0.12623914064E+04  0.12071775854E+04 0.  0.
        4    1    3    3  502    0 -0.40911463592E+03 -0.44137450294E+03  0.23291166378E+03  0.64531828829E+03  0.12699999809E+01 0.  1.
       -4    1    3    3    0  502  0.40911463592E+03  0.44137450294E+03  0.13635022183E+03  0.61707311809E+03  0.12699999809E+01 0. -1.
</event>
<event>
 5   0  0.2078258E-03  0.1146712E+04  0.7818609E-02  0.9160822E-01
        1   -1    0    0  501    0  0.00000000000E+00  0.00000000000E+00  0.62004231137E+03  0.62004231139E+03  0.50400001928E-02 0. -1.
       -1   -1    0    0    0  501  0.00000000000E+00  0.00000000000E+00 -0.53018494297E+03  0.53018494300E+03  0.50400001928E-02 0.  1.
    10030    2    1    2    0    0  0.00000000000E+00  0.00000000000E+00  0.89857368398E+02  0.11502272544E+04  0.11467119909E+04 0.  0.
        3    1    3    3  502    0 -0.15034964071E+03  0.13874710671E+03  0.58218363992E+03  0.61708473881E+03  0.10100000352E+00 0. -1.
       -3    1    3    3    0  502  0.15034964071E+03 -0.13874710671E+03 -0.49232627152E+03  0.53314251558E+03  0.10100000352E+00 0.  1.
</event>
<event>
 5   0  0.2134992E-03  0.1219073E+04  0.7818609E-02  0.9096324E-01
        1   -1    0    0  501    0  0.00000000000E+00  0.00000000000E+00  0.13508630476E+04  0.13508630476E+04  0.50400001928E-02 0. -1.
       -1   -1    0    0    0  501  0.00000000000E+00  0.00000000000E+00 -0.27503523177E+03  0.27503523181E+03  0.50400001928E-02 0.  1.
    10030    2    1    2    0    0  0.00000000000E+00  0.00000000000E+00  0.10758278158E+04  0.16258982794E+04  0.12190733061E+04 0.  0.
        4    1    3    3  502    0  0.30909341169E+03 -0.19829601604E+03  0.11867547163E+04  0.12422754995E+04  0.12699999809E+01 0. -1.
       -4    1    3    3    0  502 -0.30909341169E+03  0.19829601604E+03 -0.11092690046E+03  0.38362277992E+03  0.12699999809E+01 0.  1.
</event>
<event>
 5   0  0.3706035E-03  0.1198745E+04  0.7818609E-02  0.9113956E-01
        2   -1    0    0  501    0  0.00000000000E+00  0.00000000000E+00  0.10592066197E+04  0.10592066197E+04  0.25500000920E-02 0. -1.
       -2   -1    0    0    0  501  0.00000000000E+00  0.00000000000E+00 -0.33916642270E+03  0.33916642271E+03  0.25500000920E-02 0.  1.
    10030    2    1    2    0    0  0.00000000000E+00  0.00000000000E+00  0.72004019700E+03  0.13983730424E+04  0.11987448771E+04 0.  0.
        2    1    3    3  502    0  0.23575248282E+03 -0.52850762572E+03  0.54204295779E+03  0.79291242373E+03  0.25500000920E-02 0. -1.
       -2    1    3    3    0  502 -0.23575248282E+03  0.52850762572E+03  0.17799723922E+03  0.60546061869E+03  0.25500000920E-02 0.  1.
</event>
<event>
 5   0  0.3751091E-03  0.1240062E+04  0.7818609E-02  0.9078495E-01
        2   -1    0    0  501    0  0.00000000000E+00  0.00000000000E+00  0.14766644101E+04  0.14766644101E+04  0.25500000920E-02 0.  1.
       -2   -1    0    0    0  501  0.00000000000E+00  0.00000000000E+00 -0.26034245839E+03  0.26034245840E+03  0.25500000920E-02 0. -1.
    10030    2    1    2    0    0  0.00000000000E+00  0.00000000000E+00  0.12163219517E+04  0.17370068685E+04  0.12400620029E+04 0.  0.
        5    1    3    3  502    0 -0.39126220110E+03 -0.48086304817E+03  0.62223628157E+03  0.87835952844E+03  0.46999998093E+01 0. -1.
       -5    1    3    3    0  502  0.39126220110E+03  0.48086304817E+03  0.59408567012E+03  0.85864734003E+03  0.46999998093E+01 0.  1.
</event>
<event>
 5   0  0.3650180E-03  0.1206144E+04  0.7818609E-02  0.9107496E-01
        2   -1    0    0  501    0  0.00000000000E+00  0.00000000000E+00  0.81541464787E+03  0.81541464787E+03  0.25500000920E-02 0.  1.
       -2   -1    0    0    0  501  0.00000000000E+00  0.00000000000E+00 -0.44602569035E+03  0.44602569035E+03  0.25500000920E-02 0. -1.
    10030    2    1    2    0    0  0.00000000000E+00  0.00000000000E+00  0.36938895752E+03  0.12614403382E+04  0.12061440731E+04 0.  0.
        3    1    3    3  502    0  0.47306279812E+03 -0.49418968669E+02  0.57245532297E+03  0.74426860234E+03  0.10100000352E+00 0.  1.
       -3    1    3    3    0  502 -0.47306279812E+03  0.49418968669E+02 -0.20306636544E+03  0.51717173589E+03  0.10100000352E+00 0. -1.
</event>
<event>
 5   0  0.3751091E-03  0.1217101E+04  0.7818609E-02  0.9098018E-01
        2   -1    0    0  501    0  0.00000000000E+00  0.00000000000E+00  0.93116149483E+03  0.93116149484E+03  0.25500000920E-02 0.  1.
       -2   -1    0    0    0  501  0.00000000000E+00  0.00000000000E+00 -0.39771188751E+03  0.39771188751E+03  0.25500000920E-02 0. -1.
    10030    2    1    2    0    0  0.00000000000E+00  0.00000000000E+00  0.53344960733E+03  0.13288733823E+04  0.12171014677E+04 0.  0.
        5    1    3    3  502    0  0.60711617196E+03  0.41258763387E+02  0.26189426801E+03  0.66249756937E+03  0.46999998093E+01 0. -1.
       -5    1    3    3    0  502 -0.60711617196E+03 -0.41258763387E+02  0.27155533931E+03  0.66637581298E+03  0.46999998093E+01 0.  1.
</event>
<event>
 5   0  0.2134992E-03  0.1196880E+04  0.7818609E-02  0.9115592E-01
        1   -1    0    0  501    0  0.00000000000E+00  0.00000000000E+00  0.88104849369E+03  0.88104849370E+03  0.50400001928E-02 0.  1.
       -1   -1    0    0    0  501  0.00000000000E+00  0.00000000000E+00 -0.40648178722E+03  0.40648178725E+03  0.50400001928E-02 0. -1.
    10030    2    1    2    0    0  0.00000000000E+00  0.00000000000E+00  0.47456670646E+03  0.12875302810E+04  0.11968795535E+04 0.  0.
        4    1    3    3  502    0 -0.47301946170E+03  0.28229514260E+03  0.48885594687E+03  0.73649148561E+03  0.12699999809E+01 0.  1.
       -4    1    3    3    0  502  0.47301946170E+03 -0.28229514260E+03 -0.14289240402E+02  0.55103879535E+03  0.12699999809E+01 0. -1.
</event>
<event>
 5   0  0.2078258E-03  0.1198683E+04  0.7818609E-02  0.9114010E-01
       -1   -1    0    0    0  501  0.00000000000E+00  0.00000000000E+00  0.66714032320E+03  0.66714032322E+03  0.50400001928E-02 0. -1.
        1   -1    0    0  501    0  0.00000000000E+00  0.00000000000E+00 -0.53843310694E+03  0.53843310696E+03  0.50400001928E-02 0.  1.
    10030    2    1    2    0    0  0.00000000000E+00  0.00000000000E+00  0.12870721626E+03  0.12055734302E+04  0.11986833394E+04 0.  0.
        3    1    3    3  502    0  0.14095165144E+03  0.45356231088E+03 -0.30329413339E+03  0.56353658217E+03  0.10100000352E+00 0.  1.
       -3    1    3    3    0  502 -0.14095165144E+03 -0.45356231088E+03  0.43200134966E+03  0.64203684801E+03  0.10100000352E+00 0. -1.
</event>
<event>
 5   0  0.2078258E-03  0.1187147E+04  0.7818609E-02  0.9124181E-01
       -1   -1    0    0    0  501  0.00000000000E+00  0.00000000000E+00  0.42734752644E+03  0.42734752647E+03  0.50400001928E-02 0. -1.
        1   -1    0    0  501    0  0.00000000000E+00  0.00000000000E+00 -0.82445708638E+03  0.82445708640E+03  0.50400001928E-02 0.  1.
    10030    2    1    2    0    0  0.00000000000E+00  0.00000000000E+00 -0.39710955994E+03  0.12518046129E+04  0.11871473313E+04 0.  0.
        3    1    3    3  502    0  0.56230605794E+03  0.17800678286E+03 -0.26893716986E+03  0.64822968851E+03  0.10100000352E+00 0.  1.
       -3    1    3    3    0  502 -0.56230605794E+03 -0.17800678286E+03 -0.12817239008E+03  0.60357492436E+03  0.10100000352E+00 0. -1.
</event>
<event>
 5   0  0.2025294E-03  0.1209831E+04  0.7818609E-02  0.9104295E-01
       -1   -1    0    0    0  501  0.00000000000E+00  0.00000000000E+00  0.39822894275E+03  0.39822894278E+03  0.50400001928E-02 0.  1.
        1   -1    0    0  501    0  0.00000000000E+00  0.00000000000E+00 -0.91887538256E+03  0.91887538258E+03  0.50400001928E-02 0. -1.
    10030    2    1    2    0    0  0.00000000000E+00  0.00000000000E+00 -0.52064643981E+03  0.13171043254E+04  0.12098310165E+04 0.  0.
        5    1    3    3  502    0  0.20332999126E+03  0.14602422916E+03  0.33917069931E+03  0.42157444670E+03  0.46999998093E+01 0.  1.
       -5    1    3    3    0  502 -0.20332999126E+03 -0.14602422916E+03 -0.85981713912E+03  0.89552987865E+03  0.46999998093E+01 0. -1.
</event>
<event>
 5   0  0.3706035E-03  0.1207826E+04  0.7818609E-02  0.9106034E-01
        2   -1    0    0  501    0  0.00000000000E+00  0.00000000000E+00  0.66445285701E+03  0.66445285701E+03  0.25500000920E-02 0.  1.
       -2   -1    0    0    0  501  0.00000000000E+00  0.00000000000E+00 -0.54888897428E+03  0.54888897428E+03  0.25500000920E-02 0. -1.
    10030    2    1    2    0    0  0.00000000000E+00  0.00000000000E+00  0.11556388273E+03  0.12133418313E+04  0.12078258933E+04 0.  0.
        2    1    3    3  502    0  0.30945469259E+03  0.49595688120E+03 -0.94486706845E+02  0.59216819617E+03  0.25500000920E-02 0.  1.
       -2    1    3    3    0  502 -0.30945469259E+03 -0.49595688120E+03  0.21005058958E+03  0.62117363512E+03  0.25500000920E-02 0. -1.
</event>
<event>
 5   0  0.3650180E-03  0.1194715E+04  0.7818609E-02  0.9117495E-01
       -2   -1    0    0    0  501  0.00000000000E+00  0.00000000000E+00  0.36374126172E+03  0.36374126173E+03  0.25500000920E-02 0. -1.
        2   -1    0    0  501    0  0.00000000000E+00  0.00000000000E+00 -0.98101674815E+03  0.98101674815E+03  0.25500000920E-02 0.  1.
    10030    2    1    2    0    0  0.00000000000E+00  0.00000000000E+00 -0.61727548643E+03  0.13447580099E+04  0.11947154803E+04 0.  0.
        3    1    3    3  502    0  0.19382733330E+03 -0.16242677123E+03  0.30051757764E+03  0.39276241650E+03  0.10100000352E+00 0. -1.
       -3    1    3    3    0  502 -0.19382733330E+03  0.16242677123E+03 -0.91779306407E+03  0.95199559337E+03  0.10100000352E+00 0.  1.
</event>
<event>
 5   0  0.3650180E-03  0.1185313E+04  0.7818609E-02  0.9125810E-01
       -2   -1    0    0    0  501  0.00000000000E+00  0.00000000000E+00  0.27069778133E+03  0.27069778135E+03  0.25500000920E-02 0.  1.
        2   -1    0    0  501    0  0.00000000000E+00  0.00000000000E+00 -0.12975425716E+04  0.12975425716E+04  0.25500000920E-02 0. -1.
    10030    2    1    2    0    0  0.00000000000E+00  0.00000000000E+00 -0.10268447903E+04  0.15682403530E+04  0.11853132840E+04 0.  0.
        3    1    3    3  502    0 -0.53118953476E+03  0.25170573056E+02 -0.85956378014E+03  0.10107649489E+04  0.10100000352E+00 0. -1.
       -3    1    3    3    0  502  0.53118953476E+03 -0.25170573056E+02 -0.16728101014E+03  0.55747540407E+03  0.10100000352E+00 0.  1.
</event>
<event>
 5   0  0.2096270E-03  0.1189647E+04  0.7818609E-02  0.9121967E-01
       -1   -1    0    0    0  501  0.00000000000E+00  0.00000000000E+00  0.20870267944E+03  0.20870267950E+03  0.50400001928E-02 0. -1.
        1   -1    0    0  501    0  0.00000000000E+00  0.00000000000E+00 -0.16953078355E+04  0.16953078355E+04  0.50400001928E-02 0.  1.
    10030    2    1    2    0    0  0.00000000000E+00  0.00000000000E+00 -0.14866051560E+04  0.19040105150E+04  0.11896474903E+04 0.  0.
        2    1    3    3  502    0 -0.56966507175E+03  0.17073417737E+03 -0.72390867948E+03  0.93686297265E+03  0.25500000920E-02 0. -1.
       -2    1    3    3    0  502  0.56966507175E+03 -0.17073417737E+03 -0.76269647657E+03  0.96714754235E+03  0.25500000920E-02 0.  1.
</event>
<event>
 5   0  0.3725376E-03  0.1195085E+04  0.7818609E-02  0.9117170E-01
       -2   -1    0    0    0  501  0.00000000000E+00  0.00000000000E+00  0.39523400593E+03  0.39523400594E+03  0.25500000920E-02 0. -1.
        2   -1    0    0  501    0  0.00000000000E+00  0.00000000000E+00 -0.90340648351E+03  0.90340648351E+03  0.25500000920E-02 0.  1.
    10030    2    1    2    0    0  0.00000000000E+00  0.00000000000E+00 -0.50817247758E+03  0.12986404894E+04  0.11950848731E+04 0.  0.
        4    1    3    3  502    0  0.18977117987E+03 -0.49456757644E+03  0.46358908116E+02  0.53175271474E+03  0.12699999809E+01 0. -1.
       -4    1    3    3    0  502 -0.18977117987E+03  0.49456757644E+03 -0.55453138570E+03  0.76688777471E+03  0.12699999809E+01 0.  1.
</event>
<event>
 5   0  0.3650180E-03  0.1199058E+04  0.7818609E-02  0.9113681E-01
       -2   -1    0    0    0  501  0.00000000000E+00  0.00000000000E+00  0.49275096632E+03  0.49275096633E+03  0.25500000920E-02 0. -1.
        2   -1    0    0  501    0  0.00000000000E+00  0.00000000000E+00 -0.72944619375E+03  0.72944619376E+03  0.25500000920E-02 0.  1.
    10030    2    1    2    0    0  0.00000000000E+00  0.00000000000E+00 -0.23669522743E+03  0.12221971601E+04  0.11990584921E+04 0.  0.
        3    1    3    3  502    0 -0.30150009882E+03  0.40275497863E+03 -0.45070956028E+03  0.67546502525E+03  0.10100000352E+00 0.  1.
       -3    1    3    3    0  502  0.30150009882E+03 -0.40275497863E+03  0.21401433285E+03  0.54673213484E+03  0.10100000352E+00 0. -1.
</event>
<event>
 5   0  0.3650180E-03  0.1192530E+04  0.7818609E-02  0.9119420E-01
       -2   -1    0    0    0  501  0.00000000000E+00  0.00000000000E+00  0.22425943867E+03  0.22425943869E+03  0.25500000920E-02 0. -1.
        2   -1    0    0  501    0  0.00000000000E+00  0.00000000000E+00 -0.15853598975E+04  0.15853598976E+04  0.25500000920E-02 0.  1.
    10030    2    1    2    0    0  0.00000000000E+00  0.00000000000E+00 -0.13611004589E+04  0.18096193362E+04  0.11925299505E+04 0.  0.
        3    1    3    3  502    0  0.57516528287E+03  0.54971655434E+02 -0.90406025574E+03  0.10729221508E+04  0.10100000352E+00 0.  1.
       -3    1    3    3    0  502 -0.57516528287E+03 -0.54971655434E+02 -0.45704020313E+03  0.73669718541E+03  0.10100000352E+00 0. -1.
</event>
<event>
 5   0  0.3650180E-03  0.1144122E+04  0.7818609E-02  0.9163223E-01
       -2   -1    0    0    0  501  0.00000000000E+00  0.00000000000E+00  0.23919972113E+03  0.23919972114E+03  0.25500000920E-02 0.  1.
        2   -1    0    0  501    0  0.00000000000E+00  0.00000000000E+00 -0.13681194815E+04  0.13681194815E+04  0.25500000920E-02 0. -1.
    10030    2    1    2    0    0  0.00000000000E+00  0.00000000000E+00 -0.11289197604E+04  0.16073192026E+04  0.11441220188E+04 0.  0.
        3    1    3    3  502    0 -0.41459168316E+03  0.10622004232E+03 -0.31199995525E+02  0.42911817843E+03  0.10100000352E+00 0.  1.
       -3    1    3    3    0  502  0.41459168316E+03 -0.10622004232E+03 -0.10977197648E+04  0.11782010242E+04  0.10100000352E+00 0. -1.
</event>
<event>
 5   0  0.3751091E-03  0.1187466E+04  0.7818609E-02  0.9123899E-01
        2   -1    0    0  501    0  0.00000000000E+00  0.00000000000E+00  0.42266408298E+03  0.42266408299E+03  0.25500000920E-02 0.  1.
       -2   -1    0    0    0  501  0.00000000000E+00  0.00000000000E+00 -0.83404060218E+03  0.83404060218E+03  0.25500000920E-02 0. -1.
    10030    2    1    2    0    0  0.00000000000E+00  0.00000000000E+00 -0.41137651920E+03  0.12567046852E+04  0.11874662207E+04 0.  0.
        5    1    3    3  502    0 -0.43634979518E+03 -0.38602328074E+03 -0.84643578552E+02  0.58872892099E+03  0.46999998093E+01 0. -1.
       -5    1    3    3    0  502  0.43634979518E+03  0.38602328074E+03 -0.32673294064E+03  0.66797576418E+03  0.46999998093E+01 0.  1.
</event>
<event>
 5   0  0.2078258E-03  0.1229438E+04  0.7818609E-02  0.9087473E-01
       -1   -1    0    0    0  501  0.00000000000E+00  0.00000000000E+00  0.67383227354E+03  0.67383227356E+03  0.50400001928E-02 0.  1.
        1   -1    0    0  501    0  0.00000000000E+00  0.00000000000E+00 -0.56079165806E+03  0.56079165808E+03  0.50400001928E-02 0. -1.
    10030    2    1    2    0    0  0.00000000000E+00  0.00000000000E+00  0.11304061548E+03  0.12346239316E+04  0.12294381122E+04 0.  0.
        3    1    3    3  502    0 -0.60881336962E+03  0.81339668900E+02  0.31725129470E+02  0.61504175046E+03  0.10100000352E+00 0.  1.
       -3    1    3    3    0  502  0.60881336962E+03 -0.81339668900E+02  0.81315486007E+02  0.61958218118E+03  0.10100000352E+00 0. -1.
</event>
<event>
 5   0  0.2096270E-03  0.1106290E+04  0.7818609E-02  0.9199082E-01
       -1   -1    0    0    0  501  0.00000000000E+00  0.00000000000E+00  0.21605541262E+03  0.21605541268E+03  0.50400001928E-02 0. -1.
        1   -1    0    0  501    0  0.00000000000E+00  0.00000000000E+00 -0.14161628794E+04  0.14161628794E+04  0.50400001928E-02 0.  1.
    10030    2    1    2    0    0  0.00000000000E+00  0.00000000000E+00 -0.12001074668E+04  0.16322182921E+04  0.11062904778E+04 0.  0.
        2    1    3    3  502    0  0.23943446938E+03 -0.20996603170E+03 -0.12673430553E+04  0.13067413743E+04  0.25500000920E-02 0.  1.
       -2    1    3    3    0  502 -0.23943446938E+03  0.20996603170E+03  0.67235588539E+02  0.32547691772E+03  0.25500000920E-02 0. -1.
</event>
<event>
 5   0  0.2134992E-03  0.1173563E+04  0.7818609E-02  0.9136317E-01
       -1   -1    0    0    0  501  0.00000000000E+00  0.00000000000E+00  0.15563112716E+03  0.15563112724E+03  0.50400001928E-02 0. -1.
        1   -1    0    0  501    0  0.00000000000E+00  0.00000000000E+00 -0.22123628389E+04  0.22123628389E+04  0.50400001928E-02 0.  1.
    10030    2    1    2    0    0  0.00000000000E+00  0.00000000000E+00 -0.20567317118E+04  0.23679939662E+04  0.11735629892E+04 0.  0.
        4    1    3    3  502    0  0.45577606072E+03 -0.65300459691E+02 -0.17623364017E+04  0.18214903714E+04  0.12699999809E+01 0.  1.
       -4    1    3    3    0  502 -0.45577606072E+03  0.65300459691E+02 -0.29439531005E+03  0.54650359472E+03  0.12699999809E+01 0. -1.
</event>
<event>
 5   0  0.3650180E-03  0.1192947E+04  0.7818609E-02  0.9119053E-01
       -2   -1    0    0    0  501  0.00000000000E+00  0.00000000000E+00  0.29016095453E+03  0.29016095454E+03  0.25500000920E-02 0.  1.
        2   -1    0    0  501    0  0.00000000000E+00  0.00000000000E+00 -0.12261488088E+04  0.12261488088E+04  0.25500000920E-02 0. -1.
    10030    2    1    2    0    0  0.00000000000E+00  0.00000000000E+00 -0.93598785428E+03  0.15163097633E+04  0.11929467863E+04 0.  0.
        3    1    3    3  502    0  0.40126170194E+03 -0.24931015251E+03 -0.93086659367E+03  0.10438769712E+04  0.10100000352E+00 0. -1.
       -3    1    3    3    0  502 -0.40126170194E+03  0.24931015251E+03 -0.51212606110E+01  0.47243279215E+03  0.10100000352E+00 0.  1.
</event>
<event>
 5   0  0.3650180E-03  0.1173051E+04  0.7818609E-02  0.9136777E-01
        2   -1    0    0  501    0  0.00000000000E+00  0.00000000000E+00  0.89325384584E+03  0.89325384584E+03  0.25500000920E-02 0. -1.
       -2   -1    0    0    0  501  0.00000000000E+00  0.00000000000E+00 -0.38512270463E+03  0.38512270464E+03  0.25500000920E-02 0.  1.
    10030    2    1    2    0    0  0.00000000000E+00  0.00000000000E+00  0.50813114121E+03  0.12783765505E+04  0.11730512982E+04 0.  0.
        3    1    3    3  502    0  0.81708864652E+01  0.12225548599E+03 -0.37101958504E+03  0.39072843501E+03  0.10100000352E+00 0.  1.
       -3    1    3    3    0  502 -0.81708864652E+01 -0.12225548599E+03  0.87915072625E+03  0.88764811547E+03  0.10100000352E+00 0. -1.
</event>
<event>
 5   0  0.3626049E-03  0.1221712E+04  0.7818609E-02  0.9094062E-01
       -2   -1    0    0    0  501  0.00000000000E+00  0.00000000000E+00  0.73612523388E+03  0.73612523388E+03  0.25500000920E-02 0. -1.
        2   -1    0    0  501    0  0.00000000000E+00  0.00000000000E+00 -0.50690401131E+03  0.50690401131E+03  0.25500000920E-02 0.  1.
    10030    2    1    2    0    0  0.00000000000E+00  0.00000000000E+00  0.22922122257E+03  0.12430292452E+04  0.12217116417E+04 0.  0.
        1    1    3    3  502    0  0.32894468599E+03  0.80430080680E+02 -0.40266111240E+03  0.52612695785E+03  0.50400001928E-02 0.  1.
       -1    1    3    3    0  502 -0.32894468599E+03 -0.80430080680E+02  0.63188233497E+03  0.71690228734E+03  0.50400001928E-02 0. -1.
</event>
<event>
 5   0  0.2047109E-03  0.1199855E+04  0.7818609E-02  0.9112983E-01
       -1   -1    0    0    0  501  0.00000000000E+00  0.00000000000E+00  0.19956238659E+03  0.19956238666E+03  0.50400001928E-02 0. -1.
        1   -1    0    0  501    0  0.00000000000E+00  0.00000000000E+00 -0.18035121986E+04  0.18035121986E+04  0.50400001928E-02 0.  1.
    10030    2    1    2    0    0  0.00000000000E+00  0.00000000000E+00 -0.16039498120E+04  0.20030745852E+04  0.11998553224E+04 0.  0.
        1    1    3    3  502    0  0.12963359358E+03  0.28083198924E+03 -0.16601362255E+04  0.16887047587E+04  0.50400001928E-02 0.  1.
       -1    1    3    3    0  502 -0.12963359358E+03 -0.28083198924E+03  0.56186413508E+02  0.31436982656E+03  0.50400001928E-02 0. -1.
</event>
<event>
 5   0  0.3706035E-03  0.1220476E+04  0.7818609E-02  0.9095120E-01
       -2   -1    0    0    0  501  0.00000000000E+00  0.00000000000E+00  0.16650590122E+04  0.16650590122E+04  0.25500000920E-02 0. -1.
        2   -1    0    0  501    0  0.00000000000E+00  0.00000000000E+00 -0.22365012922E+03  0.22365012923E+03  0.25500000920E-02 0.  1.
    10030    2    1    2    0    0  0.00000000000E+00  0.00000000000E+00  0.14414088830E+04  0.18887091415E+04  0.12204764041E+04 0.  0.
        2    1    3    3  502    0 -0.49040342753E+03 -0.52970313075E+02  0.16469675353E+03  0.52002538056E+03  0.25500000920E-02 0. -1.
       -2    1    3    3    0  502  0.49040342753E+03  0.52970313075E+02  0.12767121295E+04  0.13686837609E+04  0.25500000920E-02 0.  1.
</event>
<event>
 5   0  0.3650180E-03  0.1131424E+04  0.7818609E-02  0.9175094E-01
        2   -1    0    0  501    0  0.00000000000E+00  0.00000000000E+00  0.14991617790E+04  0.14991617790E+04  0.25500000920E-02 0.  1.
       -2   -1    0    0    0  501  0.00000000000E+00  0.00000000000E+00 -0.21347255694E+03  0.21347255695E+03  0.25500000920E-02 0. -1.
    10030    2    1    2    0    0  0.00000000000E+00  0.00000000000E+00  0.12856892221E+04  0.17126343360E+04  0.11314237018E+04 0.  0.
        3    1    3    3  502    0 -0.13091109272E+03  0.53374136185E+03  0.43969109088E+03  0.70380808545E+03  0.10100000352E+00 0.  1.
       -3    1    3    3    0  502  0.13091109272E+03 -0.53374136185E+03  0.84599813121E+03  0.10088262505E+04  0.10100000352E+00 0. -1.
</event>
<event>
 5   0  0.2047109E-03  0.1207893E+04  0.7818609E-02  0.9105975E-01
        1   -1    0    0  501    0  0.00000000000E+00  0.00000000000E+00  0.25533442768E+03  0.25533442773E+03  0.50400001928E-02 0. -1.
       -1   -1    0    0    0  501  0.00000000000E+00  0.00000000000E+00 -0.14285247272E+04  0.14285247272E+04  0.50400001928E-02 0.  1.
    10030    2    1    2    0    0  0.00000000000E+00  0.00000000000E+00 -0.11731902995E+04  0.16838591549E+04  0.12078932796E+04 0.  0.
        1    1    3    3  502    0 -0.46778547579E+02  0.57649532109E+03 -0.82892056182E+03  0.10107642582E+04  0.50400001928E-02 0.  1.
       -1    1    3    3    0  502  0.46778547579E+02 -0.57649532109E+03 -0.34426973771E+03  0.67309489679E+03  0.50400001928E-02 0. -1.
</event>
<event>
 5   0  0.3725376E-03  0.1195538E+04  0.7818609E-02  0.9116771E-01
        2   -1    0    0  501    0  0.00000000000E+00  0.00000000000E+00  0.61384069102E+03  0.61384069102E+03  0.25500000920E-02 0. -1.
       -2   -1    0    0    0  501  0.00000000000E+00  0.00000000000E+00 -0.58211802569E+03  0.58211802570E+03  0.25500000920E-02 0.  1.
    10030    2    1    2    0    0  0.00000000000E+00  0.00000000000E+00  0.31722665325E+02  0.11959587167E+04  0.11955379227E+04 0.  0.
        4    1    3    3  502    0  0.25568631113E+03 -0.21514687606E+03 -0.47995659012E+03  0.58482784585E+03  0.12699999809E+01 0.  1.
       -4    1    3    3    0  502 -0.25568631113E+03  0.21514687606E+03  0.51167925544E+03  0.61113087087E+03  0.12699999809E+01 0. -1.
</event>
<event>
 5   0  0.2025294E-03  0.9538302E+03  0.7818609E-02  0.9360685E-01
       -1   -1    0    0    0  501  0.00000000000E+00  0.00000000000E+00  0.80729302438E+03  0.80729302439E+03  0.50400001928E-02 0. -1.
        1   -1    0    0  501    0  0.00000000000E+00  0.00000000000E+00 -0.28174160884E+03  0.28174160888E+03  0.50400001928E-02 0.  1.
    10030    2    1    2    0    0  0.00000000000E+00  0.00000000000E+00  0.52555141554E+03  0.10890346333E+04  0.95383024805E+03 0.  0.
        5    1    3    3  502    0 -0.25857185170E+03  0.35285259313E+03  0.47959256231E+03  0.64914980613E+03  0.46999998093E+01 0. -1.
       -5    1    3    3    0  502  0.25857185170E+03 -0.35285259313E+03  0.45958853227E+02  0.43988482715E+03  0.46999998093E+01 0.  1.
</event>
<event>
 5   0  0.3751091E-03  0.1183811E+04  0.7818609E-02  0.9127146E-01
        2   -1    0    0  501    0  0.00000000000E+00  0.00000000000E+00  0.12435112504E+04  0.12435112504E+04  0.25500000920E-02 0.  1.
       -2   -1    0    0    0  501  0.00000000000E+00  0.00000000000E+00 -0.28174424185E+03  0.28174424186E+03  0.25500000920E-02 0. -1.
    10030    2    1    2    0    0  0.00000000000E+00  0.00000000000E+00  0.96176700857E+03  0.15252554923E+04  0.11838110229E+04 0.  0.
        5    1    3    3  502    0 -0.20259186591E+02 -0.47255649730E+03  0.93933581422E+03  0.10517100074E+04  0.46999998093E+01 0.  1.
       -5    1    3    3    0  502  0.20259186591E+02  0.47255649730E+03  0.22431194353E+02  0.47354548489E+03  0.46999998093E+01 0. -1.
</event>
<event>
 5   0  0.3725376E-03  0.1206467E+04  0.7818609E-02  0.9107215E-01
       -2   -1    0    0    0  501  0.00000000000E+00  0.00000000000E+00  0.63055277534E+03  0.63055277534E+03  0.25500000920E-02 0. -1.
        2   -1    0    0  501    0  0.00000000000E+00  0.00000000000E+00 -0.57709759768E+03  0.57709759768E+03  0.25500000920E-02 0.  1.
    10030    2    1    2    0    0  0.00000000000E+00  0.00000000000E+00  0.53455177660E+02  0.12076503730E+04  0.12064667287E+04 0.  0.
        4    1    3    3  502    0 -0.24317048451E+03  0.54866319411E+03 -0.34370757086E+02  0.60112074240E+03  0.12699999809E+01 0. -1.
       -4    1    3    3    0  502  0.24317048451E+03 -0.54866319411E+03  0.87825934746E+02  0.60652963062E+03  0.12699999809E+01 0.  1.
</event>
<event>
 5   0  0.3650180E-03  0.1210582E+04  0.7818609E-02  0.9103644E-01
        2   -1    0    0  501    0  0.00000000000E+00  0.00000000000E+00  0.10022516053E+04  0.10022516053E+04  0.25500000920E-02 0. -1.
       -2   -1    0    0    0  501  0.00000000000E+00  0.00000000000E+00 -0.36555438368E+03  0.36555438369E+03  0.25500000920E-02 0.  1.
    10030    2    1    2    0    0  0.00000000000E+00  0.00000000000E+00  0.63669722162E+03  0.13678059890E+04  0.12105824513E+04 0.  0.
        3    1    3    3  502    0  0.28274546472E+03  0.42808894909E+03 -0.44572061968E+02  0.51496779032E+03  0.10100000352E+00 0.  1.
       -3    1    3    3    0  502 -0.28274546472E+03 -0.42808894909E+03  0.68126928359E+03  0.85283819868E+03  0.10100000352E+00 0. -1.
</event>
<event>
 5   0  0.3650180E-03  0.1200253E+04  0.7818609E-02  0.9112635E-01
        2   -1    0    0  501    0  0.00000000000E+00  0.00000000000E+00  0.64187806975E+03  0.64187806976E+03  0.25500000920E-02 0.  1.
       -2   -1    0    0    0  501  0.00000000000E+00  0.00000000000E+00 -0.56109091067E+03  0.56109091068E+03  0.25500000920E-02 0. -1.
    10030    2    1    2    0    0  0.00000000000E+00  0.00000000000E+00  0.80787159084E+02  0.12029689804E+04  0.12002532245E+04 0.  0.
        3    1    3    3  502    0  0.54714291257E+03  0.17741333780E+03 -0.13119859085E+03  0.58996096451E+03  0.10100000352E+00 0. -1.
       -3    1    3    3    0  502 -0.54714291257E+03 -0.17741333780E+03  0.21198574993E+03  0.61300801592E+03  0.10100000352E+00 0.  1.
</event>
<event>
 5   0  0.3725376E-03  0.1203796E+04  0.7818609E-02  0.9109541E-01
       -2   -1    0    0    0  501  0.00000000000E+00  0.00000000000E+00  0.23454771112E+03  0.23454771113E+03  0.25500000920E-02 0.  1.
        2   -1    0    0  501    0  0.00000000000E+00  0.00000000000E+00 -0.15445937105E+04  0.15445937105E+04  0.25500000920E-02 0. -1.
    10030    2    1    2    0    0  0.00000000000E+00  0.00000000000E+00 -0.13100459994E+04  0.17791414217E+04  0.12037955298E+04 0.  0.
        4    1    3    3  502    0  0.45381725766E+03 -0.37301088609E+03 -0.84880881391E+03  0.10322621954E+04  0.12699999809E+01 0. -1.
       -4    1    3    3    0  502 -0.45381725766E+03  0.37301088609E+03 -0.46123718550E+03  0.74687922630E+03  0.12699999809E+01 0.  1.
</event>
<event>
 5   0  0.3650180E-03  0.1206328E+04  0.7818609E-02  0.9107336E-01
        2   -1    0    0  501    0  0.00000000000E+00  0.00000000000E+00  0.53812074484E+03  0.53812074485E+03  0.25500000920E-02 0. -1.
       -2   -1    0    0    0  501  0.00000000000E+00  0.00000000000E+00 -0.67606913309E+03  0.67606913310E+03  0.25500000920E-02 0.  1.
    10030    2    1    2    0    0  0.00000000000E+00  0.00000000000E+00 -0.13794838825E+03  0.12141898779E+04  0.12063280242E+04 0.  0.
        3    1    3    3  502    0  0.91896699550E+02 -0.43813122224E+03  0.33789142859E+03  0.56086950265E+03  0.10100000352E+00 0. -1.
       -3    1    3    3    0  502 -0.91896699550E+02  0.43813122224E+03 -0.47583981684E+03  0.65332037530E+03  0.10100000352E+00 0.  1.
</event>
<event>
 5   0  0.2025294E-03  0.1191611E+04  0.7818609E-02  0.9120231E-01
        1   -1    0    0  501    0  0.00000000000E+00  0.00000000000E+00  0.60241506550E+03  0.60241506552E+03  0.50400001928E-02 0.  1.
       -1   -1    0    0    0  501  0.00000000000E+00  0.00000000000E+00 -0.58926842270E+03  0.58926842272E+03  0.50400001928E-02 0. -1.
    10030    2    1    2    0    0  0.00000000000E+00  0.00000000000E+00  0.13146642807E+02  0.11916834882E+04  0.11916109692E+04 0.  0.
        5    1    3    3  502    0 -0.29557801000E+03 -0.61279223146E+02  0.52025872794E+03  0.60150871746E+03  0.46999998093E+01 0.  1.
       -5    1    3    3    0  502  0.29557801000E+03  0.61279223146E+02 -0.50711208513E+03  0.59017477078E+03  0.46999998093E+01 0. -1.
</event>
<event>
 5   0  0.3626049E-03  0.1214097E+04  0.7818609E-02  0.9100606E-01
        2   -1    0    0  501    0  0.00000000000E+00  0.00000000000E+00  0.48844254508E+03  0.48844254508E+03  0.25500000920E-02 0. -1.
       -2   -1    0    0    0  501  0.00000000000E+00  0.00000000000E+00 -0.75445544420E+03  0.75445544420E+03  0.25500000920E-02 0.  1.
    10030    2    1    2    0    0  0.00000000000E+00  0.00000000000E+00 -0.26601289912E+03  0.12428979893E+04  0.12140974217E+04 0.  0.
        1    1    3    3  502    0 -0.31475547570E+03 -0.17224147314E+03 -0.63428528979E+03  0.72873586670E+03  0.50400001928E-02 0.  1.
       -1    1    3    3    0  502  0.31475547570E+03  0.17224147314E+03  0.36827239066E+03  0.51416212259E+03  0.50400001928E-02 0. -1.
</event>
<event>
 5   0  0.2078258E-03  0.1187761E+04  0.7818609E-02  0.9123637E-01
       -1   -1    0    0    0  501  0.00000000000E+00  0.00000000000E+00  0.31516116252E+03  0.31516116257E+03  0.50400001928E-02 0. -1.
        1   -1    0    0  501    0  0.00000000000E+00  0.00000000000E+00 -0.11190906913E+04  0.11190906913E+04  0.50400001928E-02 0.  1.
    10030    2    1    2    0    0  0.00000000000E+00  0.00000000000E+00 -0.80392952880E+03  0.14342518539E+04  0.11877607895E+04 0.  0.
        3    1    3    3  502    0 -0.48870751254E+03 -0.26088276353E+03 -0.14354558879E+03  0.57227632782E+03  0.10100000352E+00 0.  1.
       -3    1    3    3    0  502  0.48870751254E+03  0.26088276353E+03 -0.66038394001E+03  0.86197552607E+03  0.10100000352E+00 0. -1.
</event>
<event>
 5   0  0.3725376E-03  0.1207045E+04  0.7818609E-02  0.9106712E-01
        2   -1    0    0  501    0  0.00000000000E+00  0.00000000000E+00  0.30705668855E+04  0.30705668855E+04  0.25500000920E-02 0. -1.
       -2   -1    0    0    0  501  0.00000000000E+00  0.00000000000E+00 -0.11862283139E+03  0.11862283142E+03  0.25500000920E-02 0.  1.
    10030    2    1    2    0    0  0.00000000000E+00  0.00000000000E+00  0.29519440541E+04  0.31891897169E+04  0.12070448840E+04 0.  0.
        4    1    3    3  502    0 -0.48751260439E+03 -0.33341283048E+03  0.11480362687E+04  0.12910544304E+04  0.12699999809E+01 0.  1.
       -4    1    3    3    0  502  0.48751260439E+03  0.33341283048E+03  0.18039077854E+04  0.18981352865E+04  0.12699999809E+01 0. -1.
</event>
<event>
 5   0  0.3725376E-03  0.1140710E+04  0.7818609E-02  0.9166397E-01
        2   -1    0    0  501    0  0.00000000000E+00  0.00000000000E+00  0.11175568562E+04  0.11175568562E+04  0.25500000920E-02 0. -1.
       -2   -1    0    0    0  501  0.00000000000E+00  0.00000000000E+00 -0.29108592670E+03  0.29108592671E+03  0.25500000920E-02 0.  1.
    10030    2    1    2    0    0  0.00000000000E+00  0.00000000000E+00  0.82647092951E+03  0.14086427829E+04  0.11407104333E+04 0.  0.
        4    1    3    3  502    0 -0.12847398915E+03  0.29425776593E+03  0.99534875670E+03  0.10458556110E+04  0.12699999809E+01 0. -1.
       -4    1    3    3    0  502  0.12847398915E+03 -0.29425776593E+03 -0.16887782719E+03  0.36278717193E+03  0.12699999809E+01 0.  1.
</event>
<event>
 5   0  0.1397500E-03  0.1198098E+04  0.7818609E-02  0.9114523E-01
        3   -1    0    0  501    0  0.00000000000E+00  0.00000000000E+00  0.84612559516E+03  0.84612560119E+03  0.10100000352E+00 0.  1.
       -3   -1    0    0    0  501  0.00000000000E+00  0.00000000000E+00 -0.42412072589E+03  0.42412073792E+03  0.10100000352E+00 0. -1.
    10030    2    1    2    0    0  0.00000000000E+00  0.00000000000E+00  0.42200486927E+03  0.12702463391E+04  0.11980975137E+04 0.  0.
        4    1    3    3  502    0 -0.51927754271E+03 -0.26711808064E+03  0.69326938459E+02  0.58805533129E+03  0.12699999809E+01 0.  1.
       -4    1    3    3    0  502  0.51927754271E+03  0.26711808064E+03  0.35267793081E+03  0.68219100782E+03  0.12699999809E+01 0. -1.
</event>
<event>
 5   0  0.3725376E-03  0.1204341E+04  0.7818609E-02  0.9109065E-01
        2   -1    0    0  501    0  0.00000000000E+00  0.00000000000E+00  0.64590507988E+03  0.64590507989E+03  0.25500000920E-02 0. -1.
       -2   -1    0    0    0  501  0.00000000000E+00  0.00000000000E+00 -0.56139714865E+03  0.56139714866E+03  0.25500000920E-02 0.  1.
    10030    2    1    2    0    0  0.00000000000E+00  0.00000000000E+00  0.84507931230E+02  0.12073022285E+04  0.12043409320E+04 0.  0.
        4    1    3    3  502    0  0.61381459166E+02 -0.48830738114E+03 -0.30558029737E+03  0.57930364495E+03  0.12699999809E+01 0.  1.
       -4    1    3    3    0  502 -0.61381459166E+02  0.48830738114E+03  0.39008822860E+03  0.62799858360E+03  0.12699999809E+01 0. -1.
</event>
<event>
 5   0  0.3626049E-03  0.1207191E+04  0.7818609E-02  0.9106586E-01
        2   -1    0    0  501    0  0.00000000000E+00  0.00000000000E+00  0.20212088676E+04  0.20212088676E+04  0.25500000920E-02 0.  1.
       -2   -1    0    0    0  501  0.00000000000E+00  0.00000000000E+00 -0.18025214259E+03  0.18025214261E+03  0.25500000920E-02 0. -1.
    10030    2    1    2    0    0  0.00000000000E+00  0.00000000000E+00  0.18409567250E+04  0.22014610102E+04  0.12071905053E+04 0.  0.
        1    1    3    3  502    0 -0.39100836316E+03 -0.12235398084E+03  0.11216005162E+03  0.42477984167E+03  0.50400001928E-02 0. -1.
       -1    1    3    3    0  502  0.39100836316E+03  0.12235398084E+03  0.17287966734E+04  0.17766811685E+04  0.50400001928E-02 0.  1.
</event>
<event>
 5   0  0.2134992E-03  0.9348096E+03  0.7818609E-02  0.9383084E-01
        1   -1    0    0  501    0  0.00000000000E+00  0.00000000000E+00  0.87805781157E+03  0.87805781159E+03  0.50400001928E-02 0. -1.
       -1   -1    0    0    0  501  0.00000000000E+00  0.00000000000E+00 -0.24880737541E+03  0.24880737546E+03  0.50400001928E-02 0.  1.
    10030    2    1    2    0    0  0.00000000000E+00  0.00000000000E+00  0.62925043616E+03  0.11268651871E+04  0.93480962681E+03 0.  0.
        4    1    3    3  502    0  0.36110181183E+03 -0.24182423726E+03  0.52199103485E+03  0.67922730628E+03  0.12699999809E+01 0.  1.
       -4    1    3    3    0  502 -0.36110181183E+03  0.24182423726E+03  0.10725940131E+03  0.44763788077E+03  0.12699999809E+01 0. -1.
</event>
<event>
 5   0  0.1397500E-03  0.1215885E+04  0.7818609E-02  0.9099065E-01
        3   -1    0    0  501    0  0.00000000000E+00  0.00000000000E+00  0.65582504844E+03  0.65582505621E+03  0.10100000352E+00 0.  1.
       -3   -1    0    0    0  501  0.00000000000E+00  0.00000000000E+00 -0.56355548310E+03  0.56355549215E+03  0.10100000352E+00 0. -1.
    10030    2    1    2    0    0  0.00000000000E+00  0.00000000000E+00  0.92269565335E+02  0.12193805484E+04  0.12158845542E+04 0.  0.
        1    1    3    3  502    0  0.26488059881E+03 -0.36444615643E+03 -0.36321904980E+03  0.57871479221E+03  0.50400001928E-02 0. -1.
       -1    1    3    3    0  502 -0.26488059881E+03  0.36444615643E+03  0.45548861514E+03  0.64066575615E+03  0.50400001928E-02 0.  1.
</event>
<event>
 5   0  0.2025294E-03  0.1165250E+04  0.7818609E-02  0.9143829E-01
       -1   -1    0    0    0  501  0.00000000000E+00  0.00000000000E+00  0.12188432278E+03  0.12188432288E+03  0.50400001928E-02 0.  1.
        1   -1    0    0  501    0  0.00000000000E+00  0.00000000000E+00 -0.27850316330E+04  0.27850316330E+04  0.50400001928E-02 0. -1.
    10030    2    1    2    0    0  0.00000000000E+00  0.00000000000E+00 -0.26631473102E+04  0.29069159559E+04  0.11652496637E+04 0.  0.
        5    1    3    3  502    0  0.13166439712E+03  0.30596313917E+02 -0.27453243539E+04  0.27486541336E+04  0.46999998093E+01 0. -1.
       -5    1    3    3    0  502 -0.13166439712E+03 -0.30596313917E+02  0.82177043682E+02  0.15826182231E+03  0.46999998093E+01 0.  1.
</event>
<event>
 5   0  0.3725376E-03  0.1185110E+04  0.7818609E-02  0.9125990E-01
        2   -1    0    0  501    0  0.00000000000E+00  0.00000000000E+00  0.61944991201E+03  0.61944991202E+03  0.25500000920E-02 0. -1.
       -2   -1    0    0    0  501  0.00000000000E+00  0.00000000000E+00 -0.56682792598E+03  0.56682792599E+03  0.25500000920E-02 0.  1.
    10030    2    1    2    0    0  0.00000000000E+00  0.00000000000E+00  0.52621986027E+02  0.11862778380E+04  0.11851101365E+04 0.  0.
        4    1    3    3  502    0  0.50233899170E+03 -0.29955536895E+03  0.12149419265E+03  0.59736114152E+03  0.12699999809E+01 0. -1.
       -4    1    3    3    0  502 -0.50233899170E+03  0.29955536895E+03 -0.68872206620E+02  0.58891669648E+03  0.12699999809E+01 0.  1.
</event>
<event>
 5   0  0.3626049E-03  0.1205797E+04  0.7818609E-02  0.9107798E-01
        2   -1    0    0  501    0  0.00000000000E+00  0.00000000000E+00  0.11891623374E+04  0.11891623374E+04  0.25500000920E-02 0. -1.
       -2   -1    0    0    0  501  0.00000000000E+00  0.00000000000E+00 -0.30566591205E+03  0.30566591206E+03  0.25500000920E-02 0.  1.
    10030    2    1    2    0    0  0.00000000000E+00  0.00000000000E+00  0.88349642536E+03  0.14948282495E+04  0.12057966503E+04 0.  0.
        1    1    3    3  502    0  0.33361176482E+03 -0.81712257503E+01  0.10642251917E+04  0.11153200604E+04  0.50400001928E-02 0. -1.
       -1    1    3    3    0  502 -0.33361176482E+03  0.81712257503E+01 -0.18072876631E+03  0.37950818905E+03  0.50400001928E-02 0.  1.
</event>
<event>
 5   0  0.3706035E-03  0.1203060E+04  0.7818609E-02  0.9110182E-01
        2   -1    0    0  501    0  0.00000000000E+00  0.00000000000E+00  0.14676126567E+04  0.14676126567E+04  0.25500000920E-02 0.  1.
       -2   -1    0    0    0  501  0.00000000000E+00  0.00000000000E+00 -0.24654910097E+03  0.24654910099E+03  0.25500000920E-02 0. -1.
    10030    2    1    2    0    0  0.00000000000E+00  0.00000000000E+00  0.12210635557E+04  0.17141617577E+04  0.12030603993E+04 0.  0.
        2    1    3    3  502    0 -0.38544376945E+03 -0.39334252182E+03  0.26575324667E+03  0.61148182884E+03  0.25500000920E-02 0. -1.
       -2    1    3    3    0  502  0.38544376945E+03  0.39334252182E+03  0.95531030902E+03  0.11026799288E+04  0.25500000920E-02 0.  1.
</event>
<event>
 5   0  0.3751091E-03  0.1213641E+04  0.7818609E-02  0.9101000E-01
       -2   -1    0    0    0  501  0.00000000000E+00  0.00000000000E+00  0.17968593468E+03  0.17968593470E+03  0.25500000920E-02 0. -1.
        2   -1    0    0  501    0  0.00000000000E+00  0.00000000000E+00 -0.20493027995E+04  0.20493027995E+04  0.25500000920E-02 0.  1.
    10030    2    1    2    0    0  0.00000000000E+00  0.00000000000E+00 -0.18696168648E+04  0.22289887342E+04  0.12136406206E+04 0.  0.
        5    1    3    3  502    0  0.50424037968E+03  0.22151582857E+03 -0.14026266466E+04  0.15068879263E+04  0.46999998093E+01 0.  1.
       -5    1    3    3    0  502 -0.50424037968E+03 -0.22151582857E+03 -0.46699021823E+03  0.72210080787E+03  0.46999998093E+01 0. -1.
</event>
<event>
 5   0  0.3706035E-03  0.1202386E+04  0.7818609E-02  0.9110771E-01
        2   -1    0    0  501    0  0.00000000000E+00  0.00000000000E+00  0.49827270825E+03  0.49827270825E+03  0.25500000920E-02 0. -1.
       -2   -1    0    0    0  501  0.00000000000E+00  0.00000000000E+00 -0.72537138803E+03  0.72537138803E+03  0.25500000920E-02 0.  1.
    10030    2    1    2    0    0  0.00000000000E+00  0.00000000000E+00 -0.22709867978E+03  0.12236440963E+04  0.12023855721E+04 0.  0.
        2    1    3    3  502    0  0.30491844772E+03 -0.51586798656E+03 -0.64344453851E+02  0.60269000992E+03  0.25500000920E-02 0. -1.
       -2    1    3    3    0  502 -0.30491844772E+03  0.51586798656E+03 -0.16275422593E+03  0.62095408637E+03  0.25500000920E-02 0.  1.
</event>
<event>
 5   0  0.2078258E-03  0.1200491E+04  0.7818609E-02  0.9112427E-01
       -1   -1    0    0    0  501  0.00000000000E+00  0.00000000000E+00  0.50302766923E+03  0.50302766926E+03  0.50400001928E-02 0.  1.
        1   -1    0    0  501    0  0.00000000000E+00  0.00000000000E+00 -0.71625194412E+03  0.71625194414E+03  0.50400001928E-02 0. -1.
    10030    2    1    2    0    0  0.00000000000E+00  0.00000000000E+00 -0.21322427489E+03  0.12192796134E+04  0.12004908097E+04 0.  0.
        3    1    3    3  502    0 -0.56169502342E+03 -0.20453436763E+03 -0.51364750271E+02  0.59997829515E+03  0.10100000352E+00 0. -1.
       -3    1    3    3    0  502  0.56169502342E+03  0.20453436763E+03 -0.16185952462E+03  0.61930131825E+03  0.10100000352E+00 0.  1.
</event>
<event>
 5   0  0.3626049E-03  0.1167296E+04  0.7818609E-02  0.9141974E-01
        2   -1    0    0  501    0  0.00000000000E+00  0.00000000000E+00  0.61974725128E+03  0.61974725129E+03  0.25500000920E-02 0.  1.
       -2   -1    0    0    0  501  0.00000000000E+00  0.00000000000E+00 -0.54965186909E+03  0.54965186910E+03  0.25500000920E-02 0. -1.
    10030    2    1    2    0    0  0.00000000000E+00  0.00000000000E+00  0.70095382190E+02  0.11693991204E+04  0.11672964234E+04 0.  0.
        1    1    3    3  502    0 -0.35162101424E+03 -0.59075045776E+02 -0.42786479094E+03  0.55695195308E+03  0.50400001928E-02 0. -1.
       -1    1    3    3    0  502  0.35162101424E+03  0.59075045776E+02  0.49796017313E+03  0.61244716730E+03  0.50400001928E-02 0.  1.
</event>
<event>
 5   0  0.2096270E-03  0.1209664E+04  0.7818609E-02  0.9104439E-01
        1   -1    0    0  501    0  0.00000000000E+00  0.00000000000E+00  0.93670478449E+03  0.93670478450E+03  0.50400001928E-02 0.  1.
       -1   -1    0    0    0  501  0.00000000000E+00  0.00000000000E+00 -0.39054126074E+03  0.39054126077E+03  0.50400001928E-02 0. -1.
    10030    2    1    2    0    0  0.00000000000E+00  0.00000000000E+00  0.54616352375E+03  0.13272460453E+04  0.12096641972E+04 0.  0.
        2    1    3    3  502    0 -0.20798075992E+03 -0.26621112094E+03 -0.27737862716E+03  0.43710783592E+03  0.25500000920E-02 0. -1.
       -2    1    3    3    0  502  0.20798075992E+03  0.26621112094E+03  0.82354215091E+03  0.89013820935E+03  0.25500000920E-02 0.  1.
</event>
<event>
 5   0  0.2134992E-03  0.1251803E+04  0.7818609E-02  0.9068684E-01
       -1   -1    0    0    0  501  0.00000000000E+00  0.00000000000E+00  0.18739180075E+03  0.18739180082E+03  0.50400001928E-02 0.  1.
        1   -1    0    0  501    0  0.00000000000E+00  0.00000000000E+00 -0.20905535601E+04  0.20905535601E+04  0.50400001928E-02 0. -1.
    10030    2    1    2    0    0  0.00000000000E+00  0.00000000000E+00 -0.19031617594E+04  0.22779453610E+04  0.12518028539E+04 0.  0.
        4    1    3    3  502    0  0.37609725770E+03  0.26195201649E+03 -0.17593322359E+03  0.49094003530E+03  0.12699999809E+01 0.  1.
       -4    1    3    3    0  502 -0.37609725770E+03 -0.26195201649E+03 -0.17272285358E+04  0.17870053257E+04  0.12699999809E+01 0. -1.
</event>
<event>
 5   0  0.3650180E-03  0.1186219E+04  0.7818609E-02  0.9125005E-01
       -2   -1    0    0    0  501  0.00000000000E+00  0.00000000000E+00  0.28263066017E+03  0.28263066018E+03  0.25500000920E-02 0.  1.
        2   -1    0    0  501    0  0.00000000000E+00  0.00000000000E+00 -0.12446598139E+04  0.12446598139E+04  0.25500000920E-02 0. -1.
    10030    2    1    2    0    0  0.00000000000E+00  0.00000000000E+00 -0.96202915372E+03  0.15272904741E+04  0.11862192460E+04 0.  0.
        3    1    3    3  502    0  0.13579885744E+03 -0.16837959452E+03 -0.11920588240E+04  0.12115268332E+04  0.10100000352E+00 0. -1.
       -3    1    3    3    0  502 -0.13579885744E+03  0.16837959452E+03  0.23002967023E+03  0.31576364091E+03  0.10100000352E+00 0.  1.
</event>
<event>
 5   0  0.3751091E-03  0.1189930E+04  0.7818609E-02  0.9121716E-01
        2   -1    0    0  501    0  0.00000000000E+00  0.00000000000E+00  0.11438959298E+04  0.11438959298E+04  0.25500000920E-02 0.  1.
       -2   -1    0    0    0  501  0.00000000000E+00  0.00000000000E+00 -0.30945432379E+03  0.30945432380E+03  0.25500000920E-02 0. -1.
    10030    2    1    2    0    0  0.00000000000E+00  0.00000000000E+00  0.83444160604E+03  0.14533502536E+04  0.11899303198E+04 0.  0.
        5    1    3    3  502    0  0.29107308099E+03  0.19506933538E+03  0.10044794241E+04  0.10638498895E+04  0.46999998093E+01 0.  1.
       -5    1    3    3    0  502 -0.29107308099E+03 -0.19506933538E+03 -0.17003781803E+03  0.38950036411E+03  0.46999998093E+01 0. -1.
</event>
<event>
 5   0  0.1397500E-03  0.1236122E+04  0.7818609E-02  0.9081814E-01
        3   -1    0    0  501    0  0.00000000000E+00  0.00000000000E+00  0.52425449968E+03  0.52425450941E+03  0.10100000352E+00 0. -1.
       -3   -1    0    0    0  501  0.00000000000E+00  0.00000000000E+00 -0.72865210819E+03  0.72865211519E+03  0.10100000352E+00 0.  1.
    10030    2    1    2    0    0  0.00000000000E+00  0.00000000000E+00 -0.20439760851E+03  0.12529066246E+04  0.12361216071E+04 0.  0.
        1    1    3    3  502    0  0.27599667980E+03 -0.26423370375E+03  0.39020183264E+03  0.54612369266E+03  0.50400001928E-02 0. -1.
       -1    1    3    3    0  502 -0.27599667980E+03  0.26423370375E+03 -0.59459944115E+03  0.70678293195E+03  0.50400001928E-02 0.  1.
</event>
<event>
 5   0  0.3751091E-03  0.1196054E+04  0.7818609E-02  0.9116317E-01
        2   -1    0    0  501    0  0.00000000000E+00  0.00000000000E+00  0.69843413331E+03  0.69843413332E+03  0.25500000920E-02 0.  1.
       -2   -1    0    0    0  501  0.00000000000E+00  0.00000000000E+00 -0.51205476930E+03  0.51205476931E+03  0.25500000920E-02 0. -1.
    10030    2    1    2    0    0  0.00000000000E+00  0.00000000000E+00  0.18637936401E+03  0.12104889026E+04  0.11960543951E+04 0.  0.
        5    1    3    3  502    0  0.19045823365E+03 -0.51514119324E+03  0.33262388081E+03  0.64211021158E+03  0.46999998093E+01 0.  1.
       -5    1    3    3    0  502 -0.19045823365E+03  0.51514119324E+03 -0.14624451680E+03  0.56837869104E+03  0.46999998093E+01 0. -1.
</event>
<event>
 5   0  0.3626049E-03  0.1188204E+04  0.7818609E-02  0.9123245E-01
       -2   -1    0    0    0  501  0.00000000000E+00  0.00000000000E+00  0.23485368911E+03  0.23485368912E+03  0.25500000920E-02 0.  1.
        2   -1    0    0  501    0  0.00000000000E+00  0.00000000000E+00 -0.15028813380E+04  0.15028813380E+04  0.25500000920E-02 0. -1.
    10030    2    1    2    0    0  0.00000000000E+00  0.00000000000E+00 -0.12680276489E+04  0.17377350271E+04  0.11882040675E+04 0.  0.
        1    1    3    3  502    0  0.14169265435E+03 -0.11310463870E+03 -0.14614358041E+04  0.14726384747E+04  0.50400001928E-02 0. -1.
       -1    1    3    3    0  502 -0.14169265435E+03  0.11310463870E+03  0.19340815520E+03  0.26509655244E+03  0.50400001928E-02 0.  1.
</event>
<event>
 5   0  0.2134992E-03  0.1195527E+04  0.7818609E-02  0.9116781E-01
       -1   -1    0    0    0  501  0.00000000000E+00  0.00000000000E+00  0.28869316415E+03  0.28869316419E+03  0.50400001928E-02 0.  1.
        1   -1    0    0  501    0  0.00000000000E+00  0.00000000000E+00 -0.12377199599E+04  0.12377199599E+04  0.50400001928E-02 0. -1.
    10030    2    1    2    0    0  0.00000000000E+00  0.00000000000E+00 -0.94902679573E+03  0.15264131241E+04  0.11955271500E+04 0.  0.
        4    1    3    3  502    0 -0.28236738209E+02 -0.43036815313E+03  0.53929969440E+02  0.43465401772E+03  0.12699999809E+01 0.  1.
       -4    1    3    3    0  502  0.28236738209E+02  0.43036815313E+03 -0.10029567652E+04  0.10917591064E+04  0.12699999809E+01 0. -1.
</event>
<event>
 5   0  0.2025294E-03  0.1208223E+04  0.7818609E-02  0.9105689E-01
       -1   -1    0    0    0  501  0.00000000000E+00  0.00000000000E+00  0.42725082154E+03  0.42725082157E+03  0.50400001928E-02 0. -1.
        1   -1    0    0  501    0  0.00000000000E+00  0.00000000000E+00 -0.85418414964E+03  0.85418414966E+03  0.50400001928E-02 0.  1.
    10030    2    1    2    0    0  0.00000000000E+00  0.00000000000E+00 -0.42693332810E+03  0.12814349712E+04  0.12082232901E+04 0.  0.
        5    1    3    3  502    0 -0.33411516727E+01 -0.58483001864E+03 -0.37393386024E+03  0.69418004568E+03  0.46999998093E+01 0. -1.
       -5    1    3    3    0  502  0.33411516727E+01  0.58483001864E+03 -0.52999467861E+02  0.58725492555E+03  0.46999998093E+01 0.  1.
</event>
<event>
 5   0  0.3751091E-03  0.1198808E+04  0.7818609E-02  0.9113901E-01
        2   -1    0    0  501    0  0.00000000000E+00  0.00000000000E+00  0.41068091395E+03  0.41068091396E+03  0.25500000920E-02 0.  1.
       -2   -1    0    0    0  501  0.00000000000E+00  0.00000000000E+00 -0.87485207904E+03  0.87485207905E+03  0.25500000920E-02 0. -1.
    10030    2    1    2    0    0  0.00000000000E+00  0.00000000000E+00 -0.46417116509E+03  0.12855329930E+04  0.11988078268E+04 0.  0.
        5    1    3    3  502    0 -0.49464442071E+03 -0.31830789182E+03 -0.10855678604E+03  0.59816359194E+03  0.46999998093E+01 0.  1.
       -5    1    3    3    0  502  0.49464442071E+03  0.31830789182E+03 -0.35561437905E+03  0.68736940106E+03  0.46999998093E+01 0. -1.
</event>
<event>
 5   0  0.3706035E-03  0.1193102E+04  0.7818609E-02  0.9118916E-01
        2   -1    0    0  501    0  0.00000000000E+00  0.00000000000E+00  0.15997317863E+04  0.15997317863E+04  0.25500000920E-02 0.  1.
       -2   -1    0    0    0  501  0.00000000000E+00  0.00000000000E+00 -0.22245787745E+03  0.22245787747E+03  0.25500000920E-02 0. -1.
    10030    2    1    2    0    0  0.00000000000E+00  0.00000000000E+00  0.13772739088E+04  0.18221896637E+04  0.11931017353E+04 0.  0.
        2    1    3    3  502    0  0.18066222141E+03 -0.19880057089E+03 -0.12485878942E+03  0.29622664048E+03  0.25500000920E-02 0. -1.
       -2    1    3    3    0  502 -0.18066222141E+03  0.19880057089E+03  0.15021326982E+04  0.15259630232E+04  0.25500000920E-02 0.  1.
</event>
<event>
 5   0  0.3650180E-03  0.1208329E+04  0.7818609E-02  0.9105597E-01
       -2   -1    0    0    0  501  0.00000000000E+00  0.00000000000E+00  0.36835764073E+03  0.36835764074E+03  0.25500000920E-02 0. -1.
        2   -1    0    0  501    0  0.00000000000E+00  0.00000000000E+00 -0.99092482950E+03  0.99092482950E+03  0.25500000920E-02 0.  1.
    10030    2    1    2    0    0  0.00000000000E+00  0.00000000000E+00 -0.62256718876E+03  0.13592824702E+04  0.12083289823E+04 0.  0.
        3    1    3    3  502    0 -0.27479418180E+03  0.14639216253E+03  0.27115537514E+03  0.41287740949E+03  0.10100000352E+00 0. -1.
       -3    1    3    3    0  502  0.27479418180E+03 -0.14639216253E+03 -0.89372256390E+03  0.94640506076E+03  0.10100000352E+00 0.  1.
</event>
<event>
 5   0  0.2047109E-03  0.1187093E+04  0.7818609E-02  0.9124230E-01
        1   -1    0    0  501    0  0.00000000000E+00  0.00000000000E+00  0.61425311050E+03  0.61425311053E+03  0.50400001928E-02 0. -1.
       -1   -1    0    0    0  501  0.00000000000E+00  0.00000000000E+00 -0.57353749699E+03  0.57353749701E+03  0.50400001928E-02 0.  1.
    10030    2    1    2    0    0  0.00000000000E+00  0.00000000000E+00  0.40715613519E+02  0.11877906075E+04  0.11870925685E+04 0.  0.
        1    1    3    3  502    0 -0.12843982635E+03 -0.40383231904E+03 -0.39548236353E+03  0.57964094988E+03  0.50400001928E-02 0.  1.
       -1    1    3    3    0  502  0.12843982635E+03  0.40383231904E+03  0.43619797705E+03  0.60814965765E+03  0.50400001928E-02 0. -1.
</event>
<event>
 5   0  0.3650180E-03  0.1184343E+04  0.7818609E-02  0.9126672E-01
       -2   -1    0    0    0  501  0.00000000000E+00  0.00000000000E+00  0.38733614014E+03  0.38733614015E+03  0.25500000920E-02 0.  1.
        2   -1    0    0  501    0  0.00000000000E+00  0.00000000000E+00 -0.90533075934E+03  0.90533075934E+03  0.25500000920E-02 0. -1.
    10030    2    1    2    0    0  0.00000000000E+00  0.00000000000E+00 -0.51799461920E+03  0.12926668995E+04  0.11843433993E+04 0.  0.
        3    1    3    3  502    0 -0.30167297287E+03 -0.50928576561E+03 -0.24045085041E+03  0.63890155366E+03  0.10100000352E+00 0. -1.
       -3    1    3    3    0  502  0.30167297287E+03  0.50928576561E+03 -0.27754376879E+03  0.65376534583E+03  0.10100000352E+00 0.  1.
</event>
<event>
 5   0  0.3751091E-03  0.1012349E+04  0.7818609E-02  0.9295103E-01
       -2   -1    0    0    0  501  0.00000000000E+00  0.00000000000E+00  0.22439395644E+03  0.22439395646E+03  0.25500000920E-02 0.  1.
        2   -1    0    0  501    0  0.00000000000E+00  0.00000000000E+00 -0.11417983202E+04  0.11417983202E+04  0.25500000920E-02 0. -1.
    10030    2    1    2    0    0  0.00000000000E+00  0.00000000000E+00 -0.91740436378E+03  0.13661922767E+04  0.10123490357E+04 0.  0.
        5    1    3    3  502    0 -0.42139797776E+03 -0.13142309509E+03 -0.12445984184E+03  0.45865087792E+03  0.46999998093E+01 0.  1.
       -5    1    3    3    0  502  0.42139797776E+03  0.13142309509E+03 -0.79294452194E+03  0.90754139876E+03  0.46999998093E+01 0. -1.
</event>
<event>
 5   0  0.2047109E-03  0.1185853E+04  0.7818609E-02  0.9125330E-01
        1   -1    0    0  501    0  0.00000000000E+00  0.00000000000E+00  0.38425096746E+03  0.38425096750E+03  0.50400001928E-02 0. -1.
       -1   -1    0    0    0  501  0.00000000000E+00  0.00000000000E+00 -0.91492830787E+03  0.91492830789E+03  0.50400001928E-02 0.  1.
    10030    2    1    2    0    0  0.00000000000E+00  0.00000000000E+00 -0.53067734041E+03  0.12991792754E+04  0.11858534268E+04 0.  0.
        1    1    3    3  502    0  0.38905164911E+03 -0.31383598482E+03 -0.61473260722E+03  0.79230700454E+03  0.50400001928E-02 0.  1.
       -1    1    3    3    0  502 -0.38905164911E+03  0.31383598482E+03  0.84055266814E+02  0.50687227084E+03  0.50400001928E-02 0. -1.
</event>
<event>
 5   0  0.2096270E-03  0.1061629E+04  0.7818609E-02  0.9243420E-01
       -1   -1    0    0    0  501  0.00000000000E+00  0.00000000000E+00  0.92874645797E+03  0.92874645798E+03  0.50400001928E-02 0.  1.
        1   -1    0    0  501    0  0.00000000000E+00  0.00000000000E+00 -0.30338072701E+03  0.30338072706E+03  0.50400001928E-02 0. -1.
    10030    2    1    2    0    0  0.00000000000E+00  0.00000000000E+00  0.62536573096E+03  0.12321271850E+04  0.10616285144E+04 0.  0.
        2    1    3    3  502    0  0.35827488989E+03  0.21121811220E+03 -0.70121630795E+02  0.42177130149E+03  0.25500000920E-02 0. -1.
       -2    1    3    3    0  502 -0.35827488989E+03 -0.21121811220E+03  0.69548736175E+03  0.81035588355E+03  0.25500000920E-02 0.  1.
</event>
<event>
 5   0  0.3725376E-03  0.1153315E+04  0.7818609E-02  0.9154731E-01
       -2   -1    0    0    0  501  0.00000000000E+00  0.00000000000E+00  0.24679812804E+03  0.24679812805E+03  0.25500000920E-02 0. -1.
        2   -1    0    0  501    0  0.00000000000E+00  0.00000000000E+00 -0.13473916331E+04  0.13473916331E+04  0.25500000920E-02 0.  1.
    10030    2    1    2    0    0  0.00000000000E+00  0.00000000000E+00 -0.11005935050E+04  0.15941897611E+04  0.11533147581E+04 0.  0.
        4    1    3    3  502    0  0.18802666964E+03  0.50781540772E+03 -0.27626726484E+03  0.60791095674E+03  0.12699999809E+01 0. -1.
       -4    1    3    3    0  502 -0.18802666964E+03 -0.50781540772E+03 -0.82432624019E+03  0.98627880438E+03  0.12699999809E+01 0.  1.
</event>
<event>
 5   0  0.3725376E-03  0.1205928E+04  0.7818609E-02  0.9107683E-01
       -2   -1    0    0    0  501  0.00000000000E+00  0.00000000000E+00  0.24140489555E+03  0.24140489557E+03  0.25500000920E-02 0.  1.
        2   -1    0    0  501    0  0.00000000000E+00  0.00000000000E+00 -0.15060411145E+04  0.15060411145E+04  0.25500000920E-02 0. -1.
    10030    2    1    2    0    0  0.00000000000E+00  0.00000000000E+00 -0.12646362189E+04  0.17474460101E+04  0.12059281869E+04 0.  0.
        4    1    3    3  502    0  0.39864380696E+03 -0.18069915098E+03 -0.12332707568E+04  0.13086357172E+04  0.12699999809E+01 0. -1.
       -4    1    3    3    0  502 -0.39864380696E+03  0.18069915098E+03 -0.31365462175E+02  0.43881029285E+03  0.12699999809E+01 0.  1.
</event>
<event>
 5   0  0.3706035E-03  0.1181656E+04  0.7818609E-02  0.9129066E-01
       -2   -1    0    0    0  501  0.00000000000E+00  0.00000000000E+00  0.37800073766E+03  0.37800073767E+03  0.25500000920E-02 0.  1.
        2   -1    0    0  501    0  0.00000000000E+00  0.00000000000E+00 -0.92348412050E+03  0.92348412051E+03  0.25500000920E-02 0. -1.
    10030    2    1    2    0    0  0.00000000000E+00  0.00000000000E+00 -0.54548338284E+03  0.13014848582E+04  0.11816559208E+04 0.  0.
        2    1    3    3  502    0 -0.50109066469E+03  0.24856885330E+02 -0.61642316314E+03  0.79478754082E+03  0.25500000920E-02 0. -1.
       -2    1    3    3    0  502  0.50109066469E+03 -0.24856885330E+02  0.70939780298E+02  0.50669731736E+03  0.25500000920E-02 0.  1.
</event>
<event>
 5   0  0.3626049E-03  0.8937635E+03  0.7818609E-02  0.9433411E-01
        2   -1    0    0  501    0  0.00000000000E+00  0.00000000000E+00  0.80385113344E+03  0.80385113344E+03  0.25500000920E-02 0. -1.
       -2   -1    0    0    0  501  0.00000000000E+00  0.00000000000E+00 -0.24843316267E+03  0.24843316268E+03  0.25500000920E-02 0.  1.
    10030    2    1    2    0    0  0.00000000000E+00  0.00000000000E+00  0.55541797077E+03  0.10522842961E+04  0.89376345731E+03 0.  0.
        1    1    3    3  502    0 -0.23665781810E+03  0.34518102998E+03  0.93248004282E+02  0.42877972976E+03  0.50400001928E-02 0. -1.
       -1    1    3    3    0  502  0.23665781810E+03 -0.34518102998E+03  0.46216996649E+03  0.62350456636E+03  0.50400001928E-02 0.  1.
</event>
<event>
 5   0  0.3725376E-03  0.1197538E+04  0.7818609E-02  0.9115014E-01
       -2   -1    0    0    0  501  0.00000000000E+00  0.00000000000E+00  0.10882993717E+04  0.10882993717E+04  0.25500000920E-02 0.  1.
        2   -1    0    0  501    0  0.00000000000E+00  0.00000000000E+00 -0.32943557345E+03  0.32943557346E+03  0.25500000920E-02 0. -1.
    10030    2    1    2    0    0  0.00000000000E+00  0.00000000000E+00  0.75886379824E+03  0.14177349452E+04  0.11975383545E+04 0.  0.
        4    1    3    3  502    0  0.26373278734E+03  0.13561309757E+03  0.99524803830E+03  0.10384922561E+04  0.12699999809E+01 0.  1.
       -4    1    3    3    0  502 -0.26373278734E+03 -0.13561309757E+03 -0.23638424006E+03  0.37924268905E+03  0.12699999809E+01 0. -1.
</event>
<event>
 5   0  0.3650180E-03  0.1177539E+04  0.7818609E-02  0.9132747E-01
       -2   -1    0    0    0  501  0.00000000000E+00  0.00000000000E+00  0.32569922628E+03  0.32569922629E+03  0.25500000920E-02 0. -1.
        2   -1    0    0  501    0  0.00000000000E+00  0.00000000000E+00 -0.10643245087E+04  0.10643245087E+04  0.25500000920E-02 0.  1.
    10030    2    1    2    0    0  0.00000000000E+00  0.00000000000E+00 -0.73862528238E+03  0.13900237349E+04  0.11775392460E+04 0.  0.
        3    1    3    3  502    0  0.27016098528E+03  0.52241647973E+03 -0.40150496244E+03  0.71211809507E+03  0.10100000352E+00 0. -1.
       -3    1    3    3    0  502 -0.27016098528E+03 -0.52241647973E+03 -0.33712031994E+03  0.67790563988E+03  0.10100000352E+00 0.  1.
</event>
<event>
 5   0  0.2078258E-03  0.1196406E+04  0.7818609E-02  0.9116008E-01
        1   -1    0    0  501    0  0.00000000000E+00  0.00000000000E+00  0.89910529125E+03  0.89910529126E+03  0.50400001928E-02 0. -1.
       -1   -1    0    0    0  501  0.00000000000E+00  0.00000000000E+00 -0.39800342571E+03  0.39800342574E+03  0.50400001928E-02 0.  1.
    10030    2    1    2    0    0  0.00000000000E+00  0.00000000000E+00  0.50110186554E+03  0.12971087170E+04  0.11964062621E+04 0.  0.
        3    1    3    3  502    0  0.61947508074E+02 -0.53751049999E+03  0.52715675868E+03  0.75541332380E+03  0.10100000352E+00 0. -1.
       -3    1    3    3    0  502 -0.61947508074E+02  0.53751049999E+03 -0.26054893137E+02  0.54169539320E+03  0.10100000352E+00 0.  1.
</event>
<event>
 5   0  0.2078258E-03  0.1195720E+04  0.7818609E-02  0.9116611E-01
        1   -1    0    0  501    0  0.00000000000E+00  0.00000000000E+00  0.17544502511E+04  0.17544502511E+04  0.50400001928E-02 0.  1.
       -1   -1    0    0    0  501  0.00000000000E+00  0.00000000000E+00 -0.20373153737E+03  0.20373153743E+03  0.50400001928E-02 0. -1.
    10030    2    1    2    0    0  0.00000000000E+00  0.00000000000E+00  0.15507187137E+04  0.19581817885E+04  0.11957204472E+04 0.  0.
        3    1    3    3  502    0 -0.34438027036E+03  0.20252517915E+01  0.15756952684E+04  0.16128910259E+04  0.10100000352E+00 0.  1.
       -3    1    3    3    0  502  0.34438027036E+03 -0.20252517915E+01 -0.24976554736E+02  0.34529076261E+03  0.10100000352E+00 0. -1.
</event>
<event>
 5   0  0.2134992E-03  0.1201635E+04  0.7818609E-02  0.9111427E-01
        1   -1    0    0  501    0  0.00000000000E+00  0.00000000000E+00  0.68751796716E+03  0.68751796718E+03  0.50400001928E-02 0.  1.
       -1   -1    0    0    0  501  0.00000000000E+00  0.00000000000E+00 -0.52505037941E+03  0.52505037944E+03  0.50400001928E-02 0. -1.
    10030    2    1    2    0    0  0.00000000000E+00  0.00000000000E+00  0.16246758775E+03  0.12125683466E+04  0.12016348356E+04 0.  0.
        4    1    3    3  502    0 -0.81369148533E+02 -0.13312506376E+03  0.66671703775E+03  0.68473092690E+03  0.12699999809E+01 0.  1.
       -4    1    3    3    0  502  0.81369148533E+02  0.13312506376E+03 -0.50424945000E+03  0.52783741972E+03  0.12699999809E+01 0. -1.
</event>
<event>
 5   0  0.2047109E-03  0.1200391E+04  0.7818609E-02  0.9112515E-01
       -1   -1    0    0    0  501  0.00000000000E+00  0.00000000000E+00  0.31656119185E+03  0.31656119189E+03  0.50400001928E-02 0.  1.
        1   -1    0    0  501    0  0.00000000000E+00  0.00000000000E+00 -0.11379612406E+04  0.11379612406E+04  0.50400001928E-02 0. -1.
    10030    2    1    2    0    0  0.00000000000E+00  0.00000000000E+00 -0.82140004875E+03  0.14545224325E+04  0.12003905475E+04 0.  0.
        1    1    3    3  502    0 -0.41714273306E+03 -0.31377643860E+03 -0.76968190014E+03  0.92998598946E+03  0.50400001928E-02 0.  1.
       -1    1    3    3    0  502  0.41714273306E+03  0.31377643860E+03 -0.51718148615E+02  0.52453644305E+03  0.50400001928E-02 0. -1.
</event>
<event>
 5   0  0.3626049E-03  0.1159563E+04  0.7818609E-02  0.9149006E-01
       -2   -1    0    0    0  501  0.00000000000E+00  0.00000000000E+00  0.11701518811E+04  0.11701518811E+04  0.25500000920E-02 0. -1.
        2   -1    0    0  501    0  0.00000000000E+00  0.00000000000E+00 -0.28726759473E+03  0.28726759474E+03  0.25500000920E-02 0.  1.
    10030    2    1    2    0    0  0.00000000000E+00  0.00000000000E+00  0.88288428633E+03  0.14574194758E+04  0.11595632218E+04 0.  0.
        1    1    3    3  502    0  0.25701121860E+03  0.50817040103E+03  0.30459456042E+03  0.64580939079E+03  0.50400001928E-02 0. -1.
       -1    1    3    3    0  502 -0.25701121860E+03 -0.50817040103E+03  0.57828972591E+03  0.81161008501E+03  0.50400001928E-02 0.  1.
</event>
<event>
 5   0  0.3725376E-03  0.1206985E+04  0.7818609E-02  0.9106765E-01
       -2   -1    0    0    0  501  0.00000000000E+00  0.00000000000E+00  0.99224099039E+03  0.99224099039E+03  0.25500000920E-02 0.  1.
        2   -1    0    0  501    0  0.00000000000E+00  0.00000000000E+00 -0.36705088947E+03  0.36705088948E+03  0.25500000920E-02 0. -1.
    10030    2    1    2    0    0  0.00000000000E+00  0.00000000000E+00  0.62519010092E+03  0.13592918799E+04  0.12069845701E+04 0.  0.
        4    1    3    3  502    0 -0.57642875186E+03 -0.41377371184E+02  0.11682240929E+03  0.58960264673E+03  0.12699999809E+01 0. -1.
       -4    1    3    3    0  502  0.57642875186E+03  0.41377371184E+02  0.50836769163E+03  0.76968923314E+03  0.12699999809E+01 0.  1.
</event>
<event>
 5   0  0.3706035E-03  0.1209879E+04  0.7818609E-02  0.9104254E-01
        2   -1    0    0  501    0  0.00000000000E+00  0.00000000000E+00  0.17586363569E+04  0.17586363569E+04  0.25500000920E-02 0. -1.
       -2   -1    0    0    0  501  0.00000000000E+00  0.00000000000E+00 -0.20808823777E+03  0.20808823779E+03  0.25500000920E-02 0.  1.
    10030    2    1    2    0    0  0.00000000000E+00  0.00000000000E+00  0.15505481191E+04  0.19667245947E+04  0.12098785731E+04 0.  0.
        2    1    3    3  502    0 -0.90956610348E+02 -0.16861252972E+03  0.17080202871E+04  0.17187310992E+04  0.25500000920E-02 0. -1.
       -2    1    3    3    0  502  0.90956610348E+02  0.16861252972E+03 -0.15747216794E+03  0.24799349554E+03  0.25500000920E-02 0.  1.
</event>
<event>
 5   0  0.2025294E-03  0.1093021E+04  0.7818609E-02  0.9212021E-01
        1   -1    0    0  501    0  0.00000000000E+00  0.00000000000E+00  0.10356887430E+04  0.10356887430E+04  0.50400001928E-02 0.  1.
       -1   -1    0    0    0  501  0.00000000000E+00  0.00000000000E+00 -0.28838149203E+03  0.28838149207E+03  0.50400001928E-02 0. -1.
    10030    2    1    2    0    0  0.00000000000E+00  0.00000000000E+00  0.74730725098E+03  0.13240702351E+04  0.10930205213E+04 0.  0.
        5    1    3    3  502    0  0.22832510648E+03 -0.20017231094E+03  0.92406857460E+03  0.97269015050E+03  0.46999998093E+01 0.  1.
       -5    1    3    3    0  502 -0.22832510648E+03  0.20017231094E+03 -0.17676132362E+03  0.35138008459E+03  0.46999998093E+01 0. -1.
</event>
<event>
 5   0  0.2078258E-03  0.1198634E+04  0.7818609E-02  0.9114053E-01
        1   -1    0    0  501    0  0.00000000000E+00  0.00000000000E+00  0.45442097891E+03  0.45442097894E+03  0.50400001928E-02 0.  1.
       -1   -1    0    0    0  501  0.00000000000E+00  0.00000000000E+00 -0.79041491184E+03  0.79041491185E+03  0.50400001928E-02 0. -1.
    10030    2    1    2    0    0  0.00000000000E+00  0.00000000000E+00 -0.33599393293E+03  0.12448358908E+04  0.11986344197E+04 0.  0.
        3    1    3    3  502    0 -0.21514201651E+03 -0.39109663432E+03  0.24734114975E+03  0.51031394181E+03  0.10100000352E+00 0.  1.
       -3    1    3    3    0  502  0.21514201651E+03  0.39109663432E+03 -0.58333508268E+03  0.73452194898E+03  0.10100000352E+00 0. -1.
</event>
<event>
 5   0  0.3626049E-03  0.1185863E+04  0.7818609E-02  0.9125322E-01
       -2   -1    0    0    0  501  0.00000000000E+00  0.00000000000E+00  0.10218497399E+04  0.10218497399E+04  0.25500000920E-02 0.  1.
        2   -1    0    0  501    0  0.00000000000E+00  0.00000000000E+00 -0.34405016258E+03  0.34405016259E+03  0.25500000920E-02 0. -1.
    10030    2    1    2    0    0  0.00000000000E+00  0.00000000000E+00  0.67779957733E+03  0.13658999025E+04  0.11858626719E+04 0.  0.
        1    1    3    3  502    0 -0.15158136161E+03 -0.13575871197E+03  0.98037153376E+03  0.10012670380E+04  0.50400001928E-02 0.  1.
       -1    1    3    3    0  502  0.15158136161E+03  0.13575871197E+03 -0.30257195644E+03  0.36463286455E+03  0.50400001928E-02 0. -1.
</event>
<event>
 5   0  0.2134992E-03  0.1198364E+04  0.7818609E-02  0.9114290E-01
       -1   -1    0    0    0  501  0.00000000000E+00  0.00000000000E+00  0.40606398034E+03  0.40606398037E+03  0.50400001928E-02 0. -1.
        1   -1    0    0  501    0  0.00000000000E+00  0.00000000000E+00 -0.88414376418E+03  0.88414376419E+03  0.50400001928E-02 0.  1.
    10030    2    1    2    0    0  0.00000000000E+00  0.00000000000E+00 -0.47807978384E+03  0.12902077446E+04  0.11983637780E+04 0.  0.
        4    1    3    3  502    0 -0.32097753202E+03  0.14680855765E+02 -0.78354280065E+03  0.84686659925E+03  0.12699999809E+01 0.  1.
       -4    1    3    3    0  502  0.32097753202E+03 -0.14680855765E+02  0.30546301681E+03  0.44334114531E+03  0.12699999809E+01 0. -1.
</event>
<event>
 5   0  0.2078258E-03  0.1191836E+04  0.7818609E-02  0.9120033E-01
       -1   -1    0    0    0  501  0.00000000000E+00  0.00000000000E+00  0.28269725773E+03  0.28269725778E+03  0.50400001928E-02 0. -1.
        1   -1    0    0  501    0  0.00000000000E+00  0.00000000000E+00 -0.12561781696E+04  0.12561781696E+04  0.50400001928E-02 0.  1.
    10030    2    1    2    0    0  0.00000000000E+00  0.00000000000E+00 -0.97348091183E+03  0.15388754273E+04  0.11918357669E+04 0.  0.
        3    1    3    3  502    0 -0.21928589521E+03  0.55408593381E+03 -0.48088189275E+03  0.76573163110E+03  0.10100000352E+00 0.  1.
       -3    1    3    3    0  502  0.21928589521E+03 -0.55408593381E+03 -0.49259901908E+03  0.77314379625E+03  0.10100000352E+00 0. -1.
</event>
<event>
 5   0  0.2047109E-03  0.1206067E+04  0.7818609E-02  0.9107563E-01
       -1   -1    0    0    0  501  0.00000000000E+00  0.00000000000E+00  0.20941083673E+03  0.20941083679E+03  0.50400001928E-02 0.  1.
        1   -1    0    0  501    0  0.00000000000E+00  0.00000000000E+00 -0.17365353558E+04  0.17365353558E+04  0.50400001928E-02 0. -1.
    10030    2    1    2    0    0  0.00000000000E+00  0.00000000000E+00 -0.15271245191E+04  0.19459461926E+04  0.12060668670E+04 0.  0.
        1    1    3    3  502    0  0.27560787413E+03  0.36429650554E+03 -0.13987381646E+04  0.14714415032E+04  0.50400001928E-02 0. -1.
       -1    1    3    3    0  502 -0.27560787413E+03 -0.36429650554E+03 -0.12838635448E+03  0.47450468941E+03  0.50400001928E-02 0.  1.
</event>
<event>
 5   0  0.2025294E-03  0.1147486E+04  0.7818609E-02  0.9160106E-01
       -1   -1    0    0    0  501  0.00000000000E+00  0.00000000000E+00  0.18994282614E+03  0.18994282620E+03  0.50400001928E-02 0. -1.
        1   -1    0    0  501    0  0.00000000000E+00  0.00000000000E+00 -0.17330527285E+04  0.17330527285E+04  0.50400001928E-02 0.  1.
    10030    2    1    2    0    0  0.00000000000E+00  0.00000000000E+00 -0.15431099024E+04  0.19229955547E+04  0.11474858311E+04 0.  0.
        5    1    3    3  502    0  0.58977060009E+02  0.36838883286E+03 -0.15019767207E+04  0.15476255314E+04  0.46999998093E+01 0.  1.
       -5    1    3    3    0  502 -0.58977060009E+02 -0.36838883286E+03 -0.41133181639E+02  0.37537002333E+03  0.46999998093E+01 0. -1.
</event>
<event>
 5   0  0.2078258E-03  0.1186927E+04  0.7818609E-02  0.9124377E-01
       -1   -1    0    0    0  501  0.00000000000E+00  0.00000000000E+00  0.14383093872E+03  0.14383093880E+03  0.50400001928E-02 0.  1.
        1   -1    0    0  501    0  0.00000000000E+00  0.00000000000E+00 -0.24487014587E+04  0.24487014587E+04  0.50400001928E-02 0. -1.
    10030    2    1    2    0    0  0.00000000000E+00  0.00000000000E+00 -0.23048705200E+04  0.25925323975E+04  0.11869271748E+04 0.  0.
        3    1    3    3  502    0 -0.16307719684E+03 -0.48612924220E+03 -0.18050922746E+04  0.18765057800E+04  0.10100000352E+00 0. -1.
       -3    1    3    3    0  502  0.16307719684E+03  0.48612924220E+03 -0.49977824537E+03  0.71602661752E+03  0.10100000352E+00 0.  1.
</event>
<event>
 5   0  0.3725376E-03  0.1176255E+04  0.7818609E-02  0.9133898E-01
       -2   -1    0    0    0  501  0.00000000000E+00  0.00000000000E+00  0.54505345351E+03  0.54505345352E+03  0.25500000920E-02 0.  1.
        2   -1    0    0  501    0  0.00000000000E+00  0.00000000000E+00 -0.63460560572E+03  0.63460560572E+03  0.25500000920E-02 0. -1.
    10030    2    1    2    0    0  0.00000000000E+00  0.00000000000E+00 -0.89552152204E+02  0.11796590592E+04  0.11762550353E+04 0.  0.
        4    1    3    3  502    0  0.14945625682E+03 -0.34969572636E+03 -0.49470351003E+03  0.62398513562E+03  0.12699999809E+01 0. -1.
       -4    1    3    3    0  502 -0.14945625682E+03  0.34969572636E+03  0.40515135783E+03  0.55567392362E+03  0.12699999809E+01 0.  1.
</event>
<event>
 5   0  0.3626049E-03  0.1215389E+04  0.7818609E-02  0.9099492E-01
        2   -1    0    0  501    0  0.00000000000E+00  0.00000000000E+00  0.13798488411E+04  0.13798488411E+04  0.25500000920E-02 0. -1.
       -2   -1    0    0    0  501  0.00000000000E+00  0.00000000000E+00 -0.26763283624E+03  0.26763283626E+03  0.25500000920E-02 0.  1.
    10030    2    1    2    0    0  0.00000000000E+00  0.00000000000E+00  0.11122160049E+04  0.16474816774E+04  0.12153894173E+04 0.  0.
        1    1    3    3  502    0  0.59741614242E+02  0.11398042351E+03 -0.24895104324E+03  0.28024492747E+03  0.50400001928E-02 0.  1.
       -1    1    3    3    0  502 -0.59741614242E+02 -0.11398042351E+03  0.13611670481E+04  0.13672367499E+04  0.50400001928E-02 0. -1.
</event>
<event>
 5   0  0.2134992E-03  0.1194187E+04  0.7818609E-02  0.9117960E-01
        1   -1    0    0  501    0  0.00000000000E+00  0.00000000000E+00  0.52099071105E+03  0.52099071108E+03  0.50400001928E-02 0. -1.
       -1   -1    0    0    0  501  0.00000000000E+00  0.00000000000E+00 -0.68431235132E+03  0.68431235134E+03  0.50400001928E-02 0.  1.
    10030    2    1    2    0    0  0.00000000000E+00  0.00000000000E+00 -0.16332164027E+03  0.12053030624E+04  0.11941865491E+04 0.  0.
        4    1    3    3  502    0  0.21230298608E+03  0.54747056337E+03  0.27616104068E+02  0.58784422916E+03  0.12699999809E+01 0. -1.
       -4    1    3    3    0  502 -0.21230298608E+03 -0.54747056337E+03 -0.19093774433E+03  0.61745883325E+03  0.12699999809E+01 0.  1.
</event>
<event>
 5   0  0.3751091E-03  0.1244330E+04  0.7818609E-02  0.9074916E-01
        2   -1    0    0  501    0  0.00000000000E+00  0.00000000000E+00  0.69923684778E+03  0.69923684778E+03  0.25500000920E-02 0.  1.
       -2   -1    0    0    0  501  0.00000000000E+00  0.00000000000E+00 -0.55358829794E+03  0.55358829795E+03  0.25500000920E-02 0. -1.
    10030    2    1    2    0    0  0.00000000000E+00  0.00000000000E+00  0.14564854984E+03  0.12528251457E+04  0.12443300791E+04 0.  0.
        5    1    3    3  502    0  0.41907323564E+02  0.11580841331E+03  0.68682321431E+03  0.69779368732E+03  0.46999998093E+01 0.  1.
       -5    1    3    3    0  502 -0.41907323564E+02 -0.11580841331E+03 -0.54117466447E+03  0.55503145841E+03  0.46999998093E+01 0. -1.
</event>
<event>
 5   0  0.2134992E-03  0.1177604E+04  0.7818609E-02  0.9132689E-01
       -1   -1    0    0    0  501  0.00000000000E+00  0.00000000000E+00  0.89547429559E+03  0.89547429560E+03  0.50400001928E-02 0. -1.
        1   -1    0    0  501    0  0.00000000000E+00  0.00000000000E+00 -0.38715522323E+03  0.38715522326E+03  0.50400001928E-02 0.  1.
    10030    2    1    2    0    0  0.00000000000E+00  0.00000000000E+00  0.50831907236E+03  0.12826295189E+04  0.11776035850E+04 0.  0.
        4    1    3    3  502    0  0.25184340347E+03 -0.44619634918E+03  0.57015430115E+03  0.76654668606E+03  0.12699999809E+01 0. -1.
       -4    1    3    3    0  502 -0.25184340347E+03  0.44619634918E+03 -0.61835228787E+02  0.51608283281E+03  0.12699999809E+01 0.  1.
</event>
<event>
 5   0  0.2047109E-03  0.1207217E+04  0.7818609E-02  0.9106563E-01
       -1   -1    0    0    0  501  0.00000000000E+00  0.00000000000E+00  0.22247341467E+03  0.22247341473E+03  0.50400001928E-02 0.  1.
        1   -1    0    0  501    0  0.00000000000E+00  0.00000000000E+00 -0.16376933240E+04  0.16376933240E+04  0.50400001928E-02 0. -1.
    10030    2    1    2    0    0  0.00000000000E+00  0.00000000000E+00 -0.14152199094E+04  0.18601667388E+04  0.12072170079E+04 0.  0.
        1    1    3    3  502    0 -0.16785827571E+03  0.38274081037E+03 -0.13786880463E+04  0.14406414050E+04  0.50400001928E-02 0.  1.
       -1    1    3    3    0  502  0.16785827571E+03 -0.38274081037E+03 -0.36531863039E+02  0.41952533379E+03  0.50400001928E-02 0. -1.
</event>
<event>
 5   0  0.2047109E-03  0.1183178E+04  0.7818609E-02  0.9127710E-01
        1   -1    0    0  501    0  0.00000000000E+00  0.00000000000E+00  0.68833715237E+03  0.68833715239E+03  0.50400001928E-02 0. -1.
       -1   -1    0    0    0  501  0.00000000000E+00  0.00000000000E+00 -0.50843886606E+03  0.50843886608E+03  0.50400001928E-02 0.  1.
    10030    2    1    2    0    0  0.00000000000E+00  0.00000000000E+00  0.17989828631E+03  0.11967760185E+04  0.11831776895E+04 0.  0.
        1    1    3    3  502    0  0.43366694077E+02  0.25921673876E+03  0.62604368254E+03  0.67897325447E+03  0.50400001928E-02 0. -1.
       -1    1    3    3    0  502 -0.43366694077E+02 -0.25921673876E+03 -0.44614539623E+03  0.51780276400E+03  0.50400001928E-02 0.  1.
</event>
<event>
 5   0  0.2078258E-03  0.1197844E+04  0.7818609E-02  0.9114745E-01
        1   -1    0    0  501    0  0.00000000000E+00  0.00000000000E+00  0.38619448590E+03  0.38619448593E+03  0.50400001928E-02 0. -1.
       -1   -1    0    0    0  501  0.00000000000E+00  0.00000000000E+00 -0.92882698531E+03  0.92882698533E+03  0.50400001928E-02 0.  1.
    10030    2    1    2    0    0  0.00000000000E+00  0.00000000000E+00 -0.54263249942E+03  0.13150214713E+04  0.11978444976E+04 0.  0.
        3    1    3    3  502    0 -0.41429711738E+03 -0.20802433077E+03 -0.68760933709E+03  0.82929056085E+03  0.10100000352E+00 0.  1.
       -3    1    3    3    0  502  0.41429711738E+03  0.20802433077E+03  0.14497683767E+03  0.48573091041E+03  0.10100000352E+00 0. -1.
</event>
<event>
 5   0  0.3751091E-03  0.1273506E+04  0.7818609E-02  0.9050843E-01
        2   -1    0    0  501    0  0.00000000000E+00  0.00000000000E+00  0.17005981488E+04  0.17005981488E+04  0.25500000920E-02 0.  1.
       -2   -1    0    0    0  501  0.00000000000E+00  0.00000000000E+00 -0.23841863642E+03  0.23841863644E+03  0.25500000920E-02 0. -1.
    10030    2    1    2    0    0  0.00000000000E+00  0.00000000000E+00  0.14621795124E+04  0.19390167852E+04  0.12735058567E+04 0.  0.
        5    1    3    3  502    0  0.31484416773E+03 -0.25133582249E+03  0.14818563651E+04  0.15356486976E+04  0.46999998093E+01 0.  1.
       -5    1    3    3    0  502 -0.31484416773E+03  0.25133582249E+03 -0.19676852703E+02  0.40336808767E+03  0.46999998093E+01 0. -1.
</event>
<event>
 5   0  0.3626049E-03  0.1180644E+04  0.7818609E-02  0.9129969E-01
        2   -1    0    0  501    0  0.00000000000E+00  0.00000000000E+00  0.53948785206E+03  0.53948785207E+03  0.25500000920E-02 0.  1.
       -2   -1    0    0    0  501  0.00000000000E+00  0.00000000000E+00 -0.64594638578E+03  0.64594638578E+03  0.25500000920E-02 0. -1.
    10030    2    1    2    0    0  0.00000000000E+00  0.00000000000E+00 -0.10645853372E+03  0.11854342379E+04  0.11806442787E+04 0.  0.
        1    1    3    3  502    0  0.10223466409E+03 -0.57661928115E+03  0.21493806280E+02  0.58600657477E+03  0.50400001928E-02 0.  1.
       -1    1    3    3    0  502 -0.10223466409E+03  0.57661928115E+03 -0.12795234000E+03  0.59942766309E+03  0.50400001928E-02 0. -1.
</event>
<event>
 5   0  0.2134992E-03  0.1212308E+04  0.7818609E-02  0.9102151E-01
       -1   -1    0    0    0  501  0.00000000000E+00  0.00000000000E+00  0.10069695681E+04  0.10069695681E+04  0.50400001928E-02 0.  1.
        1   -1    0    0  501    0  0.00000000000E+00  0.00000000000E+00 -0.36487946150E+03  0.36487946154E+03  0.50400001928E-02 0. -1.
    10030    2    1    2    0    0  0.00000000000E+00  0.00000000000E+00  0.64209010661E+03  0.13718490297E+04  0.12123077395E+04 0.  0.
        4    1    3    3  502    0  0.14554990261E+02  0.35602755625E+03  0.87593765320E+03  0.94564044633E+03  0.12699999809E+01 0.  1.
       -4    1    3    3    0  502 -0.14554990261E+02 -0.35602755625E+03 -0.23384754659E+03  0.42620858332E+03  0.12699999809E+01 0. -1.
</event>
<event>
 5   0  0.2078258E-03  0.1183951E+04  0.7818609E-02  0.9127021E-01
       -1   -1    0    0    0  501  0.00000000000E+00  0.00000000000E+00  0.38507156316E+03  0.38507156320E+03  0.50400001928E-02 0.  1.
        1   -1    0    0  501    0  0.00000000000E+00  0.00000000000E+00 -0.91005178973E+03  0.91005178974E+03  0.50400001928E-02 0. -1.
    10030    2    1    2    0    0  0.00000000000E+00  0.00000000000E+00 -0.52498022656E+03  0.12951233529E+04  0.11839511227E+04 0.  0.
        3    1    3    3  502    0  0.34005318835E+02 -0.35147361343E+02  0.38285798521E+03  0.38596884040E+03  0.10100000352E+00 0.  1.
       -3    1    3    3    0  502 -0.34005318835E+02  0.35147361343E+02 -0.90783821177E+03  0.90915451254E+03  0.10100000352E+00 0. -1.
</event>
<event>
 5   0  0.3751091E-03  0.1205782E+04  0.7818609E-02  0.9107810E-01
       -2   -1    0    0    0  501  0.00000000000E+00  0.00000000000E+00  0.94713355304E+03  0.94713355304E+03  0.25500000920E-02 0.  1.
        2   -1    0    0  501    0  0.00000000000E+00  0.00000000000E+00 -0.38376610644E+03  0.38376610645E+03  0.25500000920E-02 0. -1.
    10030    2    1    2    0    0  0.00000000000E+00  0.00000000000E+00  0.56336744660E+03  0.13308996595E+04  0.12057823285E+04 0.  0.
        5    1    3    3  502    0  0.33581237670E+03  0.26605518436E+03 -0.18647423059E+03  0.46727940479E+03  0.46999998093E+01 0. -1.
       -5    1    3    3    0  502 -0.33581237670E+03 -0.26605518436E+03  0.74984167719E+03  0.86362025469E+03  0.46999998093E+01 0.  1.
</event>
<event>
 5   0  0.2078258E-03  0.1207269E+04  0.7818609E-02  0.9106518E-01
       -1   -1    0    0    0  501  0.00000000000E+00  0.00000000000E+00  0.57372033497E+03  0.57372033499E+03  0.50400001928E-02 0. -1.
        1   -1    0    0  501    0  0.00000000000E+00  0.00000000000E+00 -0.63510800670E+03  0.63510800672E+03  0.50400001928E-02 0.  1.
    10030    2    1    2    0    0  0.00000000000E+00  0.00000000000E+00 -0.61387671730E+02  0.12088283417E+04  0.12072686170E+04 0.  0.
        3    1    3    3  502    0  0.54806073001E+03  0.10157423201E+03  0.20130894290E+03  0.59263242325E+03  0.10100000352E+00 0.  1.
       -3    1    3    3    0  502 -0.54806073001E+03 -0.10157423201E+03 -0.26269661463E+03  0.61619591846E+03  0.10100000352E+00 0. -1.
</event>
<event>
 5   0  0.2078258E-03  0.1253456E+04  0.7818609E-02  0.9067312E-01
       -1   -1    0    0    0  501  0.00000000000E+00  0.00000000000E+00  0.51155306659E+03  0.51155306662E+03  0.50400001928E-02 0.  1.
        1   -1    0    0  501    0  0.00000000000E+00  0.00000000000E+00 -0.76783429347E+03  0.76783429349E+03  0.50400001928E-02 0. -1.
    10030    2    1    2    0    0  0.00000000000E+00  0.00000000000E+00 -0.25628122687E+03  0.12793873601E+04  0.12534560024E+04 0.  0.
        3    1    3    3  502    0  0.57264085145E+03  0.10445827542E+03  0.10895554106E+03  0.59219962528E+03  0.10100000352E+00 0.  1.
       -3    1    3    3    0  502 -0.57264085145E+03 -0.10445827542E+03 -0.36523676793E+03  0.68718773483E+03  0.10100000352E+00 0. -1.
</event>
<event>
 5   0  0.3725376E-03  0.1198648E+04  0.7818609E-02  0.9114041E-01
       -2   -1    0    0    0  501  0.00000000000E+00  0.00000000000E+00  0.37360000806E+03  0.37360000807E+03  0.25500000920E-02 0.  1.
        2   -1    0    0  501    0  0.00000000000E+00  0.00000000000E+00 -0.96142718605E+03  0.96142718605E+03  0.25500000920E-02 0. -1.
    10030    2    1    2    0    0  0.00000000000E+00  0.00000000000E+00 -0.58782717799E+03  0.13350271941E+04  0.11986479124E+04 0.  0.
        4    1    3    3  502    0  0.25878201079E+03 -0.48782710964E+02  0.30570822211E+03  0.40349350920E+03  0.12699999809E+01 0.  1.
       -4    1    3    3    0  502 -0.25878201079E+03  0.48782710964E+02 -0.89353540010E+03  0.93153368492E+03  0.12699999809E+01 0. -1.
</event>
<event>
 5   0  0.3706035E-03  0.9334827E+03  0.7818609E-02  0.9384668E-01
        2   -1    0    0  501    0  0.00000000000E+00  0.00000000000E+00  0.11100915278E+04  0.11100915278E+04  0.25500000920E-02 0.  1.
       -2   -1    0    0    0  501  0.00000000000E+00  0.00000000000E+00 -0.19624280275E+03  0.19624280277E+03  0.25500000920E-02 0. -1.
    10030    2    1    2    0    0  0.00000000000E+00  0.00000000000E+00  0.91384872504E+03  0.13063343306E+04  0.93348266773E+03 0.  0.
        2    1    3    3  502    0  0.18884889332E+03  0.22501023394E+03 -0.50650433923E+02  0.29809222792E+03  0.25500000920E-02 0. -1.
       -2    1    3    3    0  502 -0.18884889332E+03 -0.22501023394E+03  0.96449915897E+03  0.10082421026E+04  0.25500000920E-02 0.  1.
</event>
<event>
 5   0  0.2096270E-03  0.1186726E+04  0.7818609E-02  0.9124555E-01
       -1   -1    0    0    0  501  0.00000000000E+00  0.00000000000E+00  0.43044659351E+03  0.43044659354E+03  0.50400001928E-02 0.  1.
        1   -1    0    0  501    0  0.00000000000E+00  0.00000000000E+00 -0.81794065795E+03  0.81794065796E+03  0.50400001928E-02 0. -1.
    10030    2    1    2    0    0  0.00000000000E+00  0.00000000000E+00 -0.38749406444E+03  0.12483872515E+04  0.11867262025E+04 0.  0.
        2    1    3    3  502    0  0.16752728831E+03 -0.11652862001E+03  0.39237015127E+03  0.44226535839E+03  0.25500000920E-02 0.  1.
       -2    1    3    3    0  502 -0.16752728831E+03  0.11652862001E+03 -0.77986421571E+03  0.80612189312E+03  0.25500000920E-02 0. -1.
</event>
<event>
 5   0  0.3706035E-03  0.1206821E+04  0.7818609E-02  0.9106907E-01
       -2   -1    0    0    0  501  0.00000000000E+00  0.00000000000E+00  0.33864750182E+03  0.33864750183E+03  0.25500000920E-02 0.  1.
        2   -1    0    0  501    0  0.00000000000E+00  0.00000000000E+00 -0.10751715564E+04  0.10751715564E+04  0.25500000920E-02 0. -1.
    10030    2    1    2    0    0  0.00000000000E+00  0.00000000000E+00 -0.73652405457E+03  0.14138190582E+04  0.12068208842E+04 0.  0.
        2    1    3    3  502    0  0.45810068817E+03 -0.24917367375E+03 -0.72391233877E+03  0.89218430519E+03  0.25500000920E-02 0. -1.
       -2    1    3    3    0  502 -0.45810068817E+03  0.24917367375E+03 -0.12611715797E+02  0.52163475304E+03  0.25500000920E-02 0.  1.
</event>
<event>
 5   0  0.2096270E-03  0.1206841E+04  0.7818609E-02  0.9106890E-01
       -1   -1    0    0    0  501  0.00000000000E+00  0.00000000000E+00  0.56097335143E+03  0.56097335145E+03  0.50400001928E-02 0.  1.
        1   -1    0    0  501    0  0.00000000000E+00  0.00000000000E+00 -0.64907898535E+03  0.64907898537E+03  0.50400001928E-02 0. -1.
    10030    2    1    2    0    0  0.00000000000E+00  0.00000000000E+00 -0.88105633921E+02  0.12100523368E+04  0.12068405260E+04 0.  0.
        2    1    3    3  502    0  0.10146725228E+03 -0.69344541521E+00 -0.64046350152E+03  0.64845167972E+03  0.25500000920E-02 0. -1.
       -2    1    3    3    0  502 -0.10146725228E+03  0.69344541521E+00  0.55235786759E+03  0.56160065710E+03  0.25500000920E-02 0.  1.
</event>
<event>
 5   0  0.1397500E-03  0.1221120E+04  0.7818609E-02  0.9094568E-01
        3   -1    0    0  501    0  0.00000000000E+00  0.00000000000E+00  0.50257120778E+03  0.50257121793E+03  0.10100000352E+00 0.  1.
       -3   -1    0    0    0  501  0.00000000000E+00  0.00000000000E+00 -0.74175272403E+03  0.74175273090E+03  0.10100000352E+00 0. -1.
    10030    2    1    2    0    0  0.00000000000E+00  0.00000000000E+00 -0.23918151624E+03  0.12443239488E+04  0.12211200973E+04 0.  0.
        4    1    3    3  502    0  0.90983610751E+02  0.39807979560E+03 -0.58212839519E+03  0.71107005455E+03  0.12699999809E+01 0. -1.
       -4    1    3    3    0  502 -0.90983610751E+02 -0.39807979560E+03  0.34294687895E+03  0.53325389429E+03  0.12699999809E+01 0.  1.
</event>
<event>
 5   0  0.2047109E-03  0.1164378E+04  0.7818609E-02  0.9144621E-01
       -1   -1    0    0    0  501  0.00000000000E+00  0.00000000000E+00  0.26993109603E+03  0.26993109608E+03  0.50400001928E-02 0.  1.
        1   -1    0    0  501    0  0.00000000000E+00  0.00000000000E+00 -0.12556679684E+04  0.12556679684E+04  0.50400001928E-02 0. -1.
    10030    2    1    2    0    0  0.00000000000E+00  0.00000000000E+00 -0.98573687236E+03  0.15255990645E+04  0.11643776552E+04 0.  0.
        1    1    3    3  502    0 -0.20688978944E+03  0.45547981465E+03 -0.88304028103E+03  0.10149016625E+04  0.50400001928E-02 0.  1.
       -1    1    3    3    0  502  0.20688978944E+03 -0.45547981465E+03 -0.10269659134E+03  0.51069740202E+03  0.50400001928E-02 0. -1.
</event>
<event>
 5   0  0.3706035E-03  0.1433845E+04  0.7818609E-02  0.8929677E-01
        2   -1    0    0  501    0  0.00000000000E+00  0.00000000000E+00  0.81123451944E+03  0.81123451944E+03  0.25500000920E-02 0. -1.
       -2   -1    0    0    0  501  0.00000000000E+00  0.00000000000E+00 -0.63357528563E+03  0.63357528564E+03  0.25500000920E-02 0.  1.
    10030    2    1    2    0    0  0.00000000000E+00  0.00000000000E+00  0.17765923380E+03  0.14448098051E+04  0.14338453785E+04 0.  0.
        2    1    3    3  502    0  0.27064799604E+03 -0.60375738072E+03 -0.18933354107E+03  0.68820091711E+03  0.25500000920E-02 0.  1.
       -2    1    3    3    0  502 -0.27064799604E+03  0.60375738072E+03  0.36699277488E+03  0.75660888797E+03  0.25500000920E-02 0. -1.
</event>
<event>
 5   0  0.3725376E-03  0.1221819E+04  0.7818609E-02  0.9093970E-01
       -2   -1    0    0    0  501  0.00000000000E+00  0.00000000000E+00  0.39288073873E+03  0.39288073874E+03  0.25500000920E-02 0. -1.
        2   -1    0    0  501    0  0.00000000000E+00  0.00000000000E+00 -0.94993244706E+03  0.94993244706E+03  0.25500000920E-02 0.  1.
    10030    2    1    2    0    0  0.00000000000E+00  0.00000000000E+00 -0.55705170833E+03  0.13428131858E+04  0.12218185816E+04 0.  0.
        4    1    3    3  502    0  0.55455826812E+02  0.58541938381E+03 -0.46050497808E+03  0.74689868885E+03  0.12699999809E+01 0.  1.
       -4    1    3    3    0  502 -0.55455826812E+02 -0.58541938381E+03 -0.96546730247E+02  0.59591449696E+03  0.12699999809E+01 0. -1.
</event>
<event>
 5   0  0.3626049E-03  0.1190066E+04  0.7818609E-02  0.9121596E-01
       -2   -1    0    0    0  501  0.00000000000E+00  0.00000000000E+00  0.88862582067E+03  0.88862582067E+03  0.25500000920E-02 0.  1.
        2   -1    0    0  501    0  0.00000000000E+00  0.00000000000E+00 -0.39844021546E+03  0.39844021547E+03  0.25500000920E-02 0. -1.
    10030    2    1    2    0    0  0.00000000000E+00  0.00000000000E+00  0.49018560521E+03  0.12870660361E+04  0.11900659872E+04 0.  0.
        1    1    3    3  502    0 -0.25616615271E+03 -0.34962923200E+03  0.68600148297E+03  0.81145531751E+03  0.50400001928E-02 0.  1.
       -1    1    3    3    0  502  0.25616615271E+03  0.34962923200E+03 -0.19581587776E+03  0.47561071862E+03  0.50400001928E-02 0. -1.
</event>
<event>
 5   0  0.3626049E-03  0.1200261E+04  0.7818609E-02  0.9112628E-01
       -2   -1    0    0    0  501  0.00000000000E+00  0.00000000000E+00  0.44559334750E+03  0.44559334751E+03  0.25500000920E-02 0.  1.
        2   -1    0    0  501    0  0.00000000000E+00  0.00000000000E+00 -0.80826248004E+03  0.80826248004E+03  0.25500000920E-02 0. -1.
    10030    2    1    2    0    0  0.00000000000E+00  0.00000000000E+00 -0.36266913254E+03  0.12538558276E+04  0.12002606119E+04 0.  0.
        1    1    3    3  502    0 -0.29610066960E+02 -0.27960673592E+03 -0.73519742175E+03  0.78712891690E+03  0.50400001928E-02 0. -1.
       -1    1    3    3    0  502  0.29610066960E+02  0.27960673592E+03  0.37252828922E+03  0.46672691065E+03  0.50400001928E-02 0.  1.
</event>
<event>
 5   0  0.2096270E-03  0.1217606E+04  0.7818609E-02  0.9097584E-01
       -1   -1    0    0    0  501  0.00000000000E+00  0.00000000000E+00  0.49400592294E+03  0.49400592296E+03  0.50400001928E-02 0. -1.
        1   -1    0    0  501    0  0.00000000000E+00  0.00000000000E+00 -0.75027678014E+03  0.75027678015E+03  0.50400001928E-02 0.  1.
    10030    2    1    2    0    0  0.00000000000E+00  0.00000000000E+00 -0.25627085720E+03  0.12442827031E+04  0.12176061321E+04 0.  0.
        2    1    3    3  502    0 -0.52461562636E+03  0.11401732343E+03  0.16524265488E+03  0.56171758070E+03  0.25500000920E-02 0. -1.
       -2    1    3    3    0  502  0.52461562636E+03 -0.11401732343E+03 -0.42151351208E+03  0.68256512242E+03  0.25500000920E-02 0.  1.
</event>
<event>
 5   0  0.1397500E-03  0.1194025E+04  0.7818609E-02  0.9118103E-01
       -4   -1    0    0    0  501  0.00000000000E+00  0.00000000000E+00  0.36997894803E+03  0.36998112774E+03  0.12699999809E+01 0.  1.
        4   -1    0    0  501    0  0.00000000000E+00  0.00000000000E+00 -0.96335737345E+03  0.96335821058E+03  0.12699999809E+01 0. -1.
    10030    2    1    2    0    0  0.00000000000E+00  0.00000000000E+00 -0.59337842542E+03  0.13333393383E+04  0.11940250564E+04 0.  0.
        3    1    3    3  502    0 -0.45053138647E+03  0.28355601363E+03  0.51056293764E+01  0.53236136290E+03  0.10100000352E+00 0.  1.
       -3    1    3    3    0  502  0.45053138647E+03 -0.28355601363E+03 -0.59848405480E+03  0.80097797542E+03  0.10100000352E+00 0. -1.
</event>
<event>
 5   0  0.3626049E-03  0.1182275E+04  0.7818609E-02  0.9128514E-01
        2   -1    0    0  501    0  0.00000000000E+00  0.00000000000E+00  0.90221200405E+03  0.90221200405E+03  0.25500000920E-02 0. -1.
       -2   -1    0    0    0  501  0.00000000000E+00  0.00000000000E+00 -0.38731846408E+03  0.38731846409E+03  0.25500000920E-02 0.  1.
    10030    2    1    2    0    0  0.00000000000E+00  0.00000000000E+00  0.51489353997E+03  0.12895304681E+04  0.11822747019E+04 0.  0.
        1    1    3    3  502    0 -0.33115703619E+03 -0.14485258383E+03  0.76763802848E+03  0.84847828284E+03  0.50400001928E-02 0. -1.
       -1    1    3    3    0  502  0.33115703619E+03  0.14485258383E+03 -0.25274448851E+03  0.44105218530E+03  0.50400001928E-02 0.  1.
</event>
<event>
 5   0  0.3751091E-03  0.1211998E+04  0.7818609E-02  0.9102419E-01
       -2   -1    0    0    0  501  0.00000000000E+00  0.00000000000E+00  0.97956798686E+03  0.97956798686E+03  0.25500000920E-02 0.  1.
        2   -1    0    0  501    0  0.00000000000E+00  0.00000000000E+00 -0.37489454784E+03  0.37489454785E+03  0.25500000920E-02 0. -1.
    10030    2    1    2    0    0  0.00000000000E+00  0.00000000000E+00  0.60467343902E+03  0.13544625347E+04  0.12119978507E+04 0.  0.
        5    1    3    3  502    0  0.55051687773E+02 -0.44765674708E+03  0.75461182282E+03  0.87914068537E+03  0.46999998093E+01 0.  1.
       -5    1    3    3    0  502 -0.55051687773E+02  0.44765674708E+03 -0.14993838380E+03  0.47532184935E+03  0.46999998093E+01 0. -1.
</event>
<event>
 5   0  0.3725376E-03  0.1413896E+04  0.7818609E-02  0.8943821E-01
        2   -1    0    0  501    0  0.00000000000E+00  0.00000000000E+00  0.27255445059E+04  0.27255445059E+04  0.25500000920E-02 0.  1.
       -2   -1    0    0    0  501  0.00000000000E+00  0.00000000000E+00 -0.18336709653E+03  0.18336709655E+03  0.25500000920E-02 0. -1.
    10030    2    1    2    0    0  0.00000000000E+00  0.00000000000E+00  0.25421774094E+04  0.29089116024E+04  0.14138955867E+04 0.  0.
        4    1    3    3  502    0  0.19339999602E+03  0.56582161678E+03  0.20469556968E+04  0.21325071859E+04  0.12699999809E+01 0. -1.
       -4    1    3    3    0  502 -0.19339999602E+03 -0.56582161678E+03  0.49522171255E+03  0.77640441650E+03  0.12699999809E+01 0.  1.
</event>
<event>
 5   0  0.2047109E-03  0.1197433E+04  0.7818609E-02  0.9115106E-01
        1   -1    0    0  501    0  0.00000000000E+00  0.00000000000E+00  0.78098688034E+03  0.78098688036E+03  0.50400001928E-02 0. -1.
       -1   -1    0    0    0  501  0.00000000000E+00  0.00000000000E+00 -0.45898544978E+03  0.45898544981E+03  0.50400001928E-02 0.  1.
    10030    2    1    2    0    0  0.00000000000E+00  0.00000000000E+00  0.32200143056E+03  0.12399723302E+04  0.11974332793E+04 0.  0.
        1    1    3    3  502    0 -0.10453120524E+03  0.14969803632E+03 -0.42945329891E+03  0.46665448773E+03  0.50400001928E-02 0.  1.
       -1    1    3    3    0  502  0.10453120524E+03 -0.14969803632E+03  0.75145472947E+03  0.77331784243E+03  0.50400001928E-02 0. -1.
</event>
<event>
 5   0  0.3650180E-03  0.1090810E+04  0.7818609E-02  0.9214196E-01
       -2   -1    0    0    0  501  0.00000000000E+00  0.00000000000E+00  0.23869159495E+03  0.23869159496E+03  0.25500000920E-02 0. -1.
        2   -1    0    0  501    0  0.00000000000E+00  0.00000000000E+00 -0.12462377280E+04  0.12462377280E+04  0.25500000920E-02 0.  1.
    10030    2    1    2    0    0  0.00000000000E+00  0.00000000000E+00 -0.10075461331E+04  0.14849293230E+04  0.10908097377E+04 0.  0.
        3    1    3    3  502    0 -0.34703946480E+03 -0.78227950130E+02  0.59010097378E+02  0.36060810321E+03  0.10100000352E+00 0. -1.
       -3    1    3    3    0  502  0.34703946480E+03  0.78227950130E+02 -0.10665562304E+04  0.11243212197E+04  0.10100000352E+00 0.  1.
</event>
<event>
 5   0  0.3626049E-03  0.1198241E+04  0.7818609E-02  0.9114397E-01
        2   -1    0    0  501    0  0.00000000000E+00  0.00000000000E+00  0.12715761626E+04  0.12715761626E+04  0.25500000920E-02 0. -1.
       -2   -1    0    0    0  501  0.00000000000E+00  0.00000000000E+00 -0.28228400583E+03  0.28228400584E+03  0.25500000920E-02 0.  1.
    10030    2    1    2    0    0  0.00000000000E+00  0.00000000000E+00  0.98929215673E+03  0.15538601684E+04  0.11982413995E+04 0.  0.
        1    1    3    3  502    0 -0.16697750100E+03 -0.11522500676E+03 -0.23638509874E+03  0.31150634496E+03  0.50400001928E-02 0.  1.
       -1    1    3    3    0  502  0.16697750100E+03  0.11522500676E+03  0.12256772555E+04  0.12423538234E+04  0.50400001928E-02 0. -1.
</event>
<event>
 5   0  0.2134992E-03  0.1137087E+04  0.7818609E-02  0.9169780E-01
        1   -1    0    0  501    0  0.00000000000E+00  0.00000000000E+00  0.70741180574E+03  0.70741180575E+03  0.50400001928E-02 0. -1.
       -1   -1    0    0    0  501  0.00000000000E+00  0.00000000000E+00 -0.45693576517E+03  0.45693576520E+03  0.50400001928E-02 0.  1.
    10030    2    1    2    0    0  0.00000000000E+00  0.00000000000E+00  0.25047604056E+03  0.11643475710E+04  0.11370870763E+04 0.  0.
        4    1    3    3  502    0  0.23328588654E+03 -0.32482560732E+03  0.53903775114E+03  0.67119094904E+03  0.12699999809E+01 0. -1.
       -4    1    3    3    0  502 -0.23328588654E+03  0.32482560732E+03 -0.28856171057E+03  0.49315662191E+03  0.12699999809E+01 0.  1.
</event>
<event>
 5   0  0.3650180E-03  0.1212709E+04  0.7818609E-02  0.9101804E-01
        2   -1    0    0  501    0  0.00000000000E+00  0.00000000000E+00  0.75970095258E+03  0.75970095258E+03  0.25500000920E-02 0.  1.
       -2   -1    0    0    0  501  0.00000000000E+00  0.00000000000E+00 -0.48396128429E+03  0.48396128429E+03  0.25500000920E-02 0. -1.
    10030    2    1    2    0    0  0.00000000000E+00  0.00000000000E+00  0.27573966829E+03  0.12436622369E+04  0.12127091138E+04 0.  0.
        3    1    3    3  502    0 -0.27176888084E+03 -0.34438615730E+03 -0.29138965791E+03  0.52665747205E+03  0.10100000352E+00 0. -1.
       -3    1    3    3    0  502  0.27176888084E+03  0.34438615730E+03  0.56712932620E+03  0.71700476482E+03  0.10100000352E+00 0.  1.
</event>
<event>
 5   0  0.3626049E-03  0.1207199E+04  0.7818609E-02  0.9106578E-01
       -2   -1    0    0    0  501  0.00000000000E+00  0.00000000000E+00  0.49520328219E+03  0.49520328220E+03  0.25500000920E-02 0.  1.
        2   -1    0    0  501    0  0.00000000000E+00  0.00000000000E+00 -0.73572330205E+03  0.73572330205E+03  0.25500000920E-02 0. -1.
    10030    2    1    2    0    0  0.00000000000E+00  0.00000000000E+00 -0.24052001986E+03  0.12309265843E+04  0.12071993936E+04 0.  0.
        1    1    3    3  502    0 -0.56546667221E+03  0.45118353522E+02  0.90056901258E+02  0.57436788619E+03  0.50400001928E-02 0.  1.
       -1    1    3    3    0  502  0.56546667221E+03 -0.45118353522E+02 -0.33057692111E+03  0.65655869806E+03  0.50400001928E-02 0. -1.
</event>
<event>
 5   0  0.2096270E-03  0.1208404E+04  0.7818609E-02  0.9105532E-01
        1   -1    0    0  501    0  0.00000000000E+00  0.00000000000E+00  0.40941398639E+03  0.40941398642E+03  0.50400001928E-02 0.  1.
       -1   -1    0    0    0  501  0.00000000000E+00  0.00000000000E+00 -0.89166525523E+03  0.89166525525E+03  0.50400001928E-02 0. -1.
    10030    2    1    2    0    0  0.00000000000E+00  0.00000000000E+00 -0.48225126885E+03  0.13010792417E+04  0.12084042812E+04 0.  0.
        2    1    3    3  502    0 -0.21452464829E+03 -0.47833605842E+03 -0.56455290731E+03  0.77041949266E+03  0.25500000920E-02 0.  1.
       -2    1    3    3    0  502  0.21452464829E+03  0.47833605842E+03  0.82301638466E+02  0.53065974901E+03  0.25500000920E-02 0. -1.
</event>
<event>
 5   0  0.3751091E-03  0.1190478E+04  0.7818609E-02  0.9121232E-01
       -2   -1    0    0    0  501  0.00000000000E+00  0.00000000000E+00  0.20043458629E+03  0.20043458631E+03  0.25500000920E-02 0. -1.
        2   -1    0    0  501    0  0.00000000000E+00  0.00000000000E+00 -0.17677069577E+04  0.17677069577E+04  0.25500000920E-02 0.  1.
    10030    2    1    2    0    0  0.00000000000E+00  0.00000000000E+00 -0.15672723714E+04  0.19681415440E+04  0.11904782447E+04 0.  0.
        5    1    3    3  502    0  0.35595730272E+03 -0.38136912325E+03 -0.30981887029E+03  0.60676011068E+03  0.46999998093E+01 0. -1.
       -5    1    3    3    0  502 -0.35595730272E+03  0.38136912325E+03 -0.12574535011E+04  0.13613814333E+04  0.46999998093E+01 0.  1.
</event>
<event>
 5   0  0.2047109E-03  0.1084390E+04  0.7818609E-02  0.9220542E-01
       -1   -1    0    0    0  501  0.00000000000E+00  0.00000000000E+00  0.48615398414E+03  0.48615398417E+03  0.50400001928E-02 0.  1.
        1   -1    0    0  501    0  0.00000000000E+00  0.00000000000E+00 -0.60469580777E+03  0.60469580779E+03  0.50400001928E-02 0. -1.
    10030    2    1    2    0    0  0.00000000000E+00  0.00000000000E+00 -0.11854182362E+03  0.10908497920E+04  0.10843897384E+04 0.  0.
        1    1    3    3  502    0 -0.16425865243E+03 -0.51491183500E+03 -0.15884246486E+02  0.54071009980E+03  0.50400001928E-02 0. -1.
       -1    1    3    3    0  502  0.16425865243E+03  0.51491183500E+03 -0.10265757714E+03  0.55013969216E+03  0.50400001928E-02 0.  1.
</event>
<event>
 5   0  0.3626049E-03  0.1193811E+04  0.7818609E-02  0.9118291E-01
        2   -1    0    0  501    0  0.00000000000E+00  0.00000000000E+00  0.14840927243E+04  0.14840927243E+04  0.25500000920E-02 0.  1.
       -2   -1    0    0    0  501  0.00000000000E+00  0.00000000000E+00 -0.24007664063E+03  0.24007664065E+03  0.25500000920E-02 0. -1.
    10030    2    1    2    0    0  0.00000000000E+00  0.00000000000E+00  0.12440160836E+04  0.17241693649E+04  0.11938106980E+04 0.  0.
        1    1    3    3  502    0  0.36252714875E+03 -0.36852652734E+03  0.19100378207E+03  0.55110813796E+03  0.50400001928E-02 0. -1.
       -1    1    3    3    0  502 -0.36252714875E+03  0.36852652734E+03  0.10530123016E+04  0.11730612270E+04  0.50400001928E-02 0.  1.
</event>
<event>
 5   0  0.3706035E-03  0.1208259E+04  0.7818609E-02  0.9105658E-01
       -2   -1    0    0    0  501  0.00000000000E+00  0.00000000000E+00  0.68862409323E+03  0.68862409324E+03  0.25500000920E-02 0.  1.
        2   -1    0    0  501    0  0.00000000000E+00  0.00000000000E+00 -0.53000256539E+03  0.53000256540E+03  0.25500000920E-02 0. -1.
    10030    2    1    2    0    0  0.00000000000E+00  0.00000000000E+00  0.15862152784E+03  0.12186266586E+04  0.12082591378E+04 0.  0.
        2    1    3    3  502    0 -0.10541284154E+01  0.60412522375E+03  0.77258892626E+02  0.60904624919E+03  0.25500000920E-02 0. -1.
       -2    1    3    3    0  502  0.10541284154E+01 -0.60412522375E+03  0.81362635215E+02  0.60958040944E+03  0.25500000920E-02 0.  1.
</event>
<event>
 5   0  0.2025294E-03  0.1255932E+04  0.7818609E-02  0.9065260E-01
        1   -1    0    0  501    0  0.00000000000E+00  0.00000000000E+00  0.52132503218E+03  0.52132503221E+03  0.50400001928E-02 0.  1.
       -1   -1    0    0    0  501  0.00000000000E+00  0.00000000000E+00 -0.75642117894E+03  0.75642117895E+03  0.50400001928E-02 0. -1.
    10030    2    1    2    0    0  0.00000000000E+00  0.00000000000E+00 -0.23509614675E+03  0.12777462112E+04  0.12559319973E+04 0.  0.
        5    1    3    3  502    0 -0.83440769825E+01 -0.40354577908E+02  0.51993005503E+03  0.52158169801E+03  0.46999998093E+01 0.  1.
       -5    1    3    3    0  502  0.83440769825E+01  0.40354577908E+02 -0.75502620178E+03  0.75616451315E+03  0.46999998093E+01 0. -1.
</event>
<event>
 5   0  0.2078258E-03  0.1206076E+04  0.7818609E-02  0.9107555E-01
       -1   -1    0    0    0  501  0.00000000000E+00  0.00000000000E+00  0.32219723550E+03  0.32219723554E+03  0.50400001928E-02 0. -1.
        1   -1    0    0  501    0  0.00000000000E+00  0.00000000000E+00 -0.11286719941E+04  0.11286719941E+04  0.50400001928E-02 0.  1.
    10030    2    1    2    0    0  0.00000000000E+00  0.00000000000E+00 -0.80647475855E+03  0.14508692296E+04  0.12060762767E+04 0.  0.
        3    1    3    3  502    0 -0.39784483762E+03 -0.24362197365E+03  0.56451332061E+02  0.46991376225E+03  0.10100000352E+00 0. -1.
       -3    1    3    3    0  502  0.39784483762E+03  0.24362197365E+03 -0.86292609061E+03  0.98095546735E+03  0.10100000352E+00 0.  1.
</event>
<event>
 5   0  0.3650180E-03  0.1199079E+04  0.7818609E-02  0.9113663E-01
        2   -1    0    0  501    0  0.00000000000E+00  0.00000000000E+00  0.68095480989E+03  0.68095480990E+03  0.25500000920E-02 0. -1.
       -2   -1    0    0    0  501  0.00000000000E+00  0.00000000000E+00 -0.52785799808E+03  0.52785799808E+03  0.25500000920E-02 0.  1.
    10030    2    1    2    0    0  0.00000000000E+00  0.00000000000E+00  0.15309681181E+03  0.12088128080E+04  0.11990787176E+04 0.  0.
        3    1    3    3  502    0 -0.19202013304E+03  0.34794477374E+03  0.52909135808E+03  0.66172121959E+03  0.10100000352E+00 0. -1.
       -3    1    3    3    0  502  0.19202013304E+03 -0.34794477374E+03 -0.37599454626E+03  0.54709158839E+03  0.10100000352E+00 0.  1.
</event>
<event>
 5   0  0.3751091E-03  0.1194056E+04  0.7818609E-02  0.9118076E-01
       -2   -1    0    0    0  501  0.00000000000E+00  0.00000000000E+00  0.12071420009E+03  0.12071420012E+03  0.25500000920E-02 0. -1.
        2   -1    0    0  501    0  0.00000000000E+00  0.00000000000E+00 -0.29527776816E+04  0.29527776816E+04  0.25500000920E-02 0.  1.
    10030    2    1    2    0    0  0.00000000000E+00  0.00000000000E+00 -0.28320634815E+04  0.30734918817E+04  0.11940556033E+04 0.  0.
        5    1    3    3  502    0 -0.21680314508E+03 -0.43253027720E+03 -0.23163192334E+04  0.23663142068E+04  0.46999998093E+01 0.  1.
       -5    1    3    3    0  502  0.21680314508E+03  0.43253027720E+03 -0.51574424811E+03  0.70717767489E+03  0.46999998093E+01 0. -1.
</event>
<event>
 5   0  0.2025294E-03  0.1282943E+04  0.7818609E-02  0.9043202E-01
       -1   -1    0    0    0  501  0.00000000000E+00  0.00000000000E+00  0.52541245335E+03  0.52541245337E+03  0.50400001928E-02 0. -1.
        1   -1    0    0  501    0  0.00000000000E+00  0.00000000000E+00 -0.78316730145E+03  0.78316730147E+03  0.50400001928E-02 0.  1.
    10030    2    1    2    0    0  0.00000000000E+00  0.00000000000E+00 -0.25775484810E+03  0.13085797548E+04  0.12829432618E+04 0.  0.
        5    1    3    3  502    0  0.72470933314E+02 -0.63575219248E+03 -0.17484319419E+03  0.66334389194E+03  0.46999998093E+01 0.  1.
       -5    1    3    3    0  502 -0.72470933314E+02  0.63575219248E+03 -0.82911653915E+02  0.64523586290E+03  0.46999998093E+01 0. -1.
</event>
<event>
 5   0  0.3626049E-03  0.1209281E+04  0.7818609E-02  0.9104772E-01
       -2   -1    0    0    0  501  0.00000000000E+00  0.00000000000E+00  0.32643079716E+03  0.32643079717E+03  0.25500000920E-02 0. -1.
        2   -1    0    0  501    0  0.00000000000E+00  0.00000000000E+00 -0.11199615330E+04  0.11199615330E+04  0.25500000920E-02 0.  1.
    10030    2    1    2    0    0  0.00000000000E+00  0.00000000000E+00 -0.79353073586E+03  0.14463923302E+04  0.12092806722E+04 0.  0.
        1    1    3    3  502    0 -0.22150170119E+03  0.28706473651E+03 -0.97549933124E+03  0.10407055837E+04  0.50400001928E-02 0.  1.
       -1    1    3    3    0  502  0.22150170119E+03 -0.28706473651E+03  0.18196859538E+03  0.40568674653E+03  0.50400001928E-02 0. -1.
</event>
<event>
 5   0  0.2047109E-03  0.1192158E+04  0.7818609E-02  0.9119748E-01
        1   -1    0    0  501    0  0.00000000000E+00  0.00000000000E+00  0.11456151251E+04  0.11456151251E+04  0.50400001928E-02 0. -1.
       -1   -1    0    0    0  501  0.00000000000E+00  0.00000000000E+00 -0.31014816828E+03  0.31014816832E+03  0.50400001928E-02 0.  1.
    10030    2    1    2    0    0  0.00000000000E+00  0.00000000000E+00  0.83546695682E+03  0.14557632934E+04  0.11921584335E+04 0.  0.
        1    1    3    3  502    0 -0.26654777984E+03 -0.22134739729E+03  0.10100287417E+04  0.10678016896E+04  0.50400001928E-02 0. -1.
       -1    1    3    3    0  502  0.26654777984E+03  0.22134739729E+03 -0.17456178493E+03  0.38796160378E+03  0.50400001928E-02 0.  1.
</event>
<event>
 5   0  0.3650180E-03  0.1208042E+04  0.7818609E-02  0.9105846E-01
        2   -1    0    0  501    0  0.00000000000E+00  0.00000000000E+00  0.13855339886E+04  0.13855339886E+04  0.25500000920E-02 0.  1.
       -2   -1    0    0    0  501  0.00000000000E+00  0.00000000000E+00 -0.26332193535E+03  0.26332193536E+03  0.25500000920E-02 0. -1.
    10030    2    1    2    0    0  0.00000000000E+00  0.00000000000E+00  0.11222120532E+04  0.16488559240E+04  0.12080422035E+04 0.  0.
        3    1    3    3  502    0  0.11382591671E+03  0.50714129912E+03  0.98111559430E+03  0.11102866550E+04  0.10100000352E+00 0. -1.
       -3    1    3    3    0  502 -0.11382591671E+03 -0.50714129912E+03  0.14109645895E+03  0.53856926901E+03  0.10100000352E+00 0.  1.
</event>
<event>
 5   0  0.3725376E-03  0.1196255E+04  0.7818609E-02  0.9116141E-01
        2   -1    0    0  501    0  0.00000000000E+00  0.00000000000E+00  0.20125388620E+04  0.20125388620E+04  0.25500000920E-02 0.  1.
       -2   -1    0    0    0  501  0.00000000000E+00  0.00000000000E+00 -0.17776381715E+03  0.17776381717E+03  0.25500000920E-02 0. -1.
    10030    2    1    2    0    0  0.00000000000E+00  0.00000000000E+00  0.18347750449E+04  0.21903026792E+04  0.11962551405E+04 0.  0.
        4    1    3    3  502    0 -0.21496303266E+03 -0.27425279413E+03  0.27283183429E+02  0.34952780361E+03  0.12699999809E+01 0. -1.
       -4    1    3    3    0  502  0.21496303266E+03  0.27425279413E+03  0.18074918614E+04  0.18407748756E+04  0.12699999809E+01 0.  1.
</event>
<event>
 5   0  0.3706035E-03  0.1179000E+04  0.7818609E-02  0.9131439E-01
        2   -1    0    0  501    0  0.00000000000E+00  0.00000000000E+00  0.82809020409E+03  0.82809020410E+03  0.25500000920E-02 0.  1.
       -2   -1    0    0    0  501  0.00000000000E+00  0.00000000000E+00 -0.41965261250E+03  0.41965261251E+03  0.25500000920E-02 0. -1.
    10030    2    1    2    0    0  0.00000000000E+00  0.00000000000E+00  0.40843759159E+03  0.12477428166E+04  0.11789999449E+04 0.  0.
        2    1    3    3  502    0 -0.17724115373E+03 -0.44673686601E+03 -0.15703730544E+03  0.50561741399E+03  0.25500000920E-02 0. -1.
       -2    1    3    3    0  502  0.17724115373E+03  0.44673686601E+03  0.56547489703E+03  0.74212540261E+03  0.25500000920E-02 0.  1.
</event>
<event>
 5   0  0.3706035E-03  0.1194758E+04  0.7818609E-02  0.9117457E-01
        2   -1    0    0  501    0  0.00000000000E+00  0.00000000000E+00  0.26617658239E+04  0.26617658239E+04  0.25500000920E-02 0. -1.
       -2   -1    0    0    0  501  0.00000000000E+00  0.00000000000E+00 -0.13406958732E+03  0.13406958734E+03  0.25500000920E-02 0.  1.
    10030    2    1    2    0    0  0.00000000000E+00  0.00000000000E+00  0.25276962366E+04  0.27958354112E+04  0.11947582945E+04 0.  0.
        2    1    3    3  502    0  0.27758506465E+03 -0.22825182319E+03  0.14718517225E+03  0.38835014850E+03  0.25500000920E-02 0.  1.
       -2    1    3    3    0  502 -0.27758506465E+03  0.22825182319E+03  0.23805110643E+04  0.24074852627E+04  0.25500000920E-02 0. -1.
</event>
<event>
 5   0  0.3626049E-03  0.1242925E+04  0.7818609E-02  0.9076092E-01
        2   -1    0    0  501    0  0.00000000000E+00  0.00000000000E+00  0.10140611907E+04  0.10140611907E+04  0.25500000920E-02 0.  1.
       -2   -1    0    0    0  501  0.00000000000E+00  0.00000000000E+00 -0.38086038774E+03  0.38086038775E+03  0.25500000920E-02 0. -1.
    10030    2    1    2    0    0  0.00000000000E+00  0.00000000000E+00  0.63320080296E+03  0.13949215784E+04  0.12429251599E+04 0.  0.
        1    1    3    3  502    0  0.28230748865E+03 -0.22859065838E+03  0.88251083919E+03  0.95434615762E+03  0.50400001928E-02 0.  1.
       -1    1    3    3    0  502 -0.28230748865E+03  0.22859065838E+03 -0.24931003623E+03  0.44057542083E+03  0.50400001928E-02 0. -1.
</event>
<event>
 5   0  0.2025294E-03  0.1194399E+04  0.7818609E-02  0.9117773E-01
       -1   -1    0    0    0  501  0.00000000000E+00  0.00000000000E+00  0.35892107852E+03  0.35892107856E+03  0.50400001928E-02 0. -1.
        1   -1    0    0  501    0  0.00000000000E+00  0.00000000000E+00 -0.99366493144E+03  0.99366493145E+03  0.50400001928E-02 0.  1.
    10030    2    1    2    0    0  0.00000000000E+00  0.00000000000E+00 -0.63474385292E+03  0.13525860100E+04  0.11943990772E+04 0.  0.
        5    1    3    3  502    0  0.15408455227E+03  0.13340770788E+03 -0.95303892295E+03  0.97459988940E+03  0.46999998093E+01 0.  1.
       -5    1    3    3    0  502 -0.15408455227E+03 -0.13340770788E+03  0.31829507003E+03  0.37798612061E+03  0.46999998093E+01 0. -1.
</event>
<event>
 5   0  0.2047109E-03  0.1157034E+04  0.7818609E-02  0.9151319E-01
        1   -1    0    0  501    0  0.00000000000E+00  0.00000000000E+00  0.38894815665E+03  0.38894815668E+03  0.50400001928E-02 0.  1.
       -1   -1    0    0    0  501  0.00000000000E+00  0.00000000000E+00 -0.86047911039E+03  0.86047911040E+03  0.50400001928E-02 0. -1.
    10030    2    1    2    0    0  0.00000000000E+00  0.00000000000E+00 -0.47153095374E+03  0.12494272671E+04  0.11570337313E+04 0.  0.
        1    1    3    3  502    0 -0.44724788554E+03 -0.21943373966E+03 -0.55335987156E+03  0.74457302174E+03  0.50400001928E-02 0. -1.
       -1    1    3    3    0  502  0.44724788554E+03  0.21943373966E+03  0.81828917824E+02  0.50485424534E+03  0.50400001928E-02 0.  1.
</event>
<event>
 5   0  0.3626049E-03  0.1196745E+04  0.7818609E-02  0.9115710E-01
       -2   -1    0    0    0  501  0.00000000000E+00  0.00000000000E+00  0.28662831104E+03  0.28662831105E+03  0.25500000920E-02 0. -1.
        2   -1    0    0  501    0  0.00000000000E+00  0.00000000000E+00 -0.12491783265E+04  0.12491783265E+04  0.25500000920E-02 0.  1.
    10030    2    1    2    0    0  0.00000000000E+00  0.00000000000E+00 -0.96255001546E+03  0.15358066376E+04  0.11967453763E+04 0.  0.
        1    1    3    3  502    0 -0.57351558836E+02 -0.25127724879E+03  0.21174176411E+03  0.33356263543E+03  0.50400001928E-02 0. -1.
       -1    1    3    3    0  502  0.57351558836E+02  0.25127724879E+03 -0.11742917796E+04  0.12022440021E+04  0.50400001928E-02 0.  1.
</event>
<event>
 5   0  0.2096270E-03  0.1190446E+04  0.7818609E-02  0.9121260E-01
       -1   -1    0    0    0  501  0.00000000000E+00  0.00000000000E+00  0.14383279422E+04  0.14383279422E+04  0.50400001928E-02 0.  1.
        1   -1    0    0  501    0  0.00000000000E+00  0.00000000000E+00 -0.24632102589E+03  0.24632102594E+03  0.50400001928E-02 0. -1.
    10030    2    1    2    0    0  0.00000000000E+00  0.00000000000E+00  0.11920069163E+04  0.16846489681E+04  0.11904459909E+04 0.  0.
        2    1    3    3  502    0 -0.49743894984E+03 -0.18965275233E+03  0.21925490992E+03  0.57574854826E+03  0.25500000920E-02 0. -1.
       -2    1    3    3    0  502  0.49743894984E+03  0.18965275233E+03  0.97275200639E+03  0.11089004199E+04  0.25500000920E-02 0.  1.
</event>
<event>
 5   0  0.2078258E-03  0.1210188E+04  0.7818609E-02  0.9103986E-01
       -1   -1    0    0    0  501  0.00000000000E+00  0.00000000000E+00  0.43938816324E+03  0.43938816327E+03  0.50400001928E-02 0. -1.
        1   -1    0    0  501    0  0.00000000000E+00  0.00000000000E+00 -0.83329162251E+03  0.83329162252E+03  0.50400001928E-02 0.  1.
    10030    2    1    2    0    0  0.00000000000E+00  0.00000000000E+00 -0.39390345926E+03  0.12726797858E+04  0.12101875483E+04 0.  0.
        3    1    3    3  502    0 -0.27202256979E+03  0.32436092811E+03  0.25773103896E+03  0.49561233722E+03  0.10100000352E+00 0. -1.
       -3    1    3    3    0  502  0.27202256979E+03 -0.32436092811E+03 -0.65163449823E+03  0.77706744858E+03  0.10100000352E+00 0.  1.
</event>
<event>
 5   0  0.2134992E-03  0.1196106E+04  0.7818609E-02  0.9116272E-01
        1   -1    0    0  501    0  0.00000000000E+00  0.00000000000E+00  0.10055745478E+04  0.10055745478E+04  0.50400001928E-02 0. -1.
       -1   -1    0    0    0  501  0.00000000000E+00  0.00000000000E+00 -0.35568471410E+03  0.35568471414E+03  0.50400001928E-02 0.  1.
    10030    2    1    2    0    0  0.00000000000E+00  0.00000000000E+00  0.64988983372E+03  0.13612592620E+04  0.11961061752E+04 0.  0.
        4    1    3    3  502    0 -0.48995600149E+03  0.14863826475E+03 -0.26784278272E+02  0.51270774093E+03  0.12699999809E+01 0.  1.
       -4    1    3    3    0  502  0.48995600149E+03 -0.14863826475E+03  0.67667411199E+03  0.84855152106E+03  0.12699999809E+01 0. -1.
</event>
<event>
 5   0  0.3626049E-03  0.1255139E+04  0.7818609E-02  0.9065917E-01
        2   -1    0    0  501    0  0.00000000000E+00  0.00000000000E+00  0.15608752560E+04  0.15608752560E+04  0.25500000920E-02 0.  1.
       -2   -1    0    0    0  501  0.00000000000E+00  0.00000000000E+00 -0.25232232328E+03  0.25232232329E+03  0.25500000920E-02 0. -1.
    10030    2    1    2    0    0  0.00000000000E+00  0.00000000000E+00  0.13085529327E+04  0.18131975793E+04  0.12551393085E+04 0.  0.
        1    1    3    3  502    0 -0.42925867687E+03 -0.31411077011E+03  0.11353910311E+04  0.12538107437E+04  0.50400001928E-02 0.  1.
       -1    1    3    3    0  502  0.42925867687E+03  0.31411077011E+03  0.17316190157E+03  0.55938683552E+03  0.50400001928E-02 0. -1.
</event>
<event>
 5   0  0.2096270E-03  0.1191426E+04  0.7818609E-02  0.9120395E-01
        1   -1    0    0  501    0  0.00000000000E+00  0.00000000000E+00  0.11155170460E+04  0.11155170460E+04  0.50400001928E-02 0. -1.
       -1   -1    0    0    0  501  0.00000000000E+00  0.00000000000E+00 -0.31812510662E+03  0.31812510666E+03  0.50400001928E-02 0.  1.
    10030    2    1    2    0    0  0.00000000000E+00  0.00000000000E+00  0.79739193935E+03  0.14336421526E+04  0.11914260014E+04 0.  0.
        2    1    3    3  502    0 -0.32816089883E+03 -0.47740035915E+03  0.56574799202E+03  0.80973543143E+03  0.25500000920E-02 0. -1.
       -2    1    3    3    0  502  0.32816089883E+03  0.47740035915E+03  0.23164394734E+03  0.62390672122E+03  0.25500000920E-02 0.  1.
</event>
<event>
 5   0  0.2025294E-03  0.1196480E+04  0.7818609E-02  0.9115943E-01
       -1   -1    0    0    0  501  0.00000000000E+00  0.00000000000E+00  0.21261713248E+03  0.21261713254E+03  0.50400001928E-02 0.  1.
        1   -1    0    0  501    0  0.00000000000E+00  0.00000000000E+00 -0.16832663912E+04  0.16832663912E+04  0.50400001928E-02 0. -1.
    10030    2    1    2    0    0  0.00000000000E+00  0.00000000000E+00 -0.14706492588E+04  0.18958835238E+04  0.11964802938E+04 0.  0.
        5    1    3    3  502    0 -0.17877470575E+03 -0.42721521265E+03 -0.13353568130E+04  0.14133906542E+04  0.46999998093E+01 0. -1.
       -5    1    3    3    0  502  0.17877470575E+03  0.42721521265E+03 -0.13529244578E+03  0.48249286961E+03  0.46999998093E+01 0.  1.
</event>
<event>
 5   0  0.2025294E-03  0.1198527E+04  0.7818609E-02  0.9114147E-01
       -1   -1    0    0    0  501  0.00000000000E+00  0.00000000000E+00  0.21654525302E+03  0.21654525308E+03  0.50400001928E-02 0. -1.
        1   -1    0    0  501    0  0.00000000000E+00  0.00000000000E+00 -0.16583915997E+04  0.16583915997E+04  0.50400001928E-02 0.  1.
    10030    2    1    2    0    0  0.00000000000E+00  0.00000000000E+00 -0.14418463467E+04  0.18749368528E+04  0.11985271438E+04 0.  0.
        5    1    3    3  502    0 -0.42882669322E+03  0.41685252952E+03 -0.78021196610E+03  0.98306213752E+03  0.46999998093E+01 0.  1.
       -5    1    3    3    0  502  0.42882669322E+03 -0.41685252952E+03 -0.66163438060E+03  0.89187471529E+03  0.46999998093E+01 0. -1.
</event>
<event>
 5   0  0.3626049E-03  0.1197698E+04  0.7818609E-02  0.9114874E-01
       -2   -1    0    0    0  501  0.00000000000E+00  0.00000000000E+00  0.29761395380E+03  0.29761395381E+03  0.25500000920E-02 0. -1.
        2   -1    0    0  501    0  0.00000000000E+00  0.00000000000E+00 -0.12049841034E+04  0.12049841034E+04  0.25500000920E-02 0.  1.
    10030    2    1    2    0    0  0.00000000000E+00  0.00000000000E+00 -0.90737014965E+03  0.15025980573E+04  0.11976979307E+04 0.  0.
        1    1    3    3  502    0 -0.49437438484E+03  0.26824759891E+03 -0.19578808345E+03  0.59556341422E+03  0.50400001928E-02 0. -1.
       -1    1    3    3    0  502  0.49437438484E+03 -0.26824759891E+03 -0.71158206620E+03  0.90703464304E+03  0.50400001928E-02 0.  1.
</event>
<event>
 5   0  0.1397500E-03  0.1177978E+04  0.7818609E-02  0.9132354E-01
        3   -1    0    0  501    0  0.00000000000E+00  0.00000000000E+00  0.22637214651E+03  0.22637216905E+03  0.10100000352E+00 0.  1.
       -3   -1    0    0    0  501  0.00000000000E+00  0.00000000000E+00 -0.15324679401E+04  0.15324679434E+04  0.10100000352E+00 0. -1.
    10030    2    1    2    0    0  0.00000000000E+00  0.00000000000E+00 -0.13060957936E+04  0.17588401125E+04  0.11779780640E+04 0.  0.
        3    1    3    3  502    0  0.20098625796E+03 -0.13589431516E+03  0.14829718690E+03  0.28434979624E+03  0.10100000352E+00 0.  1.
       -3    1    3    3    0  502 -0.20098625796E+03  0.13589431516E+03 -0.14543929805E+04  0.14744903162E+04  0.10100000352E+00 0. -1.
</event>
<event>
 5   0  0.2025294E-03  0.1198371E+04  0.7818609E-02  0.9114284E-01
       -1   -1    0    0    0  501  0.00000000000E+00  0.00000000000E+00  0.23252644071E+03  0.23252644077E+03  0.50400001928E-02 0. -1.
        1   -1    0    0  501    0  0.00000000000E+00  0.00000000000E+00 -0.15440105825E+04  0.15440105825E+04  0.50400001928E-02 0.  1.
    10030    2    1    2    0    0  0.00000000000E+00  0.00000000000E+00 -0.13114841418E+04  0.17765370233E+04  0.11983710364E+04 0.  0.
        5    1    3    3  502    0 -0.63127604476E+02 -0.25512873499E+03  0.14248437684E+03  0.29899774833E+03  0.46999998093E+01 0. -1.
       -5    1    3    3    0  502  0.63127604476E+02  0.25512873499E+03 -0.14539685186E+04  0.14775392750E+04  0.46999998093E+01 0.  1.
</event>
<event>
 5   0  0.3706035E-03  0.1198495E+04  0.7818609E-02  0.9114174E-01
        2   -1    0    0  501    0  0.00000000000E+00  0.00000000000E+00  0.81309794217E+03  0.81309794217E+03  0.25500000920E-02 0.  1.
       -2   -1    0    0    0  501  0.00000000000E+00  0.00000000000E+00 -0.44164154515E+03  0.44164154516E+03  0.25500000920E-02 0. -1.
    10030    2    1    2    0    0  0.00000000000E+00  0.00000000000E+00  0.37145639701E+03  0.12547394873E+04  0.11984954427E+04 0.  0.
        2    1    3    3  502    0  0.19315881335E+03  0.40303473057E+02 -0.40665514724E+03  0.45199901095E+03  0.25500000920E-02 0. -1.
       -2    1    3    3    0  502 -0.19315881335E+03 -0.40303473057E+02  0.77811154426E+03  0.80274047638E+03  0.25500000920E-02 0.  1.
</event>
<event>
 5   0  0.2096270E-03  0.1185072E+04  0.7818609E-02  0.9126024E-01
        1   -1    0    0  501    0  0.00000000000E+00  0.00000000000E+00  0.72424181255E+03  0.72424181257E+03  0.50400001928E-02 0. -1.
       -1   -1    0    0    0  501  0.00000000000E+00  0.00000000000E+00 -0.48478142264E+03  0.48478142267E+03  0.50400001928E-02 0.  1.
    10030    2    1    2    0    0  0.00000000000E+00  0.00000000000E+00  0.23946038991E+03  0.12090232352E+04  0.11850721096E+04 0.  0.
        2    1    3    3  502    0  0.53459052707E+03 -0.81633026144E+02 -0.12733777669E+03  0.55557708014E+03  0.25500000920E-02 0.  1.
       -2    1    3    3    0  502 -0.53459052707E+03  0.81633026144E+02  0.36679816660E+03  0.65344615510E+03  0.25500000920E-02 0. -1.
</event>
<event>
 5   0  0.3751091E-03  0.1343342E+04  0.7818609E-02  0.8995883E-01
        2   -1    0    0  501    0  0.00000000000E+00  0.00000000000E+00  0.69228476432E+03  0.69228476432E+03  0.25500000920E-02 0.  1.
       -2   -1    0    0    0  501  0.00000000000E+00  0.00000000000E+00 -0.65167146360E+03  0.65167146361E+03  0.25500000920E-02 0. -1.
    10030    2    1    2    0    0  0.00000000000E+00  0.00000000000E+00  0.40613300715E+02  0.13439562279E+04  0.13433424368E+04 0.  0.
        5    1    3    3  502    0  0.42544364964E+03  0.12550208822E+03  0.52488524977E+03  0.68722608259E+03  0.46999998093E+01 0.  1.
       -5    1    3    3    0  502 -0.42544364964E+03 -0.12550208822E+03 -0.48427194905E+03  0.65673014534E+03  0.46999998093E+01 0. -1.
</event>
<event>
 5   0  0.3725376E-03  0.1151081E+04  0.7818609E-02  0.9156787E-01
       -2   -1    0    0    0  501  0.00000000000E+00  0.00000000000E+00  0.21061953701E+03  0.21061953703E+03  0.25500000920E-02 0. -1.
        2   -1    0    0  501    0  0.00000000000E+00  0.00000000000E+00 -0.15727250529E+04  0.15727250529E+04  0.25500000920E-02 0.  1.
    10030    2    1    2    0    0  0.00000000000E+00  0.00000000000E+00 -0.13621055159E+04  0.17833445899E+04  0.11510805749E+04 0.  0.
        4    1    3    3  502    0 -0.87428367090E+02  0.25356667179E+01 -0.15623661130E+04  0.15648129706E+04  0.12699999809E+01 0.  1.
       -4    1    3    3    0  502  0.87428367090E+02 -0.25356667179E+01  0.20026059713E+03  0.21853161932E+03  0.12699999809E+01 0. -1.
</event>
<event>
 5   0  0.3725376E-03  0.1183843E+04  0.7818609E-02  0.9127118E-01
        2   -1    0    0  501    0  0.00000000000E+00  0.00000000000E+00  0.75411310503E+03  0.75411310503E+03  0.25500000920E-02 0.  1.
       -2   -1    0    0    0  501  0.00000000000E+00  0.00000000000E+00 -0.46461322529E+03  0.46461322530E+03  0.25500000920E-02 0. -1.
    10030    2    1    2    0    0  0.00000000000E+00  0.00000000000E+00  0.28949987973E+03  0.12187263303E+04  0.11838427632E+04 0.  0.
        4    1    3    3  502    0 -0.31320447120E+03 -0.55051776985E+02 -0.36920188175E+03  0.48727751981E+03  0.12699999809E+01 0. -1.
       -4    1    3    3    0  502  0.31320447120E+03  0.55051776985E+02  0.65870176148E+03  0.73144881052E+03  0.12699999809E+01 0.  1.
</event>
<event>
 5   0  0.2025294E-03  0.1306491E+04  0.7818609E-02  0.9024434E-01
       -1   -1    0    0    0  501  0.00000000000E+00  0.00000000000E+00  0.27047281465E+03  0.27047281470E+03  0.50400001928E-02 0. -1.
        1   -1    0    0  501    0  0.00000000000E+00  0.00000000000E+00 -0.15777171991E+04  0.15777171991E+04  0.50400001928E-02 0.  1.
    10030    2    1    2    0    0  0.00000000000E+00  0.00000000000E+00 -0.13072443845E+04  0.18481900138E+04  0.13064908903E+04 0.  0.
        5    1    3    3  502    0  0.29541846629E+03 -0.89705153636E+02 -0.14679680819E+04  0.15000904853E+04  0.46999998093E+01 0.  1.
       -5    1    3    3    0  502 -0.29541846629E+03  0.89705153636E+02  0.16072369742E+03  0.34809952847E+03  0.46999998093E+01 0. -1.
</event>
<event>
 5   0  0.1397500E-03  0.1123417E+04  0.7818609E-02  0.9182664E-01
        3   -1    0    0  501    0  0.00000000000E+00  0.00000000000E+00  0.78348026901E+03  0.78348027552E+03  0.10100000352E+00 0.  1.
       -3   -1    0    0    0  501  0.00000000000E+00  0.00000000000E+00 -0.40271138717E+03  0.40271139984E+03  0.10100000352E+00 0. -1.
    10030    2    1    2    0    0  0.00000000000E+00  0.00000000000E+00  0.38076888183E+03  0.11861916754E+04  0.11234169971E+04 0.  0.
        2    1    3    3  502    0  0.30196787155E+03  0.20487053574E+03 -0.26051382041E+03  0.44835698109E+03  0.25500000920E-02 0. -1.
       -2    1    3    3    0  502 -0.30196787155E+03 -0.20487053574E+03  0.64128270224E+03  0.73783469427E+03  0.25500000920E-02 0.  1.
</event>
<event>
 5   0  0.2025294E-03  0.1196040E+04  0.7818609E-02  0.9116330E-01
        1   -1    0    0  501    0  0.00000000000E+00  0.00000000000E+00  0.11329027039E+04  0.11329027039E+04  0.50400001928E-02 0. -1.
       -1   -1    0    0    0  501  0.00000000000E+00  0.00000000000E+00 -0.31567373077E+03  0.31567373081E+03  0.50400001928E-02 0.  1.
    10030    2    1    2    0    0  0.00000000000E+00  0.00000000000E+00  0.81722897315E+03  0.14485764347E+04  0.11960395030E+04 0.  0.
        5    1    3    3  502    0  0.16955276945E+03 -0.51413057245E+03  0.10095726010E+03  0.55072029700E+03  0.46999998093E+01 0.  1.
       -5    1    3    3    0  502 -0.16955276945E+03  0.51413057245E+03  0.71627171305E+03  0.89785613774E+03  0.46999998093E+01 0. -1.
</event>
<event>
 5   0  0.3626049E-03  0.1233917E+04  0.7818609E-02  0.9083676E-01
        2   -1    0    0  501    0  0.00000000000E+00  0.00000000000E+00  0.66837339628E+03  0.66837339628E+03  0.25500000920E-02 0.  1.
       -2   -1    0    0    0  501  0.00000000000E+00  0.00000000000E+00 -0.56949901235E+03  0.56949901236E+03  0.25500000920E-02 0. -1.
    10030    2    1    2    0    0  0.00000000000E+00  0.00000000000E+00  0.98874383923E+02  0.12378724086E+04  0.12339173215E+04 0.  0.
        1    1    3    3  502    0 -0.32587798562E+03  0.50204357912E+02  0.57256913139E+03  0.66072108284E+03  0.50400001928E-02 0.  1.
       -1    1    3    3    0  502  0.32587798562E+03 -0.50204357912E+02 -0.47369474747E+03  0.57715132580E+03  0.50400001928E-02 0. -1.
</event>
<event>
 5   0  0.3751091E-03  0.1203497E+04  0.7818609E-02  0.9109802E-01
        2   -1    0    0  501    0  0.00000000000E+00  0.00000000000E+00  0.23104046504E+04  0.23104046504E+04  0.25500000920E-02 0. -1.
       -2   -1    0    0    0  501  0.00000000000E+00  0.00000000000E+00 -0.15672621328E+03  0.15672621330E+03  0.25500000920E-02 0.  1.
    10030    2    1    2    0    0  0.00000000000E+00  0.00000000000E+00  0.21536784371E+04  0.24671308637E+04  0.12034965260E+04 0.  0.
        5    1    3    3  502    0  0.58037035592E+03  0.15789353367E+03  0.11134392952E+04  0.12655154176E+04  0.46999998093E+01 0.  1.
       -5    1    3    3    0  502 -0.58037035592E+03 -0.15789353367E+03  0.10402391418E+04  0.12016154461E+04  0.46999998093E+01 0. -1.
</event>
<event>
 5   0  0.2078258E-03  0.1196733E+04  0.7818609E-02  0.9115721E-01
        1   -1    0    0  501    0  0.00000000000E+00  0.00000000000E+00  0.59942733699E+03  0.59942733701E+03  0.50400001928E-02 0.  1.
       -1   -1    0    0    0  501  0.00000000000E+00  0.00000000000E+00 -0.59730760853E+03  0.59730760855E+03  0.50400001928E-02 0. -1.
    10030    2    1    2    0    0  0.00000000000E+00  0.00000000000E+00  0.21197284613E+01  0.11967349456E+04  0.11967330683E+04 0.  0.
        3    1    3    3  502    0 -0.39369768541E+03  0.45048563348E+03  0.11419682873E+02  0.59838582271E+03  0.10100000352E+00 0.  1.
       -3    1    3    3    0  502  0.39369768541E+03 -0.45048563348E+03 -0.92999544117E+01  0.59834912285E+03  0.10100000352E+00 0. -1.
</event>
<event>
 5   0  0.3725376E-03  0.1206492E+04  0.7818609E-02  0.9107193E-01
        2   -1    0    0  501    0  0.00000000000E+00  0.00000000000E+00  0.20285045029E+04  0.20285045029E+04  0.25500000920E-02 0. -1.
       -2   -1    0    0    0  501  0.00000000000E+00  0.00000000000E+00 -0.17939621398E+03  0.17939621400E+03  0.25500000920E-02 0.  1.
    10030    2    1    2    0    0  0.00000000000E+00  0.00000000000E+00  0.18491082889E+04  0.22079007169E+04  0.12064924830E+04 0.  0.
        4    1    3    3  502    0 -0.50210642317E+03  0.78171082248E+02  0.15194722017E+04  0.16021919245E+04  0.12699999809E+01 0. -1.
       -4    1    3    3    0  502  0.50210642317E+03 -0.78171082248E+02  0.32963608719E+03  0.60570879238E+03  0.12699999809E+01 0.  1.
</event>
<event>
 5   0  0.3626049E-03  0.1191069E+04  0.7818609E-02  0.9120710E-01
       -2   -1    0    0    0  501  0.00000000000E+00  0.00000000000E+00  0.23845968871E+03  0.23845968872E+03  0.25500000920E-02 0. -1.
        2   -1    0    0  501    0  0.00000000000E+00  0.00000000000E+00 -0.14873005499E+04  0.14873005499E+04  0.25500000920E-02 0.  1.
    10030    2    1    2    0    0  0.00000000000E+00  0.00000000000E+00 -0.12488408612E+04  0.17257602387E+04  0.11910688077E+04 0.  0.
        1    1    3    3  502    0 -0.32484990080E+03  0.42200588519E+03 -0.23822266363E+03  0.58340934400E+03  0.50400001928E-02 0. -1.
       -1    1    3    3    0  502  0.32484990080E+03 -0.42200588519E+03 -0.10106181976E+04  0.11423508947E+04  0.50400001928E-02 0.  1.
</event>
<event>
 5   0  0.2078258E-03  0.1188403E+04  0.7818609E-02  0.9123068E-01
       -1   -1    0    0    0  501  0.00000000000E+00  0.00000000000E+00  0.15765463518E+04  0.15765463518E+04  0.50400001928E-02 0. -1.
        1   -1    0    0  501    0  0.00000000000E+00  0.00000000000E+00 -0.22395506300E+03  0.22395506306E+03  0.50400001928E-02 0.  1.
    10030    2    1    2    0    0  0.00000000000E+00  0.00000000000E+00  0.13525912888E+04  0.18005014148E+04  0.11884031935E+04 0.  0.
        3    1    3    3  502    0  0.37163575137E+03 -0.36115517792E+03  0.11167829309E+04  0.12311581211E+04  0.10100000352E+00 0. -1.
       -3    1    3    3    0  502 -0.37163575137E+03  0.36115517792E+03  0.23580835783E+03  0.56934329369E+03  0.10100000352E+00 0.  1.
</event>
<event>
 5   0  0.3650180E-03  0.1199287E+04  0.7818609E-02  0.9113481E-01
       -2   -1    0    0    0  501  0.00000000000E+00  0.00000000000E+00  0.26511473546E+03  0.26511473547E+03  0.25500000920E-02 0.  1.
        2   -1    0    0  501    0  0.00000000000E+00  0.00000000000E+00 -0.13562886755E+04  0.13562886755E+04  0.25500000920E-02 0. -1.
    10030    2    1    2    0    0  0.00000000000E+00  0.00000000000E+00 -0.10911739400E+04  0.16214034110E+04  0.11992866437E+04 0.  0.
        3    1    3    3  502    0 -0.33051917355E+03  0.24132670215E+03  0.46957765625E+02  0.41193026498E+03  0.10100000352E+00 0.  1.
       -3    1    3    3    0  502  0.33051917355E+03 -0.24132670215E+03 -0.11381317056E+04  0.12094731460E+04  0.10100000352E+00 0. -1.
</event>
<event>
 5   0  0.2078258E-03  0.1201486E+04  0.7818609E-02  0.9111557E-01
        1   -1    0    0  501    0  0.00000000000E+00  0.00000000000E+00  0.55525517239E+03  0.55525517241E+03  0.50400001928E-02 0. -1.
       -1   -1    0    0    0  501  0.00000000000E+00  0.00000000000E+00 -0.64995734934E+03  0.64995734936E+03  0.50400001928E-02 0.  1.
    10030    2    1    2    0    0  0.00000000000E+00  0.00000000000E+00 -0.94702176954E+02  0.12052125218E+04  0.12014860467E+04 0.  0.
        3    1    3    3  502    0  0.43781874376E+03 -0.20090213179E+03  0.31271242211E+03  0.57431349287E+03  0.10100000352E+00 0. -1.
       -3    1    3    3    0  502 -0.43781874376E+03  0.20090213179E+03 -0.40741459906E+03  0.63089902891E+03  0.10100000352E+00 0.  1.
</event>
<event>
 5   0  0.2025294E-03  0.1202074E+04  0.7818609E-02  0.9111043E-01
       -1   -1    0    0    0  501  0.00000000000E+00  0.00000000000E+00  0.19516154499E+03  0.19516154506E+03  0.50400001928E-02 0. -1.
        1   -1    0    0  501    0  0.00000000000E+00  0.00000000000E+00 -0.18510089515E+04  0.18510089515E+04  0.50400001928E-02 0.  1.
    10030    2    1    2    0    0  0.00000000000E+00  0.00000000000E+00 -0.16558474066E+04  0.20461704966E+04  0.12020744850E+04 0.  0.
        5    1    3    3  502    0  0.59513414637E+03 -0.46520244896E+02 -0.70907541909E+03  0.92690820760E+03  0.46999998093E+01 0.  1.
       -5    1    3    3    0  502 -0.59513414637E+03  0.46520244896E+02 -0.94677198746E+03  0.11192622890E+04  0.46999998093E+01 0. -1.
</event>
<event>
 5   0  0.2047109E-03  0.1151708E+04  0.7818609E-02  0.9156209E-01
       -1   -1    0    0    0  501  0.00000000000E+00  0.00000000000E+00  0.54875787628E+03  0.54875787631E+03  0.50400001928E-02 0.  1.
        1   -1    0    0  501    0  0.00000000000E+00  0.00000000000E+00 -0.60428796404E+03  0.60428796406E+03  0.50400001928E-02 0. -1.
    10030    2    1    2    0    0  0.00000000000E+00  0.00000000000E+00 -0.55530087758E+02  0.11530458404E+04  0.11517079141E+04 0.  0.
        1    1    3    3  502    0 -0.30003429664E+03  0.52534074387E+02 -0.51703243518E+03  0.60008578319E+03  0.50400001928E-02 0. -1.
       -1    1    3    3    0  502  0.30003429664E+03 -0.52534074387E+02  0.46150234742E+03  0.55296005718E+03  0.50400001928E-02 0.  1.
</event>
<event>
 5   0  0.2047109E-03  0.1132298E+04  0.7818609E-02  0.9174272E-01
        1   -1    0    0  501    0  0.00000000000E+00  0.00000000000E+00  0.10919601495E+04  0.10919601495E+04  0.50400001928E-02 0.  1.
       -1   -1    0    0    0  501  0.00000000000E+00  0.00000000000E+00 -0.29353148453E+03  0.29353148458E+03  0.50400001928E-02 0. -1.
    10030    2    1    2    0    0  0.00000000000E+00  0.00000000000E+00  0.79842866499E+03  0.13854916341E+04  0.11322979887E+04 0.  0.
        1    1    3    3  502    0 -0.30456523808E+03  0.15283303084E+03  0.95242532811E+03  0.10115492698E+04  0.50400001928E-02 0.  1.
       -1    1    3    3    0  502  0.30456523808E+03 -0.15283303084E+03 -0.15399666311E+03  0.37394236432E+03  0.50400001928E-02 0. -1.
</event>
<event>
 5   0  0.3650180E-03  0.1234895E+04  0.7818609E-02  0.9082850E-01
       -2   -1    0    0    0  501  0.00000000000E+00  0.00000000000E+00  0.57172559354E+03  0.57172559354E+03  0.25500000920E-02 0. -1.
        2   -1    0    0  501    0  0.00000000000E+00  0.00000000000E+00 -0.66682562219E+03  0.66682562219E+03  0.25500000920E-02 0.  1.
    10030    2    1    2    0    0  0.00000000000E+00  0.00000000000E+00 -0.95100028647E+02  0.12385512157E+04  0.12348947723E+04 0.  0.
        3    1    3    3  502    0  0.29078891971E+03 -0.37361772427E+03  0.34997297317E+03  0.58875248778E+03  0.10100000352E+00 0. -1.
       -3    1    3    3    0  502 -0.29078891971E+03  0.37361772427E+03 -0.44507300181E+03  0.64979872796E+03  0.10100000352E+00 0.  1.
</event>
<event>
 5   0  0.2047109E-03  0.1203638E+04  0.7818609E-02  0.9109678E-01
        1   -1    0    0  501    0  0.00000000000E+00  0.00000000000E+00  0.72054179898E+03  0.72054179900E+03  0.50400001928E-02 0. -1.
       -1   -1    0    0    0  501  0.00000000000E+00  0.00000000000E+00 -0.50265824829E+03  0.50265824832E+03  0.50400001928E-02 0.  1.
    10030    2    1    2    0    0  0.00000000000E+00  0.00000000000E+00  0.21788355069E+03  0.12232000473E+04  0.12036382821E+04 0.  0.
        1    1    3    3  502    0  0.17357243446E+03  0.12798074990E+03 -0.46204349447E+03  0.50989278595E+03  0.50400001928E-02 0.  1.
       -1    1    3    3    0  502 -0.17357243446E+03 -0.12798074990E+03  0.67992704517E+03  0.71330726137E+03  0.50400001928E-02 0. -1.
</event>
<event>
 5   0  0.2096270E-03  0.1189930E+04  0.7818609E-02  0.9121717E-01
       -1   -1    0    0    0  501  0.00000000000E+00  0.00000000000E+00  0.37260394060E+03  0.37260394063E+03  0.50400001928E-02 0.  1.
        1   -1    0    0  501    0  0.00000000000E+00  0.00000000000E+00 -0.95002504976E+03  0.95002504978E+03  0.50400001928E-02 0. -1.
    10030    2    1    2    0    0  0.00000000000E+00  0.00000000000E+00 -0.57742110916E+03  0.13226289904E+04  0.11899295395E+04 0.  0.
        2    1    3    3  502    0  0.51797850061E+03  0.22855206110E+03 -0.49198574450E+03  0.75005849408E+03  0.25500000920E-02 0. -1.
       -2    1    3    3    0  502 -0.51797850061E+03 -0.22855206110E+03 -0.85435364659E+02  0.57257049634E+03  0.25500000920E-02 0.  1.
</event>
<event>
 5   0  0.2025294E-03  0.1202988E+04  0.7818609E-02  0.9110245E-01
       -1   -1    0    0    0  501  0.00000000000E+00  0.00000000000E+00  0.47803954182E+03  0.47803954184E+03  0.50400001928E-02 0.  1.
        1   -1    0    0  501    0  0.00000000000E+00  0.00000000000E+00 -0.75683037527E+03  0.75683037528E+03  0.50400001928E-02 0. -1.
    10030    2    1    2    0    0  0.00000000000E+00  0.00000000000E+00 -0.27879083345E+03  0.12348699171E+04  0.12029876905E+04 0.  0.
        5    1    3    3  502    0  0.14290545958E+03  0.33619114538E+03  0.35110343631E+03  0.50669731556E+03  0.46999998093E+01 0.  1.
       -5    1    3    3    0  502 -0.14290545958E+03 -0.33619114538E+03 -0.62989426975E+03  0.72817260157E+03  0.46999998093E+01 0. -1.
</event>
<event>
 5   0  0.3626049E-03  0.1199492E+04  0.7818609E-02  0.9113301E-01
        2   -1    0    0  501    0  0.00000000000E+00  0.00000000000E+00  0.53262420738E+03  0.53262420739E+03  0.25500000920E-02 0. -1.
       -2   -1    0    0    0  501  0.00000000000E+00  0.00000000000E+00 -0.67532663038E+03  0.67532663038E+03  0.25500000920E-02 0.  1.
    10030    2    1    2    0    0  0.00000000000E+00  0.00000000000E+00 -0.14270242300E+03  0.12079508378E+04  0.11994920779E+04 0.  0.
        1    1    3    3  502    0  0.32925159880E+03  0.23130433343E+02  0.43293318689E+03  0.54440130106E+03  0.50400001928E-02 0. -1.
       -1    1    3    3    0  502 -0.32925159880E+03 -0.23130433343E+02 -0.57563560989E+03  0.66354953670E+03  0.50400001928E-02 0.  1.
</event>
<event>
 5   0  0.3650180E-03  0.1217875E+04  0.7818609E-02  0.9097353E-01
       -2   -1    0    0    0  501  0.00000000000E+00  0.00000000000E+00  0.32172890025E+03  0.32172890026E+03  0.25500000920E-02 0. -1.
        2   -1    0    0  501    0  0.00000000000E+00  0.00000000000E+00 -0.11525382892E+04  0.11525382892E+04  0.25500000920E-02 0.  1.
    10030    2    1    2    0    0  0.00000000000E+00  0.00000000000E+00 -0.83080938892E+03  0.14742671894E+04  0.12178749957E+04 0.  0.
        3    1    3    3  502    0  0.30554925758E+03  0.33612162586E+02  0.22091521596E+03  0.37854150251E+03  0.10100000352E+00 0. -1.
       -3    1    3    3    0  502 -0.30554925758E+03 -0.33612162586E+02 -0.10517246049E+04  0.10957256869E+04  0.10100000352E+00 0.  1.
</event>
<event>
 5   0  0.2134992E-03  0.1204959E+04  0.7818609E-02  0.9108527E-01
        1   -1    0    0  501    0  0.00000000000E+00  0.00000000000E+00  0.35606892886E+03  0.35606892890E+03  0.50400001928E-02 0.  1.
       -1   -1    0    0    0  501  0.00000000000E+00  0.00000000000E+00 -0.10194130491E+04  0.10194130491E+04  0.50400001928E-02 0. -1.
    10030    2    1    2    0    0  0.00000000000E+00  0.00000000000E+00 -0.66334412020E+03  0.13754819780E+04  0.12049586092E+04 0.  0.
        4    1    3    3  502    0 -0.31932002056E+03 -0.12987980752E+03 -0.89570865161E+03  0.95975499030E+03  0.12699999809E+01 0. -1.
       -4    1    3    3    0  502  0.31932002056E+03  0.12987980752E+03  0.23236453141E+03  0.41572698768E+03  0.12699999809E+01 0.  1.
</event>
<event>
 5   0  0.2096270E-03  0.1294757E+04  0.7818609E-02  0.9033734E-01
       -1   -1    0    0    0  501  0.00000000000E+00  0.00000000000E+00  0.30404409508E+03  0.30404409512E+03  0.50400001928E-02 0.  1.
        1   -1    0    0  501    0  0.00000000000E+00  0.00000000000E+00 -0.13784140349E+04  0.13784140349E+04  0.50400001928E-02 0. -1.
    10030    2    1    2    0    0  0.00000000000E+00  0.00000000000E+00 -0.10743699398E+04  0.16824581300E+04  0.12947565762E+04 0.  0.
        2    1    3    3  502    0 -0.74448060164E+02  0.36684898416E+03 -0.12235277734E+04  0.12795080708E+04  0.25500000920E-02 0. -1.
       -2    1    3    3    0  502  0.74448060164E+02 -0.36684898416E+03  0.14915783368E+03  0.40295005918E+03  0.25500000920E-02 0.  1.
</event>
<event>
 5   0  0.2134992E-03  0.1207428E+04  0.7818609E-02  0.9106380E-01
        1   -1    0    0  501    0  0.00000000000E+00  0.00000000000E+00  0.58342907837E+03  0.58342907839E+03  0.50400001928E-02 0.  1.
       -1   -1    0    0    0  501  0.00000000000E+00  0.00000000000E+00 -0.62470421239E+03  0.62470421241E+03  0.50400001928E-02 0. -1.
    10030    2    1    2    0    0  0.00000000000E+00  0.00000000000E+00 -0.41275134023E+02  0.12081332908E+04  0.12074280151E+04 0.  0.
        4    1    3    3  502    0 -0.94933246708E+01 -0.39301511845E+02  0.58207152945E+03  0.58347545822E+03  0.12699999809E+01 0.  1.
       -4    1    3    3    0  502  0.94933246708E+01  0.39301511845E+02 -0.62334666347E+03  0.62465783258E+03  0.12699999809E+01 0. -1.
</event>
<event>
 5   0  0.2047109E-03  0.1212760E+04  0.7818609E-02  0.9101761E-01
        1   -1    0    0  501    0  0.00000000000E+00  0.00000000000E+00  0.66940871808E+03  0.66940871810E+03  0.50400001928E-02 0. -1.
       -1   -1    0    0    0  501  0.00000000000E+00  0.00000000000E+00 -0.54928555799E+03  0.54928555801E+03  0.50400001928E-02 0.  1.
    10030    2    1    2    0    0  0.00000000000E+00  0.00000000000E+00  0.12012316010E+03  0.12186942761E+04  0.12127597310E+04 0.  0.
        1    1    3    3  502    0 -0.29264843749E+03 -0.41514681062E+03  0.39290218284E+03  0.64215427090E+03  0.50400001928E-02 0. -1.
       -1    1    3    3    0  502  0.29264843749E+03  0.41514681062E+03 -0.27277902274E+03  0.57654000521E+03  0.50400001928E-02 0.  1.
</event>
<event>
 5   0  0.1397500E-03  0.1214907E+04  0.7818609E-02  0.9099908E-01
       -3   -1    0    0    0  501  0.00000000000E+00  0.00000000000E+00  0.18297530589E+04  0.18297530617E+04  0.10100000352E+00 0.  1.
        3   -1    0    0  501    0  0.00000000000E+00  0.00000000000E+00 -0.20166624912E+03  0.20166627441E+03  0.10100000352E+00 0. -1.
    10030    2    1    2    0    0  0.00000000000E+00  0.00000000000E+00  0.16280868097E+04  0.20314193361E+04  0.12149065227E+04 0.  0.
        1    1    3    3  502    0 -0.58608222849E+03  0.15497529211E+03  0.87858098603E+03  0.10674334962E+04  0.50400001928E-02 0.  1.
       -1    1    3    3    0  502  0.58608222849E+03 -0.15497529211E+03  0.74950582372E+03  0.96398583990E+03  0.50400001928E-02 0. -1.
</event>
<event>
 5   0  0.2047109E-03  0.1347562E+04  0.7818609E-02  0.8992675E-01
       -1   -1    0    0    0  501  0.00000000000E+00  0.00000000000E+00  0.42844964012E+03  0.42844964015E+03  0.50400001928E-02 0.  1.
        1   -1    0    0  501    0  0.00000000000E+00  0.00000000000E+00 -0.10595904921E+04  0.10595904921E+04  0.50400001928E-02 0. -1.
    10030    2    1    2    0    0  0.00000000000E+00  0.00000000000E+00 -0.63114085193E+03  0.14880401322E+04  0.13475624884E+04 0.  0.
        1    1    3    3  502    0 -0.60852071331E+03 -0.27827656944E+03 -0.40283978020E+03  0.78103469588E+03  0.50400001928E-02 0.  1.
       -1    1    3    3    0  502  0.60852071331E+03  0.27827656944E+03 -0.22830107173E+03  0.70700543634E+03  0.50400001928E-02 0. -1.
</event>
<event>
 5   0  0.3725376E-03  0.1191299E+04  0.7818609E-02  0.9120507E-01
       -2   -1    0    0    0  501  0.00000000000E+00  0.00000000000E+00  0.91121269387E+03  0.91121269387E+03  0.25500000920E-02 0. -1.
        2   -1    0    0  501    0  0.00000000000E+00  0.00000000000E+00 -0.38936912461E+03  0.38936912462E+03  0.25500000920E-02 0.  1.
    10030    2    1    2    0    0  0.00000000000E+00  0.00000000000E+00  0.52184356926E+03  0.13005818185E+04  0.11912986006E+04 0.  0.
        4    1    3    3  502    0  0.42608287276E+02 -0.21973575368E+03 -0.34170896012E+03  0.40849222014E+03  0.12699999809E+01 0.  1.
       -4    1    3    3    0  502 -0.42608287276E+02  0.21973575368E+03  0.86355252938E+03  0.89208959835E+03  0.12699999809E+01 0. -1.
</event>
<event>
 5   0  0.3725376E-03  0.1194052E+04  0.7818609E-02  0.9118079E-01
       -2   -1    0    0    0  501  0.00000000000E+00  0.00000000000E+00  0.42673461863E+03  0.42673461864E+03  0.25500000920E-02 0.  1.
        2   -1    0    0  501    0  0.00000000000E+00  0.00000000000E+00 -0.83527312620E+03  0.83527312620E+03  0.25500000920E-02 0. -1.
    10030    2    1    2    0    0  0.00000000000E+00  0.00000000000E+00 -0.40853850757E+03  0.12620077448E+04  0.11940518564E+04 0.  0.
        4    1    3    3  502    0 -0.28301353907E+03 -0.52481640555E+03 -0.23614217389E+03  0.64132180847E+03  0.12699999809E+01 0.  1.
       -4    1    3    3    0  502  0.28301353907E+03  0.52481640555E+03 -0.17239633368E+03  0.62068593636E+03  0.12699999809E+01 0. -1.
</event>
<event>
 5   0  0.2047109E-03  0.1123792E+04  0.7818609E-02  0.9182308E-01
        1   -1    0    0  501    0  0.00000000000E+00  0.00000000000E+00  0.62767707421E+03  0.62767707423E+03  0.50400001928E-02 0.  1.
       -1   -1    0    0    0  501  0.00000000000E+00  0.00000000000E+00 -0.50300910852E+03  0.50300910855E+03  0.50400001928E-02 0. -1.
    10030    2    1    2    0    0  0.00000000000E+00  0.00000000000E+00  0.12466796569E+03  0.11306861828E+04  0.11237923039E+04 0.  0.
        1    1    3    3  502    0 -0.13518153055E+03 -0.51098277287E+03  0.25415991360E+03  0.58649356525E+03  0.50400001928E-02 0.  1.
       -1    1    3    3    0  502  0.13518153055E+03  0.51098277287E+03 -0.12949194791E+03  0.54419261753E+03  0.50400001928E-02 0. -1.
</event>
<event>
 5   0  0.2134992E-03  0.1218391E+04  0.7818609E-02  0.9096909E-01
        1   -1    0    0  501    0  0.00000000000E+00  0.00000000000E+00  0.38122648843E+03  0.38122648847E+03  0.50400001928E-02 0.  1.
       -1   -1    0    0    0  501  0.00000000000E+00  0.00000000000E+00 -0.97348808949E+03  0.97348808950E+03  0.50400001928E-02 0. -1.
    10030    2    1    2    0    0  0.00000000000E+00  0.00000000000E+00 -0.59226160106E+03  0.13547145780E+04  0.12183914739E+04 0.  0.
        4    1    3    3  502    0 -0.43489368403E+03  0.34222455998E+03 -0.57931896127E+03  0.80116305310E+03  0.12699999809E+01 0. -1.
       -4    1    3    3    0  502  0.43489368403E+03 -0.34222455998E+03 -0.12942639783E+02  0.55355152487E+03  0.12699999809E+01 0.  1.
</event>
<event>
 5   0  0.3725376E-03  0.1223705E+04  0.7818609E-02  0.9092357E-01
       -2   -1    0    0    0  501  0.00000000000E+00  0.00000000000E+00  0.36587579217E+03  0.36587579218E+03  0.25500000920E-02 0. -1.
        2   -1    0    0  501    0  0.00000000000E+00  0.00000000000E+00 -0.10231986270E+04  0.10231986270E+04  0.25500000920E-02 0.  1.
    10030    2    1    2    0    0  0.00000000000E+00  0.00000000000E+00 -0.65732283485E+03  0.13890744192E+04  0.12237052067E+04 0.  0.
        4    1    3    3  502    0  0.33227483834E+03  0.28422713249E+03 -0.81448244718E+03  0.92443220449E+03  0.12699999809E+01 0.  1.
       -4    1    3    3    0  502 -0.33227483834E+03 -0.28422713249E+03  0.15715961233E+03  0.46464221471E+03  0.12699999809E+01 0. -1.
</event>
<event>
 5   0  0.3725376E-03  0.1213534E+04  0.7818609E-02  0.9101092E-01
       -2   -1    0    0    0  501  0.00000000000E+00  0.00000000000E+00  0.13342348900E+04  0.13342348900E+04  0.25500000920E-02 0. -1.
        2   -1    0    0  501    0  0.00000000000E+00  0.00000000000E+00 -0.27593816723E+03  0.27593816724E+03  0.25500000920E-02 0.  1.
    10030    2    1    2    0    0  0.00000000000E+00  0.00000000000E+00  0.10582967228E+04  0.16101730573E+04  0.12135342273E+04 0.  0.
        4    1    3    3  502    0 -0.25282399055E+03  0.51079889126E+03  0.25295638348E+03  0.62355755336E+03  0.12699999809E+01 0.  1.
       -4    1    3    3    0  502  0.25282399055E+03 -0.51079889126E+03  0.80534033933E+03  0.98661550391E+03  0.12699999809E+01 0. -1.
</event>
<event>
 5   0  0.3751091E-03  0.1194648E+04  0.7818609E-02  0.9117554E-01
       -2   -1    0    0    0  501  0.00000000000E+00  0.00000000000E+00  0.70374283453E+03  0.70374283454E+03  0.25500000920E-02 0.  1.
        2   -1    0    0  501    0  0.00000000000E+00  0.00000000000E+00 -0.50699740276E+03  0.50699740277E+03  0.25500000920E-02 0. -1.
    10030    2    1    2    0    0  0.00000000000E+00  0.00000000000E+00  0.19674543178E+03  0.12107402373E+04  0.11946477126E+04 0.  0.
        5    1    3    3  502    0  0.57672905298E+03  0.15524402078E+03  0.10599686977E+03  0.60660904456E+03  0.46999998093E+01 0. -1.
       -5    1    3    3    0  502 -0.57672905298E+03 -0.15524402078E+03  0.90748562004E+02  0.60413119274E+03  0.46999998093E+01 0.  1.
</event>
<event>
 5   0  0.3626049E-03  0.1208143E+04  0.7818609E-02  0.9105759E-01
        2   -1    0    0  501    0  0.00000000000E+00  0.00000000000E+00  0.19164760206E+04  0.19164760206E+04  0.25500000920E-02 0.  1.
       -2   -1    0    0    0  501  0.00000000000E+00  0.00000000000E+00 -0.19040273416E+03  0.19040273418E+03  0.25500000920E-02 0. -1.
    10030    2    1    2    0    0  0.00000000000E+00  0.00000000000E+00  0.17260732864E+04  0.21068787547E+04  0.12081428298E+04 0.  0.
        1    1    3    3  502    0 -0.19622459920E+03  0.28543985722E+03  0.17260855366E+04  0.17604974539E+04  0.50400001928E-02 0.  1.
       -1    1    3    3    0  502  0.19622459920E+03 -0.28543985722E+03 -0.12250178846E-01  0.34638130088E+03  0.50400001928E-02 0. -1.
</event>
<event>
 5   0  0.2025294E-03  0.1182775E+04  0.7818609E-02  0.9128069E-01
       -1   -1    0    0    0  501  0.00000000000E+00  0.00000000000E+00  0.46432933805E+03  0.46432933808E+03  0.50400001928E-02 0. -1.
        1   -1    0    0  501    0  0.00000000000E+00  0.00000000000E+00 -0.75321331405E+03  0.75321331407E+03  0.50400001928E-02 0.  1.
    10030    2    1    2    0    0  0.00000000000E+00  0.00000000000E+00 -0.28888397600E+03  0.12175426521E+04  0.11827747707E+04 0.  0.
        5    1    3    3  502    0 -0.57236773710E+03 -0.52410493259E+02 -0.11922505207E+01  0.57478273959E+03  0.46999998093E+01 0. -1.
       -5    1    3    3    0  502  0.57236773710E+03  0.52410493259E+02 -0.28769172548E+03  0.64275991255E+03  0.46999998093E+01 0.  1.
</event>
<event>
 5   0  0.3751091E-03  0.1194501E+04  0.7818609E-02  0.9117683E-01
       -2   -1    0    0    0  501  0.00000000000E+00  0.00000000000E+00  0.27565375269E+03  0.27565375270E+03  0.25500000920E-02 0.  1.
        2   -1    0    0  501    0  0.00000000000E+00  0.00000000000E+00 -0.12940442203E+04  0.12940442203E+04  0.25500000920E-02 0. -1.
    10030    2    1    2    0    0  0.00000000000E+00  0.00000000000E+00 -0.10183904676E+04  0.15696979730E+04  0.11945009761E+04 0.  0.
        5    1    3    3  502    0 -0.19396198791E+03  0.46999935171E+03 -0.92092174818E+03  0.10519693910E+04  0.46999998093E+01 0. -1.
       -5    1    3    3    0  502  0.19396198791E+03 -0.46999935171E+03 -0.97468719449E+02  0.51772858201E+03  0.46999998093E+01 0.  1.
</event>
<event>
 5   0  0.2096270E-03  0.1176974E+04  0.7818609E-02  0.9133253E-01
       -1   -1    0    0    0  501  0.00000000000E+00  0.00000000000E+00  0.40603403386E+03  0.40603403389E+03  0.50400001928E-02 0.  1.
        1   -1    0    0  501    0  0.00000000000E+00  0.00000000000E+00 -0.85292600868E+03  0.85292600869E+03  0.50400001928E-02 0. -1.
    10030    2    1    2    0    0  0.00000000000E+00  0.00000000000E+00 -0.44689197482E+03  0.12589600426E+04  0.11769740658E+04 0.  0.
        2    1    3    3  502    0 -0.23623230842E+01 -0.32018187941E+03  0.30470418370E+03  0.44200300456E+03  0.25500000920E-02 0.  1.
       -2    1    3    3    0  502  0.23623230842E+01  0.32018187941E+03 -0.75159615852E+03  0.81695703802E+03  0.25500000920E-02 0. -1.
</event>
<event>
 5   0  0.3751091E-03  0.1202339E+04  0.7818609E-02  0.9110811E-01
       -2   -1    0    0    0  501  0.00000000000E+00  0.00000000000E+00  0.28449230465E+03  0.28449230466E+03  0.25500000920E-02 0. -1.
        2   -1    0    0  501    0  0.00000000000E+00  0.00000000000E+00 -0.12703504615E+04  0.12703504615E+04  0.25500000920E-02 0.  1.
    10030    2    1    2    0    0  0.00000000000E+00  0.00000000000E+00 -0.98585815685E+03  0.15548427662E+04  0.12023392708E+04 0.  0.
        5    1    3    3  502    0  0.75159376905E+02  0.59324162270E+03 -0.57262814928E+03  0.82795509672E+03  0.46999998093E+01 0. -1.
       -5    1    3    3    0  502 -0.75159376905E+02 -0.59324162270E+03 -0.41323000757E+03  0.72688766945E+03  0.46999998093E+01 0.  1.
</event>
<event>
 5   0  0.2078258E-03  0.1203045E+04  0.7818609E-02  0.9110195E-01
       -1   -1    0    0    0  501  0.00000000000E+00  0.00000000000E+00  0.43648552439E+03  0.43648552442E+03  0.50400001928E-02 0. -1.
        1   -1    0    0  501    0  0.00000000000E+00  0.00000000000E+00 -0.82896051942E+03  0.82896051943E+03  0.50400001928E-02 0.  1.
    10030    2    1    2    0    0  0.00000000000E+00  0.00000000000E+00 -0.39247499503E+03  0.12654460439E+04  0.12030449153E+04 0.  0.
        3    1    3    3  502    0 -0.29345610271E+03  0.37063052576E+03  0.19500386086E+03  0.51138047166E+03  0.10100000352E+00 0. -1.
       -3    1    3    3    0  502  0.29345610271E+03 -0.37063052576E+03 -0.58747885589E+03  0.75406557219E+03  0.10100000352E+00 0.  1.
</event>
<event>
 5   0  0.2134992E-03  0.1205233E+04  0.7818609E-02  0.9108288E-01
        1   -1    0    0  501    0  0.00000000000E+00  0.00000000000E+00  0.12649348182E+04  0.12649348182E+04  0.50400001928E-02 0. -1.
       -1   -1    0    0    0  501  0.00000000000E+00  0.00000000000E+00 -0.28708723201E+03  0.28708723206E+03  0.50400001928E-02 0.  1.
    10030    2    1    2    0    0  0.00000000000E+00  0.00000000000E+00  0.97784758622E+03  0.15520220503E+04  0.12052329828E+04 0.  0.
        4    1    3    3  502    0 -0.16546372776E+03  0.20176772480E+03  0.11884105852E+04  0.12167209178E+04  0.12699999809E+01 0. -1.
       -4    1    3    3    0  502  0.16546372776E+03 -0.20176772480E+03 -0.21056299900E+03  0.33530113245E+03  0.12699999809E+01 0.  1.
</event>
<event>
 5   0  0.2078258E-03  0.1223095E+04  0.7818609E-02  0.9092879E-01
        1   -1    0    0  501    0  0.00000000000E+00  0.00000000000E+00  0.29704236355E+04  0.29704236355E+04  0.50400001928E-02 0.  1.
       -1   -1    0    0    0  501  0.00000000000E+00  0.00000000000E+00 -0.12590465817E+03  0.12590465827E+03  0.50400001928E-02 0. -1.
    10030    2    1    2    0    0  0.00000000000E+00  0.00000000000E+00  0.28445189773E+04  0.30963282938E+04  0.12230947185E+04 0.  0.
        3    1    3    3  502    0  0.14814653901E+03 -0.74864482208E+02 -0.67786657851E+02  0.17929620437E+03  0.10100000352E+00 0. -1.
       -3    1    3    3    0  502 -0.14814653901E+03  0.74864482208E+02  0.29123056352E+04  0.29170320894E+04  0.10100000352E+00 0.  1.
</event>
<event>
 5   0  0.2078258E-03  0.1213741E+04  0.7818609E-02  0.9100913E-01
        1   -1    0    0  501    0  0.00000000000E+00  0.00000000000E+00  0.19537647929E+04  0.19537647929E+04  0.50400001928E-02 0.  1.
       -1   -1    0    0    0  501  0.00000000000E+00  0.00000000000E+00 -0.18850361345E+03  0.18850361352E+03  0.50400001928E-02 0. -1.
    10030    2    1    2    0    0  0.00000000000E+00  0.00000000000E+00  0.17652611795E+04  0.21422684065E+04  0.12137408675E+04 0.  0.
        3    1    3    3  502    0 -0.59256581314E+03  0.16629493351E+01  0.65145629927E+03  0.88064313338E+03  0.10100000352E+00 0. -1.
       -3    1    3    3    0  502  0.59256581314E+03 -0.16629493351E+01  0.11138048802E+04  0.12616252731E+04  0.10100000352E+00 0.  1.
</event>
<event>
 5   0  0.3706035E-03  0.9127491E+03  0.7818609E-02  0.9409783E-01
       -2   -1    0    0    0  501  0.00000000000E+00  0.00000000000E+00  0.29868649397E+03  0.29868649399E+03  0.25500000920E-02 0. -1.
        2   -1    0    0  501    0  0.00000000000E+00  0.00000000000E+00 -0.69731213315E+03  0.69731213315E+03  0.25500000920E-02 0.  1.
    10030    2    1    2    0    0  0.00000000000E+00  0.00000000000E+00 -0.39862563917E+03  0.99599862714E+03  0.91274907015E+03 0.  0.
        2    1    3    3  502    0 -0.48820954158E+02  0.10557681154E+03 -0.68086525608E+03  0.69072964729E+03  0.25500000920E-02 0.  1.
       -2    1    3    3    0  502  0.48820954158E+02 -0.10557681154E+03  0.28223961691E+03  0.30526897985E+03  0.25500000920E-02 0. -1.
</event>
<event>
 5   0  0.2025294E-03  0.1315874E+04  0.7818609E-02  0.9017071E-01
       -1   -1    0    0    0  501  0.00000000000E+00  0.00000000000E+00  0.94048383861E+03  0.94048383862E+03  0.50400001928E-02 0.  1.
        1   -1    0    0  501    0  0.00000000000E+00  0.00000000000E+00 -0.46027455330E+03  0.46027455333E+03  0.50400001928E-02 0. -1.
    10030    2    1    2    0    0  0.00000000000E+00  0.00000000000E+00  0.48020928531E+03  0.14007583919E+04  0.13158735178E+04 0.  0.
        5    1    3    3  502    0 -0.39060393203E+03 -0.48505488576E+03  0.14265695915E+02  0.62295687972E+03  0.46999998093E+01 0. -1.
       -5    1    3    3    0  502  0.39060393203E+03  0.48505488576E+03  0.46594358939E+03  0.77780151222E+03  0.46999998093E+01 0.  1.
</event>
<event>
 5   0  0.2096270E-03  0.1123267E+04  0.7818609E-02  0.9182806E-01
        1   -1    0    0  501    0  0.00000000000E+00  0.00000000000E+00  0.40047306144E+03  0.40047306147E+03  0.50400001928E-02 0.  1.
       -1   -1    0    0    0  501  0.00000000000E+00  0.00000000000E+00 -0.78764960237E+03  0.78764960239E+03  0.50400001928E-02 0. -1.
    10030    2    1    2    0    0  0.00000000000E+00  0.00000000000E+00 -0.38717654093E+03  0.11881226639E+04  0.11232674617E+04 0.  0.
        2    1    3    3  502    0  0.50557372325E+03 -0.22522157957E+03 -0.92670431522E+02  0.56117498022E+03  0.25500000920E-02 0. -1.
       -2    1    3    3    0  502 -0.50557372325E+03  0.22522157957E+03 -0.29450610941E+03  0.62694768364E+03  0.25500000920E-02 0.  1.
</event>
<event>
 5   0  0.2078258E-03  0.1180990E+04  0.7818609E-02  0.9129661E-01
       -1   -1    0    0    0  501  0.00000000000E+00  0.00000000000E+00  0.81070700108E+03  0.81070700109E+03  0.50400001928E-02 0.  1.
        1   -1    0    0  501    0  0.00000000000E+00  0.00000000000E+00 -0.43009913974E+03  0.43009913977E+03  0.50400001928E-02 0. -1.
    10030    2    1    2    0    0  0.00000000000E+00  0.00000000000E+00  0.38060786134E+03  0.12408061409E+04  0.11809900656E+04 0.  0.
        3    1    3    3  502    0 -0.41952946958E+02  0.56558274330E+03  0.17535287507E+02  0.56740760110E+03  0.10100000352E+00 0. -1.
       -3    1    3    3    0  502  0.41952946958E+02 -0.56558274330E+03  0.36307257383E+03  0.67339853976E+03  0.10100000352E+00 0.  1.
</event>
<event>
 5   0  0.3626049E-03  0.1204025E+04  0.7818609E-02  0.9109341E-01
        2   -1    0    0  501    0  0.00000000000E+00  0.00000000000E+00  0.26843414115E+04  0.26843414115E+04  0.25500000920E-02 0.  1.
       -2   -1    0    0    0  501  0.00000000000E+00  0.00000000000E+00 -0.13501222948E+03  0.13501222950E+03  0.25500000920E-02 0. -1.
    10030    2    1    2    0    0  0.00000000000E+00  0.00000000000E+00  0.25493291820E+04  0.28193536410E+04  0.12040247816E+04 0.  0.
        1    1    3    3  502    0  0.24577168400E+03  0.26873420585E+03  0.23971647821E+04  0.24246692118E+04  0.50400001928E-02 0.  1.
       -1    1    3    3    0  502 -0.24577168400E+03 -0.26873420585E+03  0.15216439997E+03  0.39468442925E+03  0.50400001928E-02 0. -1.
</event>
<event>
 5   0  0.3706035E-03  0.1213698E+04  0.7818609E-02  0.9100950E-01
        2   -1    0    0  501    0  0.00000000000E+00  0.00000000000E+00  0.41288830351E+03  0.41288830352E+03  0.25500000920E-02 0. -1.
       -2   -1    0    0    0  501  0.00000000000E+00  0.00000000000E+00 -0.89192622044E+03  0.89192622044E+03  0.25500000920E-02 0.  1.
    10030    2    1    2    0    0  0.00000000000E+00  0.00000000000E+00 -0.47903791693E+03  0.13048145240E+04  0.12136983217E+04 0.  0.
        2    1    3    3  502    0  0.29870124641E+03  0.20529704702E+03 -0.76277883839E+03  0.84451220738E+03  0.25500000920E-02 0.  1.
       -2    1    3    3    0  502 -0.29870124641E+03 -0.20529704702E+03  0.28374092146E+03  0.46030231657E+03  0.25500000920E-02 0. -1.
</event>
<event>
 5   0  0.2078258E-03  0.1181400E+04  0.7818609E-02  0.9129294E-01
        1   -1    0    0  501    0  0.00000000000E+00  0.00000000000E+00  0.42154179990E+03  0.42154179993E+03  0.50400001928E-02 0. -1.
       -1   -1    0    0    0  501  0.00000000000E+00  0.00000000000E+00 -0.82773903417E+03  0.82773903419E+03  0.50400001928E-02 0.  1.
    10030    2    1    2    0    0  0.00000000000E+00  0.00000000000E+00 -0.40619723428E+03  0.12492808341E+04  0.11814001902E+04 0.  0.
        3    1    3    3  502    0 -0.37078785340E+03  0.45856138929E+03 -0.16701447324E+03  0.61290784336E+03  0.10100000352E+00 0.  1.
       -3    1    3    3    0  502  0.37078785340E+03 -0.45856138929E+03 -0.23918276103E+03  0.63637299075E+03  0.10100000352E+00 0. -1.
</event>
<event>
 5   0  0.3626049E-03  0.1245692E+04  0.7818609E-02  0.9073776E-01
        2   -1    0    0  501    0  0.00000000000E+00  0.00000000000E+00  0.15921657617E+04  0.15921657617E+04  0.25500000920E-02 0. -1.
       -2   -1    0    0    0  501  0.00000000000E+00  0.00000000000E+00 -0.24365379747E+03  0.24365379748E+03  0.25500000920E-02 0.  1.
    10030    2    1    2    0    0  0.00000000000E+00  0.00000000000E+00  0.13485119642E+04  0.18358195592E+04  0.12456921515E+04 0.  0.
        1    1    3    3  502    0 -0.19917838928E+03 -0.30647533159E+03  0.14174889300E+04  0.14638558762E+04  0.50400001928E-02 0. -1.
       -1    1    3    3    0  502  0.19917838928E+03  0.30647533159E+03 -0.68976965756E+02  0.37196368299E+03  0.50400001928E-02 0.  1.
</event>
<event>
 5   0  0.2047109E-03  0.1243657E+04  0.7818609E-02  0.9075479E-01
        1   -1    0    0  501    0  0.00000000000E+00  0.00000000000E+00  0.13645121373E+04  0.13645121373E+04  0.50400001928E-02 0. -1.
       -1   -1    0    0    0  501  0.00000000000E+00  0.00000000000E+00 -0.28337659002E+03  0.28337659006E+03  0.50400001928E-02 0.  1.
    10030    2    1    2    0    0  0.00000000000E+00  0.00000000000E+00  0.10811355472E+04  0.16478887273E+04  0.12436571819E+04 0.  0.
        1    1    3    3  502    0  0.48063471376E+03 -0.37202605765E+03  0.71463556446E+03  0.93814556742E+03  0.50400001928E-02 0.  1.
       -1    1    3    3    0  502 -0.48063471376E+03  0.37202605765E+03  0.36649998278E+03  0.70974315991E+03  0.50400001928E-02 0. -1.
</event>
<event>
 5   0  0.2078258E-03  0.1249659E+04  0.7818609E-02  0.9070467E-01
        1   -1    0    0  501    0  0.00000000000E+00  0.00000000000E+00  0.11410435707E+04  0.11410435707E+04  0.50400001928E-02 0. -1.
       -1   -1    0    0    0  501  0.00000000000E+00  0.00000000000E+00 -0.34215338191E+03  0.34215338195E+03  0.50400001928E-02 0.  1.
    10030    2    1    2    0    0  0.00000000000E+00  0.00000000000E+00  0.79889018876E+03  0.14831969526E+04  0.12496590201E+04 0.  0.
        3    1    3    3  502    0  0.38747617891E+03 -0.13499206193E+03  0.95873105486E+03  0.10428450948E+04  0.10100000352E+00 0. -1.
       -3    1    3    3    0  502 -0.38747617891E+03  0.13499206193E+03 -0.15984086610E+03  0.44035185782E+03  0.10100000352E+00 0.  1.
</event>
<event>
 5   0  0.3725376E-03  0.1064816E+04  0.7818609E-02  0.9240180E-01
       -2   -1    0    0    0  501  0.00000000000E+00  0.00000000000E+00  0.34341110358E+03  0.34341110358E+03  0.25500000920E-02 0.  1.
        2   -1    0    0  501    0  0.00000000000E+00  0.00000000000E+00 -0.82541932563E+03  0.82541932564E+03  0.25500000920E-02 0. -1.
    10030    2    1    2    0    0  0.00000000000E+00  0.00000000000E+00 -0.48200822206E+03  0.11688304292E+04  0.10648157804E+04 0.  0.
        4    1    3    3  502    0  0.27830076348E+03  0.35726729179E+03 -0.54828742299E+03  0.71113426569E+03  0.12699999809E+01 0. -1.
       -4    1    3    3    0  502 -0.27830076348E+03 -0.35726729179E+03  0.66279200931E+02  0.45769616353E+03  0.12699999809E+01 0.  1.
</event>
<event>
 5   0  0.1397500E-03  0.1000452E+04  0.7818609E-02  0.9308050E-01
        4   -1    0    0  501    0  0.00000000000E+00  0.00000000000E+00  0.45300528665E+03  0.45300706687E+03  0.12699999809E+01 0. -1.
       -4   -1    0    0    0  501  0.00000000000E+00  0.00000000000E+00 -0.55236495283E+03  0.55236641283E+03  0.12699999809E+01 0.  1.
    10030    2    1    2    0    0  0.00000000000E+00  0.00000000000E+00 -0.99359666179E+02  0.10053734797E+04  0.10004516432E+04 0.  0.
        4    1    3    3  502    0  0.20260445271E+03 -0.22911265194E+02 -0.50871009571E+03  0.54805206386E+03  0.12699999809E+01 0.  1.
       -4    1    3    3    0  502 -0.20260445271E+03  0.22911265194E+02  0.40935042953E+03  0.45732141584E+03  0.12699999809E+01 0. -1.
</event>
<event>
 5   0  0.1397500E-03  0.1199663E+04  0.7818609E-02  0.9113152E-01
       -3   -1    0    0    0  501  0.00000000000E+00  0.00000000000E+00  0.67443688153E+03  0.67443688910E+03  0.10100000352E+00 0.  1.
        3   -1    0    0  501    0  0.00000000000E+00  0.00000000000E+00 -0.53347887166E+03  0.53347888122E+03  0.10100000352E+00 0. -1.
    10030    2    1    2    0    0  0.00000000000E+00  0.00000000000E+00  0.14095800987E+03  0.12079157703E+04  0.11996630142E+04 0.  0.
        3    1    3    3  502    0  0.53102596127E+03 -0.27575436519E+03  0.28132757035E+02  0.59901627998E+03  0.10100000352E+00 0. -1.
       -3    1    3    3    0  502 -0.53102596127E+03  0.27575436519E+03  0.11282525284E+03  0.60889949034E+03  0.10100000352E+00 0.  1.
</event>
<event>
 5   0  0.3626049E-03  0.1188586E+04  0.7818609E-02  0.9122906E-01
       -2   -1    0    0    0  501  0.00000000000E+00  0.00000000000E+00  0.32390835140E+03  0.32390835141E+03  0.25500000920E-02 0. -1.
        2   -1    0    0  501    0  0.00000000000E+00  0.00000000000E+00 -0.10903839371E+04  0.10903839371E+04  0.25500000920E-02 0.  1.
    10030    2    1    2    0    0  0.00000000000E+00  0.00000000000E+00 -0.76647558573E+03  0.14142922886E+04  0.11885864941E+04 0.  0.
        1    1    3    3  502    0  0.11126781178E+03  0.16984856879E+03 -0.10478290704E+04  0.10673213307E+04  0.50400001928E-02 0.  1.
       -1    1    3    3    0  502 -0.11126781178E+03 -0.16984856879E+03  0.28135348463E+03  0.34697095785E+03  0.50400001928E-02 0. -1.
</event>
<event>
 5   0  0.3751091E-03  0.1205300E+04  0.7818609E-02  0.9108230E-01
       -2   -1    0    0    0  501  0.00000000000E+00  0.00000000000E+00  0.77926431386E+03  0.77926431386E+03  0.25500000920E-02 0. -1.
        2   -1    0    0  501    0  0.00000000000E+00  0.00000000000E+00 -0.46606394464E+03  0.46606394465E+03  0.25500000920E-02 0.  1.
    10030    2    1    2    0    0  0.00000000000E+00  0.00000000000E+00  0.31320036922E+03  0.12453282585E+04  0.12052999627E+04 0.  0.
        5    1    3    3  502    0 -0.13837654694E+03 -0.35457896174E+03  0.63933232857E+03  0.74407138448E+03  0.46999998093E+01 0. -1.
       -5    1    3    3    0  502  0.13837654694E+03  0.35457896174E+03 -0.32613195935E+03  0.50125687403E+03  0.46999998093E+01 0.  1.
</event>
<event>
 5   0  0.3725376E-03  0.1205161E+04  0.7818609E-02  0.9108351E-01
       -2   -1    0    0    0  501  0.00000000000E+00  0.00000000000E+00  0.77124048649E+03  0.77124048649E+03  0.25500000920E-02 0.  1.
        2   -1    0    0  501    0  0.00000000000E+00  0.00000000000E+00 -0.47080412857E+03  0.47080412858E+03  0.25500000920E-02 0. -1.
    10030    2    1    2    0    0  0.00000000000E+00  0.00000000000E+00  0.30043635791E+03  0.12420446151E+04  0.12051609107E+04 0.  0.
        4    1    3    3  502    0 -0.47784200089E+02  0.57097768884E+03  0.34248258303E+03  0.66752886343E+03  0.12699999809E+01 0. -1.
       -4    1    3    3    0  502  0.47784200089E+02 -0.57097768884E+03 -0.42046225113E+02  0.57451575164E+03  0.12699999809E+01 0.  1.
</event>
<event>
 5   0  0.2078258E-03  0.1199035E+04  0.7818609E-02  0.9113701E-01
       -1   -1    0    0    0  501  0.00000000000E+00  0.00000000000E+00  0.34122563252E+03  0.34122563256E+03  0.50400001928E-02 0.  1.
        1   -1    0    0  501    0  0.00000000000E+00  0.00000000000E+00 -0.10533247671E+04  0.10533247671E+04  0.50400001928E-02 0. -1.
    10030    2    1    2    0    0  0.00000000000E+00  0.00000000000E+00 -0.71209913461E+03  0.13945503997E+04  0.11990352955E+04 0.  0.
        3    1    3    3  502    0 -0.15851009577E+03 -0.57595902041E+03 -0.41497847431E+03  0.72736606189E+03  0.10100000352E+00 0. -1.
       -3    1    3    3    0  502  0.15851009577E+03  0.57595902041E+03 -0.29712066030E+03  0.66718433782E+03  0.10100000352E+00 0.  1.
</event>
<event>
 5   0  0.2078258E-03  0.1190338E+04  0.7818609E-02  0.9121356E-01
        1   -1    0    0  501    0  0.00000000000E+00  0.00000000000E+00  0.77251857146E+03  0.77251857147E+03  0.50400001928E-02 0. -1.
       -1   -1    0    0    0  501  0.00000000000E+00  0.00000000000E+00 -0.45853417603E+03  0.45853417606E+03  0.50400001928E-02 0.  1.
    10030    2    1    2    0    0  0.00000000000E+00  0.00000000000E+00  0.31398439542E+03  0.12310527475E+04  0.11903380472E+04 0.  0.
        3    1    3    3  502    0  0.26148143584E+03 -0.12077321960E+03 -0.38165596713E+03  0.47814223753E+03  0.10100000352E+00 0.  1.
       -3    1    3    3    0  502 -0.26148143584E+03  0.12077321960E+03  0.69564036255E+03  0.75291051000E+03  0.10100000352E+00 0. -1.
</event>
<event>
 5   0  0.3650180E-03  0.1187831E+04  0.7818609E-02  0.9123575E-01
        2   -1    0    0  501    0  0.00000000000E+00  0.00000000000E+00  0.91564406538E+03  0.91564406539E+03  0.25500000920E-02 0.  1.
       -2   -1    0    0    0  501  0.00000000000E+00  0.00000000000E+00 -0.38523232899E+03  0.38523232899E+03  0.25500000920E-02 0. -1.
    10030    2    1    2    0    0  0.00000000000E+00  0.00000000000E+00  0.53041173640E+03  0.13008763944E+04  0.11878311258E+04 0.  0.
        3    1    3    3  502    0  0.33010597652E+03  0.49232426573E+03  0.30592713941E+03  0.66704165027E+03  0.10100000352E+00 0. -1.
       -3    1    3    3    0  502 -0.33010597652E+03 -0.49232426573E+03  0.22448459699E+03  0.63383474412E+03  0.10100000352E+00 0.  1.
</event>
<event>
 5   0  0.3725376E-03  0.1198347E+04  0.7818609E-02  0.9114304E-01
        2   -1    0    0  501    0  0.00000000000E+00  0.00000000000E+00  0.52612608685E+03  0.52612608686E+03  0.25500000920E-02 0.  1.
       -2   -1    0    0    0  501  0.00000000000E+00  0.00000000000E+00 -0.68236339394E+03  0.68236339395E+03  0.25500000920E-02 0. -1.
    10030    2    1    2    0    0  0.00000000000E+00  0.00000000000E+00 -0.15623730709E+03  0.12084894808E+04  0.11983474993E+04 0.  0.
        4    1    3    3  502    0 -0.28295988508E+03  0.14056580955E+03 -0.59152704130E+03  0.67061978563E+03  0.12699999809E+01 0. -1.
       -4    1    3    3    0  502  0.28295988508E+03 -0.14056580955E+03  0.43528973421E+03  0.53786969518E+03  0.12699999809E+01 0.  1.
</event>
<event>
 5   0  0.2096270E-03  0.1055086E+04  0.7818609E-02  0.9250108E-01
       -1   -1    0    0    0  501  0.00000000000E+00  0.00000000000E+00  0.20418824733E+03  0.20418824739E+03  0.50400001928E-02 0.  1.
        1   -1    0    0  501    0  0.00000000000E+00  0.00000000000E+00 -0.13629667982E+04  0.13629667983E+04  0.50400001928E-02 0. -1.
    10030    2    1    2    0    0  0.00000000000E+00  0.00000000000E+00 -0.11587785509E+04  0.15671550456E+04  0.10550863505E+04 0.  0.
        2    1    3    3  502    0  0.33665667697E+03 -0.11789489681E+03 -0.11566947969E+04  0.12104461070E+04  0.25500000920E-02 0. -1.
       -2    1    3    3    0  502 -0.33665667697E+03  0.11789489681E+03 -0.20837540115E+01  0.35670893861E+03  0.25500000920E-02 0.  1.
</event>
<event>
 5   0  0.2047109E-03  0.1154278E+04  0.7818609E-02  0.9153846E-01
       -1   -1    0    0    0  501  0.00000000000E+00  0.00000000000E+00  0.31608311263E+03  0.31608311267E+03  0.50400001928E-02 0. -1.
        1   -1    0    0  501    0  0.00000000000E+00  0.00000000000E+00 -0.10538041494E+04  0.10538041494E+04  0.50400001928E-02 0.  1.
    10030    2    1    2    0    0  0.00000000000E+00  0.00000000000E+00 -0.73772103675E+03  0.13698872621E+04  0.11542784684E+04 0.  0.
        1    1    3    3  502    0 -0.40987286004E+03  0.49558816005E+02 -0.84747414116E+03  0.94268990533E+03  0.50400001928E-02 0.  1.
       -1    1    3    3    0  502  0.40987286004E+03 -0.49558816005E+02  0.10975310441E+03  0.42719735673E+03  0.50400001928E-02 0. -1.
</event>
<event>
 5   0  0.2096270E-03  0.1191507E+04  0.7818609E-02  0.9120323E-01
        1   -1    0    0  501    0  0.00000000000E+00  0.00000000000E+00  0.61612274507E+03  0.61612274509E+03  0.50400001928E-02 0. -1.
       -1   -1    0    0    0  501  0.00000000000E+00  0.00000000000E+00 -0.57605782093E+03  0.57605782096E+03  0.50400001928E-02 0.  1.
    10030    2    1    2    0    0  0.00000000000E+00  0.00000000000E+00  0.40064924132E+02  0.11921805660E+04  0.11915071565E+04 0.  0.
        2    1    3    3  502    0 -0.59145734724E+03 -0.34893268526E+02 -0.42316415617E+02  0.59399496028E+03  0.25500000920E-02 0.  1.
       -2    1    3    3    0  502  0.59145734724E+03  0.34893268526E+02  0.82381339750E+02  0.59818560576E+03  0.25500000920E-02 0. -1.
</event>
<event>
 5   0  0.1397500E-03  0.1171969E+04  0.7818609E-02  0.9137752E-01
        3   -1    0    0  501    0  0.00000000000E+00  0.00000000000E+00  0.82934525832E+03  0.82934526447E+03  0.10100000352E+00 0. -1.
       -3   -1    0    0    0  501  0.00000000000E+00  0.00000000000E+00 -0.41403474164E+03  0.41403475396E+03  0.10100000352E+00 0.  1.
    10030    2    1    2    0    0  0.00000000000E+00  0.00000000000E+00  0.41531051668E+03  0.12433800184E+04  0.11719688754E+04 0.  0.
        5    1    3    3  502    0 -0.18081933353E+03  0.45069973707E+03  0.55555347158E+03  0.73789405347E+03  0.46999998093E+01 0. -1.
       -5    1    3    3    0  502  0.18081933353E+03 -0.45069973707E+03 -0.14024295490E+03  0.50548596496E+03  0.46999998093E+01 0.  1.
</event>
<event>
 5   0  0.3725376E-03  0.1192568E+04  0.7818609E-02  0.9119387E-01
       -2   -1    0    0    0  501  0.00000000000E+00  0.00000000000E+00  0.23243300181E+03  0.23243300183E+03  0.25500000920E-02 0.  1.
        2   -1    0    0  501    0  0.00000000000E+00  0.00000000000E+00 -0.15297079830E+04  0.15297079830E+04  0.25500000920E-02 0. -1.
    10030    2    1    2    0    0  0.00000000000E+00  0.00000000000E+00 -0.12972749812E+04  0.17621409848E+04  0.11925680163E+04 0.  0.
        4    1    3    3  502    0 -0.22330884003E+03  0.50621917776E+03 -0.32012992023E+03  0.63922568213E+03  0.12699999809E+01 0.  1.
       -4    1    3    3    0  502  0.22330884003E+03 -0.50621917776E+03 -0.97714506096E+03  0.11229153027E+04  0.12699999809E+01 0. -1.
</event>
<event>
 5   0  0.3725376E-03  0.1197938E+04  0.7818609E-02  0.9114664E-01
       -2   -1    0    0    0  501  0.00000000000E+00  0.00000000000E+00  0.18175957274E+03  0.18175957275E+03  0.25500000920E-02 0.  1.
        2   -1    0    0  501    0  0.00000000000E+00  0.00000000000E+00 -0.19738366706E+04  0.19738366706E+04  0.25500000920E-02 0. -1.
    10030    2    1    2    0    0  0.00000000000E+00  0.00000000000E+00 -0.17920770979E+04  0.21555962434E+04  0.11979377445E+04 0.  0.
        4    1    3    3  502    0 -0.54903959802E+03 -0.21004577959E+03 -0.68931326194E+03  0.90593492907E+03  0.12699999809E+01 0. -1.
       -4    1    3    3    0  502  0.54903959802E+03  0.21004577959E+03 -0.11027638359E+04  0.12496613143E+04  0.12699999809E+01 0.  1.
</event>
<event>
 5   0  0.3751091E-03  0.8735827E+03  0.7818609E-02  0.9459221E-01
       -2   -1    0    0    0  501  0.00000000000E+00  0.00000000000E+00  0.18033196620E+03  0.18033196622E+03  0.25500000920E-02 0.  1.
        2   -1    0    0  501    0  0.00000000000E+00  0.00000000000E+00 -0.10579747329E+04  0.10579747329E+04  0.25500000920E-02 0. -1.
    10030    2    1    2    0    0  0.00000000000E+00  0.00000000000E+00 -0.87764276674E+03  0.12383066992E+04  0.87358265502E+03 0.  0.
        5    1    3    3  502    0 -0.28717638297E+02 -0.32965267408E+03 -0.84291932581E+03  0.90555544728E+03  0.46999998093E+01 0. -1.
       -5    1    3    3    0  502  0.28717638297E+02  0.32965267408E+03 -0.34723440928E+02  0.33275125187E+03  0.46999998093E+01 0.  1.
</event>
<event>
 5   0  0.2078258E-03  0.1128699E+04  0.7818609E-02  0.9177663E-01
        1   -1    0    0  501    0  0.00000000000E+00  0.00000000000E+00  0.31982951309E+03  0.31982951313E+03  0.50400001928E-02 0. -1.
       -1   -1    0    0    0  501  0.00000000000E+00  0.00000000000E+00 -0.99581243768E+03  0.99581243769E+03  0.50400001928E-02 0.  1.
    10030    2    1    2    0    0  0.00000000000E+00  0.00000000000E+00 -0.67598292459E+03  0.13156419508E+04  0.11286987324E+04 0.  0.
        3    1    3    3  502    0  0.24853569227E+03 -0.28389248372E+03  0.15119057860E+03  0.40647697832E+03  0.10100000352E+00 0. -1.
       -3    1    3    3    0  502 -0.24853569227E+03  0.28389248372E+03 -0.82717350319E+03  0.90916497250E+03  0.10100000352E+00 0.  1.
</event>
<event>
 5   0  0.2096270E-03  0.1209120E+04  0.7818609E-02  0.9104911E-01
       -1   -1    0    0    0  501  0.00000000000E+00  0.00000000000E+00  0.11291271282E+04  0.11291271282E+04  0.50400001928E-02 0. -1.
        1   -1    0    0  501    0  0.00000000000E+00  0.00000000000E+00 -0.32369493835E+03  0.32369493839E+03  0.50400001928E-02 0.  1.
    10030    2    1    2    0    0  0.00000000000E+00  0.00000000000E+00  0.80543218984E+03  0.14528220666E+04  0.12091199050E+04 0.  0.
        2    1    3    3  502    0 -0.38550466169E+03  0.20414198089E+02 -0.15631252596E+03  0.41649032335E+03  0.25500000920E-02 0.  1.
       -2    1    3    3    0  502  0.38550466169E+03 -0.20414198089E+02  0.96174471580E+03  0.10363317432E+04  0.25500000920E-02 0. -1.
</event>
<event>
 5   0  0.3626049E-03  0.1208490E+04  0.7818609E-02  0.9105458E-01
       -2   -1    0    0    0  501  0.00000000000E+00  0.00000000000E+00  0.22268693236E+03  0.22268693237E+03  0.25500000920E-02 0.  1.
        2   -1    0    0  501    0  0.00000000000E+00  0.00000000000E+00 -0.16395750030E+04  0.16395750030E+04  0.25500000920E-02 0. -1.
    10030    2    1    2    0    0  0.00000000000E+00  0.00000000000E+00 -0.14168880706E+04  0.18622619354E+04  0.12084898474E+04 0.  0.
        1    1    3    3  502    0 -0.27438500425E+03 -0.52842730366E+03 -0.54986963888E+03  0.81048082371E+03  0.50400001928E-02 0.  1.
       -1    1    3    3    0  502  0.27438500425E+03  0.52842730366E+03 -0.86701843176E+03  0.10517811117E+04  0.50400001928E-02 0. -1.
</event>
<event>
 5   0  0.2134992E-03  0.1279704E+04  0.7818609E-02  0.9045817E-01
        1   -1    0    0  501    0  0.00000000000E+00  0.00000000000E+00  0.23469614258E+04  0.23469614258E+04  0.50400001928E-02 0.  1.
       -1   -1    0    0    0  501  0.00000000000E+00  0.00000000000E+00 -0.17444281497E+03  0.17444281504E+03  0.50400001928E-02 0. -1.
    10030    2    1    2    0    0  0.00000000000E+00  0.00000000000E+00  0.21725186108E+04  0.25214042408E+04  0.12797039624E+04 0.  0.
        4    1    3    3  502    0 -0.41550088210E+03 -0.78599038984E+02  0.20323948164E+04  0.20759212640E+04  0.12699999809E+01 0.  1.
       -4    1    3    3    0  502  0.41550088210E+03  0.78599038984E+02  0.14012379446E+03  0.44548297681E+03  0.12699999809E+01 0. -1.
</event>
<event>
 5   0  0.3626049E-03  0.1184511E+04  0.7818609E-02  0.9126523E-01
       -2   -1    0    0    0  501  0.00000000000E+00  0.00000000000E+00  0.30863750881E+03  0.30863750882E+03  0.25500000920E-02 0.  1.
        2   -1    0    0  501    0  0.00000000000E+00  0.00000000000E+00 -0.11365000764E+04  0.11365000764E+04  0.25500000920E-02 0. -1.
    10030    2    1    2    0    0  0.00000000000E+00  0.00000000000E+00 -0.82786256763E+03  0.14451375853E+04  0.11845109579E+04 0.  0.
        1    1    3    3  502    0 -0.54842046369E+03  0.21798685921E+03 -0.35313421261E+03  0.68774053823E+03  0.50400001928E-02 0. -1.
       -1    1    3    3    0  502  0.54842046369E+03 -0.21798685921E+03 -0.47472835502E+03  0.75739704704E+03  0.50400001928E-02 0.  1.
</event>
<event>
 5   0  0.1397500E-03  0.1203310E+04  0.7818609E-02  0.9109964E-01
        3   -1    0    0  501    0  0.00000000000E+00  0.00000000000E+00  0.11350207920E+04  0.11350207965E+04  0.10100000352E+00 0. -1.
       -3   -1    0    0    0  501  0.00000000000E+00  0.00000000000E+00 -0.31892686193E+03  0.31892687792E+03  0.10100000352E+00 0.  1.
    10030    2    1    2    0    0  0.00000000000E+00  0.00000000000E+00  0.81609393009E+03  0.14539476744E+04  0.12033098260E+04 0.  0.
        1    1    3    3  502    0 -0.31826433215E+03 -0.65540753674E+02 -0.20378343474E+03  0.38355633720E+03  0.50400001928E-02 0.  1.
       -1    1    3    3    0  502  0.31826433215E+03  0.65540753674E+02  0.10198773648E+04  0.10703913372E+04  0.50400001928E-02 0. -1.
</event>
<event>
 5   0  0.3706035E-03  0.1201257E+04  0.7818609E-02  0.9111757E-01
        2   -1    0    0  501    0  0.00000000000E+00  0.00000000000E+00  0.82451232564E+03  0.82451232564E+03  0.25500000920E-02 0.  1.
       -2   -1    0    0    0  501  0.00000000000E+00  0.00000000000E+00 -0.43753711818E+03  0.43753711819E+03  0.25500000920E-02 0. -1.
    10030    2    1    2    0    0  0.00000000000E+00  0.00000000000E+00  0.38697520746E+03  0.12620494438E+04  0.12012572528E+04 0.  0.
        2    1    3    3  502    0 -0.29817642285E+03 -0.10578203737E+02 -0.35417372226E+03  0.46309837301E+03  0.25500000920E-02 0.  1.
       -2    1    3    3    0  502  0.29817642285E+03  0.10578203737E+02  0.74114892972E+03  0.79895107082E+03  0.25500000920E-02 0. -1.
</event>
<event>
 5   0  0.2134992E-03  0.1226695E+04  0.7818609E-02  0.9089806E-01
       -1   -1    0    0    0  501  0.00000000000E+00  0.00000000000E+00  0.29104132177E+03  0.29104132182E+03  0.50400001928E-02 0. -1.
        1   -1    0    0  501    0  0.00000000000E+00  0.00000000000E+00 -0.12925843021E+04  0.12925843021E+04  0.50400001928E-02 0.  1.
    10030    2    1    2    0    0  0.00000000000E+00  0.00000000000E+00 -0.10015429803E+04  0.15836256239E+04  0.12266954697E+04 0.  0.
        4    1    3    3  502    0  0.96293654489E+02  0.14023252505E+03 -0.12615193940E+04  0.12729377138E+04  0.12699999809E+01 0.  1.
       -4    1    3    3    0  502 -0.96293654489E+02 -0.14023252505E+03  0.25997641361E+03  0.31068791015E+03  0.12699999809E+01 0. -1.
</event>
<event>
 5   0  0.3725376E-03  0.1199035E+04  0.7818609E-02  0.9113702E-01
        2   -1    0    0  501    0  0.00000000000E+00  0.00000000000E+00  0.84704644037E+03  0.84704644037E+03  0.25500000920E-02 0. -1.
       -2   -1    0    0    0  501  0.00000000000E+00  0.00000000000E+00 -0.42432288500E+03  0.42432288501E+03  0.25500000920E-02 0.  1.
    10030    2    1    2    0    0  0.00000000000E+00  0.00000000000E+00  0.42272355537E+03  0.12713693254E+04  0.11990349275E+04 0.  0.
        4    1    3    3  502    0  0.33373118312E+03 -0.12465373738E+03 -0.29991444324E+03  0.46568803183E+03  0.12699999809E+01 0.  1.
       -4    1    3    3    0  502 -0.33373118312E+03  0.12465373738E+03  0.72263799861E+03  0.80568129354E+03  0.12699999809E+01 0. -1.
</event>
<event>
 5   0  0.2078258E-03  0.1201188E+04  0.7818609E-02  0.9111817E-01
       -1   -1    0    0    0  501  0.00000000000E+00  0.00000000000E+00  0.41274326367E+03  0.41274326370E+03  0.50400001928E-02 0. -1.
        1   -1    0    0  501    0  0.00000000000E+00  0.00000000000E+00 -0.87394118001E+03  0.87394118002E+03  0.50400001928E-02 0.  1.
    10030    2    1    2    0    0  0.00000000000E+00  0.00000000000E+00 -0.46119791634E+03  0.12866844437E+04  0.12011883032E+04 0.  0.
        3    1    3    3  502    0 -0.20222157150E+03  0.22137287697E+03 -0.78803668684E+03  0.84314965732E+03  0.10100000352E+00 0.  1.
       -3    1    3    3    0  502  0.20222157150E+03 -0.22137287697E+03  0.32683877050E+03  0.44353478639E+03  0.10100000352E+00 0. -1.
</event>
<event>
 5   0  0.3751091E-03  0.1218788E+04  0.7818609E-02  0.9096569E-01
       -2   -1    0    0    0  501  0.00000000000E+00  0.00000000000E+00  0.30635345769E+03  0.30635345770E+03  0.25500000920E-02 0. -1.
        2   -1    0    0  501    0  0.00000000000E+00  0.00000000000E+00 -0.12121979900E+04  0.12121979900E+04  0.25500000920E-02 0.  1.
    10030    2    1    2    0    0  0.00000000000E+00  0.00000000000E+00 -0.90584453227E+03  0.15185514477E+04  0.12187879974E+04 0.  0.
        5    1    3    3  502    0  0.13105218351E+03 -0.18857296913E+03 -0.11562007087E+04  0.11787945573E+04  0.46999998093E+01 0.  1.
       -5    1    3    3    0  502 -0.13105218351E+03  0.18857296913E+03  0.25035617643E+03  0.33975689038E+03  0.46999998093E+01 0. -1.
</event>
<event>
 5   0  0.3751091E-03  0.1194082E+04  0.7818609E-02  0.9118052E-01
       -2   -1    0    0    0  501  0.00000000000E+00  0.00000000000E+00  0.10934734720E+04  0.10934734720E+04  0.25500000920E-02 0.  1.
        2   -1    0    0  501    0  0.00000000000E+00  0.00000000000E+00 -0.32598675162E+03  0.32598675163E+03  0.25500000920E-02 0. -1.
    10030    2    1    2    0    0  0.00000000000E+00  0.00000000000E+00  0.76748672043E+03  0.14194602237E+04  0.11940818484E+04 0.  0.
        5    1    3    3  502    0  0.46113742610E+03  0.36032182188E+03  0.24330904105E+03  0.63379880130E+03  0.46999998093E+01 0. -1.
       -5    1    3    3    0  502 -0.46113742610E+03 -0.36032182188E+03  0.52417767937E+03  0.78566142238E+03  0.46999998093E+01 0.  1.
</event>
<event>
 5   0  0.3626049E-03  0.1207922E+04  0.7818609E-02  0.9105950E-01
        2   -1    0    0  501    0  0.00000000000E+00  0.00000000000E+00  0.32634144767E+03  0.32634144768E+03  0.25500000920E-02 0.  1.
       -2   -1    0    0    0  501  0.00000000000E+00  0.00000000000E+00 -0.11177531333E+04  0.11177531333E+04  0.25500000920E-02 0. -1.
    10030    2    1    2    0    0  0.00000000000E+00  0.00000000000E+00 -0.79141168560E+03  0.14440945810E+04  0.12079224738E+04 0.  0.
        1    1    3    3  502    0  0.16782501512E+03  0.28618483197E+03 -0.99906083355E+03  0.10527058197E+04  0.50400001928E-02 0. -1.
       -1    1    3    3    0  502 -0.16782501512E+03 -0.28618483197E+03  0.20764914794E+03  0.39138876123E+03  0.50400001928E-02 0.  1.
</event>
<event>
 5   0  0.2096270E-03  0.1168775E+04  0.7818609E-02  0.9140636E-01
        1   -1    0    0  501    0  0.00000000000E+00  0.00000000000E+00  0.12945123447E+04  0.12945123447E+04  0.50400001928E-02 0.  1.
       -1   -1    0    0    0  501  0.00000000000E+00  0.00000000000E+00 -0.26381259995E+03  0.26381259999E+03  0.50400001928E-02 0. -1.
    10030    2    1    2    0    0  0.00000000000E+00  0.00000000000E+00  0.10306997448E+04  0.15583249447E+04  0.11687748583E+04 0.  0.
        2    1    3    3  502    0 -0.25900061800E+03  0.47206513588E+03  0.21253608942E+03  0.57887684524E+03  0.25500000920E-02 0. -1.
       -2    1    3    3    0  502  0.25900061800E+03 -0.47206513588E+03  0.81816365537E+03  0.97944809950E+03  0.25500000920E-02 0.  1.
</event>
<event>
 5   0  0.2078258E-03  0.1194014E+04  0.7818609E-02  0.9118112E-01
        1   -1    0    0  501    0  0.00000000000E+00  0.00000000000E+00  0.11407542565E+04  0.11407542565E+04  0.50400001928E-02 0.  1.
       -1   -1    0    0    0  501  0.00000000000E+00  0.00000000000E+00 -0.31244000216E+03  0.31244000220E+03  0.50400001928E-02 0. -1.
    10030    2    1    2    0    0  0.00000000000E+00  0.00000000000E+00  0.82831425431E+03  0.14531942587E+04  0.11940138398E+04 0.  0.
        3    1    3    3  502    0 -0.19235495720E+03  0.52855712635E+03  0.65770483805E+03  0.86541823968E+03  0.10100000352E+00 0.  1.
       -3    1    3    3    0  502  0.19235495720E+03 -0.52855712635E+03  0.17060941626E+03  0.58777601899E+03  0.10100000352E+00 0. -1.
</event>
<event>
 5   0  0.2078258E-03  0.1265876E+04  0.7818609E-02  0.9057073E-01
       -1   -1    0    0    0  501  0.00000000000E+00  0.00000000000E+00  0.43264933648E+03  0.43264933651E+03  0.50400001928E-02 0. -1.
        1   -1    0    0  501    0  0.00000000000E+00  0.00000000000E+00 -0.92594680972E+03  0.92594680973E+03  0.50400001928E-02 0.  1.
    10030    2    1    2    0    0  0.00000000000E+00  0.00000000000E+00 -0.49329747324E+03  0.13585961462E+04  0.12658756224E+04 0.  0.
        3    1    3    3  502    0  0.61748228704E+03 -0.12776090426E+03 -0.30546261819E+03  0.70065301311E+03  0.10100000352E+00 0. -1.
       -3    1    3    3    0  502 -0.61748228704E+03  0.12776090426E+03 -0.18783485505E+03  0.65794313313E+03  0.10100000352E+00 0.  1.
</event>
<event>
 5   0  0.3725376E-03  0.1204437E+04  0.7818609E-02  0.9108982E-01
        2   -1    0    0  501    0  0.00000000000E+00  0.00000000000E+00  0.67421050317E+03  0.67421050317E+03  0.25500000920E-02 0. -1.
       -2   -1    0    0    0  501  0.00000000000E+00  0.00000000000E+00 -0.53791348420E+03  0.53791348420E+03  0.25500000920E-02 0.  1.
    10030    2    1    2    0    0  0.00000000000E+00  0.00000000000E+00  0.13629701897E+03  0.12121239874E+04  0.12044366664E+04 0.  0.
        4    1    3    3  502    0 -0.21050233093E+03 -0.16378351943E+03 -0.47523191090E+03  0.54496170012E+03  0.12699999809E+01 0.  1.
       -4    1    3    3    0  502  0.21050233093E+03  0.16378351943E+03  0.61152892987E+03  0.66716228725E+03  0.12699999809E+01 0. -1.
</event>
<event>
 5   0  0.2025294E-03  0.1145849E+04  0.7818609E-02  0.9161622E-01
        1   -1    0    0  501    0  0.00000000000E+00  0.00000000000E+00  0.54177803993E+03  0.54177803995E+03  0.50400001928E-02 0.  1.
       -1   -1    0    0    0  501  0.00000000000E+00  0.00000000000E+00 -0.60586102714E+03  0.60586102716E+03  0.50400001928E-02 0. -1.
    10030    2    1    2    0    0  0.00000000000E+00  0.00000000000E+00 -0.64082987216E+02  0.11476390671E+04  0.11458485062E+04 0.  0.
        5    1    3    3  502    0  0.35173711240E+03 -0.27885586464E+03 -0.38860415584E+03  0.59372962653E+03  0.46999998093E+01 0. -1.
       -5    1    3    3    0  502 -0.35173711240E+03  0.27885586464E+03  0.32452116863E+03  0.55390944059E+03  0.46999998093E+01 0.  1.
</event>
<event>
 5   0  0.2134992E-03  0.1324570E+04  0.7818609E-02  0.9010305E-01
        1   -1    0    0  501    0  0.00000000000E+00  0.00000000000E+00  0.20208987205E+04  0.20208987205E+04  0.50400001928E-02 0.  1.
       -1   -1    0    0    0  501  0.00000000000E+00  0.00000000000E+00 -0.21704262370E+03  0.21704262376E+03  0.50400001928E-02 0. -1.
    10030    2    1    2    0    0  0.00000000000E+00  0.00000000000E+00  0.18038560968E+04  0.22379413443E+04  0.13245696065E+04 0.  0.
        4    1    3    3  502    0 -0.56533905174E+03 -0.25398374009E+03  0.50748313022E+03  0.80103478327E+03  0.12699999809E+01 0. -1.
       -4    1    3    3    0  502  0.56533905174E+03  0.25398374009E+03  0.12963729666E+04  0.14369065610E+04  0.12699999809E+01 0.  1.
</event>
<event>
 5   0  0.2096270E-03  0.1203159E+04  0.7818609E-02  0.9110096E-01
       -1   -1    0    0    0  501  0.00000000000E+00  0.00000000000E+00  0.31480452493E+03  0.31480452497E+03  0.50400001928E-02 0. -1.
        1   -1    0    0  501    0  0.00000000000E+00  0.00000000000E+00 -0.11495955420E+04  0.11495955420E+04  0.50400001928E-02 0.  1.
    10030    2    1    2    0    0  0.00000000000E+00  0.00000000000E+00 -0.83479101705E+03  0.14644000670E+04  0.12031589729E+04 0.  0.
        2    1    3    3  502    0 -0.42706561911E+03  0.97856258322E+02  0.84346754448E+02  0.44617851283E+03  0.25500000920E-02 0. -1.
       -2    1    3    3    0  502  0.42706561911E+03 -0.97856258322E+02 -0.91913777150E+03  0.10182215541E+04  0.25500000920E-02 0.  1.
</event>
<event>
 5   0  0.3650180E-03  0.1193277E+04  0.7818609E-02  0.9118762E-01
       -2   -1    0    0    0  501  0.00000000000E+00  0.00000000000E+00  0.76525393004E+03  0.76525393004E+03  0.25500000920E-02 0.  1.
        2   -1    0    0  501    0  0.00000000000E+00  0.00000000000E+00 -0.46517561518E+03  0.46517561519E+03  0.25500000920E-02 0. -1.
    10030    2    1    2    0    0  0.00000000000E+00  0.00000000000E+00  0.30007831486E+03  0.12304295452E+04  0.11932769464E+04 0.  0.
        3    1    3    3  502    0 -0.44433815378E+03 -0.13727363958E+01 -0.26052761814E+03  0.51508536120E+03  0.10100000352E+00 0. -1.
       -3    1    3    3    0  502  0.44433815378E+03  0.13727363958E+01  0.56060593299E+03  0.71534418403E+03  0.10100000352E+00 0.  1.
</event>
<event>
 5   0  0.3725376E-03  0.1210633E+04  0.7818609E-02  0.9103600E-01
        2   -1    0    0  501    0  0.00000000000E+00  0.00000000000E+00  0.65504552505E+03  0.65504552505E+03  0.25500000920E-02 0. -1.
       -2   -1    0    0    0  501  0.00000000000E+00  0.00000000000E+00 -0.55936238574E+03  0.55936238574E+03  0.25500000920E-02 0.  1.
    10030    2    1    2    0    0  0.00000000000E+00  0.00000000000E+00  0.95683139311E+02  0.12144079108E+04  0.12106326076E+04 0.  0.
        4    1    3    3  502    0  0.14968542544E+03 -0.25368587027E+02  0.63563553711E+03  0.65351621306E+03  0.12699999809E+01 0. -1.
       -4    1    3    3    0  502 -0.14968542544E+03  0.25368587027E+02 -0.53995239780E+03  0.56089169773E+03  0.12699999809E+01 0.  1.
</event>
<event>
 5   0  0.3626049E-03  0.1203927E+04  0.7818609E-02  0.9109426E-01
       -2   -1    0    0    0  501  0.00000000000E+00  0.00000000000E+00  0.79332138804E+03  0.79332138804E+03  0.25500000920E-02 0. -1.
        2   -1    0    0  501    0  0.00000000000E+00  0.00000000000E+00 -0.45676328338E+03  0.45676328339E+03  0.25500000920E-02 0.  1.
    10030    2    1    2    0    0  0.00000000000E+00  0.00000000000E+00  0.33655810465E+03  0.12500846714E+04  0.12039270443E+04 0.  0.
        1    1    3    3  502    0 -0.94922753423E+02  0.47204462267E+03  0.54341080523E+03  0.72603839993E+03  0.50400001928E-02 0. -1.
       -1    1    3    3    0  502  0.94922753423E+02 -0.47204462267E+03 -0.20685270058E+03  0.52404627150E+03  0.50400001928E-02 0.  1.
</event>
<event>
 5   0  0.3650180E-03  0.1187104E+04  0.7818609E-02  0.9124220E-01
        2   -1    0    0  501    0  0.00000000000E+00  0.00000000000E+00  0.94650829253E+03  0.94650829253E+03  0.25500000920E-02 0.  1.
       -2   -1    0    0    0  501  0.00000000000E+00  0.00000000000E+00 -0.37221404538E+03  0.37221404539E+03  0.25500000920E-02 0. -1.
    10030    2    1    2    0    0  0.00000000000E+00  0.00000000000E+00  0.57429424714E+03  0.13187223379E+04  0.11871035011E+04 0.  0.
        3    1    3    3  502    0 -0.56340695768E+03 -0.17393558268E+03  0.36267579674E+03  0.69225337170E+03  0.10100000352E+00 0.  1.
       -3    1    3    3    0  502  0.56340695768E+03  0.17393558268E+03  0.21161845040E+03  0.62646896622E+03  0.10100000352E+00 0. -1.
</event>
<event>
 5   0  0.2025294E-03  0.1175915E+04  0.7818609E-02  0.9134203E-01
       -1   -1    0    0    0  501  0.00000000000E+00  0.00000000000E+00  0.32447465887E+03  0.32447465891E+03  0.50400001928E-02 0.  1.
        1   -1    0    0  501    0  0.00000000000E+00  0.00000000000E+00 -0.10653959334E+04  0.10653959334E+04  0.50400001928E-02 0. -1.
    10030    2    1    2    0    0  0.00000000000E+00  0.00000000000E+00 -0.74092127452E+03  0.13898705923E+04  0.11759149324E+04 0.  0.
        5    1    3    3  502    0 -0.49031897823E+03 -0.40560749848E+02 -0.75091950994E+03  0.89775279184E+03  0.46999998093E+01 0. -1.
       -5    1    3    3    0  502  0.49031897823E+03  0.40560749848E+02  0.99982354223E+01  0.49211780048E+03  0.46999998093E+01 0.  1.
</event>
<event>
 5   0  0.2134992E-03  0.1213554E+04  0.7818609E-02  0.9101074E-01
        1   -1    0    0  501    0  0.00000000000E+00  0.00000000000E+00  0.55301314666E+03  0.55301314668E+03  0.50400001928E-02 0.  1.
       -1   -1    0    0    0  501  0.00000000000E+00  0.00000000000E+00 -0.66576818374E+03  0.66576818376E+03  0.50400001928E-02 0. -1.
    10030    2    1    2    0    0  0.00000000000E+00  0.00000000000E+00 -0.11275503708E+03  0.12187813304E+04  0.12135543799E+04 0.  0.
        4    1    3    3  502    0  0.16192391162E+01  0.85501280023E+02 -0.65968434969E+03  0.66520534044E+03  0.12699999809E+01 0. -1.
       -4    1    3    3    0  502 -0.16192391162E+01 -0.85501280023E+02  0.54692931261E+03  0.55357599001E+03  0.12699999809E+01 0.  1.
</event>
<event>
 5   0  0.2025294E-03  0.1190810E+04  0.7818609E-02  0.9120939E-01
        1   -1    0    0  501    0  0.00000000000E+00  0.00000000000E+00  0.11046214944E+04  0.11046214944E+04  0.50400001928E-02 0.  1.
       -1   -1    0    0    0  501  0.00000000000E+00  0.00000000000E+00 -0.32093060426E+03  0.32093060430E+03  0.50400001928E-02 0. -1.
    10030    2    1    2    0    0  0.00000000000E+00  0.00000000000E+00  0.78369089010E+03  0.14255520987E+04  0.11908095460E+04 0.  0.
        5    1    3    3  502    0 -0.50734090222E+02 -0.77579506786E+02 -0.31221701201E+03  0.32572086266E+03  0.46999998093E+01 0. -1.
       -5    1    3    3    0  502  0.50734090222E+02  0.77579506786E+02  0.10959079021E+04  0.10998312360E+04  0.46999998093E+01 0.  1.
</event>
<event>
 5   0  0.2047109E-03  0.1215328E+04  0.7818609E-02  0.9099545E-01
        1   -1    0    0  501    0  0.00000000000E+00  0.00000000000E+00  0.64573666946E+03  0.64573666948E+03  0.50400001928E-02 0. -1.
       -1   -1    0    0    0  501  0.00000000000E+00  0.00000000000E+00 -0.57183579180E+03  0.57183579182E+03  0.50400001928E-02 0.  1.
    10030    2    1    2    0    0  0.00000000000E+00  0.00000000000E+00  0.73900877655E+02  0.12175724613E+04  0.12153276755E+04 0.  0.
        1    1    3    3  502    0  0.52513703115E+03 -0.30566075739E+03  0.29324573936E+02  0.60832337680E+03  0.50400001928E-02 0.  1.
       -1    1    3    3    0  502 -0.52513703115E+03  0.30566075739E+03  0.44576303719E+02  0.60924908451E+03  0.50400001928E-02 0. -1.
</event>
<event>
 5   0  0.3725376E-03  0.1197249E+04  0.7818609E-02  0.9115268E-01
        2   -1    0    0  501    0  0.00000000000E+00  0.00000000000E+00  0.14638275297E+04  0.14638275297E+04  0.25500000920E-02 0. -1.
       -2   -1    0    0    0  501  0.00000000000E+00  0.00000000000E+00 -0.24480444296E+03  0.24480444298E+03  0.25500000920E-02 0.  1.
    10030    2    1    2    0    0  0.00000000000E+00  0.00000000000E+00  0.12190230867E+04  0.17086319726E+04  0.11972493191E+04 0.  0.
        4    1    3    3  502    0  0.14360043324E+03 -0.37770144721E+03 -0.20806326930E+02  0.40461584719E+03  0.12699999809E+01 0.  1.
       -4    1    3    3    0  502 -0.14360043324E+03  0.37770144721E+03  0.12398294136E+04  0.13040161254E+04  0.12699999809E+01 0. -1.
</event>
<event>
 5   0  0.3626049E-03  0.1197015E+04  0.7818609E-02  0.9115474E-01
       -2   -1    0    0    0  501  0.00000000000E+00  0.00000000000E+00  0.77822196869E+03  0.77822196870E+03  0.25500000920E-02 0. -1.
        2   -1    0    0  501    0  0.00000000000E+00  0.00000000000E+00 -0.46029413613E+03  0.46029413614E+03  0.25500000920E-02 0.  1.
    10030    2    1    2    0    0  0.00000000000E+00  0.00000000000E+00  0.31792783256E+03  0.12385161048E+04  0.11970146345E+04 0.  0.
        1    1    3    3  502    0  0.20358357499E+03 -0.23874543739E+03  0.68630646118E+03  0.75462720237E+03  0.50400001928E-02 0. -1.
       -1    1    3    3    0  502 -0.20358357499E+03  0.23874543739E+03 -0.36837862861E+03  0.48388890246E+03  0.50400001928E-02 0.  1.
</event>
<event>
 5   0  0.3706035E-03  0.1197997E+04  0.7818609E-02  0.9114612E-01
        2   -1    0    0  501    0  0.00000000000E+00  0.00000000000E+00  0.21121813416E+04  0.21121813416E+04  0.25500000920E-02 0. -1.
       -2   -1    0    0    0  501  0.00000000000E+00  0.00000000000E+00 -0.16987129956E+03  0.16987129958E+03  0.25500000920E-02 0.  1.
    10030    2    1    2    0    0  0.00000000000E+00  0.00000000000E+00  0.19423100421E+04  0.22820526412E+04  0.11979966435E+04 0.  0.
        2    1    3    3  502    0 -0.47506927758E+03  0.14907106262E+03  0.33683503599E+03  0.60114128264E+03  0.25500000920E-02 0.  1.
       -2    1    3    3    0  502  0.47506927758E+03 -0.14907106262E+03  0.16054750061E+04  0.16809113586E+04  0.25500000920E-02 0. -1.
</event>
<event>
 5   0  0.2078258E-03  0.1319865E+04  0.7818609E-02  0.9013959E-01
        1   -1    0    0  501    0  0.00000000000E+00  0.00000000000E+00  0.12813136448E+04  0.12813136448E+04  0.50400001928E-02 0.  1.
       -1   -1    0    0    0  501  0.00000000000E+00  0.00000000000E+00 -0.33989411712E+03  0.33989411716E+03  0.50400001928E-02 0. -1.
    10030    2    1    2    0    0  0.00000000000E+00  0.00000000000E+00  0.94141952769E+03  0.16212077620E+04  0.13198650993E+04 0.  0.
        3    1    3    3  502    0 -0.84198094051E+02 -0.28900106044E+03 -0.25065636083E+03  0.39171361146E+03  0.10100000352E+00 0. -1.
       -3    1    3    3    0  502  0.84198094051E+02  0.28900106044E+03  0.11920758885E+04  0.12294941505E+04  0.10100000352E+00 0.  1.
</event>
<event>
 5   0  0.3650180E-03  0.1217044E+04  0.7818609E-02  0.9098068E-01
        2   -1    0    0  501    0  0.00000000000E+00  0.00000000000E+00  0.23418427554E+03  0.23418427555E+03  0.25500000920E-02 0. -1.
       -2   -1    0    0    0  501  0.00000000000E+00  0.00000000000E+00 -0.15812283467E+04  0.15812283467E+04  0.25500000920E-02 0.  1.
    10030    2    1    2    0    0  0.00000000000E+00  0.00000000000E+00 -0.13470440712E+04  0.18154126223E+04  0.12170436555E+04 0.  0.
        3    1    3    3  502    0 -0.54963524676E+03  0.20871546762E+03 -0.43938519753E+03  0.73397575772E+03  0.10100000352E+00 0.  1.
       -3    1    3    3    0  502  0.54963524676E+03 -0.20871546762E+03 -0.90765887365E+03  0.10814368646E+04  0.10100000352E+00 0. -1.
</event>
<event>
 5   0  0.3751091E-03  0.1383788E+04  0.7818609E-02  0.8965638E-01
       -2   -1    0    0    0  501  0.00000000000E+00  0.00000000000E+00  0.40595693630E+03  0.40595693631E+03  0.25500000920E-02 0.  1.
        2   -1    0    0  501    0  0.00000000000E+00  0.00000000000E+00 -0.11792317661E+04  0.11792317661E+04  0.25500000920E-02 0. -1.
    10030    2    1    2    0    0  0.00000000000E+00  0.00000000000E+00 -0.77327482979E+03  0.15851887024E+04  0.13837880112E+04 0.  0.
        5    1    3    3  502    0 -0.18254497495E+03  0.42141784270E+03  0.20615155731E+03  0.50342449345E+03  0.46999998093E+01 0.  1.
       -5    1    3    3    0  502  0.18254497495E+03 -0.42141784270E+03 -0.97942638710E+03  0.10817642090E+04  0.46999998093E+01 0. -1.
</event>
<event>
 5   0  0.3626049E-03  0.1193932E+04  0.7818609E-02  0.9118184E-01
       -2   -1    0    0    0  501  0.00000000000E+00  0.00000000000E+00  0.15621566519E+03  0.15621566521E+03  0.25500000920E-02 0. -1.
        2   -1    0    0  501    0  0.00000000000E+00  0.00000000000E+00 -0.22812592558E+04  0.22812592558E+04  0.25500000920E-02 0.  1.
    10030    2    1    2    0    0  0.00000000000E+00  0.00000000000E+00 -0.21250435906E+04  0.24374749210E+04  0.11939320452E+04 0.  0.
        1    1    3    3  502    0 -0.79341047895E+02 -0.26497382667E+03  0.17500566738E+02  0.27715050164E+03  0.50400001928E-02 0. -1.
       -1    1    3    3    0  502  0.79341047895E+02  0.26497382667E+03 -0.21425441573E+04  0.21603244193E+04  0.50400001928E-02 0.  1.
</event>
<event>
 5   0  0.2078258E-03  0.1192983E+04  0.7818609E-02  0.9119021E-01
        1   -1    0    0  501    0  0.00000000000E+00  0.00000000000E+00  0.71735624196E+03  0.71735624198E+03  0.50400001928E-02 0.  1.
       -1   -1    0    0    0  501  0.00000000000E+00  0.00000000000E+00 -0.49599069234E+03  0.49599069237E+03  0.50400001928E-02 0. -1.
    10030    2    1    2    0    0  0.00000000000E+00  0.00000000000E+00  0.22136554962E+03  0.12133469343E+04  0.11929828484E+04 0.  0.
        3    1    3    3  502    0 -0.26697222600E+03  0.35452286254E+03 -0.29466950721E+03  0.53272014998E+03  0.10100000352E+00 0. -1.
       -3    1    3    3    0  502  0.26697222600E+03 -0.35452286254E+03  0.51603505683E+03  0.68062678436E+03  0.10100000352E+00 0.  1.
</event>
<event>
 5   0  0.2134992E-03  0.1197402E+04  0.7818609E-02  0.9115133E-01
        1   -1    0    0  501    0  0.00000000000E+00  0.00000000000E+00  0.44525550958E+03  0.44525550961E+03  0.50400001928E-02 0.  1.
       -1   -1    0    0    0  501  0.00000000000E+00  0.00000000000E+00 -0.80502788053E+03  0.80502788054E+03  0.50400001928E-02 0. -1.
    10030    2    1    2    0    0  0.00000000000E+00  0.00000000000E+00 -0.35977237095E+03  0.12502833902E+04  0.11974023538E+04 0.  0.
        4    1    3    3  502    0 -0.26444263334E+03  0.52569911905E+03 -0.29499074415E+03  0.65826333799E+03  0.12699999809E+01 0. -1.
       -4    1    3    3    0  502  0.26444263334E+03 -0.52569911905E+03 -0.64781626794E+02  0.59202005217E+03  0.12699999809E+01 0.  1.
</event>
<event>
 5   0  0.2078258E-03  0.1217471E+04  0.7818609E-02  0.9097700E-01
        1   -1    0    0  501    0  0.00000000000E+00  0.00000000000E+00  0.13367231239E+04  0.13367231239E+04  0.50400001928E-02 0. -1.
       -1   -1    0    0    0  501  0.00000000000E+00  0.00000000000E+00 -0.27721440384E+03  0.27721440389E+03  0.50400001928E-02 0.  1.
    10030    2    1    2    0    0  0.00000000000E+00  0.00000000000E+00  0.10595087201E+04  0.16139375278E+04  0.12174709918E+04 0.  0.
        3    1    3    3  502    0  0.57191319642E+03 -0.15736664946E+03  0.71108205710E+03  0.92600576064E+03  0.10100000352E+00 0.  1.
       -3    1    3    3    0  502 -0.57191319642E+03  0.15736664946E+03  0.34842666296E+03  0.68793176716E+03  0.10100000352E+00 0. -1.
</event>
<event>
 5   0  0.3626049E-03  0.1184787E+04  0.7818609E-02  0.9126278E-01
        2   -1    0    0  501    0  0.00000000000E+00  0.00000000000E+00  0.41450415105E+03  0.41450415106E+03  0.25500000920E-02 0.  1.
       -2   -1    0    0    0  501  0.00000000000E+00  0.00000000000E+00 -0.84662627902E+03  0.84662627903E+03  0.25500000920E-02 0. -1.
    10030    2    1    2    0    0  0.00000000000E+00  0.00000000000E+00 -0.43212212797E+03  0.12611304301E+04  0.11847870814E+04 0.  0.
        1    1    3    3  502    0 -0.15022911225E+03 -0.41747033166E+03 -0.63388431948E+03  0.77373095744E+03  0.50400001928E-02 0. -1.
       -1    1    3    3    0  502  0.15022911225E+03  0.41747033166E+03  0.20176219151E+03  0.48739947265E+03  0.50400001928E-02 0.  1.
</event>
<event>
 5   0  0.3751091E-03  0.1199866E+04  0.7818609E-02  0.9112974E-01
       -2   -1    0    0    0  501  0.00000000000E+00  0.00000000000E+00  0.64817315198E+03  0.64817315199E+03  0.25500000920E-02 0.  1.
        2   -1    0    0  501    0  0.00000000000E+00  0.00000000000E+00 -0.55528343711E+03  0.55528343711E+03  0.25500000920E-02 0. -1.
    10030    2    1    2    0    0  0.00000000000E+00  0.00000000000E+00  0.92889714875E+02  0.12034565891E+04  0.11998663520E+04 0.  0.
        5    1    3    3  502    0  0.54042105893E+03 -0.57725881924E+02 -0.20830435523E+03  0.58206528224E+03  0.46999998093E+01 0. -1.
       -5    1    3    3    0  502 -0.54042105893E+03  0.57725881924E+02  0.30119407011E+03  0.62139130686E+03  0.46999998093E+01 0.  1.
</event>
<event>
 5   0  0.3706035E-03  0.1215951E+04  0.7818609E-02  0.9099008E-01
        2   -1    0    0  501    0  0.00000000000E+00  0.00000000000E+00  0.21350624948E+04  0.21350624948E+04  0.25500000920E-02 0.  1.
       -2   -1    0    0    0  501  0.00000000000E+00  0.00000000000E+00 -0.17312558824E+03  0.17312558826E+03  0.25500000920E-02 0. -1.
    10030    2    1    2    0    0  0.00000000000E+00  0.00000000000E+00  0.19619369066E+04  0.23081880831E+04  0.12159505753E+04 0.  0.
        2    1    3    3  502    0  0.29935549177E+03 -0.35776601237E+03  0.24083343932E+03  0.52498664322E+03  0.25500000920E-02 0. -1.
       -2    1    3    3    0  502 -0.29935549177E+03  0.35776601237E+03  0.17211034673E+04  0.17832014399E+04  0.25500000920E-02 0.  1.
</event>
<event>
 5   0  0.3650180E-03  0.1211240E+04  0.7818609E-02  0.9103074E-01
        2   -1    0    0  501    0  0.00000000000E+00  0.00000000000E+00  0.41908703291E+03  0.41908703292E+03  0.25500000920E-02 0. -1.
       -2   -1    0    0    0  501  0.00000000000E+00  0.00000000000E+00 -0.87517801507E+03  0.87517801507E+03  0.25500000920E-02 0.  1.
    10030    2    1    2    0    0  0.00000000000E+00  0.00000000000E+00 -0.45609098216E+03  0.12942650480E+04  0.12112402860E+04 0.  0.
        3    1    3    3  502    0 -0.70039037959E+02 -0.44958964516E+03  0.19902442855E+03  0.49663573093E+03  0.10100000352E+00 0. -1.
       -3    1    3    3    0  502  0.70039037959E+02  0.44958964516E+03 -0.65511541071E+03  0.79762931705E+03  0.10100000352E+00 0.  1.
</event>
<event>
 5   0  0.3706035E-03  0.1210834E+04  0.7818609E-02  0.9103426E-01
        2   -1    0    0  501    0  0.00000000000E+00  0.00000000000E+00  0.26877604365E+03  0.26877604366E+03  0.25500000920E-02 0. -1.
       -2   -1    0    0    0  501  0.00000000000E+00  0.00000000000E+00 -0.13636992827E+04  0.13636992827E+04  0.25500000920E-02 0.  1.
    10030    2    1    2    0    0  0.00000000000E+00  0.00000000000E+00 -0.10949232390E+04  0.16324753263E+04  0.12108339241E+04 0.  0.
        2    1    3    3  502    0 -0.30501386947E+03  0.21214496417E+03 -0.11919222011E+04  0.12484860751E+04  0.25500000920E-02 0.  1.
       -2    1    3    3    0  502  0.30501386947E+03 -0.21214496417E+03  0.96998962044E+02  0.38398925120E+03  0.25500000920E-02 0. -1.
</event>
<event>
 5   0  0.3650180E-03  0.1193852E+04  0.7818609E-02  0.9118255E-01
       -2   -1    0    0    0  501  0.00000000000E+00  0.00000000000E+00  0.36030874020E+03  0.36030874021E+03  0.25500000920E-02 0. -1.
        2   -1    0    0  501    0  0.00000000000E+00  0.00000000000E+00 -0.98893080655E+03  0.98893080656E+03  0.25500000920E-02 0.  1.
    10030    2    1    2    0    0  0.00000000000E+00  0.00000000000E+00 -0.62862206635E+03  0.13492395468E+04  0.11938516040E+04 0.  0.
        3    1    3    3  502    0 -0.37520134179E+03 -0.11363384129E+03 -0.82304696803E+03  0.91164412933E+03  0.10100000352E+00 0.  1.
       -3    1    3    3    0  502  0.37520134179E+03  0.11363384129E+03  0.19442490168E+03  0.43759541744E+03  0.10100000352E+00 0. -1.
</event>
<event>
 5   0  0.3650180E-03  0.1191326E+04  0.7818609E-02  0.9120482E-01
        2   -1    0    0  501    0  0.00000000000E+00  0.00000000000E+00  0.38002767541E+03  0.38002767542E+03  0.25500000920E-02 0.  1.
       -2   -1    0    0    0  501  0.00000000000E+00  0.00000000000E+00 -0.93365490792E+03  0.93365490792E+03  0.25500000920E-02 0. -1.
    10030    2    1    2    0    0  0.00000000000E+00  0.00000000000E+00 -0.55362723250E+03  0.13136825833E+04  0.11913264948E+04 0.  0.
        3    1    3    3  502    0 -0.26672826094E+03 -0.24526132868E+03  0.24451974076E+03  0.43713498871E+03  0.10100000352E+00 0.  1.
       -3    1    3    3    0  502  0.26672826094E+03  0.24526132868E+03 -0.79814697327E+03  0.87654759464E+03  0.10100000352E+00 0. -1.
</event>
<event>
 5   0  0.3725376E-03  0.1250192E+04  0.7818609E-02  0.9070023E-01
       -2   -1    0    0    0  501  0.00000000000E+00  0.00000000000E+00  0.27941879101E+03  0.27941879102E+03  0.25500000920E-02 0. -1.
        2   -1    0    0  501    0  0.00000000000E+00  0.00000000000E+00 -0.13984215514E+04  0.13984215514E+04  0.25500000920E-02 0.  1.
    10030    2    1    2    0    0  0.00000000000E+00  0.00000000000E+00 -0.11190027604E+04  0.16778403425E+04  0.12501924000E+04 0.  0.
        4    1    3    3  502    0  0.19248951576E+03  0.11407715914E+03 -0.13428331072E+04  0.13613479271E+04  0.12699999809E+01 0.  1.
       -4    1    3    3    0  502 -0.19248951576E+03 -0.11407715914E+03  0.22383034680E+03  0.31649241534E+03  0.12699999809E+01 0. -1.
</event>
<event>
 5   0  0.2025294E-03  0.1181251E+04  0.7818609E-02  0.9129428E-01
        1   -1    0    0  501    0  0.00000000000E+00  0.00000000000E+00  0.87741618445E+03  0.87741618446E+03  0.50400001928E-02 0.  1.
       -1   -1    0    0    0  501  0.00000000000E+00  0.00000000000E+00 -0.39757458562E+03  0.39757458565E+03  0.50400001928E-02 0. -1.
    10030    2    1    2    0    0  0.00000000000E+00  0.00000000000E+00  0.47984159883E+03  0.12749907701E+04  0.11812508218E+04 0.  0.
        5    1    3    3  502    0 -0.37189812723E+02  0.51496274155E+03 -0.69624232114E+02  0.52099839831E+03  0.46999998093E+01 0. -1.
       -5    1    3    3    0  502  0.37189812723E+02 -0.51496274155E+03  0.54946583095E+03  0.75399237180E+03  0.46999998093E+01 0.  1.
</event>
<event>
 5   0  0.2096270E-03  0.1196588E+04  0.7818609E-02  0.9115848E-01
       -1   -1    0    0    0  501  0.00000000000E+00  0.00000000000E+00  0.73275907169E+03  0.73275907171E+03  0.50400001928E-02 0.  1.
        1   -1    0    0  501    0  0.00000000000E+00  0.00000000000E+00 -0.48850384740E+03  0.48850384742E+03  0.50400001928E-02 0. -1.
    10030    2    1    2    0    0  0.00000000000E+00  0.00000000000E+00  0.24425522429E+03  0.12212629191E+04  0.11965878585E+04 0.  0.
        2    1    3    3  502    0 -0.12665802122E+03  0.98845124051E+02 -0.46607525826E+03  0.49298961374E+03  0.25500000920E-02 0. -1.
       -2    1    3    3    0  502  0.12665802122E+03 -0.98845124051E+02  0.71033048256E+03  0.72827330539E+03  0.25500000920E-02 0.  1.
</event>
<event>
 5   0  0.2096270E-03  0.1230691E+04  0.7818609E-02  0.9086409E-01
       -1   -1    0    0    0  501  0.00000000000E+00  0.00000000000E+00  0.65169199718E+03  0.65169199720E+03  0.50400001928E-02 0.  1.
        1   -1    0    0  501    0  0.00000000000E+00  0.00000000000E+00 -0.58102586567E+03  0.58102586569E+03  0.50400001928E-02 0. -1.
    10030    2    1    2    0    0  0.00000000000E+00  0.00000000000E+00  0.70666131513E+02  0.12327178629E+04  0.12306907115E+04 0.  0.
        2    1    3    3  502    0 -0.21506083654E+03 -0.36737680363E+03 -0.40973319113E+03  0.59084529885E+03  0.25500000920E-02 0. -1.
       -2    1    3    3    0  502  0.21506083654E+03  0.36737680363E+03  0.48039932264E+03  0.64187256404E+03  0.25500000920E-02 0.  1.
</event>
<event>
 5   0  0.2078258E-03  0.1205703E+04  0.7818609E-02  0.9107879E-01
        1   -1    0    0  501    0  0.00000000000E+00  0.00000000000E+00  0.24992286593E+04  0.24992286593E+04  0.50400001928E-02 0. -1.
       -1   -1    0    0    0  501  0.00000000000E+00  0.00000000000E+00 -0.14541695531E+03  0.14541695540E+03  0.50400001928E-02 0.  1.
    10030    2    1    2    0    0  0.00000000000E+00  0.00000000000E+00  0.23538117040E+04  0.26446456147E+04  0.12057034833E+04 0.  0.
        3    1    3    3  502    0 -0.52421841604E+02 -0.15137465291E+03  0.24516884930E+04  0.24569165252E+04  0.10100000352E+00 0. -1.
       -3    1    3    3    0  502  0.52421841604E+02  0.15137465291E+03 -0.97876788986E+02  0.18772908950E+03  0.10100000352E+00 0.  1.
</event>
<event>
 5   0  0.3626049E-03  0.1200752E+04  0.7818609E-02  0.9112198E-01
       -2   -1    0    0    0  501  0.00000000000E+00  0.00000000000E+00  0.42860497364E+03  0.42860497364E+03  0.25500000920E-02 0.  1.
        2   -1    0    0  501    0  0.00000000000E+00  0.00000000000E+00 -0.84098772526E+03  0.84098772526E+03  0.25500000920E-02 0. -1.
    10030    2    1    2    0    0  0.00000000000E+00  0.00000000000E+00 -0.41238275162E+03  0.12695926989E+04  0.12007523006E+04 0.  0.
        1    1    3    3  502    0 -0.53278264810E+03  0.22646105408E+03 -0.37980795451E+02  0.58015902991E+03  0.50400001928E-02 0.  1.
       -1    1    3    3    0  502  0.53278264810E+03 -0.22646105408E+03 -0.37440195617E+03  0.68943366900E+03  0.50400001928E-02 0. -1.
</event>
<event>
 5   0  0.2078258E-03  0.8615937E+03  0.7818609E-02  0.9474907E-01
       -1   -1    0    0    0  501  0.00000000000E+00  0.00000000000E+00  0.11420944257E+04  0.11420944258E+04  0.50400001928E-02 0. -1.
        1   -1    0    0  501    0  0.00000000000E+00  0.00000000000E+00 -0.16249612104E+03  0.16249612112E+03  0.50400001928E-02 0.  1.
    10030    2    1    2    0    0  0.00000000000E+00  0.00000000000E+00  0.97959830470E+03  0.13045905469E+04  0.86159367246E+03 0.  0.
        3    1    3    3  502    0  0.11667871925E+03  0.31266165839E+03  0.77306135996E+02  0.34256019182E+03  0.10100000352E+00 0.  1.
       -3    1    3    3    0  502 -0.11667871925E+03 -0.31266165839E+03  0.90229216870E+03  0.96203035506E+03  0.10100000352E+00 0. -1.
</event>
<event>
 5   0  0.3650180E-03  0.1198603E+04  0.7818609E-02  0.9114081E-01
        2   -1    0    0  501    0  0.00000000000E+00  0.00000000000E+00  0.20759250378E+04  0.20759250378E+04  0.25500000920E-02 0. -1.
       -2   -1    0    0    0  501  0.00000000000E+00  0.00000000000E+00 -0.17301302660E+03  0.17301302662E+03  0.25500000920E-02 0.  1.
    10030    2    1    2    0    0  0.00000000000E+00  0.00000000000E+00  0.19029120112E+04  0.22489380644E+04  0.11986026428E+04 0.  0.
        3    1    3    3  502    0 -0.23216873828E+03 -0.45174942931E+03  0.35462096945E+03  0.61946421373E+03  0.10100000352E+00 0.  1.
       -3    1    3    3    0  502  0.23216873828E+03  0.45174942931E+03  0.15482910418E+04  0.16294738507E+04  0.10100000352E+00 0. -1.
</event>
<event>
 5   0  0.2047109E-03  0.1263102E+04  0.7818609E-02  0.9059349E-01
        1   -1    0    0  501    0  0.00000000000E+00  0.00000000000E+00  0.19895444628E+04  0.19895444628E+04  0.50400001928E-02 0. -1.
       -1   -1    0    0    0  501  0.00000000000E+00  0.00000000000E+00 -0.20047622330E+03  0.20047622336E+03  0.50400001928E-02 0.  1.
    10030    2    1    2    0    0  0.00000000000E+00  0.00000000000E+00  0.17890682395E+04  0.21900206861E+04  0.12631015162E+04 0.  0.
        1    1    3    3  502    0  0.84856862187E+02  0.53438480708E+02  0.19756520986E+04  0.19781955346E+04  0.50400001928E-02 0. -1.
       -1    1    3    3    0  502 -0.84856862187E+02 -0.53438480708E+02 -0.18658385918E+03  0.21182515151E+03  0.50400001928E-02 0.  1.
</event>
<event>
 5   0  0.3725376E-03  0.1201959E+04  0.7818609E-02  0.9111144E-01
       -2   -1    0    0    0  501  0.00000000000E+00  0.00000000000E+00  0.65465048897E+03  0.65465048897E+03  0.25500000920E-02 0. -1.
        2   -1    0    0  501    0  0.00000000000E+00  0.00000000000E+00 -0.55170833824E+03  0.55170833825E+03  0.25500000920E-02 0.  1.
    10030    2    1    2    0    0  0.00000000000E+00  0.00000000000E+00  0.10294215073E+03  0.12063588272E+04  0.12019586239E+04 0.  0.
        4    1    3    3  502    0  0.28008646934E+03  0.40804510350E+03  0.39363742457E+03  0.63237747566E+03  0.12699999809E+01 0. -1.
       -4    1    3    3    0  502 -0.28008646934E+03 -0.40804510350E+03 -0.29069527384E+03  0.57398135156E+03  0.12699999809E+01 0.  1.
</event>
<event>
 5   0  0.3725376E-03  0.1214796E+04  0.7818609E-02  0.9100003E-01
        2   -1    0    0  501    0  0.00000000000E+00  0.00000000000E+00  0.71200495577E+03  0.71200495578E+03  0.25500000920E-02 0. -1.
       -2   -1    0    0    0  501  0.00000000000E+00  0.00000000000E+00 -0.51816011814E+03  0.51816011815E+03  0.25500000920E-02 0.  1.
    10030    2    1    2    0    0  0.00000000000E+00  0.00000000000E+00  0.19384483763E+03  0.12301650739E+04  0.12147963978E+04 0.  0.
        4    1    3    3  502    0  0.30007098221E+03  0.52743434648E+03  0.70103886619E+02  0.61085657239E+03  0.12699999809E+01 0.  1.
       -4    1    3    3    0  502 -0.30007098221E+03 -0.52743434648E+03  0.12374095101E+03  0.61930850153E+03  0.12699999809E+01 0. -1.
</event>
<event>
 5   0  0.2025294E-03  0.1207966E+04  0.7818609E-02  0.9105912E-01
        1   -1    0    0  501    0  0.00000000000E+00  0.00000000000E+00  0.73076652378E+03  0.73076652379E+03  0.50400001928E-02 0.  1.
       -1   -1    0    0    0  501  0.00000000000E+00  0.00000000000E+00 -0.49919585044E+03  0.49919585047E+03  0.50400001928E-02 0. -1.
    10030    2    1    2    0    0  0.00000000000E+00  0.00000000000E+00  0.23157067333E+03  0.12299623743E+04  0.12079662517E+04 0.  0.
        5    1    3    3  502    0 -0.19397770959E+03  0.26233970273E+03  0.63329617487E+03  0.71241533290E+03  0.46999998093E+01 0.  1.
       -5    1    3    3    0  502  0.19397770959E+03 -0.26233970273E+03 -0.40172550153E+03  0.51754704137E+03  0.46999998093E+01 0. -1.
</event>
<event>
 5   0  0.2078258E-03  0.1207370E+04  0.7818609E-02  0.9106430E-01
       -1   -1    0    0    0  501  0.00000000000E+00  0.00000000000E+00  0.48645420607E+03  0.48645420610E+03  0.50400001928E-02 0. -1.
        1   -1    0    0  501    0  0.00000000000E+00  0.00000000000E+00 -0.74916693507E+03  0.74916693509E+03  0.50400001928E-02 0.  1.
    10030    2    1    2    0    0  0.00000000000E+00  0.00000000000E+00 -0.26271272901E+03  0.12356211412E+04  0.12073697141E+04 0.  0.
        3    1    3    3  502    0  0.50895652776E+03  0.22122390771E+02  0.20011952289E+03  0.54733351895E+03  0.10100000352E+00 0. -1.
       -3    1    3    3    0  502 -0.50895652776E+03 -0.22122390771E+02 -0.46283225189E+03  0.68828762223E+03  0.10100000352E+00 0.  1.
</event>
<event>
 5   0  0.2096270E-03  0.1155912E+04  0.7818609E-02  0.9152347E-01
       -1   -1    0    0    0  501  0.00000000000E+00  0.00000000000E+00  0.81887616766E+03  0.81887616768E+03  0.50400001928E-02 0. -1.
        1   -1    0    0  501    0  0.00000000000E+00  0.00000000000E+00 -0.40791620529E+03  0.40791620533E+03  0.50400001928E-02 0.  1.
    10030    2    1    2    0    0  0.00000000000E+00  0.00000000000E+00  0.41095996237E+03  0.12267923730E+04  0.11559115173E+04 0.  0.
        2    1    3    3  502    0  0.51398466939E+03 -0.25434847134E+03  0.12924589867E+03  0.58785873096E+03  0.25500000920E-02 0. -1.
       -2    1    3    3    0  502 -0.51398466939E+03  0.25434847134E+03  0.28171406369E+03  0.63893364204E+03  0.25500000920E-02 0.  1.
</event>
<event>
 5   0  0.3725376E-03  0.1162066E+04  0.7818609E-02  0.9146724E-01
       -2   -1    0    0    0  501  0.00000000000E+00  0.00000000000E+00  0.43112044131E+03  0.43112044132E+03  0.25500000920E-02 0. -1.
        2   -1    0    0  501    0  0.00000000000E+00  0.00000000000E+00 -0.78307387795E+03  0.78307387795E+03  0.25500000920E-02 0.  1.
    10030    2    1    2    0    0  0.00000000000E+00  0.00000000000E+00 -0.35195343664E+03  0.12141943193E+04  0.11620656709E+04 0.  0.
        4    1    3    3  502    0 -0.15375698063E+03 -0.49334473845E+03 -0.45353825575E+03  0.68755276334E+03  0.12699999809E+01 0.  1.
       -4    1    3    3    0  502  0.15375698063E+03  0.49334473845E+03  0.10158481912E+03  0.52664155592E+03  0.12699999809E+01 0. -1.
</event>
<event>
 5   0  0.2078258E-03  0.1203077E+04  0.7818609E-02  0.9110168E-01
        1   -1    0    0  501    0  0.00000000000E+00  0.00000000000E+00  0.12078630963E+04  0.12078630963E+04  0.50400001928E-02 0.  1.
       -1   -1    0    0    0  501  0.00000000000E+00  0.00000000000E+00 -0.29957728904E+03  0.29957728908E+03  0.50400001928E-02 0. -1.
    10030    2    1    2    0    0  0.00000000000E+00  0.00000000000E+00  0.90828580725E+03  0.15074403854E+04  0.12030766425E+04 0.  0.
        3    1    3    3  502    0  0.98685925887E+02 -0.17634728170E+01 -0.28936186985E+03  0.30573243814E+03  0.10100000352E+00 0. -1.
       -3    1    3    3    0  502 -0.98685925887E+02  0.17634728170E+01  0.11976476771E+04  0.12017079472E+04  0.10100000352E+00 0.  1.
</event>
<event>
 5   0  0.3706035E-03  0.1290072E+04  0.7818609E-02  0.9037475E-01
        2   -1    0    0  501    0  0.00000000000E+00  0.00000000000E+00  0.10185199528E+04  0.10185199528E+04  0.25500000920E-02 0.  1.
       -2   -1    0    0    0  501  0.00000000000E+00  0.00000000000E+00 -0.40850614925E+03  0.40850614925E+03  0.25500000920E-02 0. -1.
    10030    2    1    2    0    0  0.00000000000E+00  0.00000000000E+00  0.61001380359E+03  0.14270261021E+04  0.12900723451E+04 0.  0.
        2    1    3    3  502    0  0.56615244884E+03 -0.15132009418E+03  0.60314783411E+03  0.84095997291E+03  0.25500000920E-02 0.  1.
       -2    1    3    3    0  502 -0.56615244884E+03  0.15132009418E+03  0.68659694787E+01  0.58606612918E+03  0.25500000920E-02 0. -1.
</event>
<event>
 5   0  0.3725376E-03  0.1203598E+04  0.7818609E-02  0.9109713E-01
        2   -1    0    0  501    0  0.00000000000E+00  0.00000000000E+00  0.87417857652E+03  0.87417857653E+03  0.25500000920E-02 0.  1.
       -2   -1    0    0    0  501  0.00000000000E+00  0.00000000000E+00 -0.41428806474E+03  0.41428806474E+03  0.25500000920E-02 0. -1.
    10030    2    1    2    0    0  0.00000000000E+00  0.00000000000E+00  0.45989051179E+03  0.12884666413E+04  0.12035975253E+04 0.  0.
        4    1    3    3  502    0  0.90705369350E+00  0.55052918580E+03  0.49014139894E+03  0.73710474901E+03  0.12699999809E+01 0.  1.
       -4    1    3    3    0  502 -0.90705369350E+00 -0.55052918580E+03 -0.30250887152E+02  0.55136189226E+03  0.12699999809E+01 0. -1.
</event>
<event>
 5   0  0.2025294E-03  0.1192472E+04  0.7818609E-02  0.9119472E-01
        1   -1    0    0  501    0  0.00000000000E+00  0.00000000000E+00  0.86824749574E+03  0.86824749576E+03  0.50400001928E-02 0. -1.
       -1   -1    0    0    0  501  0.00000000000E+00  0.00000000000E+00 -0.40944229912E+03  0.40944229915E+03  0.50400001928E-02 0.  1.
    10030    2    1    2    0    0  0.00000000000E+00  0.00000000000E+00  0.45880519662E+03  0.12776897949E+04  0.11924718041E+04 0.  0.
        5    1    3    3  502    0  0.43137719492E+03  0.14169076583E+03  0.64342662139E+03  0.78751664397E+03  0.46999998093E+01 0. -1.
       -5    1    3    3    0  502 -0.43137719492E+03 -0.14169076583E+03 -0.18462142476E+03  0.49017315094E+03  0.46999998093E+01 0.  1.
</event>
<event>
 5   0  0.1397500E-03  0.1137685E+04  0.7818609E-02  0.9169220E-01
        4   -1    0    0  501    0  0.00000000000E+00  0.00000000000E+00  0.12191575281E+04  0.12191581896E+04  0.12699999809E+01 0. -1.
       -4   -1    0    0    0  501  0.00000000000E+00  0.00000000000E+00 -0.26541207895E+03  0.26541511742E+03  0.12699999809E+01 0.  1.
    10030    2    1    2    0    0  0.00000000000E+00  0.00000000000E+00  0.95374544920E+03  0.14845733070E+04  0.11376851595E+04 0.  0.
        5    1    3    3  502    0 -0.33485589775E+03 -0.46854368622E+02  0.10737674552E+04  0.11257541659E+04  0.46999998093E+01 0. -1.
       -5    1    3    3    0  502  0.33485589775E+03  0.46854368622E+02 -0.12002200605E+03  0.35881914114E+03  0.46999998093E+01 0.  1.
</event>
<event>
 5   0  0.3706035E-03  0.1197091E+04  0.7818609E-02  0.9115406E-01
       -2   -1    0    0    0  501  0.00000000000E+00  0.00000000000E+00  0.20410037693E+03  0.20410037695E+03  0.25500000920E-02 0. -1.
        2   -1    0    0  501    0  0.00000000000E+00  0.00000000000E+00 -0.17552971115E+04  0.17552971115E+04  0.25500000920E-02 0.  1.
    10030    2    1    2    0    0  0.00000000000E+00  0.00000000000E+00 -0.15511967345E+04  0.19593974884E+04  0.11970911446E+04 0.  0.
        2    1    3    3  502    0 -0.46370431885E+03  0.81603049340E+02 -0.13804969981E+04  0.14585790053E+04  0.25500000920E-02 0.  1.
       -2    1    3    3    0  502  0.46370431885E+03 -0.81603049340E+02 -0.17069973642E+03  0.50081848309E+03  0.25500000920E-02 0. -1.
</event>
<event>
 5   0  0.3650180E-03  0.1185067E+04  0.7818609E-02  0.9126028E-01
       -2   -1    0    0    0  501  0.00000000000E+00  0.00000000000E+00  0.22244262888E+03  0.22244262889E+03  0.25500000920E-02 0. -1.
        2   -1    0    0  501    0  0.00000000000E+00  0.00000000000E+00 -0.15783676275E+04  0.15783676275E+04  0.25500000920E-02 0.  1.
    10030    2    1    2    0    0  0.00000000000E+00  0.00000000000E+00 -0.13559249986E+04  0.18008102564E+04  0.11850674992E+04 0.  0.
        3    1    3    3  502    0 -0.28941967768E+03 -0.12522280166E+03  0.84335590945E+02  0.32643070013E+03  0.10100000352E+00 0. -1.
       -3    1    3    3    0  502  0.28941967768E+03  0.12522280166E+03 -0.14402605895E+04  0.14743795562E+04  0.10100000352E+00 0.  1.
</event>
<event>
 5   0  0.3751091E-03  0.1197779E+04  0.7818609E-02  0.9114802E-01
       -2   -1    0    0    0  501  0.00000000000E+00  0.00000000000E+00  0.27192450346E+03  0.27192450347E+03  0.25500000920E-02 0.  1.
        2   -1    0    0  501    0  0.00000000000E+00  0.00000000000E+00 -0.13190016140E+04  0.13190016140E+04  0.25500000920E-02 0. -1.
    10030    2    1    2    0    0  0.00000000000E+00  0.00000000000E+00 -0.10470771105E+04  0.15909261174E+04  0.11977793769E+04 0.  0.
        5    1    3    3  502    0 -0.37792129802E+03 -0.21123473239E+03 -0.10731145903E+04  0.11571696650E+04  0.46999998093E+01 0. -1.
       -5    1    3    3    0  502  0.37792129802E+03  0.21123473239E+03  0.26037479818E+02  0.43375645242E+03  0.46999998093E+01 0.  1.
</event>
<event>
 5   0  0.2096270E-03  0.1185022E+04  0.7818609E-02  0.9126069E-01
        1   -1    0    0  501    0  0.00000000000E+00  0.00000000000E+00  0.11623615720E+04  0.11623615721E+04  0.50400001928E-02 0. -1.
       -1   -1    0    0    0  501  0.00000000000E+00  0.00000000000E+00 -0.30203082241E+03  0.30203082245E+03  0.50400001928E-02 0.  1.
    10030    2    1    2    0    0  0.00000000000E+00  0.00000000000E+00  0.86033074964E+03  0.14643923945E+04  0.11850215552E+04 0.  0.
        2    1    3    3  502    0  0.51559682452E+03  0.29065156103E+03  0.46402150248E+03  0.75208667729E+03  0.25500000920E-02 0. -1.
       -2    1    3    3    0  502 -0.51559682452E+03 -0.29065156103E+03  0.39630924717E+03  0.71230571722E+03  0.25500000920E-02 0.  1.
</event>
<event>
 5   0  0.3706035E-03  0.1166741E+04  0.7818609E-02  0.9142477E-01
       -2   -1    0    0    0  501  0.00000000000E+00  0.00000000000E+00  0.23511532232E+03  0.23511532234E+03  0.25500000920E-02 0. -1.
        2   -1    0    0  501    0  0.00000000000E+00  0.00000000000E+00 -0.14474641410E+04  0.14474641410E+04  0.25500000920E-02 0.  1.
    10030    2    1    2    0    0  0.00000000000E+00  0.00000000000E+00 -0.12123488186E+04  0.16825794633E+04  0.11667407562E+04 0.  0.
        2    1    3    3  502    0 -0.40478416736E+02  0.50894055546E+03 -0.10132047998E+04  0.11345672997E+04  0.25500000920E-02 0. -1.
       -2    1    3    3    0  502  0.40478416736E+02 -0.50894055546E+03 -0.19914401884E+03  0.54801216361E+03  0.25500000920E-02 0.  1.
</event>
<event>
 5   0  0.2096270E-03  0.1214374E+04  0.7818609E-02  0.9100367E-01
       -1   -1    0    0    0  501  0.00000000000E+00  0.00000000000E+00  0.25228937077E+03  0.25228937082E+03  0.50400001928E-02 0.  1.
        1   -1    0    0  501    0  0.00000000000E+00  0.00000000000E+00 -0.14613216305E+04  0.14613216305E+04  0.50400001928E-02 0. -1.
    10030    2    1    2    0    0  0.00000000000E+00  0.00000000000E+00 -0.12090322598E+04  0.17136110013E+04  0.12143737723E+04 0.  0.
        2    1    3    3  502    0  0.14359467515E+03  0.57135302244E+03 -0.39706804534E+03  0.71044122883E+03  0.25500000920E-02 0. -1.
       -2    1    3    3    0  502 -0.14359467515E+03 -0.57135302244E+03 -0.81196421441E+03  0.10031697725E+04  0.25500000920E-02 0.  1.
</event>
<event>
 5   0  0.3751091E-03  0.1210548E+04  0.7818609E-02  0.9103674E-01
        2   -1    0    0  501    0  0.00000000000E+00  0.00000000000E+00  0.92443763839E+03  0.92443763840E+03  0.25500000920E-02 0. -1.
       -2   -1    0    0    0  501  0.00000000000E+00  0.00000000000E+00 -0.39630191649E+03  0.39630191650E+03  0.25500000920E-02 0.  1.
    10030    2    1    2    0    0  0.00000000000E+00  0.00000000000E+00  0.52813572191E+03  0.13207395549E+04  0.12105476575E+04 0.  0.
        5    1    3    3  502    0  0.37926630379E+02  0.29932226589E+03 -0.30838539680E+03  0.43145786713E+03  0.46999998093E+01 0.  1.
       -5    1    3    3    0  502 -0.37926630379E+02 -0.29932226589E+03  0.83652111871E+03  0.88928168776E+03  0.46999998093E+01 0. -1.
</event>
<event>
 5   0  0.2047109E-03  0.1211797E+04  0.7818609E-02  0.9102592E-01
       -1   -1    0    0    0  501  0.00000000000E+00  0.00000000000E+00  0.27866129299E+03  0.27866129304E+03  0.50400001928E-02 0.  1.
        1   -1    0    0  501    0  0.00000000000E+00  0.00000000000E+00 -0.13174174755E+04  0.13174174755E+04  0.50400001928E-02 0. -1.
    10030    2    1    2    0    0  0.00000000000E+00  0.00000000000E+00 -0.10387561825E+04  0.15960787685E+04  0.12117974372E+04 0.  0.
        1    1    3    3  502    0 -0.14813915575E+03  0.51749553562E+03 -0.15302442960E+03  0.55960996680E+03  0.50400001928E-02 0. -1.
       -1    1    3    3    0  502  0.14813915575E+03 -0.51749553562E+03 -0.88573175290E+03  0.10364688017E+04  0.50400001928E-02 0.  1.
</event>
<event>
 5   0  0.2096270E-03  0.9468560E+03  0.7818609E-02  0.9368833E-01
        1   -1    0    0  501    0  0.00000000000E+00  0.00000000000E+00  0.64342473347E+03  0.64342473349E+03  0.50400001928E-02 0. -1.
       -1   -1    0    0    0  501  0.00000000000E+00  0.00000000000E+00 -0.34834540834E+03  0.34834540838E+03  0.50400001928E-02 0.  1.
    10030    2    1    2    0    0  0.00000000000E+00  0.00000000000E+00  0.29507932513E+03  0.99177014186E+03  0.94685595852E+03 0.  0.
        2    1    3    3  502    0  0.22450884355E+03  0.41244266626E+03  0.84511587388E+02  0.47713245770E+03  0.25500000920E-02 0.  1.
       -2    1    3    3    0  502 -0.22450884355E+03 -0.41244266626E+03  0.21056773774E+03  0.51463768417E+03  0.25500000920E-02 0. -1.
</event>
<event>
 5   0  0.2047109E-03  0.1201932E+04  0.7818609E-02  0.9111167E-01
       -1   -1    0    0    0  501  0.00000000000E+00  0.00000000000E+00  0.12309842412E+04  0.12309842412E+04  0.50400001928E-02 0.  1.
        1   -1    0    0  501    0  0.00000000000E+00  0.00000000000E+00 -0.29339143600E+03  0.29339143604E+03  0.50400001928E-02 0. -1.
    10030    2    1    2    0    0  0.00000000000E+00  0.00000000000E+00  0.93759280516E+03  0.15243756772E+04  0.12019321682E+04 0.  0.
        1    1    3    3  502    0 -0.18811488374E+03  0.13942591302E+03  0.11707513762E+04  0.11939370082E+04  0.50400001928E-02 0.  1.
       -1    1    3    3    0  502  0.18811488374E+03 -0.13942591302E+03 -0.23315857103E+03  0.33043866901E+03  0.50400001928E-02 0. -1.
</event>
<event>
 5   0  0.3751091E-03  0.1200504E+04  0.7818609E-02  0.9112415E-01
        2   -1    0    0  501    0  0.00000000000E+00  0.00000000000E+00  0.87556255164E+03  0.87556255164E+03  0.25500000920E-02 0.  1.
       -2   -1    0    0    0  501  0.00000000000E+00  0.00000000000E+00 -0.41150985748E+03  0.41150985749E+03  0.25500000920E-02 0. -1.
    10030    2    1    2    0    0  0.00000000000E+00  0.00000000000E+00  0.46405269416E+03  0.12870724091E+04  0.12005042621E+04 0.  0.
        5    1    3    3  502    0 -0.24252076295E+03  0.19865903446E+02 -0.35623822693E+03  0.43143798964E+03  0.46999998093E+01 0. -1.
       -5    1    3    3    0  502  0.24252076295E+03 -0.19865903446E+02  0.82029092109E+03  0.85563441948E+03  0.46999998093E+01 0.  1.
</event>
<event>
 5   0  0.2025294E-03  0.1308743E+04  0.7818609E-02  0.9022661E-01
        1   -1    0    0  501    0  0.00000000000E+00  0.00000000000E+00  0.97604203920E+03  0.97604203921E+03  0.50400001928E-02 0.  1.
       -1   -1    0    0    0  501  0.00000000000E+00  0.00000000000E+00 -0.43871257837E+03  0.43871257840E+03  0.50400001928E-02 0. -1.
    10030    2    1    2    0    0  0.00000000000E+00  0.00000000000E+00  0.53732946083E+03  0.14147546176E+04  0.13087427855E+04 0.  0.
        5    1    3    3  502    0 -0.29007794963E+03  0.50923820887E+03 -0.45962912014E+02  0.58788047213E+03  0.46999998093E+01 0. -1.
       -5    1    3    3    0  502  0.29007794963E+03 -0.50923820887E+03  0.58329237284E+03  0.82687414547E+03  0.46999998093E+01 0.  1.
</event>
<event>
 5   0  0.2078258E-03  0.1212892E+04  0.7818609E-02  0.9101646E-01
       -1   -1    0    0    0  501  0.00000000000E+00  0.00000000000E+00  0.21930779923E+03  0.21930779929E+03  0.50400001928E-02 0.  1.
        1   -1    0    0  501    0  0.00000000000E+00  0.00000000000E+00 -0.16769891499E+04  0.16769891499E+04  0.50400001928E-02 0. -1.
    10030    2    1    2    0    0  0.00000000000E+00  0.00000000000E+00 -0.14576813506E+04  0.18962969492E+04  0.12128920807E+04 0.  0.
        3    1    3    3  502    0 -0.11285515205E+03 -0.57049388904E+03 -0.45995794326E+03  0.74145861823E+03  0.10100000352E+00 0. -1.
       -3    1    3    3    0  502  0.11285515205E+03  0.57049388904E+03 -0.99772340739E+03  0.11548383309E+04  0.10100000352E+00 0.  1.
</event>
<event>
 5   0  0.3626049E-03  0.1160606E+04  0.7818609E-02  0.9148054E-01
       -2   -1    0    0    0  501  0.00000000000E+00  0.00000000000E+00  0.39267267001E+03  0.39267267002E+03  0.25500000920E-02 0.  1.
        2   -1    0    0  501    0  0.00000000000E+00  0.00000000000E+00 -0.85758866011E+03  0.85758866012E+03  0.25500000920E-02 0. -1.
    10030    2    1    2    0    0  0.00000000000E+00  0.00000000000E+00 -0.46491599010E+03  0.12502613301E+04  0.11606060985E+04 0.  0.
        1    1    3    3  502    0 -0.18121753112E+03 -0.40851618407E+03 -0.63122389731E+03  0.77341377981E+03  0.50400001928E-02 0. -1.
       -1    1    3    3    0  502  0.18121753112E+03  0.40851618407E+03  0.16630790721E+03  0.47684755033E+03  0.50400001928E-02 0.  1.
</event>
<event>
 5   0  0.2078258E-03  0.1193844E+04  0.7818609E-02  0.9118262E-01
        1   -1    0    0  501    0  0.00000000000E+00  0.00000000000E+00  0.61333166468E+03  0.61333166470E+03  0.50400001928E-02 0. -1.
       -1   -1    0    0    0  501  0.00000000000E+00  0.00000000000E+00 -0.58095115819E+03  0.58095115821E+03  0.50400001928E-02 0.  1.
    10030    2    1    2    0    0  0.00000000000E+00  0.00000000000E+00  0.32380506490E+02  0.11942828229E+04  0.11938437770E+04 0.  0.
        3    1    3    3  502    0 -0.42155585429E+03  0.29571718364E+03 -0.28584418210E+03  0.58895237297E+03  0.10100000352E+00 0.  1.
       -3    1    3    3    0  502  0.42155585429E+03 -0.29571718364E+03  0.31822468859E+03  0.60533044994E+03  0.10100000352E+00 0. -1.
</event>
<event>
 5   0  0.3650180E-03  0.1199180E+04  0.7818609E-02  0.9113575E-01
        2   -1    0    0  501    0  0.00000000000E+00  0.00000000000E+00  0.77282091684E+03  0.77282091685E+03  0.25500000920E-02 0.  1.
       -2   -1    0    0    0  501  0.00000000000E+00  0.00000000000E+00 -0.46518919297E+03  0.46518919298E+03  0.25500000920E-02 0. -1.
    10030    2    1    2    0    0  0.00000000000E+00  0.00000000000E+00  0.30763172387E+03  0.12380101098E+04  0.11991796173E+04 0.  0.
        3    1    3    3  502    0 -0.34619988009E+03 -0.47433372346E+03  0.27881962484E+03  0.65006709776E+03  0.10100000352E+00 0.  1.
       -3    1    3    3    0  502  0.34619988009E+03  0.47433372346E+03  0.28812099027E+02  0.58794301207E+03  0.10100000352E+00 0. -1.
</event>
<event>
 5   0  0.2047109E-03  0.1202863E+04  0.7818609E-02  0.9110354E-01
       -1   -1    0    0    0  501  0.00000000000E+00  0.00000000000E+00  0.68375846092E+03  0.68375846094E+03  0.50400001928E-02 0. -1.
        1   -1    0    0  501    0  0.00000000000E+00  0.00000000000E+00 -0.52901697310E+03  0.52901697313E+03  0.50400001928E-02 0.  1.
    10030    2    1    2    0    0  0.00000000000E+00  0.00000000000E+00  0.15474148782E+03  0.12127754341E+04  0.12028629703E+04 0.  0.
        1    1    3    3  502    0  0.47623906568E+03 -0.84055649626E+02 -0.28313817548E+03  0.56038935246E+03  0.50400001928E-02 0.  1.
       -1    1    3    3    0  502 -0.47623906568E+03  0.84055649626E+02  0.43787966329E+03  0.65238608160E+03  0.50400001928E-02 0. -1.
</event>
<event>
 5   0  0.2047109E-03  0.1251553E+04  0.7818609E-02  0.9068892E-01
       -1   -1    0    0    0  501  0.00000000000E+00  0.00000000000E+00  0.21465472664E+03  0.21465472670E+03  0.50400001928E-02 0.  1.
        1   -1    0    0  501    0  0.00000000000E+00  0.00000000000E+00 -0.18243067941E+04  0.18243067941E+04  0.50400001928E-02 0. -1.
    10030    2    1    2    0    0  0.00000000000E+00  0.00000000000E+00 -0.16096520674E+04  0.20389615208E+04  0.12515527576E+04 0.  0.
        1    1    3    3  502    0 -0.27344368285E+03 -0.52686665247E+03 -0.48212295284E+03  0.76472377945E+03  0.50400001928E-02 0.  1.
       -1    1    3    3    0  502  0.27344368285E+03  0.52686665247E+03 -0.11275291146E+04  0.12742377413E+04  0.50400001928E-02 0. -1.
</event>
<event>
 5   0  0.3626049E-03  0.1199647E+04  0.7818609E-02  0.9113165E-01
       -2   -1    0    0    0  501  0.00000000000E+00  0.00000000000E+00  0.51853951901E+03  0.51853951902E+03  0.25500000920E-02 0.  1.
        2   -1    0    0  501    0  0.00000000000E+00  0.00000000000E+00 -0.69384972715E+03  0.69384972716E+03  0.25500000920E-02 0. -1.
    10030    2    1    2    0    0  0.00000000000E+00  0.00000000000E+00 -0.17531020814E+03  0.12123892462E+04  0.11996474545E+04 0.  0.
        1    1    3    3  502    0 -0.16177953754E+03  0.41304765972E+03 -0.49568525235E+03  0.66519535280E+03  0.50400001928E-02 0. -1.
       -1    1    3    3    0  502  0.16177953754E+03 -0.41304765972E+03  0.32037504421E+03  0.54719389337E+03  0.50400001928E-02 0.  1.
</event>
<event>
 5   0  0.2047109E-03  0.1190713E+04  0.7818609E-02  0.9121024E-01
       -1   -1    0    0    0  501  0.00000000000E+00  0.00000000000E+00  0.45360090915E+03  0.45360090917E+03  0.50400001928E-02 0.  1.
        1   -1    0    0  501    0  0.00000000000E+00  0.00000000000E+00 -0.78141275942E+03  0.78141275943E+03  0.50400001928E-02 0. -1.
    10030    2    1    2    0    0  0.00000000000E+00  0.00000000000E+00 -0.32781185027E+03  0.12350136686E+04  0.11907132957E+04 0.  0.
        1    1    3    3  502    0 -0.10314985121E+03 -0.58629149185E+03 -0.17270279694E+03  0.61984180346E+03  0.50400001928E-02 0. -1.
       -1    1    3    3    0  502  0.10314985121E+03  0.58629149185E+03 -0.15510905333E+03  0.61517186515E+03  0.50400001928E-02 0.  1.
</event>
<event>
 5   0  0.2047109E-03  0.1205567E+04  0.7818609E-02  0.9107998E-01
       -1   -1    0    0    0  501  0.00000000000E+00  0.00000000000E+00  0.44028132648E+03  0.44028132651E+03  0.50400001928E-02 0. -1.
        1   -1    0    0  501    0  0.00000000000E+00  0.00000000000E+00 -0.82526271362E+03  0.82526271364E+03  0.50400001928E-02 0.  1.
    10030    2    1    2    0    0  0.00000000000E+00  0.00000000000E+00 -0.38498138714E+03  0.12655440401E+04  0.12055666921E+04 0.  0.
        1    1    3    3  502    0  0.10839373516E+03  0.51274741083E+02 -0.81261639872E+03  0.82141567576E+03  0.50400001928E-02 0.  1.
       -1    1    3    3    0  502 -0.10839373516E+03 -0.51274741083E+02  0.42763501158E+03  0.44412836438E+03  0.50400001928E-02 0. -1.
</event>
<event>
 5   0  0.3650180E-03  0.1202690E+04  0.7818609E-02  0.9110505E-01
        2   -1    0    0  501    0  0.00000000000E+00  0.00000000000E+00  0.14586734641E+04  0.14586734641E+04  0.25500000920E-02 0. -1.
       -2   -1    0    0    0  501  0.00000000000E+00  0.00000000000E+00 -0.24790732049E+03  0.24790732051E+03  0.25500000920E-02 0.  1.
    10030    2    1    2    0    0  0.00000000000E+00  0.00000000000E+00  0.12107661436E+04  0.17065807846E+04  0.12026900348E+04 0.  0.
        3    1    3    3  502    0 -0.19919263295E+03 -0.28707041805E+03  0.12998505431E+04  0.13459935269E+04  0.10100000352E+00 0. -1.
       -3    1    3    3    0  502  0.19919263295E+03  0.28707041805E+03 -0.89084399525E+02  0.36058725765E+03  0.10100000352E+00 0.  1.
</event>
<event>
 5   0  0.3751091E-03  0.1186405E+04  0.7818609E-02  0.9124840E-01
       -2   -1    0    0    0  501  0.00000000000E+00  0.00000000000E+00  0.62519530723E+03  0.62519530723E+03  0.25500000920E-02 0. -1.
        2   -1    0    0  501    0  0.00000000000E+00  0.00000000000E+00 -0.56284720589E+03  0.56284720589E+03  0.25500000920E-02 0.  1.
    10030    2    1    2    0    0  0.00000000000E+00  0.00000000000E+00  0.62348101337E+02  0.11880425131E+04  0.11864053807E+04 0.  0.
        5    1    3    3  502    0  0.61506432174E+02 -0.17248481019E+03 -0.53381483374E+03  0.56437081575E+03  0.46999998093E+01 0.  1.
       -5    1    3    3    0  502 -0.61506432174E+02  0.17248481019E+03  0.59616293508E+03  0.62367169738E+03  0.46999998093E+01 0. -1.
</event>
<event>
 5   0  0.3706035E-03  0.1202607E+04  0.7818609E-02  0.9110578E-01
       -2   -1    0    0    0  501  0.00000000000E+00  0.00000000000E+00  0.47884396168E+03  0.47884396169E+03  0.25500000920E-02 0. -1.
        2   -1    0    0  501    0  0.00000000000E+00  0.00000000000E+00 -0.75508050788E+03  0.75508050788E+03  0.25500000920E-02 0.  1.
    10030    2    1    2    0    0  0.00000000000E+00  0.00000000000E+00 -0.27623654620E+03  0.12339244696E+04  0.12026067384E+04 0.  0.
        2    1    3    3  502    0  0.27452349666E+03 -0.52925684931E+03 -0.58049032325E+02  0.59903727173E+03  0.25500000920E-02 0. -1.
       -2    1    3    3    0  502 -0.27452349666E+03  0.52925684931E+03 -0.21818751387E+03  0.63488719784E+03  0.25500000920E-02 0.  1.
</event>
<event>
 5   0  0.3706035E-03  0.1159951E+04  0.7818609E-02  0.9148652E-01
        2   -1    0    0  501    0  0.00000000000E+00  0.00000000000E+00  0.56915314565E+03  0.56915314566E+03  0.25500000920E-02 0. -1.
       -2   -1    0    0    0  501  0.00000000000E+00  0.00000000000E+00 -0.59100412223E+03  0.59100412224E+03  0.25500000920E-02 0.  1.
    10030    2    1    2    0    0  0.00000000000E+00  0.00000000000E+00 -0.21850976581E+02  0.11601572679E+04  0.11599514736E+04 0.  0.
        2    1    3    3  502    0  0.57356720447E+02  0.18929657846E+03  0.53437658416E+03  0.56980814464E+03  0.25500000920E-02 0. -1.
       -2    1    3    3    0  502 -0.57356720447E+02 -0.18929657846E+03 -0.55622756074E+03  0.59034912325E+03  0.25500000920E-02 0.  1.
</event>
<event>
 5   0  0.3650180E-03  0.1177520E+04  0.7818609E-02  0.9132764E-01
        2   -1    0    0  501    0  0.00000000000E+00  0.00000000000E+00  0.21361875453E+04  0.21361875453E+04  0.25500000920E-02 0. -1.
       -2   -1    0    0    0  501  0.00000000000E+00  0.00000000000E+00 -0.16226961661E+03  0.16226961663E+03  0.25500000920E-02 0.  1.
    10030    2    1    2    0    0  0.00000000000E+00  0.00000000000E+00  0.19739179287E+04  0.22984571619E+04  0.11775199939E+04 0.  0.
        3    1    3    3  502    0 -0.56557636509E+01  0.49622538189E+03  0.36856824888E+03  0.61815384944E+03  0.10100000352E+00 0.  1.
       -3    1    3    3    0  502  0.56557636509E+01 -0.49622538189E+03  0.16053496798E+04  0.16803033125E+04  0.10100000352E+00 0. -1.
</event>
<event>
 5   0  0.2096270E-03  0.1224035E+04  0.7818609E-02  0.9092075E-01
        1   -1    0    0  501    0  0.00000000000E+00  0.00000000000E+00  0.16913574981E+04  0.16913574981E+04  0.50400001928E-02 0.  1.
       -1   -1    0    0    0  501  0.00000000000E+00  0.00000000000E+00 -0.22145838219E+03  0.22145838224E+03  0.50400001928E-02 0. -1.
    10030    2    1    2    0    0  0.00000000000E+00  0.00000000000E+00  0.14698991159E+04  0.19128158803E+04  0.12240347957E+04 0.  0.
        2    1    3    3  502    0 -0.20627080099E+03 -0.18655165057E+03  0.15869024766E+04  0.16110892688E+04  0.25500000920E-02 0.  1.
       -2    1    3    3    0  502  0.20627080099E+03  0.18655165057E+03 -0.11700336075E+03  0.30172661153E+03  0.25500000920E-02 0. -1.
</event>
<event>
 5   0  0.3626049E-03  0.1208403E+04  0.7818609E-02  0.9105533E-01
        2   -1    0    0  501    0  0.00000000000E+00  0.00000000000E+00  0.20560331604E+04  0.20560331604E+04  0.25500000920E-02 0.  1.
       -2   -1    0    0    0  501  0.00000000000E+00  0.00000000000E+00 -0.17755531117E+03  0.17755531119E+03  0.25500000920E-02 0. -1.
    10030    2    1    2    0    0  0.00000000000E+00  0.00000000000E+00  0.18784778492E+04  0.22335884716E+04  0.12084032565E+04 0.  0.
        1    1    3    3  502    0 -0.35770626746E+03 -0.93329427704E+02  0.18225933680E+04  0.18597071654E+04  0.50400001928E-02 0.  1.
       -1    1    3    3    0  502  0.35770626746E+03  0.93329427704E+02  0.55884481225E+02  0.37388130620E+03  0.50400001928E-02 0. -1.
</event>
<event>
 5   0  0.2078258E-03  0.1192441E+04  0.7818609E-02  0.9119498E-01
       -1   -1    0    0    0  501  0.00000000000E+00  0.00000000000E+00  0.31157598189E+03  0.31157598193E+03  0.50400001928E-02 0.  1.
        1   -1    0    0  501    0  0.00000000000E+00  0.00000000000E+00 -0.11409068460E+04  0.11409068460E+04  0.50400001928E-02 0. -1.
    10030    2    1    2    0    0  0.00000000000E+00  0.00000000000E+00 -0.82933086410E+03  0.14524828279E+04  0.11924414800E+04 0.  0.
        3    1    3    3  502    0 -0.42902661314E+03  0.23899051555E+03 -0.82647352748E+03  0.96137339422E+03  0.10100000352E+00 0. -1.
       -3    1    3    3    0  502  0.42902661314E+03 -0.23899051555E+03 -0.28573366216E+01  0.49110943370E+03  0.10100000352E+00 0.  1.
</event>
<event>
 5   0  0.2078258E-03  0.1192283E+04  0.7818609E-02  0.9119638E-01
       -1   -1    0    0    0  501  0.00000000000E+00  0.00000000000E+00  0.59613233841E+03  0.59613233843E+03  0.50400001928E-02 0.  1.
        1   -1    0    0  501    0  0.00000000000E+00  0.00000000000E+00 -0.59615085278E+03  0.59615085280E+03  0.50400001928E-02 0. -1.
    10030    2    1    2    0    0  0.00000000000E+00  0.00000000000E+00 -0.18514376040E-01  0.11922831912E+04  0.11922831911E+04 0.  0.
        3    1    3    3  502    0 -0.13914710694E+03  0.56856047372E+03  0.11295915475E+03  0.59613984139E+03  0.10100000352E+00 0. -1.
       -3    1    3    3    0  502  0.13914710694E+03 -0.56856047372E+03 -0.11297766913E+03  0.59614334985E+03  0.10100000352E+00 0.  1.
</event>
<event>
 5   0  0.2134992E-03  0.1201762E+04  0.7818609E-02  0.9111316E-01
       -1   -1    0    0    0  501  0.00000000000E+00  0.00000000000E+00  0.32329668926E+03  0.32329668930E+03  0.50400001928E-02 0.  1.
        1   -1    0    0  501    0  0.00000000000E+00  0.00000000000E+00 -0.11167999936E+04  0.11167999936E+04  0.50400001928E-02 0. -1.
    10030    2    1    2    0    0  0.00000000000E+00  0.00000000000E+00 -0.79350330431E+03  0.14400966829E+04  0.12017616078E+04 0.  0.
        4    1    3    3  502    0 -0.35881216086E+03  0.13795220178E+03 -0.95016231907E+03  0.10249814741E+04  0.12699999809E+01 0. -1.
       -4    1    3    3    0  502  0.35881216086E+03 -0.13795220178E+03  0.15665901476E+03  0.41511520878E+03  0.12699999809E+01 0.  1.
</event>
<event>
 5   0  0.3725376E-03  0.1199527E+04  0.7818609E-02  0.9113270E-01
        2   -1    0    0  501    0  0.00000000000E+00  0.00000000000E+00  0.44548542002E+03  0.44548542003E+03  0.25500000920E-02 0.  1.
       -2   -1    0    0    0  501  0.00000000000E+00  0.00000000000E+00 -0.80747086272E+03  0.80747086272E+03  0.25500000920E-02 0. -1.
    10030    2    1    2    0    0  0.00000000000E+00  0.00000000000E+00 -0.36198544270E+03  0.12529562828E+04  0.11995274010E+04 0.  0.
        4    1    3    3  502    0 -0.15955701805E+03 -0.55643468538E+03 -0.17040003392E+02  0.57911136729E+03  0.12699999809E+01 0. -1.
       -4    1    3    3    0  502  0.15955701805E+03  0.55643468538E+03 -0.34494543930E+03  0.67384491547E+03  0.12699999809E+01 0.  1.
</event>
<event>
 5   0  0.2078258E-03  0.1202246E+04  0.7818609E-02  0.9110893E-01
        1   -1    0    0  501    0  0.00000000000E+00  0.00000000000E+00  0.35376950775E+03  0.35376950779E+03  0.50400001928E-02 0.  1.
       -1   -1    0    0    0  501  0.00000000000E+00  0.00000000000E+00 -0.10214252878E+04  0.10214252878E+04  0.50400001928E-02 0. -1.
    10030    2    1    2    0    0  0.00000000000E+00  0.00000000000E+00 -0.66765578004E+03  0.13751947956E+04  0.12022464328E+04 0.  0.
        3    1    3    3  502    0 -0.38143560104E+03  0.33633537793E+03 -0.70045864519E+03  0.86559628466E+03  0.10100000352E+00 0. -1.
       -3    1    3    3    0  502  0.38143560104E+03 -0.33633537793E+03  0.32802865151E+02  0.50959851094E+03  0.10100000352E+00 0.  1.
</event>
<event>
 5   0  0.3751091E-03  0.1200660E+04  0.7818609E-02  0.9112279E-01
        2   -1    0    0  501    0  0.00000000000E+00  0.00000000000E+00  0.13217978354E+04  0.13217978354E+04  0.25500000920E-02 0. -1.
       -2   -1    0    0    0  501  0.00000000000E+00  0.00000000000E+00 -0.27265583871E+03  0.27265583872E+03  0.25500000920E-02 0.  1.
    10030    2    1    2    0    0  0.00000000000E+00  0.00000000000E+00  0.10491419967E+04  0.15944536741E+04  0.12006596477E+04 0.  0.
        5    1    3    3  502    0  0.26313840780E+03 -0.90042642796E+02  0.12310574853E+04  0.12620911700E+04  0.46999998093E+01 0. -1.
       -5    1    3    3    0  502 -0.26313840780E+03  0.90042642796E+02 -0.18191548860E+03  0.33236250416E+03  0.46999998093E+01 0.  1.
</event>
<event>
 5   0  0.2078258E-03  0.1199616E+04  0.7818609E-02  0.9113192E-01
       -1   -1    0    0    0  501  0.00000000000E+00  0.00000000000E+00  0.30870450270E+03  0.30870450274E+03  0.50400001928E-02 0. -1.
        1   -1    0    0  501    0  0.00000000000E+00  0.00000000000E+00 -0.11654181081E+04  0.11654181081E+04  0.50400001928E-02 0.  1.
    10030    2    1    2    0    0  0.00000000000E+00  0.00000000000E+00 -0.85671360536E+03  0.14741226108E+04  0.11996163012E+04 0.  0.
        3    1    3    3  502    0  0.25131738659E+03  0.54161976570E+03 -0.35822301035E+03  0.69630175553E+03  0.10100000352E+00 0.  1.
       -3    1    3    3    0  502 -0.25131738659E+03 -0.54161976570E+03 -0.49849059501E+03  0.77782085529E+03  0.10100000352E+00 0. -1.
</event>
<event>
 5   0  0.3626049E-03  0.1181455E+04  0.7818609E-02  0.9129246E-01
       -2   -1    0    0    0  501  0.00000000000E+00  0.00000000000E+00  0.36299333162E+03  0.36299333162E+03  0.25500000920E-02 0.  1.
        2   -1    0    0  501    0  0.00000000000E+00  0.00000000000E+00 -0.96133650199E+03  0.96133650199E+03  0.25500000920E-02 0. -1.
    10030    2    1    2    0    0  0.00000000000E+00  0.00000000000E+00 -0.59834317037E+03  0.13243298336E+04  0.11814545944E+04 0.  0.
        1    1    3    3  502    0  0.28502668572E+03 -0.18553680395E+03 -0.84058809046E+03  0.90678137113E+03  0.50400001928E-02 0. -1.
       -1    1    3    3    0  502 -0.28502668572E+03  0.18553680395E+03  0.24224492008E+03  0.41754846248E+03  0.50400001928E-02 0.  1.
</event>
<event>
 5   0  0.2078258E-03  0.1184528E+04  0.7818609E-02  0.9126508E-01
       -1   -1    0    0    0  501  0.00000000000E+00  0.00000000000E+00  0.46031443065E+03  0.46031443068E+03  0.50400001928E-02 0. -1.
        1   -1    0    0  501    0  0.00000000000E+00  0.00000000000E+00 -0.76203652245E+03  0.76203652246E+03  0.50400001928E-02 0.  1.
    10030    2    1    2    0    0  0.00000000000E+00  0.00000000000E+00 -0.30172209180E+03  0.12223509531E+04  0.11845275987E+04 0.  0.
        3    1    3    3  502    0  0.40168795876E+03  0.29786899566E+03  0.17659990729E+03  0.53034582325E+03  0.10100000352E+00 0. -1.
       -3    1    3    3    0  502 -0.40168795876E+03 -0.29786899566E+03 -0.47832199909E+03  0.69200512989E+03  0.10100000352E+00 0.  1.
</event>
<event>
 5   0  0.3751091E-03  0.1212919E+04  0.7818609E-02  0.9101623E-01
        2   -1    0    0  501    0  0.00000000000E+00  0.00000000000E+00  0.20114056483E+04  0.20114056483E+04  0.25500000920E-02 0. -1.
       -2   -1    0    0    0  501  0.00000000000E+00  0.00000000000E+00 -0.18285388695E+03  0.18285388697E+03  0.25500000920E-02 0.  1.
    10030    2    1    2    0    0  0.00000000000E+00  0.00000000000E+00  0.18285517614E+04  0.21942595353E+04  0.12129193560E+04 0.  0.
        5    1    3    3  502    0 -0.66294324700E+02  0.60253432601E+03  0.94707450474E+03  0.11244619865E+04  0.46999998093E+01 0.  1.
       -5    1    3    3    0  502  0.66294324700E+02 -0.60253432601E+03  0.88147725666E+03  0.10697975488E+04  0.46999998093E+01 0. -1.
</event>
<event>
 5   0  0.3650180E-03  0.1199972E+04  0.7818609E-02  0.9112881E-01
        2   -1    0    0  501    0  0.00000000000E+00  0.00000000000E+00  0.15772691753E+04  0.15772691753E+04  0.25500000920E-02 0.  1.
       -2   -1    0    0    0  501  0.00000000000E+00  0.00000000000E+00 -0.22823193050E+03  0.22823193052E+03  0.25500000920E-02 0. -1.
    10030    2    1    2    0    0  0.00000000000E+00  0.00000000000E+00  0.13490372448E+04  0.18055011058E+04  0.11999719810E+04 0.  0.
        3    1    3    3  502    0  0.33009281917E+03  0.33449387508E+03  0.11328196337E+03  0.48340483568E+03  0.10100000352E+00 0. -1.
       -3    1    3    3    0  502 -0.33009281917E+03 -0.33449387508E+03  0.12357552814E+04  0.13220962701E+04  0.10100000352E+00 0.  1.
</event>
<event>
 5   0  0.3650180E-03  0.1176793E+04  0.7818609E-02  0.9133416E-01
        2   -1    0    0  501    0  0.00000000000E+00  0.00000000000E+00  0.58429526741E+03  0.58429526741E+03  0.25500000920E-02 0.  1.
       -2   -1    0    0    0  501  0.00000000000E+00  0.00000000000E+00 -0.59252610932E+03  0.59252610932E+03  0.25500000920E-02 0. -1.
    10030    2    1    2    0    0  0.00000000000E+00  0.00000000000E+00 -0.82308419095E+01  0.11768213767E+04  0.11767925926E+04 0.  0.
        3    1    3    3  502    0 -0.10505128269E+03 -0.25284722910E+03  0.51670697420E+03  0.58476798873E+03  0.10100000352E+00 0.  1.
       -3    1    3    3    0  502  0.10505128269E+03  0.25284722910E+03 -0.52493781611E+03  0.59205338800E+03  0.10100000352E+00 0. -1.
</event>
<event>
 5   0  0.2047109E-03  0.9624776E+03  0.7818609E-02  0.9350684E-01
       -1   -1    0    0    0  501  0.00000000000E+00  0.00000000000E+00  0.35060966498E+03  0.35060966502E+03  0.50400001928E-02 0. -1.
        1   -1    0    0  501    0  0.00000000000E+00  0.00000000000E+00 -0.66053741228E+03  0.66053741230E+03  0.50400001928E-02 0.  1.
    10030    2    1    2    0    0  0.00000000000E+00  0.00000000000E+00 -0.30992774730E+03  0.10111470773E+04  0.96247763789E+03 0.  0.
        1    1    3    3  502    0 -0.34635450584E+03  0.10858398165E+03  0.17698677725E+03  0.40382699777E+03  0.50400001928E-02 0. -1.
       -1    1    3    3    0  502  0.34635450584E+03 -0.10858398165E+03 -0.48691452454E+03  0.60732007955E+03  0.50400001928E-02 0.  1.
</event>
<event>
 5   0  0.2134992E-03  0.1210027E+04  0.7818609E-02  0.9104125E-01
       -1   -1    0    0    0  501  0.00000000000E+00  0.00000000000E+00  0.35465360714E+03  0.35465360717E+03  0.50400001928E-02 0. -1.
        1   -1    0    0  501    0  0.00000000000E+00  0.00000000000E+00 -0.10321088653E+04  0.10321088653E+04  0.50400001928E-02 0.  1.
    10030    2    1    2    0    0  0.00000000000E+00  0.00000000000E+00 -0.67745525814E+03  0.13867624725E+04  0.12100266643E+04 0.  0.
        4    1    3    3  502    0 -0.19568986330E+03 -0.18511183502E+03 -0.95959003443E+03  0.99668227693E+03  0.12699999809E+01 0.  1.
       -4    1    3    3    0  502  0.19568986330E+03  0.18511183502E+03  0.28213477628E+03  0.39008019554E+03  0.12699999809E+01 0. -1.
</event>
<event>
 5   0  0.2047109E-03  0.1104698E+04  0.7818609E-02  0.9200625E-01
        1   -1    0    0  501    0  0.00000000000E+00  0.00000000000E+00  0.66816990925E+03  0.66816990926E+03  0.50400001928E-02 0.  1.
       -1   -1    0    0    0  501  0.00000000000E+00  0.00000000000E+00 -0.45660437980E+03  0.45660437983E+03  0.50400001928E-02 0. -1.
    10030    2    1    2    0    0  0.00000000000E+00  0.00000000000E+00  0.21156552944E+03  0.11247742891E+04  0.11046977995E+04 0.  0.
        1    1    3    3  502    0  0.11579172486E+03  0.29643408381E+03  0.56543878205E+03  0.64884659656E+03  0.50400001928E-02 0.  1.
       -1    1    3    3    0  502 -0.11579172486E+03 -0.29643408381E+03 -0.35387325261E+03  0.47592769254E+03  0.50400001928E-02 0. -1.
</event>
<event>
 5   0  0.1397500E-03  0.1198900E+04  0.7818609E-02  0.9113820E-01
       -3   -1    0    0    0  501  0.00000000000E+00  0.00000000000E+00  0.19904918530E+04  0.19904918556E+04  0.10100000352E+00 0. -1.
        3   -1    0    0  501    0  0.00000000000E+00  0.00000000000E+00 -0.18052835448E+03  0.18052838273E+03  0.10100000352E+00 0.  1.
    10030    2    1    2    0    0  0.00000000000E+00  0.00000000000E+00  0.18099634985E+04  0.21710202383E+04  0.11988999162E+04 0.  0.
        2    1    3    3  502    0  0.56963868802E+02 -0.52884550463E+03  0.14055671892E+04  0.15028444941E+04  0.25500000920E-02 0. -1.
       -2    1    3    3    0  502 -0.56963868802E+02  0.52884550463E+03  0.40439630931E+03  0.66817574417E+03  0.25500000920E-02 0.  1.
</event>
<event>
 5   0  0.2078258E-03  0.1206398E+04  0.7818609E-02  0.9107275E-01
       -1   -1    0    0    0  501  0.00000000000E+00  0.00000000000E+00  0.24127632382E+03  0.24127632387E+03  0.50400001928E-02 0. -1.
        1   -1    0    0  501    0  0.00000000000E+00  0.00000000000E+00 -0.15080167648E+04  0.15080167648E+04  0.50400001928E-02 0.  1.
    10030    2    1    2    0    0  0.00000000000E+00  0.00000000000E+00 -0.12667404410E+04  0.17492930887E+04  0.12063975155E+04 0.  0.
        3    1    3    3  502    0  0.45567085481E+03 -0.86230585136E+02 -0.74076201308E+02  0.46963702531E+03  0.10100000352E+00 0. -1.
       -3    1    3    3    0  502 -0.45567085481E+03  0.86230585136E+02 -0.11926642397E+04  0.12796560634E+04  0.10100000352E+00 0.  1.
</event>
<event>
 5   0  0.2134992E-03  0.1194927E+04  0.7818609E-02  0.9117309E-01
        1   -1    0    0  501    0  0.00000000000E+00  0.00000000000E+00  0.11409303817E+04  0.11409303817E+04  0.50400001928E-02 0.  1.
       -1   -1    0    0    0  501  0.00000000000E+00  0.00000000000E+00 -0.31286954431E+03  0.31286954435E+03  0.50400001928E-02 0. -1.
    10030    2    1    2    0    0  0.00000000000E+00  0.00000000000E+00  0.82806083738E+03  0.14537999261E+04  0.11949265561E+04 0.  0.
        4    1    3    3  502    0 -0.26526488034E+03 -0.46247671432E+03  0.85963638002E+02  0.54003845047E+03  0.12699999809E+01 0. -1.
       -4    1    3    3    0  502  0.26526488034E+03  0.46247671432E+03  0.74209719938E+03  0.91376147558E+03  0.12699999809E+01 0.  1.
</event>
<event>
 5   0  0.2096270E-03  0.1131638E+04  0.7818609E-02  0.9174892E-01
       -1   -1    0    0    0  501  0.00000000000E+00  0.00000000000E+00  0.49465120477E+03  0.49465120480E+03  0.50400001928E-02 0.  1.
        1   -1    0    0  501    0  0.00000000000E+00  0.00000000000E+00 -0.64722614678E+03  0.64722614680E+03  0.50400001928E-02 0. -1.
    10030    2    1    2    0    0  0.00000000000E+00  0.00000000000E+00 -0.15257494201E+03  0.11418773516E+04  0.11316380928E+04 0.  0.
        2    1    3    3  502    0  0.97533945319E+02 -0.51491707342E+02  0.48369965422E+03  0.49611452500E+03  0.25500000920E-02 0.  1.
       -2    1    3    3    0  502 -0.97533945319E+02  0.51491707342E+02 -0.63627459623E+03  0.64576282661E+03  0.25500000920E-02 0. -1.
</event>
<event>
 5   0  0.3706035E-03  0.1199890E+04  0.7818609E-02  0.9112953E-01
        2   -1    0    0  501    0  0.00000000000E+00  0.00000000000E+00  0.65769941275E+03  0.65769941276E+03  0.25500000920E-02 0.  1.
       -2   -1    0    0    0  501  0.00000000000E+00  0.00000000000E+00 -0.54726234365E+03  0.54726234365E+03  0.25500000920E-02 0. -1.
    10030    2    1    2    0    0  0.00000000000E+00  0.00000000000E+00  0.11043706911E+03  0.12049617564E+04  0.11998901984E+04 0.  0.
        2    1    3    3  502    0 -0.27544349417E+03 -0.80473558793E+02  0.58431260147E+03  0.65097336995E+03  0.25500000920E-02 0.  1.
       -2    1    3    3    0  502  0.27544349417E+03  0.80473558793E+02 -0.47387553236E+03  0.55398838645E+03  0.25500000920E-02 0. -1.
</event>
<event>
 5   0  0.2025294E-03  0.1213342E+04  0.7818609E-02  0.9101258E-01
        1   -1    0    0  501    0  0.00000000000E+00  0.00000000000E+00  0.12195103898E+04  0.12195103898E+04  0.50400001928E-02 0.  1.
       -1   -1    0    0    0  501  0.00000000000E+00  0.00000000000E+00 -0.30180122348E+03  0.30180122352E+03  0.50400001928E-02 0. -1.
    10030    2    1    2    0    0  0.00000000000E+00  0.00000000000E+00  0.91770916632E+03  0.15213116133E+04  0.12133420420E+04 0.  0.
        5    1    3    3  502    0  0.16066467984E+03  0.54528506480E+03  0.19323808201E+03  0.60042650473E+03  0.46999998093E+01 0.  1.
       -5    1    3    3    0  502 -0.16066467984E+03 -0.54528506480E+03  0.72447108431E+03  0.92088510860E+03  0.46999998093E+01 0. -1.
</event>
<event>
 5   0  0.2078258E-03  0.1158876E+04  0.7818609E-02  0.9149634E-01
       -1   -1    0    0    0  501  0.00000000000E+00  0.00000000000E+00  0.29116214289E+03  0.29116214293E+03  0.50400001928E-02 0.  1.
        1   -1    0    0  501    0  0.00000000000E+00  0.00000000000E+00 -0.11531320264E+04  0.11531320264E+04  0.50400001928E-02 0. -1.
    10030    2    1    2    0    0  0.00000000000E+00  0.00000000000E+00 -0.86196988351E+03  0.14442941693E+04  0.11588759932E+04 0.  0.
        3    1    3    3  502    0  0.24615270270E+03 -0.39082488602E+03  0.50614585570E+01  0.46191002711E+03  0.10100000352E+00 0.  1.
       -3    1    3    3    0  502 -0.24615270270E+03  0.39082488602E+03 -0.86703134207E+03  0.98238414223E+03  0.10100000352E+00 0. -1.
</event>
<event>
 5   0  0.3706035E-03  0.1144239E+04  0.7818609E-02  0.9163115E-01
        2   -1    0    0  501    0  0.00000000000E+00  0.00000000000E+00  0.73901184114E+03  0.73901184114E+03  0.25500000920E-02 0. -1.
       -2   -1    0    0    0  501  0.00000000000E+00  0.00000000000E+00 -0.44291640808E+03  0.44291640808E+03  0.25500000920E-02 0.  1.
    10030    2    1    2    0    0  0.00000000000E+00  0.00000000000E+00  0.29609543306E+03  0.11819282492E+04  0.11442385594E+04 0.  0.
        2    1    3    3  502    0 -0.38462277329E+03  0.22195520446E+03  0.52065330504E+03  0.68430888828E+03  0.25500000920E-02 0. -1.
       -2    1    3    3    0  502  0.38462277329E+03 -0.22195520446E+03 -0.22455787198E+03  0.49761936095E+03  0.25500000920E-02 0.  1.
</event>
<event>
 5   0  0.2096270E-03  0.1209113E+04  0.7818609E-02  0.9104917E-01
        1   -1    0    0  501    0  0.00000000000E+00  0.00000000000E+00  0.13831878715E+04  0.13831878715E+04  0.50400001928E-02 0.  1.
       -1   -1    0    0    0  501  0.00000000000E+00  0.00000000000E+00 -0.26423620524E+03  0.26423620529E+03  0.50400001928E-02 0. -1.
    10030    2    1    2    0    0  0.00000000000E+00  0.00000000000E+00  0.11189516663E+04  0.16474240768E+04  0.12091125909E+04 0.  0.
        2    1    3    3  502    0 -0.22645133468E+03  0.48518726471E+03  0.17699850030E+03  0.56392850427E+03  0.25500000920E-02 0. -1.
       -2    1    3    3    0  502  0.22645133468E+03 -0.48518726471E+03  0.94195316598E+03  0.10834955725E+04  0.25500000920E-02 0.  1.
</event>
<event>
 5   0  0.2025294E-03  0.1001395E+04  0.7818609E-02  0.9307016E-01
        1   -1    0    0  501    0  0.00000000000E+00  0.00000000000E+00  0.67969066007E+03  0.67969066009E+03  0.50400001928E-02 0. -1.
       -1   -1    0    0    0  501  0.00000000000E+00  0.00000000000E+00 -0.36884133135E+03  0.36884133138E+03  0.50400001928E-02 0.  1.
    10030    2    1    2    0    0  0.00000000000E+00  0.00000000000E+00  0.31084932873E+03  0.10485319915E+04  0.10013950429E+04 0.  0.
        5    1    3    3  502    0  0.24322006103E+03  0.39550986352E+02  0.61177917145E+03  0.65955752079E+03  0.46999998093E+01 0. -1.
       -5    1    3    3    0  502 -0.24322006103E+03 -0.39550986352E+02 -0.30092984272E+03  0.38897447069E+03  0.46999998093E+01 0.  1.
</event>
<event>
 5   0  0.3626049E-03  0.1223423E+04  0.7818609E-02  0.9092598E-01
        2   -1    0    0  501    0  0.00000000000E+00  0.00000000000E+00  0.13662625563E+04  0.13662625563E+04  0.25500000920E-02 0.  1.
       -2   -1    0    0    0  501  0.00000000000E+00  0.00000000000E+00 -0.27387917745E+03  0.27387917746E+03  0.25500000920E-02 0. -1.
    10030    2    1    2    0    0  0.00000000000E+00  0.00000000000E+00  0.10923833788E+04  0.16401417338E+04  0.12234228461E+04 0.  0.
        1    1    3    3  502    0  0.45925785369E+03  0.19381476477E+03  0.10215136185E+04  0.11366494675E+04  0.50400001928E-02 0.  1.
       -1    1    3    3    0  502 -0.45925785369E+03 -0.19381476477E+03  0.70869760380E+02  0.50349226626E+03  0.50400001928E-02 0. -1.
</event>
<event>
 5   0  0.3706035E-03  0.1198047E+04  0.7818609E-02  0.9114568E-01
        2   -1    0    0  501    0  0.00000000000E+00  0.00000000000E+00  0.80213074161E+03  0.80213074162E+03  0.25500000920E-02 0.  1.
       -2   -1    0    0    0  501  0.00000000000E+00  0.00000000000E+00 -0.44734501149E+03  0.44734501150E+03  0.25500000920E-02 0. -1.
    10030    2    1    2    0    0  0.00000000000E+00  0.00000000000E+00  0.35478573012E+03  0.12494757531E+04  0.11980470539E+04 0.  0.
        2    1    3    3  502    0 -0.41609445935E+03  0.24984229668E+02 -0.27127235999E+03  0.49734043083E+03  0.25500000920E-02 0. -1.
       -2    1    3    3    0  502  0.41609445935E+03 -0.24984229668E+02  0.62605809011E+03  0.75213532229E+03  0.25500000920E-02 0.  1.
</event>
<event>
 5   0  0.3725376E-03  0.1211803E+04  0.7818609E-02  0.9102587E-01
        2   -1    0    0  501    0  0.00000000000E+00  0.00000000000E+00  0.52183703716E+03  0.52183703717E+03  0.25500000920E-02 0. -1.
       -2   -1    0    0    0  501  0.00000000000E+00  0.00000000000E+00 -0.70350872259E+03  0.70350872260E+03  0.25500000920E-02 0.  1.
    10030    2    1    2    0    0  0.00000000000E+00  0.00000000000E+00 -0.18167168543E+03  0.12253457598E+04  0.12118034617E+04 0.  0.
        4    1    3    3  502    0 -0.49221947438E+03 -0.19096776934E+03  0.20975138501E+03  0.56810734575E+03  0.12699999809E+01 0. -1.
       -4    1    3    3    0  502  0.49221947438E+03  0.19096776934E+03 -0.39142307044E+03  0.65723841401E+03  0.12699999809E+01 0.  1.
</event>
<event>
 5   0  0.3751091E-03  0.1202032E+04  0.7818609E-02  0.9111080E-01
       -2   -1    0    0    0  501  0.00000000000E+00  0.00000000000E+00  0.13135852205E+03  0.13135852208E+03  0.25500000920E-02 0. -1.
        2   -1    0    0  501    0  0.00000000000E+00  0.00000000000E+00 -0.27498806626E+04  0.27498806626E+04  0.25500000920E-02 0.  1.
    10030    2    1    2    0    0  0.00000000000E+00  0.00000000000E+00 -0.26185221405E+04  0.28812391846E+04  0.12020320457E+04 0.  0.
        5    1    3    3  502    0  0.26420786566E+03 -0.47088634252E+03 -0.67663061604E+03  0.86567362464E+03  0.46999998093E+01 0. -1.
       -5    1    3    3    0  502 -0.26420786566E+03  0.47088634252E+03 -0.19418915245E+04  0.20155655600E+04  0.46999998093E+01 0.  1.
</event>
<event>
 5   0  0.3725376E-03  0.1201827E+04  0.7818609E-02  0.9111259E-01
        2   -1    0    0  501    0  0.00000000000E+00  0.00000000000E+00  0.76738569109E+03  0.76738569110E+03  0.25500000920E-02 0. -1.
       -2   -1    0    0    0  501  0.00000000000E+00  0.00000000000E+00 -0.47055482000E+03  0.47055482001E+03  0.25500000920E-02 0.  1.
    10030    2    1    2    0    0  0.00000000000E+00  0.00000000000E+00  0.29683087109E+03  0.12379405111E+04  0.12018270021E+04 0.  0.
        4    1    3    3  502    0 -0.49598780002E+03 -0.13524184698E+03  0.46889335796E+03  0.69581380338E+03  0.12699999809E+01 0. -1.
       -4    1    3    3    0  502  0.49598780002E+03  0.13524184698E+03 -0.17206248687E+03  0.54212670773E+03  0.12699999809E+01 0.  1.
</event>
<event>
 5   0  0.3626049E-03  0.1135227E+04  0.7818609E-02  0.9171522E-01
       -2   -1    0    0    0  501  0.00000000000E+00  0.00000000000E+00  0.31492373742E+03  0.31492373743E+03  0.25500000920E-02 0. -1.
        2   -1    0    0  501    0  0.00000000000E+00  0.00000000000E+00 -0.10230572064E+04  0.10230572064E+04  0.25500000920E-02 0.  1.
    10030    2    1    2    0    0  0.00000000000E+00  0.00000000000E+00 -0.70813346902E+03  0.13379809439E+04  0.11352268479E+04 0.  0.
        1    1    3    3  502    0 -0.56157372087E+03 -0.54564652683E+02 -0.42712727822E+03  0.70765814990E+03  0.50400001928E-02 0. -1.
       -1    1    3    3    0  502  0.56157372087E+03  0.54564652683E+02 -0.28100619080E+03  0.63032279396E+03  0.50400001928E-02 0.  1.
</event>
<event>
 5   0  0.2096270E-03  0.1217958E+04  0.7818609E-02  0.9097281E-01
       -1   -1    0    0    0  501  0.00000000000E+00  0.00000000000E+00  0.24344075133E+03  0.24344075138E+03  0.50400001928E-02 0. -1.
        1   -1    0    0  501    0  0.00000000000E+00  0.00000000000E+00 -0.15233914939E+04  0.15233914939E+04  0.50400001928E-02 0.  1.
    10030    2    1    2    0    0  0.00000000000E+00  0.00000000000E+00 -0.12799507426E+04  0.17668322453E+04  0.12179582421E+04 0.  0.
        2    1    3    3  502    0 -0.50989637858E+02 -0.57747019226E+03 -0.36942293178E+03  0.68741913608E+03  0.25500000920E-02 0.  1.
       -2    1    3    3    0  502  0.50989637858E+02  0.57747019226E+03 -0.91052781079E+03  0.10794131092E+04  0.25500000920E-02 0. -1.
</event>
<event>
 5   0  0.3706035E-03  0.1086209E+04  0.7818609E-02  0.9218739E-01
        2   -1    0    0  501    0  0.00000000000E+00  0.00000000000E+00  0.77299798975E+03  0.77299798976E+03  0.25500000920E-02 0. -1.
       -2   -1    0    0    0  501  0.00000000000E+00  0.00000000000E+00 -0.38158215997E+03  0.38158215998E+03  0.25500000920E-02 0.  1.
    10030    2    1    2    0    0  0.00000000000E+00  0.00000000000E+00  0.39141582979E+03  0.11545801497E+04  0.10862085299E+04 0.  0.
        2    1    3    3  502    0 -0.37403624414E+03  0.15473423938E+03 -0.18918459684E+03  0.44680712668E+03  0.25500000920E-02 0. -1.
       -2    1    3    3    0  502  0.37403624414E+03 -0.15473423938E+03  0.58060042662E+03  0.70777302306E+03  0.25500000920E-02 0.  1.
</event>
<event>
 5   0  0.3650180E-03  0.1161779E+04  0.7818609E-02  0.9146985E-01
        2   -1    0    0  501    0  0.00000000000E+00  0.00000000000E+00  0.14725749227E+04  0.14725749227E+04  0.25500000920E-02 0. -1.
       -2   -1    0    0    0  501  0.00000000000E+00  0.00000000000E+00 -0.22914469503E+03  0.22914469505E+03  0.25500000920E-02 0.  1.
    10030    2    1    2    0    0  0.00000000000E+00  0.00000000000E+00  0.12434302277E+04  0.17017196178E+04  0.11617792072E+04 0.  0.
        3    1    3    3  502    0 -0.50972055206E+00 -0.50713332722E+03  0.20677808656E+03  0.54766929681E+03  0.10100000352E+00 0.  1.
       -3    1    3    3    0  502  0.50972055206E+00  0.50713332722E+03  0.10366521411E+04  0.11540503209E+04  0.10100000352E+00 0. -1.
</event>
<event>
 5   0  0.1397500E-03  0.1184895E+04  0.7818609E-02  0.9126182E-01
       -4   -1    0    0    0  501  0.00000000000E+00  0.00000000000E+00  0.74493005224E+03  0.74493113483E+03  0.12699999809E+01 0.  1.
        4   -1    0    0  501    0  0.00000000000E+00  0.00000000000E+00 -0.47117483364E+03  0.47117654521E+03  0.12699999809E+01 0. -1.
    10030    2    1    2    0    0  0.00000000000E+00  0.00000000000E+00  0.27375521861E+03  0.12161076800E+04  0.11848949193E+04 0.  0.
        4    1    3    3  502    0  0.60498821887E+02 -0.33792088362E+03  0.63244442637E+03  0.71960975284E+03  0.12699999809E+01 0.  1.
       -4    1    3    3    0  502 -0.60498821887E+02  0.33792088362E+03 -0.35868920776E+03  0.49649792719E+03  0.12699999809E+01 0. -1.
</event>
<event>
 5   0  0.3626049E-03  0.1215524E+04  0.7818609E-02  0.9099376E-01
        2   -1    0    0  501    0  0.00000000000E+00  0.00000000000E+00  0.63408108731E+03  0.63408108732E+03  0.25500000920E-02 0.  1.
       -2   -1    0    0    0  501  0.00000000000E+00  0.00000000000E+00 -0.58253528028E+03  0.58253528028E+03  0.25500000920E-02 0. -1.
    10030    2    1    2    0    0  0.00000000000E+00  0.00000000000E+00  0.51545807031E+02  0.12166163676E+04  0.12155239264E+04 0.  0.
        1    1    3    3  502    0 -0.45236596767E+03  0.37017415818E+03  0.19238790803E+03  0.61536735635E+03  0.50400001928E-02 0.  1.
       -1    1    3    3    0  502  0.45236596767E+03 -0.37017415818E+03 -0.14084210100E+03  0.60124901125E+03  0.50400001928E-02 0. -1.
</event>
<event>
 5   0  0.2047109E-03  0.1195876E+04  0.7818609E-02  0.9116474E-01
       -1   -1    0    0    0  501  0.00000000000E+00  0.00000000000E+00  0.37183838898E+03  0.37183838901E+03  0.50400001928E-02 0. -1.
        1   -1    0    0  501    0  0.00000000000E+00  0.00000000000E+00 -0.96151974208E+03  0.96151974209E+03  0.50400001928E-02 0.  1.
    10030    2    1    2    0    0  0.00000000000E+00  0.00000000000E+00 -0.58968135310E+03  0.13333581311E+04  0.11958761673E+04 0.  0.
        1    1    3    3  502    0  0.25027917470E+03 -0.14158138010E+03  0.28968625090E+03  0.40817040126E+03  0.50400001928E-02 0. -1.
       -1    1    3    3    0  502 -0.25027917470E+03  0.14158138010E+03 -0.87936760399E+03  0.92518772985E+03  0.50400001928E-02 0.  1.
</event>
<event>
 5   0  0.3706035E-03  0.1074465E+04  0.7818609E-02  0.9230444E-01
       -2   -1    0    0    0  501  0.00000000000E+00  0.00000000000E+00  0.24652334202E+03  0.24652334203E+03  0.25500000920E-02 0.  1.
        2   -1    0    0  501    0  0.00000000000E+00  0.00000000000E+00 -0.11707558437E+04  0.11707558437E+04  0.25500000920E-02 0. -1.
    10030    2    1    2    0    0  0.00000000000E+00  0.00000000000E+00 -0.92423250165E+03  0.14172791857E+04  0.10744647845E+04 0.  0.
        2    1    3    3  502    0 -0.42767571106E+03 -0.29706753774E+02 -0.88919234919E+03  0.98714337303E+03  0.25500000920E-02 0. -1.
       -2    1    3    3    0  502  0.42767571106E+03  0.29706753774E+02 -0.35040152466E+02  0.43013581267E+03  0.25500000920E-02 0.  1.
</event>
<event>
 5   0  0.2025294E-03  0.1204579E+04  0.7818609E-02  0.9108858E-01
        1   -1    0    0  501    0  0.00000000000E+00  0.00000000000E+00  0.13683293693E+04  0.13683293693E+04  0.50400001928E-02 0.  1.
       -1   -1    0    0    0  501  0.00000000000E+00  0.00000000000E+00 -0.26510635760E+03  0.26510635765E+03  0.50400001928E-02 0. -1.
    10030    2    1    2    0    0  0.00000000000E+00  0.00000000000E+00  0.11032230117E+04  0.16334357269E+04  0.12045792878E+04 0.  0.
        5    1    3    3  502    0  0.44441262980E+03  0.38387431185E+03  0.37034708900E+03  0.69429181844E+03  0.46999998093E+01 0. -1.
       -5    1    3    3    0  502 -0.44441262980E+03 -0.38387431185E+03  0.73287592270E+03  0.93914390851E+03  0.46999998093E+01 0.  1.
</event>
<event>
 5   0  0.3751091E-03  0.1195854E+04  0.7818609E-02  0.9116493E-01
        2   -1    0    0  501    0  0.00000000000E+00  0.00000000000E+00  0.11349035804E+04  0.11349035804E+04  0.25500000920E-02 0. -1.
       -2   -1    0    0    0  501  0.00000000000E+00  0.00000000000E+00 -0.31501948818E+03  0.31501948819E+03  0.25500000920E-02 0.  1.
    10030    2    1    2    0    0  0.00000000000E+00  0.00000000000E+00  0.81988409219E+03  0.14499230686E+04  0.11958540798E+04 0.  0.
        5    1    3    3  502    0  0.19049600435E+03 -0.16323247512E+03  0.10679853233E+04  0.10970634938E+04  0.46999998093E+01 0. -1.
       -5    1    3    3    0  502 -0.19049600435E+03  0.16323247512E+03 -0.24810123114E+03  0.35285957476E+03  0.46999998093E+01 0.  1.
</event>
<event>
 5   0  0.2134992E-03  0.1177837E+04  0.7818609E-02  0.9132480E-01
       -1   -1    0    0    0  501  0.00000000000E+00  0.00000000000E+00  0.33248867298E+04  0.33248867298E+04  0.50400001928E-02 0. -1.
        1   -1    0    0  501    0  0.00000000000E+00  0.00000000000E+00 -0.10431181168E+03  0.10431181180E+03  0.50400001928E-02 0.  1.
    10030    2    1    2    0    0  0.00000000000E+00  0.00000000000E+00  0.32205749181E+04  0.34291985416E+04  0.11778369303E+04 0.  0.
        4    1    3    3  502    0 -0.40244023048E+03 -0.26092502381E+03  0.26052297845E+04  0.26490118629E+04  0.12699999809E+01 0. -1.
       -4    1    3    3    0  502  0.40244023048E+03  0.26092502381E+03  0.61534513365E+03  0.78018667866E+03  0.12699999809E+01 0.  1.
</event>
<event>
 5   0  0.3725376E-03  0.1181747E+04  0.7818609E-02  0.9128985E-01
        2   -1    0    0  501    0  0.00000000000E+00  0.00000000000E+00  0.92870591780E+03  0.92870591780E+03  0.25500000920E-02 0.  1.
       -2   -1    0    0    0  501  0.00000000000E+00  0.00000000000E+00 -0.37593315575E+03  0.37593315575E+03  0.25500000920E-02 0. -1.
    10030    2    1    2    0    0  0.00000000000E+00  0.00000000000E+00  0.55277276206E+03  0.13046390736E+04  0.11817467520E+04 0.  0.
        4    1    3    3  502    0  0.21172466911E+03  0.43715407797E+03  0.64782469832E+03  0.80969715082E+03  0.12699999809E+01 0.  1.
       -4    1    3    3    0  502 -0.21172466911E+03 -0.43715407797E+03 -0.95051936267E+02  0.49494192274E+03  0.12699999809E+01 0. -1.
</event>
<event>
 5   0  0.2047109E-03  0.1151541E+04  0.7818609E-02  0.9156363E-01
        1   -1    0    0  501    0  0.00000000000E+00  0.00000000000E+00  0.11829487243E+04  0.11829487243E+04  0.50400001928E-02 0. -1.
       -1   -1    0    0    0  501  0.00000000000E+00  0.00000000000E+00 -0.28024177916E+03  0.28024177920E+03  0.50400001928E-02 0.  1.
    10030    2    1    2    0    0  0.00000000000E+00  0.00000000000E+00  0.90270694511E+03  0.14631905035E+04  0.11515409766E+04 0.  0.
        1    1    3    3  502    0 -0.27684143912E+03  0.38884483743E+03  0.42235675285E+02  0.47919238548E+03  0.50400001928E-02 0.  1.
       -1    1    3    3    0  502  0.27684143912E+03 -0.38884483743E+03  0.86047126983E+03  0.98399811800E+03  0.50400001928E-02 0. -1.
</event>
<event>
 5   0  0.3626049E-03  0.1163314E+04  0.7818609E-02  0.9145588E-01
       -2   -1    0    0    0  501  0.00000000000E+00  0.00000000000E+00  0.41114387515E+03  0.41114387515E+03  0.25500000920E-02 0.  1.
        2   -1    0    0  501    0  0.00000000000E+00  0.00000000000E+00 -0.82288651465E+03  0.82288651465E+03  0.25500000920E-02 0. -1.
    10030    2    1    2    0    0  0.00000000000E+00  0.00000000000E+00 -0.41174263950E+03  0.12340303898E+04  0.11633138019E+04 0.  0.
        1    1    3    3  502    0 -0.56233405847E+03 -0.12592649489E+03 -0.12202419225E+03  0.58903903007E+03  0.50400001928E-02 0.  1.
       -1    1    3    3    0  502  0.56233405847E+03  0.12592649489E+03 -0.28971844725E+03  0.64499135973E+03  0.50400001928E-02 0. -1.
</event>
<event>
 5   0  0.2134992E-03  0.1219151E+04  0.7818609E-02  0.9096257E-01
       -1   -1    0    0    0  501  0.00000000000E+00  0.00000000000E+00  0.36974421137E+03  0.36974421141E+03  0.50400001928E-02 0.  1.
        1   -1    0    0  501    0  0.00000000000E+00  0.00000000000E+00 -0.10049716552E+04  0.10049716552E+04  0.50400001928E-02 0. -1.
    10030    2    1    2    0    0  0.00000000000E+00  0.00000000000E+00 -0.63522744386E+03  0.13747158667E+04  0.12191512657E+04 0.  0.
        4    1    3    3  502    0 -0.45116616137E+02  0.91131382530E+02 -0.99533872686E+03  0.10005204806E+04  0.12699999809E+01 0. -1.
       -4    1    3    3    0  502  0.45116616137E+02 -0.91131382530E+02  0.36011128300E+03  0.37419538610E+03  0.12699999809E+01 0.  1.
</event>
<event>
 5   0  0.1397500E-03  0.1183531E+04  0.7818609E-02  0.9127395E-01
        3   -1    0    0  501    0  0.00000000000E+00  0.00000000000E+00  0.40397959232E+03  0.40397960495E+03  0.10100000352E+00 0. -1.
       -3   -1    0    0    0  501  0.00000000000E+00  0.00000000000E+00 -0.86684140029E+03  0.86684140618E+03  0.10100000352E+00 0.  1.
    10030    2    1    2    0    0  0.00000000000E+00  0.00000000000E+00 -0.46286180797E+03  0.12708210111E+04  0.11835307301E+04 0.  0.
        3    1    3    3  502    0  0.34549168276E+03 -0.30696919068E+03 -0.62827225892E+03  0.77994911912E+03  0.10100000352E+00 0.  1.
       -3    1    3    3    0  502 -0.34549168276E+03  0.30696919068E+03  0.16541045095E+03  0.49087189201E+03  0.10100000352E+00 0. -1.
</event>
<event>
 5   0  0.3650180E-03  0.1211820E+04  0.7818609E-02  0.9102573E-01
       -2   -1    0    0    0  501  0.00000000000E+00  0.00000000000E+00  0.11506771952E+04  0.11506771952E+04  0.25500000920E-02 0. -1.
        2   -1    0    0  501    0  0.00000000000E+00  0.00000000000E+00 -0.31905273884E+03  0.31905273885E+03  0.25500000920E-02 0.  1.
    10030    2    1    2    0    0  0.00000000000E+00  0.00000000000E+00  0.83162445632E+03  0.14697299340E+04  0.12118196411E+04 0.  0.
        3    1    3    3  502    0  0.16918402581E+03 -0.27707750135E+03  0.10362919167E+04  0.10859540152E+04  0.10100000352E+00 0. -1.
       -3    1    3    3    0  502 -0.16918402581E+03  0.27707750135E+03 -0.20466746035E+03  0.38377591883E+03  0.10100000352E+00 0.  1.
</event>
<event>
 5   0  0.2078258E-03  0.1084390E+04  0.7818609E-02  0.9220541E-01
       -1   -1    0    0    0  501  0.00000000000E+00  0.00000000000E+00  0.18870198514E+03  0.18870198520E+03  0.50400001928E-02 0.  1.
        1   -1    0    0  501    0  0.00000000000E+00  0.00000000000E+00 -0.15578822911E+04  0.15578822911E+04  0.50400001928E-02 0. -1.
    10030    2    1    2    0    0  0.00000000000E+00  0.00000000000E+00 -0.13691803060E+04  0.17465842763E+04  0.10843901162E+04 0.  0.
        3    1    3    3  502    0 -0.45706689664E+03  0.26840731374E+03 -0.50078537631E+03  0.72920411230E+03  0.10100000352E+00 0.  1.
       -3    1    3    3    0  502  0.45706689664E+03 -0.26840731374E+03 -0.86839492969E+03  0.10173801640E+04  0.10100000352E+00 0. -1.
</event>
<event>
 5   0  0.3626049E-03  0.1207595E+04  0.7818609E-02  0.9106235E-01
       -2   -1    0    0    0  501  0.00000000000E+00  0.00000000000E+00  0.74897195899E+03  0.74897195899E+03  0.25500000920E-02 0.  1.
        2   -1    0    0  501    0  0.00000000000E+00  0.00000000000E+00 -0.48676237251E+03  0.48676237252E+03  0.25500000920E-02 0. -1.
    10030    2    1    2    0    0  0.00000000000E+00  0.00000000000E+00  0.26220958648E+03  0.12357343315E+04  0.12075949117E+04 0.  0.
        1    1    3    3  502    0  0.24823473112E+03 -0.35276792130E+03 -0.30123962615E+03  0.52612831175E+03  0.50400001928E-02 0. -1.
       -1    1    3    3    0  502 -0.24823473112E+03  0.35276792130E+03  0.56344921263E+03  0.70960601976E+03  0.50400001928E-02 0.  1.
</event>
<event>
 5   0  0.2134992E-03  0.1211100E+04  0.7818609E-02  0.9103196E-01
       -1   -1    0    0    0  501  0.00000000000E+00  0.00000000000E+00  0.24053429403E+03  0.24053429409E+03  0.50400001928E-02 0. -1.
        1   -1    0    0  501    0  0.00000000000E+00  0.00000000000E+00 -0.15244836356E+04  0.15244836356E+04  0.50400001928E-02 0.  1.
    10030    2    1    2    0    0  0.00000000000E+00  0.00000000000E+00 -0.12839493415E+04  0.17650179297E+04  0.12110996575E+04 0.  0.
        4    1    3    3  502    0 -0.16608466919E+03  0.53933073820E+03 -0.32192649737E+03  0.64969226955E+03  0.12699999809E+01 0. -1.
       -4    1    3    3    0  502  0.16608466919E+03 -0.53933073820E+03 -0.96202284416E+03  0.11153256601E+04  0.12699999809E+01 0.  1.
</event>
<event>
 5   0  0.3650180E-03  0.1162990E+04  0.7818609E-02  0.9145882E-01
       -2   -1    0    0    0  501  0.00000000000E+00  0.00000000000E+00  0.26870935494E+03  0.26870935495E+03  0.25500000920E-02 0.  1.
        2   -1    0    0  501    0  0.00000000000E+00  0.00000000000E+00 -0.12583734468E+04  0.12583734468E+04  0.25500000920E-02 0. -1.
    10030    2    1    2    0    0  0.00000000000E+00  0.00000000000E+00 -0.98966409188E+03  0.15270828018E+04  0.11629904852E+04 0.  0.
        3    1    3    3  502    0  0.42807998296E+03  0.39268588579E+03 -0.52912368546E+03  0.78576495304E+03  0.10100000352E+00 0.  1.
       -3    1    3    3    0  502 -0.42807998296E+03 -0.39268588579E+03 -0.46054040642E+03  0.74131784874E+03  0.10100000352E+00 0. -1.
</event>
<event>
 5   0  0.2134992E-03  0.1229730E+04  0.7818609E-02  0.9087225E-01
        1   -1    0    0  501    0  0.00000000000E+00  0.00000000000E+00  0.83031480492E+03  0.83031480493E+03  0.50400001928E-02 0. -1.
       -1   -1    0    0    0  501  0.00000000000E+00  0.00000000000E+00 -0.45532012298E+03  0.45532012300E+03  0.50400001928E-02 0.  1.
    10030    2    1    2    0    0  0.00000000000E+00  0.00000000000E+00  0.37499468194E+03  0.12856349279E+04  0.12297301153E+04 0.  0.
        4    1    3    3  502    0 -0.14409115268E+02 -0.51418535945E+03  0.53965359510E+03  0.74553458812E+03  0.12699999809E+01 0. -1.
       -4    1    3    3    0  502  0.14409115268E+02  0.51418535945E+03 -0.16465891316E+03  0.54010033981E+03  0.12699999809E+01 0.  1.
</event>
<event>
 5   0  0.1397500E-03  0.1138859E+04  0.7818609E-02  0.9168123E-01
        3   -1    0    0  501    0  0.00000000000E+00  0.00000000000E+00  0.30706377861E+03  0.30706379522E+03  0.10100000352E+00 0. -1.
       -3   -1    0    0    0  501  0.00000000000E+00  0.00000000000E+00 -0.10559702086E+04  0.10559702134E+04  0.10100000352E+00 0.  1.
    10030    2    1    2    0    0  0.00000000000E+00  0.00000000000E+00 -0.74890642996E+03  0.13630340086E+04  0.11388594592E+04 0.  0.
        2    1    3    3  502    0  0.56872029430E+03  0.27487782250E+02 -0.38307260209E+03  0.68625284685E+03  0.25500000920E-02 0.  1.
       -2    1    3    3    0  502 -0.56872029430E+03 -0.27487782250E+02 -0.36583382787E+03  0.67678116178E+03  0.25500000920E-02 0. -1.
</event>
<event>
 5   0  0.2134992E-03  0.1207366E+04  0.7818609E-02  0.9106433E-01
       -1   -1    0    0    0  501  0.00000000000E+00  0.00000000000E+00  0.53893124214E+03  0.53893124216E+03  0.50400001928E-02 0.  1.
        1   -1    0    0  501    0  0.00000000000E+00  0.00000000000E+00 -0.67621508327E+03  0.67621508329E+03  0.50400001928E-02 0. -1.
    10030    2    1    2    0    0  0.00000000000E+00  0.00000000000E+00 -0.13728384113E+03  0.12151463255E+04  0.12073664478E+04 0.  0.
        4    1    3    3  502    0  0.43318177136E+03  0.12756249757E+03 -0.47186448753E+03  0.65312812320E+03  0.12699999809E+01 0. -1.
       -4    1    3    3    0  502 -0.43318177136E+03 -0.12756249757E+03  0.33458064639E+03  0.56201820225E+03  0.12699999809E+01 0.  1.
</event>
<event>
 5   0  0.2025294E-03  0.9013988E+03  0.7818609E-02  0.9423835E-01
        1   -1    0    0  501    0  0.00000000000E+00  0.00000000000E+00  0.41467082156E+03  0.41467082159E+03  0.50400001928E-02 0.  1.
       -1   -1    0    0    0  501  0.00000000000E+00  0.00000000000E+00 -0.48985831206E+03  0.48985831208E+03  0.50400001928E-02 0. -1.
    10030    2    1    2    0    0  0.00000000000E+00  0.00000000000E+00 -0.75187490497E+02  0.90452913367E+03  0.90139879905E+03 0.  0.
        5    1    3    3  502    0  0.35500983243E+03  0.70184007311E+02  0.23194673700E+03  0.42985945937E+03  0.46999998093E+01 0.  1.
       -5    1    3    3    0  502 -0.35500983243E+03 -0.70184007311E+02 -0.30713422750E+03  0.47466967430E+03  0.46999998093E+01 0. -1.
</event>
<event>
 5   0  0.3706035E-03  0.1129815E+04  0.7818609E-02  0.9176610E-01
       -2   -1    0    0    0  501  0.00000000000E+00  0.00000000000E+00  0.64153606879E+03  0.64153606880E+03  0.25500000920E-02 0. -1.
        2   -1    0    0  501    0  0.00000000000E+00  0.00000000000E+00 -0.49743199158E+03  0.49743199159E+03  0.25500000920E-02 0.  1.
    10030    2    1    2    0    0  0.00000000000E+00  0.00000000000E+00  0.14410407721E+03  0.11389680604E+04  0.11298151431E+04 0.  0.
        2    1    3    3  502    0 -0.90277320119E+02 -0.16798671322E+02 -0.48985782494E+03  0.49839028738E+03  0.25500000920E-02 0.  1.
       -2    1    3    3    0  502  0.90277320119E+02  0.16798671322E+02  0.63396190215E+03  0.64057777301E+03  0.25500000920E-02 0. -1.
</event>
<event>
 5   0  0.3725376E-03  0.1206868E+04  0.7818609E-02  0.9106866E-01
        2   -1    0    0  501    0  0.00000000000E+00  0.00000000000E+00  0.70825701519E+03  0.70825701520E+03  0.25500000920E-02 0. -1.
       -2   -1    0    0    0  501  0.00000000000E+00  0.00000000000E+00 -0.51412468635E+03  0.51412468635E+03  0.25500000920E-02 0.  1.
    10030    2    1    2    0    0  0.00000000000E+00  0.00000000000E+00  0.19413232885E+03  0.12223817016E+04  0.12068677074E+04 0.  0.
        4    1    3    3  502    0 -0.49537168803E+03  0.34123390031E+03  0.14561053878E+03  0.61890041681E+03  0.12699999809E+01 0. -1.
       -4    1    3    3    0  502  0.49537168803E+03 -0.34123390031E+03  0.48521790072E+02  0.60348128474E+03  0.12699999809E+01 0.  1.
</event>
<event>
 5   0  0.3751091E-03  0.1206725E+04  0.7818609E-02  0.9106991E-01
        2   -1    0    0  501    0  0.00000000000E+00  0.00000000000E+00  0.10763120544E+04  0.10763120545E+04  0.25500000920E-02 0. -1.
       -2   -1    0    0    0  501  0.00000000000E+00  0.00000000000E+00 -0.33823478576E+03  0.33823478577E+03  0.25500000920E-02 0.  1.
    10030    2    1    2    0    0  0.00000000000E+00  0.00000000000E+00  0.73807726869E+03  0.14145468402E+04  0.12067247858E+04 0.  0.
        5    1    3    3  502    0 -0.51883099606E+03  0.21752335486E+03  0.62457740224E+03  0.84060753849E+03  0.46999998093E+01 0. -1.
       -5    1    3    3    0  502  0.51883099606E+03 -0.21752335486E+03  0.11349986644E+03  0.57393930172E+03  0.46999998093E+01 0.  1.
</event>
<event>
 5   0  0.1397500E-03  0.1196811E+04  0.7818609E-02  0.9115653E-01
        4   -1    0    0  501    0  0.00000000000E+00  0.00000000000E+00  0.34760569998E+03  0.34760801998E+03  0.12699999809E+01 0. -1.
       -4   -1    0    0    0  501  0.00000000000E+00  0.00000000000E+00 -0.10301520037E+04  0.10301527865E+04  0.12699999809E+01 0.  1.
    10030    2    1    2    0    0  0.00000000000E+00  0.00000000000E+00 -0.68254630370E+03  0.13777608065E+04  0.11968105043E+04 0.  0.
        2    1    3    3  502    0  0.25547094140E+03 -0.39840512509E+03  0.80285145035E+02  0.48003932142E+03  0.25500000920E-02 0. -1.
       -2    1    3    3    0  502 -0.25547094140E+03  0.39840512509E+03 -0.76283144873E+03  0.89772148508E+03  0.25500000920E-02 0.  1.
</event>
<event>
 5   0  0.2134992E-03  0.1195317E+04  0.7818609E-02  0.9116966E-01
        1   -1    0    0  501    0  0.00000000000E+00  0.00000000000E+00  0.41266185295E+03  0.41266185298E+03  0.50400001928E-02 0. -1.
       -1   -1    0    0    0  501  0.00000000000E+00  0.00000000000E+00 -0.86558885896E+03  0.86558885897E+03  0.50400001928E-02 0.  1.
    10030    2    1    2    0    0  0.00000000000E+00  0.00000000000E+00 -0.45292700600E+03  0.12782507120E+04  0.11953166986E+04 0.  0.
        4    1    3    3  502    0  0.27370188641E+03  0.34681949976E+02 -0.79341608617E+03  0.84001563019E+03  0.12699999809E+01 0.  1.
       -4    1    3    3    0  502 -0.27370188641E+03 -0.34681949976E+02  0.34048908016E+03  0.43823508176E+03  0.12699999809E+01 0. -1.
</event>
<event>
 5   0  0.2047109E-03  0.1207078E+04  0.7818609E-02  0.9106683E-01
       -1   -1    0    0    0  501  0.00000000000E+00  0.00000000000E+00  0.28689306621E+03  0.28689306626E+03  0.50400001928E-02 0.  1.
        1   -1    0    0  501    0  0.00000000000E+00  0.00000000000E+00 -0.12696698431E+04  0.12696698431E+04  0.50400001928E-02 0. -1.
    10030    2    1    2    0    0  0.00000000000E+00  0.00000000000E+00 -0.98277677685E+03  0.15565629093E+04  0.12070782483E+04 0.  0.
        1    1    3    3  502    0 -0.83263624634E+01  0.28430648997E+03  0.19504831882E+03  0.34488165398E+03  0.50400001928E-02 0.  1.
       -1    1    3    3    0  502  0.83263624634E+01 -0.28430648997E+03 -0.11778250957E+04  0.12116812553E+04  0.50400001928E-02 0. -1.
</event>
<event>
 5   0  0.3650180E-03  0.1160086E+04  0.7818609E-02  0.9148529E-01
        2   -1    0    0  501    0  0.00000000000E+00  0.00000000000E+00  0.77149580700E+03  0.77149580701E+03  0.25500000920E-02 0.  1.
       -2   -1    0    0    0  501  0.00000000000E+00  0.00000000000E+00 -0.43610043547E+03  0.43610043548E+03  0.25500000920E-02 0. -1.
    10030    2    1    2    0    0  0.00000000000E+00  0.00000000000E+00  0.33539537153E+03  0.12075962425E+04  0.11600856131E+04 0.  0.
        3    1    3    3  502    0 -0.35443858686E+03 -0.34129941446E+03  0.48742094207E+03  0.69259742068E+03  0.10100000352E+00 0.  1.
       -3    1    3    3    0  502  0.35443858686E+03  0.34129941446E+03 -0.15202557053E+03  0.51499882181E+03  0.10100000352E+00 0. -1.
</event>
<event>
 5   0  0.3626049E-03  0.1194770E+04  0.7818609E-02  0.9117446E-01
       -2   -1    0    0    0  501  0.00000000000E+00  0.00000000000E+00  0.30870905655E+03  0.30870905656E+03  0.25500000920E-02 0. -1.
        2   -1    0    0  501    0  0.00000000000E+00  0.00000000000E+00 -0.11560044795E+04  0.11560044795E+04  0.25500000920E-02 0.  1.
    10030    2    1    2    0    0  0.00000000000E+00  0.00000000000E+00 -0.84729542290E+03  0.14647135360E+04  0.11947703582E+04 0.  0.
        1    1    3    3  502    0  0.18956842009E+03 -0.55501707969E+03 -0.28446787871E+03  0.65184516465E+03  0.50400001928E-02 0. -1.
       -1    1    3    3    0  502 -0.18956842009E+03  0.55501707969E+03 -0.56282754419E+03  0.81286837136E+03  0.50400001928E-02 0.  1.
</event>
<event>
 5   0  0.1397500E-03  0.1193849E+04  0.7818609E-02  0.9118258E-01
       -3   -1    0    0    0  501  0.00000000000E+00  0.00000000000E+00  0.20045730313E+03  0.20045732858E+03  0.10100000352E+00 0.  1.
        3   -1    0    0  501    0  0.00000000000E+00  0.00000000000E+00 -0.17775287501E+04  0.17775287530E+04  0.10100000352E+00 0. -1.
    10030    2    1    2    0    0  0.00000000000E+00  0.00000000000E+00 -0.15770714470E+04  0.19779860815E+04  0.11938486462E+04 0.  0.
        3    1    3    3  502    0  0.48653160804E+03  0.10957818690E+02 -0.21582980951E+03  0.53236791440E+03  0.10100000352E+00 0.  1.
       -3    1    3    3    0  502 -0.48653160804E+03 -0.10957818690E+02 -0.13612416375E+04  0.14456181671E+04  0.10100000352E+00 0. -1.
</event>
<event>
 5   0  0.3751091E-03  0.1197681E+04  0.7818609E-02  0.9114889E-01
       -2   -1    0    0    0  501  0.00000000000E+00  0.00000000000E+00  0.30392923162E+03  0.30392923163E+03  0.25500000920E-02 0. -1.
        2   -1    0    0  501    0  0.00000000000E+00  0.00000000000E+00 -0.11799122998E+04  0.11799122998E+04  0.25500000920E-02 0.  1.
    10030    2    1    2    0    0  0.00000000000E+00  0.00000000000E+00 -0.87598306822E+03  0.14838415315E+04  0.11976808234E+04 0.  0.
        5    1    3    3  502    0  0.24492479171E+03  0.59597213790E+02  0.23497364408E+03  0.34463703355E+03  0.46999998093E+01 0. -1.
       -5    1    3    3    0  502 -0.24492479171E+03 -0.59597213790E+02 -0.11109567123E+04  0.11392044979E+04  0.46999998093E+01 0.  1.
</event>
<event>
 5   0  0.2078258E-03  0.1197590E+04  0.7818609E-02  0.9114968E-01
       -1   -1    0    0    0  501  0.00000000000E+00  0.00000000000E+00  0.43460118958E+03  0.43460118961E+03  0.50400001928E-02 0. -1.
        1   -1    0    0  501    0  0.00000000000E+00  0.00000000000E+00 -0.82502226123E+03  0.82502226125E+03  0.50400001928E-02 0.  1.
    10030    2    1    2    0    0  0.00000000000E+00  0.00000000000E+00 -0.39042107165E+03  0.12596234509E+04  0.11975903410E+04 0.  0.
        3    1    3    3  502    0  0.39018676130E+03 -0.38085882740E+03  0.65110048276E+02  0.54912519855E+03  0.10100000352E+00 0. -1.
       -3    1    3    3    0  502 -0.39018676130E+03  0.38085882740E+03 -0.45553111993E+03  0.71049825230E+03  0.10100000352E+00 0.  1.
</event>
<event>
 5   0  0.1397500E-03  0.1107458E+04  0.7818609E-02  0.9197953E-01
        3   -1    0    0  501    0  0.00000000000E+00  0.00000000000E+00  0.13173171618E+04  0.13173171657E+04  0.10100000352E+00 0. -1.
       -3   -1    0    0    0  501  0.00000000000E+00  0.00000000000E+00 -0.23275781979E+03  0.23275784171E+03  0.10100000352E+00 0.  1.
    10030    2    1    2    0    0  0.00000000000E+00  0.00000000000E+00  0.10845593421E+04  0.15500750074E+04  0.11074581537E+04 0.  0.
        5    1    3    3  502    0  0.41394177752E+03 -0.21310451546E+03  0.96178942364E+03  0.10685608617E+04  0.46999998093E+01 0. -1.
       -5    1    3    3    0  502 -0.41394177752E+03  0.21310451546E+03  0.12276991841E+03  0.48151414574E+03  0.46999998093E+01 0.  1.
</event>
<event>
 5   0  0.3706035E-03  0.1291432E+04  0.7818609E-02  0.9036387E-01
       -2   -1    0    0    0  501  0.00000000000E+00  0.00000000000E+00  0.71870620040E+03  0.71870620040E+03  0.25500000920E-02 0. -1.
        2   -1    0    0  501    0  0.00000000000E+00  0.00000000000E+00 -0.58013848536E+03  0.58013848537E+03  0.25500000920E-02 0.  1.
    10030    2    1    2    0    0  0.00000000000E+00  0.00000000000E+00  0.13856771504E+03  0.12988446858E+04  0.12914319595E+04 0.  0.
        2    1    3    3  502    0 -0.20739101947E+02  0.33735473534E+03  0.62263351943E+03  0.70845665169E+03  0.25500000920E-02 0. -1.
       -2    1    3    3    0  502  0.20739101947E+02 -0.33735473534E+03 -0.48406580439E+03  0.59038803408E+03  0.25500000920E-02 0.  1.
</event>
<event>
 5   0  0.2047109E-03  0.1159677E+04  0.7818609E-02  0.9148903E-01
       -1   -1    0    0    0  501  0.00000000000E+00  0.00000000000E+00  0.56438854362E+03  0.56438854364E+03  0.50400001928E-02 0. -1.
        1   -1    0    0  501    0  0.00000000000E+00  0.00000000000E+00 -0.59571095229E+03  0.59571095231E+03  0.50400001928E-02 0.  1.
    10030    2    1    2    0    0  0.00000000000E+00  0.00000000000E+00 -0.31322408678E+02  0.11600994960E+04  0.11596765701E+04 0.  0.
        1    1    3    3  502    0  0.35144859124E+03  0.45668908229E+03 -0.79960664284E+02  0.58178581800E+03  0.50400001928E-02 0. -1.
       -1    1    3    3    0  502 -0.35144859124E+03 -0.45668908229E+03  0.48638255606E+02  0.57831367795E+03  0.50400001928E-02 0.  1.
</event>
<event>
 5   0  0.3650180E-03  0.1168297E+04  0.7818609E-02  0.9141068E-01
       -2   -1    0    0    0  501  0.00000000000E+00  0.00000000000E+00  0.76300551127E+03  0.76300551127E+03  0.25500000920E-02 0. -1.
        2   -1    0    0  501    0  0.00000000000E+00  0.00000000000E+00 -0.44721769534E+03  0.44721769535E+03  0.25500000920E-02 0.  1.
    10030    2    1    2    0    0  0.00000000000E+00  0.00000000000E+00  0.31578781593E+03  0.12102232066E+04  0.11682971648E+04 0.  0.
        3    1    3    3  502    0  0.26511466502E+03 -0.18583111590E+03  0.66156334209E+03  0.73653584777E+03  0.10100000352E+00 0. -1.
       -3    1    3    3    0  502 -0.26511466502E+03  0.18583111590E+03 -0.34577552616E+03  0.47368735886E+03  0.10100000352E+00 0.  1.
</event>
<event>
 5   0  0.3706035E-03  0.1220667E+04  0.7818609E-02  0.9094957E-01
        2   -1    0    0  501    0  0.00000000000E+00  0.00000000000E+00  0.15877799777E+04  0.15877799777E+04  0.25500000920E-02 0. -1.
       -2   -1    0    0    0  501  0.00000000000E+00  0.00000000000E+00 -0.23460860600E+03  0.23460860601E+03  0.25500000920E-02 0.  1.
    10030    2    1    2    0    0  0.00000000000E+00  0.00000000000E+00  0.13531713717E+04  0.18223885837E+04  0.12206667804E+04 0.  0.
        2    1    3    3  502    0 -0.46490357976E+03  0.33466060956E+03  0.36209549904E+03  0.67767707095E+03  0.25500000920E-02 0. -1.
       -2    1    3    3    0  502  0.46490357976E+03 -0.33466060956E+03  0.99107587268E+03  0.11447115128E+04  0.25500000920E-02 0.  1.
</event>
<event>
 5   0  0.2047109E-03  0.1207182E+04  0.7818609E-02  0.9106593E-01
       -1   -1    0    0    0  501  0.00000000000E+00  0.00000000000E+00  0.33743812804E+03  0.33743812808E+03  0.50400001928E-02 0. -1.
        1   -1    0    0  501    0  0.00000000000E+00  0.00000000000E+00 -0.10796715935E+04  0.10796715935E+04  0.50400001928E-02 0.  1.
    10030    2    1    2    0    0  0.00000000000E+00  0.00000000000E+00 -0.74223346548E+03  0.14171097216E+04  0.12071824410E+04 0.  0.
        1    1    3    3  502    0 -0.29296352255E+02  0.28417884618E+03 -0.99528033637E+03  0.10354703476E+04  0.50400001928E-02 0.  1.
       -1    1    3    3    0  502  0.29296352255E+02 -0.28417884618E+03  0.25304687089E+03  0.38163937397E+03  0.50400001928E-02 0. -1.
</event>
<event>
 5   0  0.3751091E-03  0.1182232E+04  0.7818609E-02  0.9128553E-01
       -2   -1    0    0    0  501  0.00000000000E+00  0.00000000000E+00  0.80669475982E+03  0.80669475983E+03  0.25500000920E-02 0.  1.
        2   -1    0    0  501    0  0.00000000000E+00  0.00000000000E+00 -0.43314787406E+03  0.43314787407E+03  0.25500000920E-02 0. -1.
    10030    2    1    2    0    0  0.00000000000E+00  0.00000000000E+00  0.37354688577E+03  0.12398426339E+04  0.11822319912E+04 0.  0.
        5    1    3    3  502    0  0.38116186033E+02  0.51110236386E+03 -0.12205506589E+03  0.52687569605E+03  0.46999998093E+01 0. -1.
       -5    1    3    3    0  502 -0.38116186033E+02 -0.51110236386E+03  0.49560195166E+03  0.71296693785E+03  0.46999998093E+01 0.  1.
</event>
<event>
 5   0  0.3706035E-03  0.1198999E+04  0.7818609E-02  0.9113734E-01
       -2   -1    0    0    0  501  0.00000000000E+00  0.00000000000E+00  0.20022135669E+03  0.20022135670E+03  0.25500000920E-02 0.  1.
        2   -1    0    0  501    0  0.00000000000E+00  0.00000000000E+00 -0.17950102832E+04  0.17950102832E+04  0.25500000920E-02 0. -1.
    10030    2    1    2    0    0  0.00000000000E+00  0.00000000000E+00 -0.15947889265E+04  0.19952316399E+04  0.11989985724E+04 0.  0.
        2    1    3    3  502    0 -0.54544969612E+03  0.85233152075E+02 -0.11863033374E+04  0.13084707370E+04  0.25500000920E-02 0. -1.
       -2    1    3    3    0  502  0.54544969612E+03 -0.85233152075E+02 -0.40848558903E+03  0.68676090284E+03  0.25500000920E-02 0.  1.
</event>
<event>
 5   0  0.3751091E-03  0.1207755E+04  0.7818609E-02  0.9106095E-01
        2   -1    0    0  501    0  0.00000000000E+00  0.00000000000E+00  0.97744405933E+03  0.97744405933E+03  0.25500000920E-02 0. -1.
       -2   -1    0    0    0  501  0.00000000000E+00  0.00000000000E+00 -0.37308342890E+03  0.37308342891E+03  0.25500000920E-02 0.  1.
    10030    2    1    2    0    0  0.00000000000E+00  0.00000000000E+00  0.60436063043E+03  0.13505274882E+04  0.12077552421E+04 0.  0.
        5    1    3    3  502    0 -0.19616209717E+03 -0.26033925692E+03  0.87059114392E+03  0.92962741296E+03  0.46999998093E+01 0. -1.
       -5    1    3    3    0  502  0.19616209717E+03  0.26033925692E+03 -0.26623051350E+03  0.42090007528E+03  0.46999998093E+01 0.  1.
</event>
<event>
 5   0  0.2047109E-03  0.1196395E+04  0.7818609E-02  0.9116018E-01
        1   -1    0    0  501    0  0.00000000000E+00  0.00000000000E+00  0.55630614476E+03  0.55630614478E+03  0.50400001928E-02 0. -1.
       -1   -1    0    0    0  501  0.00000000000E+00  0.00000000000E+00 -0.64324377627E+03  0.64324377629E+03  0.50400001928E-02 0.  1.
    10030    2    1    2    0    0  0.00000000000E+00  0.00000000000E+00 -0.86937631513E+02  0.11995499211E+04  0.11963953616E+04 0.  0.
        1    1    3    3  502    0  0.47792187139E+02  0.56875558243E+03  0.13609404248E+03  0.58676110481E+03  0.50400001928E-02 0. -1.
       -1    1    3    3    0  502 -0.47792187139E+02 -0.56875558243E+03 -0.22303167399E+03  0.61278881625E+03  0.50400001928E-02 0.  1.
</event>
<event>
 5   0  0.3725376E-03  0.1261004E+04  0.7818609E-02  0.9061074E-01
       -2   -1    0    0    0  501  0.00000000000E+00  0.00000000000E+00  0.43400940858E+03  0.43400940859E+03  0.25500000920E-02 0.  1.
        2   -1    0    0  501    0  0.00000000000E+00  0.00000000000E+00 -0.91595471692E+03  0.91595471692E+03  0.25500000920E-02 0. -1.
    10030    2    1    2    0    0  0.00000000000E+00  0.00000000000E+00 -0.48194530834E+03  0.13499641255E+04  0.12610043061E+04 0.  0.
        4    1    3    3  502    0 -0.43525688130E+03 -0.43160057082E+03 -0.82894731104E+02  0.61854729391E+03  0.12699999809E+01 0. -1.
       -4    1    3    3    0  502  0.43525688130E+03  0.43160057082E+03 -0.39905057723E+03  0.73141683160E+03  0.12699999809E+01 0.  1.
</event>
<event>
 5   0  0.3650180E-03  0.1196981E+04  0.7818609E-02  0.9115503E-01
        2   -1    0    0  501    0  0.00000000000E+00  0.00000000000E+00  0.12269521850E+04  0.12269521850E+04  0.25500000920E-02 0.  1.
       -2   -1    0    0    0  501  0.00000000000E+00  0.00000000000E+00 -0.29193544996E+03  0.29193544997E+03  0.25500000920E-02 0. -1.
    10030    2    1    2    0    0  0.00000000000E+00  0.00000000000E+00  0.93501673500E+03  0.15188876349E+04  0.11969809325E+04 0.  0.
        3    1    3    3  502    0  0.50973192892E+03  0.13649051425E+02  0.69909383562E+02  0.51468462972E+03  0.10100000352E+00 0. -1.
       -3    1    3    3    0  502 -0.50973192892E+03 -0.13649051425E+02  0.86510735144E+03  0.10042030052E+04  0.10100000352E+00 0.  1.
</event>
<event>
 5   0  0.1397500E-03  0.9974672E+03  0.7818609E-02  0.9311327E-01
       -4   -1    0    0    0  501  0.00000000000E+00  0.00000000000E+00  0.28041640738E+03  0.28041928326E+03  0.12699999809E+01 0.  1.
        4   -1    0    0  501    0  0.00000000000E+00  0.00000000000E+00 -0.88701307180E+03  0.88701398098E+03  0.12699999809E+01 0. -1.
    10030    2    1    2    0    0  0.00000000000E+00  0.00000000000E+00 -0.60659666443E+03  0.11674332642E+04  0.99746724917E+03 0.  0.
        2    1    3    3  502    0  0.28338038896E+03 -0.80002353749E+02 -0.77441848263E+03  0.82850999251E+03  0.25500000920E-02 0.  1.
       -2    1    3    3    0  502 -0.28338038896E+03  0.80002353749E+02  0.16782181820E+03  0.33892327173E+03  0.25500000920E-02 0. -1.
</event>
<event>
 5   0  0.3650180E-03  0.1220712E+04  0.7818609E-02  0.9094918E-01
       -2   -1    0    0    0  501  0.00000000000E+00  0.00000000000E+00  0.27456291479E+03  0.27456291480E+03  0.25500000920E-02 0. -1.
        2   -1    0    0  501    0  0.00000000000E+00  0.00000000000E+00 -0.13568263137E+04  0.13568263137E+04  0.25500000920E-02 0.  1.
    10030    2    1    2    0    0  0.00000000000E+00  0.00000000000E+00 -0.10822633989E+04  0.16313892285E+04  0.12207115754E+04 0.  0.
        3    1    3    3  502    0  0.10791668278E+03 -0.55053821913E+02 -0.13405966599E+04  0.13460595635E+04  0.10100000352E+00 0.  1.
       -3    1    3    3    0  502 -0.10791668278E+03  0.55053821913E+02  0.25833326106E+03  0.28532966495E+03  0.10100000352E+00 0. -1.
</event>
<event>
 5   0  0.2078258E-03  0.1212756E+04  0.7818609E-02  0.9101764E-01
        1   -1    0    0  501    0  0.00000000000E+00  0.00000000000E+00  0.82955815113E+03  0.82955815114E+03  0.50400001928E-02 0. -1.
       -1   -1    0    0    0  501  0.00000000000E+00  0.00000000000E+00 -0.44324143490E+03  0.44324143493E+03  0.50400001928E-02 0.  1.
    10030    2    1    2    0    0  0.00000000000E+00  0.00000000000E+00  0.38631671623E+03  0.12727995861E+04  0.12127564393E+04 0.  0.
        3    1    3    3  502    0 -0.28605061007E+03 -0.46543457316E+03 -0.83004789252E+02  0.55257949532E+03  0.10100000352E+00 0.  1.
       -3    1    3    3    0  502  0.28605061007E+03  0.46543457316E+03  0.46932150548E+03  0.72022009075E+03  0.10100000352E+00 0. -1.
</event>
<event>
 5   0  0.2078258E-03  0.1207966E+04  0.7818609E-02  0.9105912E-01
        1   -1    0    0  501    0  0.00000000000E+00  0.00000000000E+00  0.15594337764E+04  0.15594337764E+04  0.50400001928E-02 0. -1.
       -1   -1    0    0    0  501  0.00000000000E+00  0.00000000000E+00 -0.23392834440E+03  0.23392834445E+03  0.50400001928E-02 0.  1.
    10030    2    1    2    0    0  0.00000000000E+00  0.00000000000E+00  0.13255054320E+04  0.17933621209E+04  0.12079664922E+04 0.  0.
        3    1    3    3  502    0 -0.37821460798E+03 -0.42417632274E+02  0.13590188816E+04  0.14113036087E+04  0.10100000352E+00 0. -1.
       -3    1    3    3    0  502  0.37821460798E+03  0.42417632274E+02 -0.33513449582E+02  0.38205851217E+03  0.10100000352E+00 0.  1.
</event>
<event>
 5   0  0.3725376E-03  0.1250579E+04  0.7818609E-02  0.9069701E-01
       -2   -1    0    0    0  501  0.00000000000E+00  0.00000000000E+00  0.67771006002E+03  0.67771006003E+03  0.25500000920E-02 0. -1.
        2   -1    0    0  501    0  0.00000000000E+00  0.00000000000E+00 -0.57692379424E+03  0.57692379425E+03  0.25500000920E-02 0.  1.
    10030    2    1    2    0    0  0.00000000000E+00  0.00000000000E+00  0.10078626578E+03  0.12546338543E+04  0.12505791606E+04 0.  0.
        4    1    3    3  502    0 -0.41640758367E+03  0.37318441108E+03 -0.23037773252E+03  0.60476226151E+03  0.12699999809E+01 0.  1.
       -4    1    3    3    0  502  0.41640758367E+03 -0.37318441108E+03  0.33116399830E+03  0.64987159276E+03  0.12699999809E+01 0. -1.
</event>
<event>
 5   0  0.2025294E-03  0.1157203E+04  0.7818609E-02  0.9151164E-01
       -1   -1    0    0    0  501  0.00000000000E+00  0.00000000000E+00  0.29541177600E+03  0.29541177604E+03  0.50400001928E-02 0.  1.
        1   -1    0    0  501    0  0.00000000000E+00  0.00000000000E+00 -0.11332651537E+04  0.11332651538E+04  0.50400001928E-02 0. -1.
    10030    2    1    2    0    0  0.00000000000E+00  0.00000000000E+00 -0.83785337774E+03  0.14286769298E+04  0.11572033042E+04 0.  0.
        5    1    3    3  502    0  0.20717808073E+03 -0.35762063707E+02 -0.10844133656E+04  0.11046158245E+04  0.46999998093E+01 0. -1.
       -5    1    3    3    0  502 -0.20717808073E+03  0.35762063707E+02  0.24655998785E+03  0.32406110526E+03  0.46999998093E+01 0.  1.
</event>
<event>
 5   0  0.1397500E-03  0.1101844E+04  0.7818609E-02  0.9203396E-01
       -3   -1    0    0    0  501  0.00000000000E+00  0.00000000000E+00  0.51759260029E+03  0.51759261014E+03  0.10100000352E+00 0.  1.
        3   -1    0    0  501    0  0.00000000000E+00  0.00000000000E+00 -0.58639779336E+03  0.58639780206E+03  0.10100000352E+00 0. -1.
    10030    2    1    2    0    0  0.00000000000E+00  0.00000000000E+00 -0.68805193071E+02  0.11039904122E+04  0.11018442157E+04 0.  0.
        1    1    3    3  502    0 -0.20480122729E+03 -0.38875916999E+03  0.29856674114E+03  0.53124319656E+03  0.50400001928E-02 0.  1.
       -1    1    3    3    0  502  0.20480122729E+03  0.38875916999E+03 -0.36737193421E+03  0.57274721564E+03  0.50400001928E-02 0. -1.
</event>
<event>
 5   0  0.2078258E-03  0.1194616E+04  0.7818609E-02  0.9117582E-01
        1   -1    0    0  501    0  0.00000000000E+00  0.00000000000E+00  0.86389977595E+03  0.86389977597E+03  0.50400001928E-02 0. -1.
       -1   -1    0    0    0  501  0.00000000000E+00  0.00000000000E+00 -0.41298412986E+03  0.41298412989E+03  0.50400001928E-02 0.  1.
    10030    2    1    2    0    0  0.00000000000E+00  0.00000000000E+00  0.45091564610E+03  0.12768839059E+04  0.11946160844E+04 0.  0.
        3    1    3    3  502    0 -0.50016190106E+03  0.25470695446E+03  0.70864136014E+01  0.56132680978E+03  0.10100000352E+00 0. -1.
       -3    1    3    3    0  502  0.50016190106E+03 -0.25470695446E+03  0.44382923250E+03  0.71555709607E+03  0.10100000352E+00 0.  1.
</event>
<event>
 5   0  0.1397500E-03  0.1211780E+04  0.7818609E-02  0.9102608E-01
       -3   -1    0    0    0  501  0.00000000000E+00  0.00000000000E+00  0.37831569241E+03  0.37831570590E+03  0.10100000352E+00 0. -1.
        3   -1    0    0  501    0  0.00000000000E+00  0.00000000000E+00 -0.97036028679E+03  0.97036029205E+03  0.10100000352E+00 0.  1.
    10030    2    1    2    0    0  0.00000000000E+00  0.00000000000E+00 -0.59204459438E+03  0.13486759979E+04  0.12117797431E+04 0.  0.
        4    1    3    3  502    0  0.27052726510E+03  0.45644242254E+03  0.29559813085E+02  0.53141328710E+03  0.12699999809E+01 0. -1.
       -4    1    3    3    0  502 -0.27052726510E+03 -0.45644242254E+03 -0.62160440747E+03  0.81726271085E+03  0.12699999809E+01 0.  1.
</event>
<event>
 5   0  0.2078258E-03  0.1217681E+04  0.7818609E-02  0.9097520E-01
       -1   -1    0    0    0  501  0.00000000000E+00  0.00000000000E+00  0.57001058377E+03  0.57001058379E+03  0.50400001928E-02 0. -1.
        1   -1    0    0  501    0  0.00000000000E+00  0.00000000000E+00 -0.65031520620E+03  0.65031520621E+03  0.50400001928E-02 0.  1.
    10030    2    1    2    0    0  0.00000000000E+00  0.00000000000E+00 -0.80304622427E+02  0.12203257900E+04  0.12176806648E+04 0.  0.
        3    1    3    3  502    0  0.12114809851E+03 -0.58666933893E+03  0.68844071188E+02  0.60299029125E+03  0.10100000352E+00 0. -1.
       -3    1    3    3    0  502 -0.12114809851E+03  0.58666933893E+03 -0.14914869362E+03  0.61733549875E+03  0.10100000352E+00 0.  1.
</event>
<event>
 5   0  0.3626049E-03  0.1230605E+04  0.7818609E-02  0.9086482E-01
        2   -1    0    0  501    0  0.00000000000E+00  0.00000000000E+00  0.20228529426E+04  0.20228529426E+04  0.25500000920E-02 0. -1.
       -2   -1    0    0    0  501  0.00000000000E+00  0.00000000000E+00 -0.18715989873E+03  0.18715989875E+03  0.25500000920E-02 0.  1.
    10030    2    1    2    0    0  0.00000000000E+00  0.00000000000E+00  0.18356930438E+04  0.22100128413E+04  0.12306046512E+04 0.  0.
        1    1    3    3  502    0  0.58031394274E+03  0.10880901586E+03  0.12288664453E+04  0.13633475032E+04  0.50400001928E-02 0. -1.
       -1    1    3    3    0  502 -0.58031394274E+03 -0.10880901586E+03  0.60682659855E+03  0.84666533813E+03  0.50400001928E-02 0.  1.
</event>
<event>
 5   0  0.2096270E-03  0.1181314E+04  0.7818609E-02  0.9129372E-01
       -1   -1    0    0    0  501  0.00000000000E+00  0.00000000000E+00  0.53374946892E+03  0.53374946895E+03  0.50400001928E-02 0. -1.
        1   -1    0    0  501    0  0.00000000000E+00  0.00000000000E+00 -0.65363163476E+03  0.65363163478E+03  0.50400001928E-02 0.  1.
    10030    2    1    2    0    0  0.00000000000E+00  0.00000000000E+00 -0.11988216584E+03  0.11873811037E+04  0.11813137398E+04 0.  0.
        2    1    3    3  502    0 -0.29660042872E+03  0.45956559440E+03  0.16414609179E+03  0.57106592380E+03  0.25500000920E-02 0. -1.
       -2    1    3    3    0  502  0.29660042872E+03 -0.45956559440E+03 -0.28402825763E+03  0.61631517993E+03  0.25500000920E-02 0.  1.
</event>
<event>
 5   0  0.2078258E-03  0.1182974E+04  0.7818609E-02  0.9127891E-01
       -1   -1    0    0    0  501  0.00000000000E+00  0.00000000000E+00  0.38167015941E+03  0.38167015944E+03  0.50400001928E-02 0. -1.
        1   -1    0    0  501    0  0.00000000000E+00  0.00000000000E+00 -0.91664715467E+03  0.91664715468E+03  0.50400001928E-02 0.  1.
    10030    2    1    2    0    0  0.00000000000E+00  0.00000000000E+00 -0.53497699526E+03  0.12983173141E+04  0.11829739907E+04 0.  0.
        3    1    3    3  502    0  0.16980215462E+03  0.68883616134E+02  0.34973282547E+03  0.39483006939E+03  0.10100000352E+00 0. -1.
       -3    1    3    3    0  502 -0.16980215462E+03 -0.68883616134E+02 -0.88470982073E+03  0.90348724473E+03  0.10100000352E+00 0.  1.
</event>
<event>
 5   0  0.2096270E-03  0.1192249E+04  0.7818609E-02  0.9119668E-01
        1   -1    0    0  501    0  0.00000000000E+00  0.00000000000E+00  0.29523439958E+03  0.29523439962E+03  0.50400001928E-02 0. -1.
       -1   -1    0    0    0  501  0.00000000000E+00  0.00000000000E+00 -0.12036696741E+04  0.12036696742E+04  0.50400001928E-02 0.  1.
    10030    2    1    2    0    0  0.00000000000E+00  0.00000000000E+00 -0.90843527457E+03  0.14989040738E+04  0.11922494598E+04 0.  0.
        2    1    3    3  502    0 -0.27133187180E+02  0.32861363800E+03  0.17014921105E+03  0.37104431939E+03  0.25500000920E-02 0. -1.
       -2    1    3    3    0  502  0.27133187180E+02 -0.32861363800E+03 -0.10785844856E+04  0.11278597544E+04  0.25500000920E-02 0.  1.
</event>
<event>
 5   0  0.2078258E-03  0.1279488E+04  0.7818609E-02  0.9045991E-01
        1   -1    0    0  501    0  0.00000000000E+00  0.00000000000E+00  0.90643034091E+03  0.90643034092E+03  0.50400001928E-02 0. -1.
       -1   -1    0    0    0  501  0.00000000000E+00  0.00000000000E+00 -0.45152121678E+03  0.45152121681E+03  0.50400001928E-02 0.  1.
    10030    2    1    2    0    0  0.00000000000E+00  0.00000000000E+00  0.45490912413E+03  0.13579515577E+04  0.12794882266E+04 0.  0.
        3    1    3    3  502    0  0.62335403054E+03  0.81326389930E+02  0.10148165740E+03  0.63677528696E+03  0.10100000352E+00 0.  1.
       -3    1    3    3    0  502 -0.62335403054E+03 -0.81326389930E+02  0.35342746673E+03  0.72117627077E+03  0.10100000352E+00 0. -1.
</event>
<event>
 5   0  0.3751091E-03  0.1209544E+04  0.7818609E-02  0.9104544E-01
        2   -1    0    0  501    0  0.00000000000E+00  0.00000000000E+00  0.12370479376E+04  0.12370479376E+04  0.25500000920E-02 0.  1.
       -2   -1    0    0    0  501  0.00000000000E+00  0.00000000000E+00 -0.29566276990E+03  0.29566276991E+03  0.25500000920E-02 0. -1.
    10030    2    1    2    0    0  0.00000000000E+00  0.00000000000E+00  0.94138516771E+03  0.15327107075E+04  0.12095437483E+04 0.  0.
        5    1    3    3  502    0  0.22174169377E+03  0.36735225877E+03  0.10107107042E+04  0.10980324578E+04  0.46999998093E+01 0.  1.
       -5    1    3    3    0  502 -0.22174169377E+03 -0.36735225877E+03 -0.69325536488E+02  0.43467824973E+03  0.46999998093E+01 0. -1.
</event>
<event>
 5   0  0.3626049E-03  0.1240353E+04  0.7818609E-02  0.9078251E-01
        2   -1    0    0  501    0  0.00000000000E+00  0.00000000000E+00  0.54355005643E+03  0.54355005644E+03  0.25500000920E-02 0.  1.
       -2   -1    0    0    0  501  0.00000000000E+00  0.00000000000E+00 -0.70760500757E+03  0.70760500758E+03  0.25500000920E-02 0. -1.
    10030    2    1    2    0    0  0.00000000000E+00  0.00000000000E+00 -0.16405495114E+03  0.12511550640E+04  0.12403527592E+04 0.  0.
        1    1    3    3  502    0 -0.55506427930E+03  0.14897582453E+03  0.15308741933E+03  0.59474860944E+03  0.50400001928E-02 0.  1.
       -1    1    3    3    0  502  0.55506427930E+03 -0.14897582453E+03 -0.31714237047E+03  0.65640645458E+03  0.50400001928E-02 0. -1.
</event>
<event>
 5   0  0.2047109E-03  0.1194544E+04  0.7818609E-02  0.9117646E-01
        1   -1    0    0  501    0  0.00000000000E+00  0.00000000000E+00  0.39779019695E+03  0.39779019698E+03  0.50400001928E-02 0.  1.
       -1   -1    0    0    0  501  0.00000000000E+00  0.00000000000E+00 -0.89678867504E+03  0.89678867505E+03  0.50400001928E-02 0. -1.
    10030    2    1    2    0    0  0.00000000000E+00  0.00000000000E+00 -0.49899847808E+03  0.12945788720E+04  0.11945438354E+04 0.  0.
        1    1    3    3  502    0  0.58534197602E+02  0.37222286281E+02 -0.89240841988E+03  0.89510029537E+03  0.50400001928E-02 0. -1.
       -1    1    3    3    0  502 -0.58534197602E+02 -0.37222286281E+02  0.39340994179E+03  0.39947857666E+03  0.50400001928E-02 0.  1.
</event>
<event>
 5   0  0.3706035E-03  0.1199518E+04  0.7818609E-02  0.9113279E-01
       -2   -1    0    0    0  501  0.00000000000E+00  0.00000000000E+00  0.42507481166E+03  0.42507481167E+03  0.25500000920E-02 0.  1.
        2   -1    0    0  501    0  0.00000000000E+00  0.00000000000E+00 -0.84622914269E+03  0.84622914269E+03  0.25500000920E-02 0. -1.
    10030    2    1    2    0    0  0.00000000000E+00  0.00000000000E+00 -0.42115433102E+03  0.12713039544E+04  0.11995177255E+04 0.  0.
        2    1    3    3  502    0  0.24378043289E+02  0.33610666287E+03  0.31524817878E+03  0.46145789846E+03  0.25500000920E-02 0.  1.
       -2    1    3    3    0  502 -0.24378043289E+02 -0.33610666287E+03 -0.73640250980E+03  0.80984605590E+03  0.25500000920E-02 0. -1.
</event>
<event>
 5   0  0.3751091E-03  0.1193482E+04  0.7818609E-02  0.9118581E-01
        2   -1    0    0  501    0  0.00000000000E+00  0.00000000000E+00  0.10255661191E+04  0.10255661191E+04  0.25500000920E-02 0. -1.
       -2   -1    0    0    0  501  0.00000000000E+00  0.00000000000E+00 -0.34722293587E+03  0.34722293588E+03  0.25500000920E-02 0.  1.
    10030    2    1    2    0    0  0.00000000000E+00  0.00000000000E+00  0.67834318326E+03  0.13727890550E+04  0.11934824319E+04 0.  0.
        5    1    3    3  502    0  0.41817288414E+03  0.38171543147E+02 -0.14849732961E+03  0.44542022253E+03  0.46999998093E+01 0.  1.
       -5    1    3    3    0  502 -0.41817288414E+03 -0.38171543147E+02  0.82684051288E+03  0.92736883249E+03  0.46999998093E+01 0. -1.
</event>
<event>
 5   0  0.2096270E-03  0.1212431E+04  0.7818609E-02  0.9102045E-01
        1   -1    0    0  501    0  0.00000000000E+00  0.00000000000E+00  0.58058262501E+03  0.58058262503E+03  0.50400001928E-02 0.  1.
       -1   -1    0    0    0  501  0.00000000000E+00  0.00000000000E+00 -0.63297971391E+03  0.63297971393E+03  0.50400001928E-02 0. -1.
    10030    2    1    2    0    0  0.00000000000E+00  0.00000000000E+00 -0.52397088894E+02  0.12135623390E+04  0.12124306560E+04 0.  0.
        2    1    3    3  502    0  0.18374686735E+03 -0.56319491512E+03  0.10255122047E+03  0.60122223554E+03  0.25500000920E-02 0.  1.
       -2    1    3    3    0  502 -0.18374686735E+03  0.56319491512E+03 -0.15494830936E+03  0.61234010342E+03  0.25500000920E-02 0. -1.
</event>
<event>
 5   0  0.3706035E-03  0.1207489E+04  0.7818609E-02  0.9106326E-01
       -2   -1    0    0    0  501  0.00000000000E+00  0.00000000000E+00  0.40612522433E+03  0.40612522434E+03  0.25500000920E-02 0.  1.
        2   -1    0    0  501    0  0.00000000000E+00  0.00000000000E+00 -0.89752520324E+03  0.89752520324E+03  0.25500000920E-02 0. -1.
    10030    2    1    2    0    0  0.00000000000E+00  0.00000000000E+00 -0.49139997891E+03  0.13036504276E+04  0.12074893366E+04 0.  0.
        2    1    3    3  502    0  0.14051276450E+03  0.13120367392E+03 -0.86359720823E+03  0.88473633310E+03  0.25500000920E-02 0. -1.
       -2    1    3    3    0  502 -0.14051276450E+03 -0.13120367392E+03  0.37219722932E+03  0.41891409448E+03  0.25500000920E-02 0.  1.
</event>
<event>
 5   0  0.3650180E-03  0.1206900E+04  0.7818609E-02  0.9106839E-01
        2   -1    0    0  501    0  0.00000000000E+00  0.00000000000E+00  0.17534796040E+04  0.17534796040E+04  0.25500000920E-02 0.  1.
       -2   -1    0    0    0  501  0.00000000000E+00  0.00000000000E+00 -0.20767376269E+03  0.20767376270E+03  0.25500000920E-02 0. -1.
    10030    2    1    2    0    0  0.00000000000E+00  0.00000000000E+00  0.15458058413E+04  0.19611533667E+04  0.12068996763E+04 0.  0.
        3    1    3    3  502    0  0.11879547443E+02  0.40725565765E+03  0.49565131930E+02  0.41043270683E+03  0.10100000352E+00 0. -1.
       -3    1    3    3    0  502 -0.11879547443E+02 -0.40725565765E+03  0.14962407093E+04  0.15507206598E+04  0.10100000352E+00 0.  1.
</event>
<event>
 5   0  0.1397500E-03  0.1195690E+04  0.7818609E-02  0.9116638E-01
        3   -1    0    0  501    0  0.00000000000E+00  0.00000000000E+00  0.69757362830E+03  0.69757363561E+03  0.10100000352E+00 0.  1.
       -3   -1    0    0    0  501  0.00000000000E+00  0.00000000000E+00 -0.51237365171E+03  0.51237366166E+03  0.10100000352E+00 0. -1.
    10030    2    1    2    0    0  0.00000000000E+00  0.00000000000E+00  0.18519997659E+03  0.12099472973E+04  0.11956895211E+04 0.  0.
        2    1    3    3  502    0 -0.20215789204E+03  0.46506944413E+03  0.41301580973E+03  0.65401793574E+03  0.25500000920E-02 0.  1.
       -2    1    3    3    0  502  0.20215789204E+03 -0.46506944413E+03 -0.22781583314E+03  0.55592936153E+03  0.25500000920E-02 0. -1.
</event>
<event>
 5   0  0.2025294E-03  0.1196367E+04  0.7818609E-02  0.9116042E-01
       -1   -1    0    0    0  501  0.00000000000E+00  0.00000000000E+00  0.72916616057E+03  0.72916616059E+03  0.50400001928E-02 0. -1.
        1   -1    0    0  501    0  0.00000000000E+00  0.00000000000E+00 -0.49073005606E+03  0.49073005609E+03  0.50400001928E-02 0.  1.
    10030    2    1    2    0    0  0.00000000000E+00  0.00000000000E+00  0.23843610451E+03  0.12198962167E+04  0.11963674200E+04 0.  0.
        5    1    3    3  502    0  0.22718499152E+03  0.29236896431E+03 -0.35981817364E+03  0.51631757645E+03  0.46999998093E+01 0.  1.
       -5    1    3    3    0  502 -0.22718499152E+03 -0.29236896431E+03  0.59825427815E+03  0.70357864023E+03  0.46999998093E+01 0. -1.
</event>
<event>
 5   0  0.3626049E-03  0.1207613E+04  0.7818609E-02  0.9106219E-01
       -2   -1    0    0    0  501  0.00000000000E+00  0.00000000000E+00  0.76614591318E+03  0.76614591319E+03  0.25500000920E-02 0. -1.
        2   -1    0    0  501    0  0.00000000000E+00  0.00000000000E+00 -0.47586517709E+03  0.47586517710E+03  0.25500000920E-02 0.  1.
    10030    2    1    2    0    0  0.00000000000E+00  0.00000000000E+00  0.29028073609E+03  0.12420110903E+04  0.12076127867E+04 0.  0.
        1    1    3    3  502    0 -0.11968891092E+03 -0.54751853292E+03  0.37621816805E+03  0.67501265861E+03  0.50400001928E-02 0.  1.
       -1    1    3    3    0  502  0.11968891092E+03  0.54751853292E+03 -0.85937431960E+02  0.56699843168E+03  0.50400001928E-02 0. -1.
</event>
<event>
 5   0  0.2134992E-03  0.1193621E+04  0.7818609E-02  0.9118458E-01
       -1   -1    0    0    0  501  0.00000000000E+00  0.00000000000E+00  0.16595858477E+03  0.16595858485E+03  0.50400001928E-02 0.  1.
        1   -1    0    0  501    0  0.00000000000E+00  0.00000000000E+00 -0.21462164601E+04  0.21462164601E+04  0.50400001928E-02 0. -1.
    10030    2    1    2    0    0  0.00000000000E+00  0.00000000000E+00 -0.19802578753E+04  0.23121750450E+04  0.11936214583E+04 0.  0.
        4    1    3    3  502    0  0.50507505088E+03  0.26779810437E+03 -0.65818279310E+03  0.87179288467E+03  0.12699999809E+01 0. -1.
       -4    1    3    3    0  502 -0.50507505088E+03 -0.26779810437E+03 -0.13220750822E+04  0.14403821603E+04  0.12699999809E+01 0.  1.
</event>
<event>
 5   0  0.2096270E-03  0.1183278E+04  0.7818609E-02  0.9127621E-01
       -1   -1    0    0    0  501  0.00000000000E+00  0.00000000000E+00  0.48717455996E+03  0.48717455999E+03  0.50400001928E-02 0. -1.
        1   -1    0    0  501    0  0.00000000000E+00  0.00000000000E+00 -0.71850340985E+03  0.71850340987E+03  0.50400001928E-02 0.  1.
    10030    2    1    2    0    0  0.00000000000E+00  0.00000000000E+00 -0.23132884989E+03  0.12056779699E+04  0.11832777908E+04 0.  0.
        2    1    3    3  502    0  0.50377874341E+03 -0.72723067757E+02 -0.42296098596E+03  0.66179880821E+03  0.25500000920E-02 0.  1.
       -2    1    3    3    0  502 -0.50377874341E+03  0.72723067757E+02  0.19163213607E+03  0.54387916165E+03  0.25500000920E-02 0. -1.
</event>
<event>
 5   0  0.3725376E-03  0.1195007E+04  0.7818609E-02  0.9117238E-01
        2   -1    0    0  501    0  0.00000000000E+00  0.00000000000E+00  0.35742019168E+03  0.35742019169E+03  0.25500000920E-02 0.  1.
       -2   -1    0    0    0  501  0.00000000000E+00  0.00000000000E+00 -0.99885319173E+03  0.99885319173E+03  0.25500000920E-02 0. -1.
    10030    2    1    2    0    0  0.00000000000E+00  0.00000000000E+00 -0.64143300005E+03  0.13562733834E+04  0.11950067770E+04 0.  0.
        4    1    3    3  502    0 -0.10888468096E+03  0.28292285943E+03  0.26365341855E+03  0.40176604654E+03  0.12699999809E+01 0.  1.
       -4    1    3    3    0  502  0.10888468096E+03 -0.28292285943E+03 -0.90508641860E+03  0.95450733688E+03  0.12699999809E+01 0. -1.
</event>
<event>
 5   0  0.3706035E-03  0.1201843E+04  0.7818609E-02  0.9111245E-01
       -2   -1    0    0    0  501  0.00000000000E+00  0.00000000000E+00  0.20660872972E+03  0.20660872974E+03  0.25500000920E-02 0.  1.
        2   -1    0    0  501    0  0.00000000000E+00  0.00000000000E+00 -0.17477811661E+04  0.17477811661E+04  0.25500000920E-02 0. -1.
    10030    2    1    2    0    0  0.00000000000E+00  0.00000000000E+00 -0.15411724364E+04  0.19543898958E+04  0.12018433285E+04 0.  0.
        2    1    3    3  502    0  0.37716011845E+03 -0.36524751828E+03 -0.12459463944E+04  0.13520495266E+04  0.25500000920E-02 0. -1.
       -2    1    3    3    0  502 -0.37716011845E+03  0.36524751828E+03 -0.29522604194E+03  0.60234036923E+03  0.25500000920E-02 0.  1.
</event>
<event>
 5   0  0.3751091E-03  0.1191003E+04  0.7818609E-02  0.9120768E-01
       -2   -1    0    0    0  501  0.00000000000E+00  0.00000000000E+00  0.53635926392E+03  0.53635926393E+03  0.25500000920E-02 0.  1.
        2   -1    0    0  501    0  0.00000000000E+00  0.00000000000E+00 -0.66116530607E+03  0.66116530608E+03  0.25500000920E-02 0. -1.
    10030    2    1    2    0    0  0.00000000000E+00  0.00000000000E+00 -0.12480604215E+03  0.11975245700E+04  0.11910031686E+04 0.  0.
        5    1    3    3  502    0  0.18010870826E+03  0.13460792459E+03 -0.61682191913E+03  0.65654383713E+03  0.46999998093E+01 0. -1.
       -5    1    3    3    0  502 -0.18010870826E+03 -0.13460792459E+03  0.49201587698E+03  0.54098073288E+03  0.46999998093E+01 0.  1.
</event>
<event>
 5   0  0.1397500E-03  0.1230528E+04  0.7818609E-02  0.9086547E-01
       -4   -1    0    0    0  501  0.00000000000E+00  0.00000000000E+00  0.73108680093E+03  0.73108790401E+03  0.12699999809E+01 0. -1.
        4   -1    0    0  501    0  0.00000000000E+00  0.00000000000E+00 -0.51778838863E+03  0.51778994612E+03  0.12699999809E+01 0.  1.
    10030    2    1    2    0    0  0.00000000000E+00  0.00000000000E+00  0.21329841230E+03  0.12488778501E+04  0.12305282085E+04 0.  0.
        5    1    3    3  502    0 -0.44614907323E+03  0.13449031151E+03  0.51437510533E+03  0.69407526855E+03  0.46999998093E+01 0. -1.
       -5    1    3    3    0  502  0.44614907323E+03 -0.13449031151E+03 -0.30107669303E+03  0.55480258158E+03  0.46999998093E+01 0.  1.
</event>
<event>
 5   0  0.3725376E-03  0.1182855E+04  0.7818609E-02  0.9127997E-01
        2   -1    0    0  501    0  0.00000000000E+00  0.00000000000E+00  0.25308283478E+04  0.25308283478E+04  0.25500000920E-02 0. -1.
       -2   -1    0    0    0  501  0.00000000000E+00  0.00000000000E+00 -0.13821035775E+03  0.13821035777E+03  0.25500000920E-02 0.  1.
    10030    2    1    2    0    0  0.00000000000E+00  0.00000000000E+00  0.23926179901E+04  0.26690387056E+04  0.11828553443E+04 0.  0.
        4    1    3    3  502    0 -0.10453772778E+02 -0.57329529089E+03  0.15233624629E+04  0.16277013172E+04  0.12699999809E+01 0. -1.
       -4    1    3    3    0  502  0.10453772778E+02  0.57329529089E+03  0.86925552717E+03  0.10413373883E+04  0.12699999809E+01 0.  1.
</event>
<event>
 5   0  0.3650180E-03  0.1205737E+04  0.7818609E-02  0.9107850E-01
       -2   -1    0    0    0  501  0.00000000000E+00  0.00000000000E+00  0.54171823841E+03  0.54171823841E+03  0.25500000920E-02 0.  1.
        2   -1    0    0  501    0  0.00000000000E+00  0.00000000000E+00 -0.67092128781E+03  0.67092128781E+03  0.25500000920E-02 0. -1.
    10030    2    1    2    0    0  0.00000000000E+00  0.00000000000E+00 -0.12920304940E+03  0.12126395262E+04  0.12057367841E+04 0.  0.
        3    1    3    3  502    0  0.99363277906E+02  0.28676015786E+03 -0.58849234966E+03  0.66213873542E+03  0.10100000352E+00 0. -1.
       -3    1    3    3    0  502 -0.99363277906E+02 -0.28676015786E+03  0.45928930027E+03  0.55050079080E+03  0.10100000352E+00 0.  1.
</event>
<event>
 5   0  0.2078258E-03  0.1206607E+04  0.7818609E-02  0.9107093E-01
       -1   -1    0    0    0  501  0.00000000000E+00  0.00000000000E+00  0.48234709956E+03  0.48234709959E+03  0.50400001928E-02 0. -1.
        1   -1    0    0  501    0  0.00000000000E+00  0.00000000000E+00 -0.75459151695E+03  0.75459151696E+03  0.50400001928E-02 0.  1.
    10030    2    1    2    0    0  0.00000000000E+00  0.00000000000E+00 -0.27224441738E+03  0.12369386166E+04  0.12066068615E+04 0.  0.
        3    1    3    3  502    0  0.10100360191E+03 -0.17073484038E+03 -0.72020167439E+03  0.74702247310E+03  0.10100000352E+00 0.  1.
       -3    1    3    3    0  502 -0.10100360191E+03  0.17073484038E+03  0.44795725701E+03  0.48991614346E+03  0.10100000352E+00 0. -1.
</event>
<event>
 5   0  0.3650180E-03  0.1241255E+04  0.7818609E-02  0.9077494E-01
       -2   -1    0    0    0  501  0.00000000000E+00  0.00000000000E+00  0.44331978628E+03  0.44331978629E+03  0.25500000920E-02 0.  1.
        2   -1    0    0  501    0  0.00000000000E+00  0.00000000000E+00 -0.86884960338E+03  0.86884960338E+03  0.25500000920E-02 0. -1.
    10030    2    1    2    0    0  0.00000000000E+00  0.00000000000E+00 -0.42552981710E+03  0.13121693897E+04  0.12412545597E+04 0.  0.
        3    1    3    3  502    0 -0.30709832060E+03  0.48591021127E+03 -0.46014295477E+03  0.73630812909E+03  0.10100000352E+00 0. -1.
       -3    1    3    3    0  502  0.30709832060E+03 -0.48591021127E+03  0.34613137674E+02  0.57586126058E+03  0.10100000352E+00 0.  1.
</event>
<event>
 5   0  0.2096270E-03  0.1193942E+04  0.7818609E-02  0.9118176E-01
        1   -1    0    0  501    0  0.00000000000E+00  0.00000000000E+00  0.78802297548E+03  0.78802297550E+03  0.50400001928E-02 0.  1.
       -1   -1    0    0    0  501  0.00000000000E+00  0.00000000000E+00 -0.45223843084E+03  0.45223843087E+03  0.50400001928E-02 0. -1.
    10030    2    1    2    0    0  0.00000000000E+00  0.00000000000E+00  0.33578454464E+03  0.12402614064E+04  0.11939418310E+04 0.  0.
        2    1    3    3  502    0  0.37110720391E+03 -0.39278574162E+03 -0.95669367004E+02  0.54877483853E+03  0.25500000920E-02 0. -1.
       -2    1    3    3    0  502 -0.37110720391E+03  0.39278574162E+03  0.43145391164E+03  0.69148656783E+03  0.25500000920E-02 0.  1.
</event>
<event>
 5   0  0.2047109E-03  0.1199344E+04  0.7818609E-02  0.9113431E-01
        1   -1    0    0  501    0  0.00000000000E+00  0.00000000000E+00  0.65493558415E+03  0.65493558417E+03  0.50400001928E-02 0.  1.
       -1   -1    0    0    0  501  0.00000000000E+00  0.00000000000E+00 -0.54907165300E+03  0.54907165302E+03  0.50400001928E-02 0. -1.
    10030    2    1    2    0    0  0.00000000000E+00  0.00000000000E+00  0.10586393115E+03  0.12040072372E+04  0.11993440938E+04 0.  0.
        1    1    3    3  502    0  0.16347561175E+03 -0.42503160088E+03 -0.33875221237E+03  0.56756426842E+03  0.50400001928E-02 0. -1.
       -1    1    3    3    0  502 -0.16347561175E+03  0.42503160088E+03  0.44461614352E+03  0.63644296876E+03  0.50400001928E-02 0.  1.
</event>
<event>
 5   0  0.3725376E-03  0.1195532E+04  0.7818609E-02  0.9116777E-01
       -2   -1    0    0    0  501  0.00000000000E+00  0.00000000000E+00  0.40439040929E+03  0.40439040930E+03  0.25500000920E-02 0.  1.
        2   -1    0    0  501    0  0.00000000000E+00  0.00000000000E+00 -0.88361151941E+03  0.88361151941E+03  0.25500000920E-02 0. -1.
    10030    2    1    2    0    0  0.00000000000E+00  0.00000000000E+00 -0.47922111011E+03  0.12880019287E+04  0.11955317210E+04 0.  0.
        4    1    3    3  502    0  0.11031049666E+03 -0.38654894912E+03 -0.71624832224E+03  0.82134144407E+03  0.12699999809E+01 0. -1.
       -4    1    3    3    0  502 -0.11031049666E+03  0.38654894912E+03  0.23702721212E+03  0.46666048464E+03  0.12699999809E+01 0.  1.
</event>
<event>
 5   0  0.3725376E-03  0.1218032E+04  0.7818609E-02  0.9097218E-01
        2   -1    0    0  501    0  0.00000000000E+00  0.00000000000E+00  0.99682092875E+03  0.99682092876E+03  0.25500000920E-02 0. -1.
       -2   -1    0    0    0  501  0.00000000000E+00  0.00000000000E+00 -0.37208349271E+03  0.37208349272E+03  0.25500000920E-02 0.  1.
    10030    2    1    2    0    0  0.00000000000E+00  0.00000000000E+00  0.62473743604E+03  0.13689044215E+04  0.12180322045E+04 0.  0.
        4    1    3    3  502    0 -0.43333966894E+02  0.47005186499E+03 -0.12009674456E+03  0.48708462244E+03  0.12699999809E+01 0.  1.
       -4    1    3    3    0  502  0.43333966894E+02 -0.47005186499E+03  0.74483418061E+03  0.88181979903E+03  0.12699999809E+01 0. -1.
</event>
<event>
 5   0  0.3725376E-03  0.1190061E+04  0.7818609E-02  0.9121601E-01
        2   -1    0    0  501    0  0.00000000000E+00  0.00000000000E+00  0.23564795949E+04  0.23564795950E+04  0.25500000920E-02 0.  1.
       -2   -1    0    0    0  501  0.00000000000E+00  0.00000000000E+00 -0.15025010407E+03  0.15025010409E+03  0.25500000920E-02 0. -1.
    10030    2    1    2    0    0  0.00000000000E+00  0.00000000000E+00  0.22062294909E+04  0.25067296990E+04  0.11900610142E+04 0.  0.
        4    1    3    3  502    0 -0.20001105390E+03 -0.27292622109E+03  0.72132074761E+02  0.34597368823E+03  0.12699999809E+01 0. -1.
       -4    1    3    3    0  502  0.20001105390E+03  0.27292622109E+03  0.21340974161E+04  0.21607560108E+04  0.12699999809E+01 0.  1.
</event>
<event>
 5   0  0.1397500E-03  0.1211469E+04  0.7818609E-02  0.9102877E-01
       -3   -1    0    0    0  501  0.00000000000E+00  0.00000000000E+00  0.64965081958E+03  0.64965082744E+03  0.10100000352E+00 0.  1.
        3   -1    0    0  501    0  0.00000000000E+00  0.00000000000E+00 -0.56478650118E+03  0.56478651022E+03  0.10100000352E+00 0. -1.
    10030    2    1    2    0    0  0.00000000000E+00  0.00000000000E+00  0.84864318400E+02  0.12144373377E+04  0.12114685694E+04 0.  0.
        3    1    3    3  502    0  0.13353953181E+03 -0.20229723243E+03 -0.51404712852E+03  0.56833215407E+03  0.10100000352E+00 0. -1.
       -3    1    3    3    0  502 -0.13353953181E+03  0.20229723243E+03  0.59891144692E+03  0.64610518359E+03  0.10100000352E+00 0.  1.
</event>
<event>
 5   0  0.2047109E-03  0.1203499E+04  0.7818609E-02  0.9109799E-01
       -1   -1    0    0    0  501  0.00000000000E+00  0.00000000000E+00  0.23097590886E+03  0.23097590891E+03  0.50400001928E-02 0.  1.
        1   -1    0    0  501    0  0.00000000000E+00  0.00000000000E+00 -0.15677063677E+04  0.15677063677E+04  0.50400001928E-02 0. -1.
    10030    2    1    2    0    0  0.00000000000E+00  0.00000000000E+00 -0.13367304588E+04  0.17986822766E+04  0.12034989043E+04 0.  0.
        1    1    3    3  502    0  0.34853610417E+02 -0.29041822139E+02  0.22841632465E+03  0.23287812045E+03  0.50400001928E-02 0.  1.
       -1    1    3    3    0  502 -0.34853610417E+02  0.29041822139E+02 -0.15651467835E+04  0.15658041562E+04  0.50400001928E-02 0. -1.
</event>
<event>
 5   0  0.1397500E-03  0.1212728E+04  0.7818609E-02  0.9101788E-01
       -3   -1    0    0    0  501  0.00000000000E+00  0.00000000000E+00  0.42923010001E+03  0.42923011190E+03  0.10100000352E+00 0. -1.
        3   -1    0    0  501    0  0.00000000000E+00  0.00000000000E+00 -0.85659676456E+03  0.85659677051E+03  0.10100000352E+00 0.  1.
    10030    2    1    2    0    0  0.00000000000E+00  0.00000000000E+00 -0.42736666454E+03  0.12858268824E+04  0.12127277129E+04 0.  0.
        3    1    3    3  502    0  0.51724429267E+03 -0.28851251107E+03 -0.75863725568E+02  0.59710672614E+03  0.10100000352E+00 0.  1.
       -3    1    3    3    0  502 -0.51724429267E+03  0.28851251107E+03 -0.35150293898E+03  0.68872015627E+03  0.10100000352E+00 0. -1.
</event>
<event>
 5   0  0.3650180E-03  0.1347491E+04  0.7818609E-02  0.8992729E-01
        2   -1    0    0  501    0  0.00000000000E+00  0.00000000000E+00  0.61326735754E+03  0.61326735755E+03  0.25500000920E-02 0. -1.
       -2   -1    0    0    0  501  0.00000000000E+00  0.00000000000E+00 -0.74018819242E+03  0.74018819242E+03  0.25500000920E-02 0.  1.
    10030    2    1    2    0    0  0.00000000000E+00  0.00000000000E+00 -0.12692083487E+03  0.13534555500E+04  0.13474913831E+04 0.  0.
        3    1    3    3  502    0  0.56195676272E+03  0.29838461676E+03  0.15911566182E+03  0.65585561424E+03  0.10100000352E+00 0. -1.
       -3    1    3    3    0  502 -0.56195676272E+03 -0.29838461676E+03 -0.28603649670E+03  0.69759993573E+03  0.10100000352E+00 0.  1.
</event>
<event>
 5   0  0.3626049E-03  0.1205654E+04  0.7818609E-02  0.9107922E-01
       -2   -1    0    0    0  501  0.00000000000E+00  0.00000000000E+00  0.12963414602E+04  0.12963414602E+04  0.25500000920E-02 0. -1.
        2   -1    0    0  501    0  0.00000000000E+00  0.00000000000E+00 -0.28032789130E+03  0.28032789131E+03  0.25500000920E-02 0.  1.
    10030    2    1    2    0    0  0.00000000000E+00  0.00000000000E+00  0.10160135689E+04  0.15766693515E+04  0.12056544579E+04 0.  0.
        1    1    3    3  502    0  0.50554476593E+03 -0.79197425549E+02  0.92474563397E+03  0.10568832623E+04  0.50400001928E-02 0. -1.
       -1    1    3    3    0  502 -0.50554476593E+03  0.79197425549E+02  0.91267934956E+02  0.51978608923E+03  0.50400001928E-02 0.  1.
</event>
<event>
 5   0  0.1397500E-03  0.1190504E+04  0.7818609E-02  0.9121209E-01
        4   -1    0    0  501    0  0.00000000000E+00  0.00000000000E+00  0.21555514177E+03  0.21555888301E+03  0.12699999809E+01 0.  1.
       -4   -1    0    0    0  501  0.00000000000E+00  0.00000000000E+00 -0.16437613433E+04  0.16437618339E+04  0.12699999809E+01 0. -1.
    10030    2    1    2    0    0  0.00000000000E+00  0.00000000000E+00 -0.14282062015E+04  0.18593207169E+04  0.11905043361E+04 0.  0.
        5    1    3    3  502    0  0.89695235405E+02 -0.38110561976E+03 -0.14143303240E+04  0.14675282226E+04  0.46999998093E+01 0. -1.
       -5    1    3    3    0  502 -0.89695235405E+02  0.38110561976E+03 -0.13875877549E+02  0.39179249437E+03  0.46999998093E+01 0.  1.
</event>
<event>
 5   0  0.2047109E-03  0.1359449E+04  0.7818609E-02  0.8983706E-01
       -1   -1    0    0    0  501  0.00000000000E+00  0.00000000000E+00  0.22216502752E+03  0.22216502758E+03  0.50400001928E-02 0.  1.
        1   -1    0    0  501    0  0.00000000000E+00  0.00000000000E+00 -0.20796498775E+04  0.20796498775E+04  0.50400001928E-02 0. -1.
    10030    2    1    2    0    0  0.00000000000E+00  0.00000000000E+00 -0.18574848500E+04  0.23018149051E+04  0.13594491125E+04 0.  0.
        1    1    3    3  502    0  0.15445249577E+03  0.35915478438E+02  0.19040812612E+03  0.24779174635E+03  0.50400001928E-02 0.  1.
       -1    1    3    3    0  502 -0.15445249577E+03 -0.35915478438E+02 -0.20478929761E+04  0.20540231587E+04  0.50400001928E-02 0. -1.
</event>
<event>
 5   0  0.2096270E-03  0.1192153E+04  0.7818609E-02  0.9119753E-01
        1   -1    0    0  501    0  0.00000000000E+00  0.00000000000E+00  0.66491742982E+03  0.66491742984E+03  0.50400001928E-02 0.  1.
       -1   -1    0    0    0  501  0.00000000000E+00  0.00000000000E+00 -0.53436251757E+03  0.53436251760E+03  0.50400001928E-02 0. -1.
    10030    2    1    2    0    0  0.00000000000E+00  0.00000000000E+00  0.13055491225E+03  0.11992799474E+04  0.11921525939E+04 0.  0.
        2    1    3    3  502    0  0.14207196519E+03  0.11685430052E+02 -0.51696252765E+03  0.53625669932E+03  0.25500000920E-02 0. -1.
       -2    1    3    3    0  502 -0.14207196519E+03 -0.11685430052E+02  0.64751743990E+03  0.66302324812E+03  0.25500000920E-02 0.  1.
</event>
<event>
 5   0  0.3650180E-03  0.1199506E+04  0.7818609E-02  0.9113289E-01
        2   -1    0    0  501    0  0.00000000000E+00  0.00000000000E+00  0.45236318087E+03  0.45236318088E+03  0.25500000920E-02 0. -1.
       -2   -1    0    0    0  501  0.00000000000E+00  0.00000000000E+00 -0.79516546005E+03  0.79516546005E+03  0.25500000920E-02 0.  1.
    10030    2    1    2    0    0  0.00000000000E+00  0.00000000000E+00 -0.34280227918E+03  0.12475286409E+04  0.11995058596E+04 0.  0.
        3    1    3    3  502    0  0.48971223141E+03 -0.29571382352E+03 -0.35871967471E+03  0.67523666239E+03  0.10100000352E+00 0.  1.
       -3    1    3    3    0  502 -0.48971223141E+03  0.29571382352E+03  0.15917395536E+02  0.57229197853E+03  0.10100000352E+00 0. -1.
</event>
<event>
 5   0  0.2096270E-03  0.1195952E+04  0.7818609E-02  0.9116407E-01
        1   -1    0    0  501    0  0.00000000000E+00  0.00000000000E+00  0.12048290026E+04  0.12048290026E+04  0.50400001928E-02 0.  1.
       -1   -1    0    0    0  501  0.00000000000E+00  0.00000000000E+00 -0.29678508810E+03  0.29678508814E+03  0.50400001928E-02 0. -1.
    10030    2    1    2    0    0  0.00000000000E+00  0.00000000000E+00  0.90804391451E+03  0.15016140908E+04  0.11959519752E+04 0.  0.
        2    1    3    3  502    0  0.20335094587E+03 -0.54458623074E+03  0.27801879251E+03  0.64437583668E+03  0.25500000920E-02 0. -1.
       -2    1    3    3    0  502 -0.20335094587E+03  0.54458623074E+03  0.63002512200E+03  0.85723825408E+03  0.25500000920E-02 0.  1.
</event>
<event>
 5   0  0.3725376E-03  0.1190686E+04  0.7818609E-02  0.9121048E-01
       -2   -1    0    0    0  501  0.00000000000E+00  0.00000000000E+00  0.10510236563E+04  0.10510236563E+04  0.25500000920E-02 0.  1.
        2   -1    0    0  501    0  0.00000000000E+00  0.00000000000E+00 -0.33722696648E+03  0.33722696649E+03  0.25500000920E-02 0. -1.
    10030    2    1    2    0    0  0.00000000000E+00  0.00000000000E+00  0.71379668981E+03  0.13882506228E+04  0.11906863891E+04 0.  0.
        4    1    3    3  502    0  0.43417973334E+03  0.26395831534E+03  0.71860920356E+03  0.88010614895E+03  0.12699999809E+01 0.  1.
       -4    1    3    3    0  502 -0.43417973334E+03 -0.26395831534E+03 -0.48125137491E+01  0.50814447382E+03  0.12699999809E+01 0. -1.
</event>
<event>
 5   0  0.2078258E-03  0.1210041E+04  0.7818609E-02  0.9104113E-01
        1   -1    0    0  501    0  0.00000000000E+00  0.00000000000E+00  0.50018846592E+03  0.50018846595E+03  0.50400001928E-02 0. -1.
       -1   -1    0    0    0  501  0.00000000000E+00  0.00000000000E+00 -0.73182361141E+03  0.73182361143E+03  0.50400001928E-02 0.  1.
    10030    2    1    2    0    0  0.00000000000E+00  0.00000000000E+00 -0.23163514549E+03  0.12320120774E+04  0.12100408746E+04 0.  0.
        3    1    3    3  502    0  0.22756556976E+03 -0.75871159730E+00 -0.68658816449E+03  0.72331872781E+03  0.10100000352E+00 0.  1.
       -3    1    3    3    0  502 -0.22756556976E+03  0.75871159730E+00  0.45495301900E+03  0.50869334956E+03  0.10100000352E+00 0. -1.
</event>
<event>
 5   0  0.2047109E-03  0.1202546E+04  0.7818609E-02  0.9110631E-01
       -1   -1    0    0    0  501  0.00000000000E+00  0.00000000000E+00  0.33748765769E+03  0.33748765773E+03  0.50400001928E-02 0. -1.
        1   -1    0    0  501    0  0.00000000000E+00  0.00000000000E+00 -0.10712369334E+04  0.10712369334E+04  0.50400001928E-02 0.  1.
    10030    2    1    2    0    0  0.00000000000E+00  0.00000000000E+00 -0.73374927571E+03  0.14087245911E+04  0.12025460382E+04 0.  0.
        1    1    3    3  502    0 -0.26541626383E+03  0.16493573525E+03 -0.96864020879E+03  0.10177983317E+04  0.50400001928E-02 0.  1.
       -1    1    3    3    0  502  0.26541626383E+03 -0.16493573525E+03  0.23489093308E+03  0.39092625946E+03  0.50400001928E-02 0. -1.
</event>
<event>
 5   0  0.3725376E-03  0.1152956E+04  0.7818609E-02  0.9155061E-01
        2   -1    0    0  501    0  0.00000000000E+00  0.00000000000E+00  0.77191496476E+03  0.77191496476E+03  0.25500000920E-02 0. -1.
       -2   -1    0    0    0  501  0.00000000000E+00  0.00000000000E+00 -0.43052241045E+03  0.43052241045E+03  0.25500000920E-02 0.  1.
    10030    2    1    2    0    0  0.00000000000E+00  0.00000000000E+00  0.34139255431E+03  0.12024373752E+04  0.11529556649E+04 0.  0.
        4    1    3    3  502    0  0.21779672075E+03  0.33559268160E+02 -0.38486002864E+03  0.44348674230E+03  0.12699999809E+01 0.  1.
       -4    1    3    3    0  502 -0.21779672075E+03 -0.33559268160E+02  0.72625258295E+03  0.75895063291E+03  0.12699999809E+01 0. -1.
</event>
<event>
 5   0  0.3751091E-03  0.1177335E+04  0.7818609E-02  0.9132930E-01
        2   -1    0    0  501    0  0.00000000000E+00  0.00000000000E+00  0.10636542147E+04  0.10636542147E+04  0.25500000920E-02 0.  1.
       -2   -1    0    0    0  501  0.00000000000E+00  0.00000000000E+00 -0.32579116804E+03  0.32579116805E+03  0.25500000920E-02 0. -1.
    10030    2    1    2    0    0  0.00000000000E+00  0.00000000000E+00  0.73786304668E+03  0.13894453828E+04  0.11773345302E+04 0.  0.
        5    1    3    3  502    0  0.27759849622E+03 -0.26520065542E+03 -0.15768358006E+03  0.41506446988E+03  0.46999998093E+01 0. -1.
       -5    1    3    3    0  502 -0.27759849622E+03  0.26520065542E+03  0.89554662674E+03  0.97438091289E+03  0.46999998093E+01 0.  1.
</event>
<event>
 5   0  0.2096270E-03  0.1237000E+04  0.7818609E-02  0.9081073E-01
        1   -1    0    0  501    0  0.00000000000E+00  0.00000000000E+00  0.50796089534E+03  0.50796089536E+03  0.50400001928E-02 0. -1.
       -1   -1    0    0    0  501  0.00000000000E+00  0.00000000000E+00 -0.75309425884E+03  0.75309425886E+03  0.50400001928E-02 0.  1.
    10030    2    1    2    0    0  0.00000000000E+00  0.00000000000E+00 -0.24513336350E+03  0.12610551542E+04  0.12370002975E+04 0.  0.
        2    1    3    3  502    0 -0.51985700181E+03  0.99385035481E+02 -0.44881133598E+03  0.69394546105E+03  0.25500000920E-02 0.  1.
       -2    1    3    3    0  502  0.51985700181E+03 -0.99385035481E+02  0.20367797248E+03  0.56710969317E+03  0.25500000920E-02 0. -1.
</event>
<event>
 5   0  0.2096270E-03  0.1206011E+04  0.7818609E-02  0.9107612E-01
       -1   -1    0    0    0  501  0.00000000000E+00  0.00000000000E+00  0.17927844750E+03  0.17927844757E+03  0.50400001928E-02 0.  1.
        1   -1    0    0  501    0  0.00000000000E+00  0.00000000000E+00 -0.20282165202E+04  0.20282165202E+04  0.50400001928E-02 0. -1.
    10030    2    1    2    0    0  0.00000000000E+00  0.00000000000E+00 -0.18489380727E+04  0.22074949678E+04  0.12060107943E+04 0.  0.
        2    1    3    3  502    0 -0.30103269605E+03  0.16185984560E+03 -0.18337911965E+04  0.18653711282E+04  0.25500000920E-02 0. -1.
       -2    1    3    3    0  502  0.30103269605E+03 -0.16185984560E+03 -0.15146876187E+02  0.34212383953E+03  0.25500000920E-02 0.  1.
</event>
<event>
 5   0  0.2047109E-03  0.1205924E+04  0.7818609E-02  0.9107687E-01
        1   -1    0    0  501    0  0.00000000000E+00  0.00000000000E+00  0.29769665847E+03  0.29769665852E+03  0.50400001928E-02 0.  1.
       -1   -1    0    0    0  501  0.00000000000E+00  0.00000000000E+00 -0.12212543883E+04  0.12212543883E+04  0.50400001928E-02 0. -1.
    10030    2    1    2    0    0  0.00000000000E+00  0.00000000000E+00 -0.92355772982E+03  0.15189510468E+04  0.12059242938E+04 0.  0.
        1    1    3    3  502    0 -0.69456580444E+02  0.18444968529E+03 -0.11795343921E+04  0.11958876558E+04  0.50400001928E-02 0. -1.
       -1    1    3    3    0  502  0.69456580444E+02 -0.18444968529E+03  0.25597666230E+03  0.32306339106E+03  0.50400001928E-02 0.  1.
</event>
<event>
 5   0  0.2025294E-03  0.1187406E+04  0.7818609E-02  0.9123952E-01
        1   -1    0    0  501    0  0.00000000000E+00  0.00000000000E+00  0.77360161936E+03  0.77360161937E+03  0.50400001928E-02 0. -1.
       -1   -1    0    0    0  501  0.00000000000E+00  0.00000000000E+00 -0.45563937090E+03  0.45563937092E+03  0.50400001928E-02 0.  1.
    10030    2    1    2    0    0  0.00000000000E+00  0.00000000000E+00  0.31796224846E+03  0.12292409903E+04  0.11874061735E+04 0.  0.
        5    1    3    3  502    0 -0.55788269654E+03 -0.11329803172E+03  0.33341609967E+03  0.65974080714E+03  0.46999998093E+01 0. -1.
       -5    1    3    3    0  502  0.55788269654E+03  0.11329803172E+03 -0.15453851212E+02  0.56950018315E+03  0.46999998093E+01 0.  1.
</event>
<event>
 5   0  0.2078258E-03  0.1197468E+04  0.7818609E-02  0.9115076E-01
        1   -1    0    0  501    0  0.00000000000E+00  0.00000000000E+00  0.54904463540E+03  0.54904463542E+03  0.50400001928E-02 0. -1.
       -1   -1    0    0    0  501  0.00000000000E+00  0.00000000000E+00 -0.65291999697E+03  0.65291999698E+03  0.50400001928E-02 0.  1.
    10030    2    1    2    0    0  0.00000000000E+00  0.00000000000E+00 -0.10387536157E+03  0.12019646324E+04  0.11974676976E+04 0.  0.
        3    1    3    3  502    0 -0.21239339774E+03  0.85704571237E+02  0.50333592768E+03  0.55299484195E+03  0.10100000352E+00 0. -1.
       -3    1    3    3    0  502  0.21239339774E+03 -0.85704571237E+02 -0.60721128924E+03  0.64896979045E+03  0.10100000352E+00 0.  1.
</event>
<event>
 5   0  0.3626049E-03  0.1322751E+04  0.7818609E-02  0.9011715E-01
       -2   -1    0    0    0  501  0.00000000000E+00  0.00000000000E+00  0.16364544678E+03  0.16364544680E+03  0.25500000920E-02 0.  1.
        2   -1    0    0  501    0  0.00000000000E+00  0.00000000000E+00 -0.26729606097E+04  0.26729606097E+04  0.25500000920E-02 0. -1.
    10030    2    1    2    0    0  0.00000000000E+00  0.00000000000E+00 -0.25093151629E+04  0.28366060565E+04  0.13227514252E+04 0.  0.
        1    1    3    3  502    0  0.57751866707E+03  0.50408830722E+02 -0.57195670243E+03  0.81437296769E+03  0.50400001928E-02 0.  1.
       -1    1    3    3    0  502 -0.57751866707E+03 -0.50408830722E+02 -0.19373584605E+04  0.20222330888E+04  0.50400001928E-02 0. -1.
</event>
<event>
 5   0  0.2025294E-03  0.1148878E+04  0.7818609E-02  0.9158819E-01
        1   -1    0    0  501    0  0.00000000000E+00  0.00000000000E+00  0.17499072265E+03  0.17499072272E+03  0.50400001928E-02 0. -1.
       -1   -1    0    0    0  501  0.00000000000E+00  0.00000000000E+00 -0.18857023064E+04  0.18857023064E+04  0.50400001928E-02 0.  1.
    10030    2    1    2    0    0  0.00000000000E+00  0.00000000000E+00 -0.17107115837E+04  0.20606930291E+04  0.11488784259E+04 0.  0.
        5    1    3    3  502    0  0.57398228948E+03  0.19790473928E+00 -0.89556777294E+03  0.10637290227E+04  0.46999998093E+01 0.  1.
       -5    1    3    3    0  502 -0.57398228948E+03 -0.19790473928E+00 -0.81514381079E+03  0.99696400641E+03  0.46999998093E+01 0. -1.
</event>
<event>
 5   0  0.2047109E-03  0.1233579E+04  0.7818609E-02  0.9083962E-01
        1   -1    0    0  501    0  0.00000000000E+00  0.00000000000E+00  0.93769637862E+03  0.93769637863E+03  0.50400001928E-02 0.  1.
       -1   -1    0    0    0  501  0.00000000000E+00  0.00000000000E+00 -0.40570644261E+03  0.40570644264E+03  0.50400001928E-02 0. -1.
    10030    2    1    2    0    0  0.00000000000E+00  0.00000000000E+00  0.53198993601E+03  0.13434028213E+04  0.12335792833E+04 0.  0.
        1    1    3    3  502    0 -0.21712774563E+03 -0.74687692133E+02  0.88941662348E+03  0.91857750867E+03  0.50400001928E-02 0.  1.
       -1    1    3    3    0  502  0.21712774563E+03  0.74687692133E+02 -0.35742668748E+03  0.42482531260E+03  0.50400001928E-02 0. -1.
</event>
<event>
 5   0  0.2047109E-03  0.1186088E+04  0.7818609E-02  0.9125121E-01
        1   -1    0    0  501    0  0.00000000000E+00  0.00000000000E+00  0.63020470195E+03  0.63020470197E+03  0.50400001928E-02 0. -1.
       -1   -1    0    0    0  501  0.00000000000E+00  0.00000000000E+00 -0.55807485188E+03  0.55807485191E+03  0.50400001928E-02 0.  1.
    10030    2    1    2    0    0  0.00000000000E+00  0.00000000000E+00  0.72129850071E+02  0.11882795539E+04  0.11860883537E+04 0.  0.
        1    1    3    3  502    0 -0.48807393034E+03 -0.19384194476E+01  0.37355738324E+03  0.61462593302E+03  0.50400001928E-02 0. -1.
       -1    1    3    3    0  502  0.48807393034E+03  0.19384194476E+01 -0.30142753317E+03  0.57365362086E+03  0.50400001928E-02 0.  1.
</event>
<event>
 5   0  0.2134992E-03  0.1201723E+04  0.7818609E-02  0.9111349E-01
        1   -1    0    0  501    0  0.00000000000E+00  0.00000000000E+00  0.46374504736E+03  0.46374504739E+03  0.50400001928E-02 0. -1.
       -1   -1    0    0    0  501  0.00000000000E+00  0.00000000000E+00 -0.77851991112E+03  0.77851991113E+03  0.50400001928E-02 0.  1.
    10030    2    1    2    0    0  0.00000000000E+00  0.00000000000E+00 -0.31477486375E+03  0.12422649585E+04  0.12017233510E+04 0.  0.
        4    1    3    3  502    0 -0.22627749196E+03 -0.16689136117E+03  0.39154393623E+03  0.48203993268E+03  0.12699999809E+01 0. -1.
       -4    1    3    3    0  502  0.22627749196E+03  0.16689136117E+03 -0.70631879998E+03  0.76022502584E+03  0.12699999809E+01 0.  1.
</event>
<event>
 5   0  0.2078258E-03  0.1159910E+04  0.7818609E-02  0.9148690E-01
       -1   -1    0    0    0  501  0.00000000000E+00  0.00000000000E+00  0.63015467417E+03  0.63015467419E+03  0.50400001928E-02 0.  1.
        1   -1    0    0  501    0  0.00000000000E+00  0.00000000000E+00 -0.53375391525E+03  0.53375391527E+03  0.50400001928E-02 0. -1.
    10030    2    1    2    0    0  0.00000000000E+00  0.00000000000E+00  0.96400758922E+02  0.11639085895E+04  0.11599095216E+04 0.  0.
        3    1    3    3  502    0 -0.66102841335E+02  0.30999597621E+03 -0.43914932730E+03  0.54158954271E+03  0.10100000352E+00 0. -1.
       -3    1    3    3    0  502  0.66102841335E+02 -0.30999597621E+03  0.53555008622E+03  0.62231904675E+03  0.10100000352E+00 0.  1.
</event>
<event>
 5   0  0.3626049E-03  0.1210443E+04  0.7818609E-02  0.9103765E-01
       -2   -1    0    0    0  501  0.00000000000E+00  0.00000000000E+00  0.76543525869E+03  0.76543525869E+03  0.25500000920E-02 0. -1.
        2   -1    0    0  501    0  0.00000000000E+00  0.00000000000E+00 -0.47854215666E+03  0.47854215667E+03  0.25500000920E-02 0.  1.
    10030    2    1    2    0    0  0.00000000000E+00  0.00000000000E+00  0.28689310202E+03  0.12439774154E+04  0.12104429594E+04 0.  0.
        1    1    3    3  502    0 -0.48655854037E+03 -0.10780901104E+03  0.49637139998E+03  0.70338223095E+03  0.50400001928E-02 0. -1.
       -1    1    3    3    0  502  0.48655854037E+03  0.10780901104E+03 -0.20947829796E+03  0.54059518441E+03  0.50400001928E-02 0.  1.
</event>
<event>
 5   0  0.3650180E-03  0.1188958E+04  0.7818609E-02  0.9122577E-01
       -2   -1    0    0    0  501  0.00000000000E+00  0.00000000000E+00  0.32990299635E+03  0.32990299636E+03  0.25500000920E-02 0.  1.
        2   -1    0    0  501    0  0.00000000000E+00  0.00000000000E+00 -0.10712404599E+04  0.10712404599E+04  0.25500000920E-02 0. -1.
    10030    2    1    2    0    0  0.00000000000E+00  0.00000000000E+00 -0.74133746359E+03  0.14011434563E+04  0.11889582626E+04 0.  0.
        3    1    3    3  502    0  0.16732702271E+03  0.14167805890E+03 -0.10218529664E+04  0.10451098028E+04  0.10100000352E+00 0. -1.
       -3    1    3    3    0  502 -0.16732702271E+03 -0.14167805890E+03  0.28051550278E+03  0.35603365347E+03  0.10100000352E+00 0.  1.
</event>
<event>
 5   0  0.2078258E-03  0.1212314E+04  0.7818609E-02  0.9102146E-01
        1   -1    0    0  501    0  0.00000000000E+00  0.00000000000E+00  0.99952033142E+03  0.99952033143E+03  0.50400001928E-02 0.  1.
       -1   -1    0    0    0  501  0.00000000000E+00  0.00000000000E+00 -0.36760257076E+03  0.36760257079E+03  0.50400001928E-02 0. -1.
    10030    2    1    2    0    0  0.00000000000E+00  0.00000000000E+00  0.63191776067E+03  0.13671229022E+04  0.12123138923E+04 0.  0.
        3    1    3    3  502    0 -0.43717427841E+03  0.35740664453E+03  0.56447573323E+03  0.79843204023E+03  0.10100000352E+00 0.  1.
       -3    1    3    3    0  502  0.43717427841E+03 -0.35740664453E+03  0.67442027436E+02  0.56869086200E+03  0.10100000352E+00 0. -1.
</event>
<event>
 5   0  0.1397500E-03  0.1074796E+04  0.7818609E-02  0.9230111E-01
       -4   -1    0    0    0  501  0.00000000000E+00  0.00000000000E+00  0.49594661121E+03  0.49594823729E+03  0.12699999809E+01 0.  1.
        4   -1    0    0  501    0  0.00000000000E+00  0.00000000000E+00 -0.58231077610E+03  0.58231216101E+03  0.12699999809E+01 0. -1.
    10030    2    1    2    0    0  0.00000000000E+00  0.00000000000E+00 -0.86364164889E+02  0.10782603983E+04  0.10747961284E+04 0.  0.
        4    1    3    3  502    0  0.44077693653E+03 -0.10870600279E+03  0.24531002811E+03  0.51602318322E+03  0.12699999809E+01 0.  1.
       -4    1    3    3    0  502 -0.44077693653E+03  0.10870600279E+03 -0.33167419300E+03  0.56223721509E+03  0.12699999809E+01 0. -1.
</event>
<event>
 5   0  0.2134992E-03  0.1196295E+04  0.7818609E-02  0.9116106E-01
       -1   -1    0    0    0  501  0.00000000000E+00  0.00000000000E+00  0.64361429049E+03  0.64361429051E+03  0.50400001928E-02 0.  1.
        1   -1    0    0  501    0  0.00000000000E+00  0.00000000000E+00 -0.55589245776E+03  0.55589245778E+03  0.50400001928E-02 0. -1.
    10030    2    1    2    0    0  0.00000000000E+00  0.00000000000E+00  0.87721832725E+02  0.11995067483E+04  0.11962948296E+04 0.  0.
        4    1    3    3  502    0 -0.38724524108E+03  0.33647296965E+03  0.35226726336E+03  0.62230761990E+03  0.12699999809E+01 0.  1.
       -4    1    3    3    0  502  0.38724524108E+03 -0.33647296965E+03 -0.26454543063E+03  0.57719912839E+03  0.12699999809E+01 0. -1.
</event>
<event>
 5   0  0.2096270E-03  0.1203926E+04  0.7818609E-02  0.9109427E-01
        1   -1    0    0  501    0  0.00000000000E+00  0.00000000000E+00  0.12392825669E+04  0.12392825669E+04  0.50400001928E-02 0.  1.
       -1   -1    0    0    0  501  0.00000000000E+00  0.00000000000E+00 -0.29239477148E+03  0.29239477152E+03  0.50400001928E-02 0. -1.
    10030    2    1    2    0    0  0.00000000000E+00  0.00000000000E+00  0.94688779544E+03  0.15316773385E+04  0.12039264811E+04 0.  0.
        2    1    3    3  502    0  0.29783416785E+03  0.92889649833E+02  0.11283991262E+04  0.11707340717E+04  0.25500000920E-02 0.  1.
       -2    1    3    3    0  502 -0.29783416785E+03 -0.92889649833E+02 -0.18151133080E+03  0.36094326673E+03  0.25500000920E-02 0. -1.
</event>
<event>
 5   0  0.2047109E-03  0.1290433E+04  0.7818609E-02  0.9037186E-01
       -1   -1    0    0    0  501  0.00000000000E+00  0.00000000000E+00  0.22925415467E+03  0.22925415473E+03  0.50400001928E-02 0. -1.
        1   -1    0    0  501    0  0.00000000000E+00  0.00000000000E+00 -0.18159078337E+04  0.18159078337E+04  0.50400001928E-02 0.  1.
    10030    2    1    2    0    0  0.00000000000E+00  0.00000000000E+00 -0.15866536791E+04  0.20451619885E+04  0.12904331295E+04 0.  0.
        1    1    3    3  502    0 -0.22922406436E+03 -0.26402378122E+03  0.66091099590E+02  0.35583740979E+03  0.50400001928E-02 0. -1.
       -1    1    3    3    0  502  0.22922406436E+03  0.26402378122E+03 -0.16527447787E+04  0.16893245787E+04  0.50400001928E-02 0.  1.
</event>
<event>
 5   0  0.2025294E-03  0.1175262E+04  0.7818609E-02  0.9134789E-01
        1   -1    0    0  501    0  0.00000000000E+00  0.00000000000E+00  0.37245186627E+03  0.37245186630E+03  0.50400001928E-02 0. -1.
       -1   -1    0    0    0  501  0.00000000000E+00  0.00000000000E+00 -0.92712762616E+03  0.92712762617E+03  0.50400001928E-02 0.  1.
    10030    2    1    2    0    0  0.00000000000E+00  0.00000000000E+00 -0.55467575990E+03  0.12995794925E+04  0.11752623786E+04 0.  0.
        5    1    3    3  502    0  0.35967024240E+03 -0.19436490204E+03  0.18938425777E+03  0.45058726736E+03  0.46999998093E+01 0. -1.
       -5    1    3    3    0  502 -0.35967024240E+03  0.19436490204E+03 -0.74406001767E+03  0.84899222511E+03  0.46999998093E+01 0.  1.
</event>
<event>
 5   0  0.3751091E-03  0.1191912E+04  0.7818609E-02  0.9119965E-01
        2   -1    0    0  501    0  0.00000000000E+00  0.00000000000E+00  0.19340818261E+04  0.19340818261E+04  0.25500000920E-02 0. -1.
       -2   -1    0    0    0  501  0.00000000000E+00  0.00000000000E+00 -0.18363423808E+03  0.18363423810E+03  0.25500000920E-02 0.  1.
    10030    2    1    2    0    0  0.00000000000E+00  0.00000000000E+00  0.17504475880E+04  0.21177160642E+04  0.11919121487E+04 0.  0.
        5    1    3    3  502    0 -0.22471666593E+03 -0.47960473106E+03  0.13605800545E+04  0.14600405654E+04  0.46999998093E+01 0. -1.
       -5    1    3    3    0  502  0.22471666593E+03  0.47960473106E+03  0.38986753354E+03  0.65767549879E+03  0.46999998093E+01 0.  1.
</event>
<event>
 5   0  0.3725376E-03  0.1206467E+04  0.7818609E-02  0.9107215E-01
        2   -1    0    0  501    0  0.00000000000E+00  0.00000000000E+00  0.59833637394E+03  0.59833637395E+03  0.25500000920E-02 0. -1.
       -2   -1    0    0    0  501  0.00000000000E+00  0.00000000000E+00 -0.60817045425E+03  0.60817045426E+03  0.25500000920E-02 0.  1.
    10030    2    1    2    0    0  0.00000000000E+00  0.00000000000E+00 -0.98340803084E+01  0.12065068282E+04  0.12064667494E+04 0.  0.
        4    1    3    3  502    0 -0.42169626531E+03 -0.29547999862E+03 -0.31917693725E+03  0.60581490567E+03  0.12699999809E+01 0.  1.
       -4    1    3    3    0  502  0.42169626531E+03  0.29547999862E+03  0.30934285694E+03  0.60069192254E+03  0.12699999809E+01 0. -1.
</event>
<event>
 5   0  0.2025294E-03  0.1222330E+04  0.7818609E-02  0.9093532E-01
        1   -1    0    0  501    0  0.00000000000E+00  0.00000000000E+00  0.41261844033E+03  0.41261844036E+03  0.50400001928E-02 0. -1.
       -1   -1    0    0    0  501  0.00000000000E+00  0.00000000000E+00 -0.90525016851E+03  0.90525016852E+03  0.50400001928E-02 0.  1.
    10030    2    1    2    0    0  0.00000000000E+00  0.00000000000E+00 -0.49263172818E+03  0.13178686089E+04  0.12223304180E+04 0.  0.
        5    1    3    3  502    0  0.19066538965E+03 -0.19358846043E+03  0.34389320888E+03  0.43830858072E+03  0.46999998093E+01 0. -1.
       -5    1    3    3    0  502 -0.19066538965E+03  0.19358846043E+03 -0.83652493706E+03  0.87956002816E+03  0.46999998093E+01 0.  1.
</event>
<event>
 5   0  0.1397500E-03  0.1183314E+04  0.7818609E-02  0.9127588E-01
        3   -1    0    0  501    0  0.00000000000E+00  0.00000000000E+00  0.72244867616E+03  0.72244868322E+03  0.10100000352E+00 0.  1.
       -3   -1    0    0    0  501  0.00000000000E+00  0.00000000000E+00 -0.48454388608E+03  0.48454389661E+03  0.10100000352E+00 0. -1.
    10030    2    1    2    0    0  0.00000000000E+00  0.00000000000E+00  0.23790479008E+03  0.12069925798E+04  0.11833141589E+04 0.  0.
        2    1    3    3  502    0 -0.22541104008E+03  0.11923689296E+03  0.66351802342E+03  0.71083313164E+03  0.25500000920E-02 0.  1.
       -2    1    3    3    0  502  0.22541104008E+03 -0.11923689296E+03 -0.42561323334E+03  0.49615944819E+03  0.25500000920E-02 0. -1.
</event>
<event>
 5   0  0.3626049E-03  0.1209122E+04  0.7818609E-02  0.9104909E-01
        2   -1    0    0  501    0  0.00000000000E+00  0.00000000000E+00  0.13922736185E+04  0.13922736185E+04  0.25500000920E-02 0. -1.
       -2   -1    0    0    0  501  0.00000000000E+00  0.00000000000E+00 -0.26251609897E+03  0.26251609898E+03  0.25500000920E-02 0.  1.
    10030    2    1    2    0    0  0.00000000000E+00  0.00000000000E+00  0.11297575196E+04  0.16547897175E+04  0.12091223909E+04 0.  0.
        1    1    3    3  502    0 -0.32630981384E+03  0.22985439802E+03 -0.56561066691E+02  0.40312565434E+03  0.50400001928E-02 0.  1.
       -1    1    3    3    0  502  0.32630981384E+03 -0.22985439802E+03  0.11863185863E+04  0.12516640632E+04  0.50400001928E-02 0. -1.
</event>
<event>
 5   0  0.3725376E-03  0.1189828E+04  0.7818609E-02  0.9121807E-01
        2   -1    0    0  501    0  0.00000000000E+00  0.00000000000E+00  0.95589581278E+03  0.95589581279E+03  0.25500000920E-02 0.  1.
       -2   -1    0    0    0  501  0.00000000000E+00  0.00000000000E+00 -0.37025210226E+03  0.37025210227E+03  0.25500000920E-02 0. -1.
    10030    2    1    2    0    0  0.00000000000E+00  0.00000000000E+00  0.58564371053E+03  0.13261479151E+04  0.11898276081E+04 0.  0.
        4    1    3    3  502    0  0.34479016852E+03  0.44998433330E+03  0.91720724595E+02  0.57426515195E+03  0.12699999809E+01 0. -1.
       -4    1    3    3    0  502 -0.34479016852E+03 -0.44998433330E+03  0.49392298593E+03  0.75188276310E+03  0.12699999809E+01 0.  1.
</event>
<event>
 5   0  0.3725376E-03  0.1194203E+04  0.7818609E-02  0.9117946E-01
        2   -1    0    0  501    0  0.00000000000E+00  0.00000000000E+00  0.57638632060E+03  0.57638632060E+03  0.25500000920E-02 0. -1.
       -2   -1    0    0    0  501  0.00000000000E+00  0.00000000000E+00 -0.61856140389E+03  0.61856140390E+03  0.25500000920E-02 0.  1.
    10030    2    1    2    0    0  0.00000000000E+00  0.00000000000E+00 -0.42175083297E+02  0.11949477245E+04  0.11942032183E+04 0.  0.
        4    1    3    3  502    0 -0.65608857756E+02 -0.54404193054E+03 -0.25839056146E+03  0.60584935385E+03  0.12699999809E+01 0.  1.
       -4    1    3    3    0  502  0.65608857756E+02  0.54404193054E+03  0.21621547816E+03  0.58909837065E+03  0.12699999809E+01 0. -1.
</event>
<event>
 5   0  0.2134992E-03  0.1201594E+04  0.7818609E-02  0.9111462E-01
       -1   -1    0    0    0  501  0.00000000000E+00  0.00000000000E+00  0.70545926722E+03  0.70545926724E+03  0.50400001928E-02 0.  1.
        1   -1    0    0  501    0  0.00000000000E+00  0.00000000000E+00 -0.51166259629E+03  0.51166259631E+03  0.50400001928E-02 0. -1.
    10030    2    1    2    0    0  0.00000000000E+00  0.00000000000E+00  0.19379667093E+03  0.12171218635E+04  0.12015941416E+04 0.  0.
        4    1    3    3  502    0  0.12745345557E+03 -0.55808384068E+02  0.68891372776E+03  0.70282479771E+03  0.12699999809E+01 0.  1.
       -4    1    3    3    0  502 -0.12745345557E+03  0.55808384068E+02 -0.49511705683E+03  0.51429706584E+03  0.12699999809E+01 0. -1.
</event>
<event>
 5   0  0.2078258E-03  0.1207669E+04  0.7818609E-02  0.9106171E-01
        1   -1    0    0  501    0  0.00000000000E+00  0.00000000000E+00  0.32144067915E+03  0.32144067919E+03  0.50400001928E-02 0.  1.
       -1   -1    0    0    0  501  0.00000000000E+00  0.00000000000E+00 -0.11343178309E+04  0.11343178309E+04  0.50400001928E-02 0. -1.
    10030    2    1    2    0    0  0.00000000000E+00  0.00000000000E+00 -0.81287715171E+03  0.14557585101E+04  0.12076686532E+04 0.  0.
        3    1    3    3  502    0 -0.26076876016E+03 -0.54437040365E+03 -0.38639794246E+03  0.71668881866E+03  0.10100000352E+00 0.  1.
       -3    1    3    3    0  502  0.26076876016E+03  0.54437040365E+03 -0.42647920925E+03  0.73906969142E+03  0.10100000352E+00 0. -1.
</event>
<event>
 5   0  0.2078258E-03  0.1195726E+04  0.7818609E-02  0.9116606E-01
       -1   -1    0    0    0  501  0.00000000000E+00  0.00000000000E+00  0.24465107888E+03  0.24465107893E+03  0.50400001928E-02 0.  1.
        1   -1    0    0  501    0  0.00000000000E+00  0.00000000000E+00 -0.14610198197E+04  0.14610198197E+04  0.50400001928E-02 0. -1.
    10030    2    1    2    0    0  0.00000000000E+00  0.00000000000E+00 -0.12163687408E+04  0.17056708986E+04  0.11957258468E+04 0.  0.
        3    1    3    3  502    0  0.52803523354E+03 -0.24437017291E+03 -0.80430278417E+03  0.99269379372E+03  0.10100000352E+00 0. -1.
       -3    1    3    3    0  502 -0.52803523354E+03  0.24437017291E+03 -0.41206595661E+03  0.71297710487E+03  0.10100000352E+00 0.  1.
</event>
<event>
 5   0  0.3626049E-03  0.1174993E+04  0.7818609E-02  0.9135032E-01
       -2   -1    0    0    0  501  0.00000000000E+00  0.00000000000E+00  0.33974390531E+03  0.33974390532E+03  0.25500000920E-02 0.  1.
        2   -1    0    0  501    0  0.00000000000E+00  0.00000000000E+00 -0.10159178259E+04  0.10159178259E+04  0.25500000920E-02 0. -1.
    10030    2    1    2    0    0  0.00000000000E+00  0.00000000000E+00 -0.67617392055E+03  0.13556617312E+04  0.11749925781E+04 0.  0.
        1    1    3    3  502    0 -0.65265094731E+02 -0.24399498308E+03 -0.95007998013E+03  0.98307937269E+03  0.50400001928E-02 0. -1.
       -1    1    3    3    0  502  0.65265094731E+02  0.24399498308E+03  0.27390605957E+03  0.37258235848E+03  0.50400001928E-02 0.  1.
</event>
<event>
 5   0  0.2134992E-03  0.1187839E+04  0.7818609E-02  0.9123568E-01
       -1   -1    0    0    0  501  0.00000000000E+00  0.00000000000E+00  0.51432963601E+03  0.51432963603E+03  0.50400001928E-02 0.  1.
        1   -1    0    0  501    0  0.00000000000E+00  0.00000000000E+00 -0.68582534593E+03  0.68582534594E+03  0.50400001928E-02 0. -1.
    10030    2    1    2    0    0  0.00000000000E+00  0.00000000000E+00 -0.17149570992E+03  0.12001549820E+04  0.11878388789E+04 0.  0.
        4    1    3    3  502    0 -0.57996100024E+02  0.13508874922E+03  0.49565418219E+03  0.51699825822E+03  0.12699999809E+01 0.  1.
       -4    1    3    3    0  502  0.57996100024E+02 -0.13508874922E+03 -0.66714989210E+03  0.68315672376E+03  0.12699999809E+01 0. -1.
</event>
<event>
 5   0  0.3650180E-03  0.1194469E+04  0.7818609E-02  0.9117712E-01
       -2   -1    0    0    0  501  0.00000000000E+00  0.00000000000E+00  0.39104551504E+03  0.39104551505E+03  0.25500000920E-02 0. -1.
        2   -1    0    0  501    0  0.00000000000E+00  0.00000000000E+00 -0.91214149353E+03  0.91214149354E+03  0.25500000920E-02 0.  1.
    10030    2    1    2    0    0  0.00000000000E+00  0.00000000000E+00 -0.52109597849E+03  0.13031870086E+04  0.11944686520E+04 0.  0.
        3    1    3    3  502    0  0.20437146722E+03 -0.14309413713E+03 -0.85256505457E+03  0.88831909311E+03  0.10100000352E+00 0.  1.
       -3    1    3    3    0  502 -0.20437146722E+03  0.14309413713E+03  0.33146907608E+03  0.41486791548E+03  0.10100000352E+00 0. -1.
</event>
<event>
 5   0  0.2025294E-03  0.1185680E+04  0.7818609E-02  0.9125484E-01
       -1   -1    0    0    0  501  0.00000000000E+00  0.00000000000E+00  0.85647569578E+03  0.85647569580E+03  0.50400001928E-02 0. -1.
        1   -1    0    0  501    0  0.00000000000E+00  0.00000000000E+00 -0.41035502115E+03  0.41035502118E+03  0.50400001928E-02 0.  1.
    10030    2    1    2    0    0  0.00000000000E+00  0.00000000000E+00  0.44612067464E+03  0.12668307170E+04  0.11856797245E+04 0.  0.
        5    1    3    3  502    0  0.14698043503E+03 -0.47295673971E+03  0.57115900949E+03  0.75600001987E+03  0.46999998093E+01 0.  1.
       -5    1    3    3    0  502 -0.14698043503E+03  0.47295673971E+03 -0.12503833485E+03  0.51083069710E+03  0.46999998093E+01 0. -1.
</event>
<event>
 5   0  0.3650180E-03  0.1208441E+04  0.7818609E-02  0.9105500E-01
       -2   -1    0    0    0  501  0.00000000000E+00  0.00000000000E+00  0.18776764907E+03  0.18776764909E+03  0.25500000920E-02 0.  1.
        2   -1    0    0  501    0  0.00000000000E+00  0.00000000000E+00 -0.19443304786E+04  0.19443304786E+04  0.25500000920E-02 0. -1.
    10030    2    1    2    0    0  0.00000000000E+00  0.00000000000E+00 -0.17565628295E+04  0.21320981277E+04  0.12084409179E+04 0.  0.
        3    1    3    3  502    0  0.17274992728E+03 -0.43596637301E+03 -0.20604056817E+03  0.51221278948E+03  0.10100000352E+00 0.  1.
       -3    1    3    3    0  502 -0.17274992728E+03  0.43596637301E+03 -0.15505222613E+04  0.16198853382E+04  0.10100000352E+00 0. -1.
</event>
<event>
 5   0  0.3626049E-03  0.1212470E+04  0.7818609E-02  0.9102011E-01
        2   -1    0    0  501    0  0.00000000000E+00  0.00000000000E+00  0.24160387118E+04  0.24160387118E+04  0.25500000920E-02 0. -1.
       -2   -1    0    0    0  501  0.00000000000E+00  0.00000000000E+00 -0.15211707880E+03  0.15211707882E+03  0.25500000920E-02 0.  1.
    10030    2    1    2    0    0  0.00000000000E+00  0.00000000000E+00  0.22639216330E+04  0.25681557906E+04  0.12124697953E+04 0.  0.
        1    1    3    3  502    0  0.12032446335E+03 -0.37431620380E+03  0.21093533599E+04  0.21456845514E+04  0.50400001928E-02 0. -1.
       -1    1    3    3    0  502 -0.12032446335E+03  0.37431620380E+03  0.15456827303E+03  0.42247123921E+03  0.50400001928E-02 0.  1.
</event>
<event>
 5   0  0.2025294E-03  0.1198419E+04  0.7818609E-02  0.9114241E-01
        1   -1    0    0  501    0  0.00000000000E+00  0.00000000000E+00  0.73392183515E+03  0.73392183517E+03  0.50400001928E-02 0.  1.
       -1   -1    0    0    0  501  0.00000000000E+00  0.00000000000E+00 -0.48922400034E+03  0.48922400036E+03  0.50400001928E-02 0. -1.
    10030    2    1    2    0    0  0.00000000000E+00  0.00000000000E+00  0.24469783482E+03  0.12231458355E+04  0.11984192524E+04 0.  0.
        5    1    3    3  502    0  0.46552876316E+03  0.37699078347E+03  0.10824327173E+03  0.60875099673E+03  0.46999998093E+01 0. -1.
       -5    1    3    3    0  502 -0.46552876316E+03 -0.37699078347E+03  0.13645456309E+03  0.61439483880E+03  0.46999998093E+01 0.  1.
</event>
<event>
 5   0  0.2096270E-03  0.1204481E+04  0.7818609E-02  0.9108943E-01
        1   -1    0    0  501    0  0.00000000000E+00  0.00000000000E+00  0.11843631525E+04  0.11843631525E+04  0.50400001928E-02 0.  1.
       -1   -1    0    0    0  501  0.00000000000E+00  0.00000000000E+00 -0.30623533024E+03  0.30623533028E+03  0.50400001928E-02 0. -1.
    10030    2    1    2    0    0  0.00000000000E+00  0.00000000000E+00  0.87812782223E+03  0.14905984828E+04  0.12044813675E+04 0.  0.
        2    1    3    3  502    0  0.31474409369E+03 -0.12510391624E+03  0.10553296825E+04  0.11083481281E+04  0.25500000920E-02 0.  1.
       -2    1    3    3    0  502 -0.31474409369E+03  0.12510391624E+03 -0.17720186022E+03  0.38225035467E+03  0.25500000920E-02 0. -1.
</event>
<event>
 5   0  0.3706035E-03  0.1224516E+04  0.7818609E-02  0.9091664E-01
       -2   -1    0    0    0  501  0.00000000000E+00  0.00000000000E+00  0.45988670165E+03  0.45988670165E+03  0.25500000920E-02 0.  1.
        2   -1    0    0  501    0  0.00000000000E+00  0.00000000000E+00 -0.81511325483E+03  0.81511325483E+03  0.25500000920E-02 0. -1.
    10030    2    1    2    0    0  0.00000000000E+00  0.00000000000E+00 -0.35522655318E+03  0.12749999565E+04  0.12245158165E+04 0.  0.
        2    1    3    3  502    0 -0.34632335696E+03 -0.28405624092E+02  0.34726574096E+03  0.49126392287E+03  0.25500000920E-02 0.  1.
       -2    1    3    3    0  502  0.34632335696E+03  0.28405624092E+02 -0.70249229414E+03  0.78373603362E+03  0.25500000920E-02 0. -1.
</event>
<event>
 5   0  0.3706035E-03  0.1215236E+04  0.7818609E-02  0.9099624E-01
       -2   -1    0    0    0  501  0.00000000000E+00  0.00000000000E+00  0.40315167727E+03  0.40315167728E+03  0.25500000920E-02 0. -1.
        2   -1    0    0  501    0  0.00000000000E+00  0.00000000000E+00 -0.91578304800E+03  0.91578304800E+03  0.25500000920E-02 0.  1.
    10030    2    1    2    0    0  0.00000000000E+00  0.00000000000E+00 -0.51263137073E+03  0.13189347253E+04  0.12152357332E+04 0.  0.
        2    1    3    3  502    0  0.13360884052E+03  0.13921499459E+03  0.36901601804E+03  0.41641921012E+03  0.25500000920E-02 0. -1.
       -2    1    3    3    0  502 -0.13360884052E+03 -0.13921499459E+03 -0.88164738877E+03  0.90251551516E+03  0.25500000920E-02 0.  1.
</event>
<event>
 5   0  0.2078258E-03  0.1186950E+04  0.7818609E-02  0.9124356E-01
        1   -1    0    0  501    0  0.00000000000E+00  0.00000000000E+00  0.20396814739E+03  0.20396814746E+03  0.50400001928E-02 0.  1.
       -1   -1    0    0    0  501  0.00000000000E+00  0.00000000000E+00 -0.17268024235E+04  0.17268024235E+04  0.50400001928E-02 0. -1.
    10030    2    1    2    0    0  0.00000000000E+00  0.00000000000E+00 -0.15228342761E+04  0.19307705710E+04  0.11869501949E+04 0.  0.
        3    1    3    3  502    0  0.15766211384E+03  0.56175198083E+03 -0.58479057575E+03  0.82607666581E+03  0.10100000352E+00 0.  1.
       -3    1    3    3    0  502 -0.15766211384E+03 -0.56175198083E+03 -0.93804370036E+03  0.11046939052E+04  0.10100000352E+00 0. -1.
</event>
<event>
 5   0  0.2096270E-03  0.1275154E+04  0.7818609E-02  0.9049504E-01
        1   -1    0    0  501    0  0.00000000000E+00  0.00000000000E+00  0.10971468892E+04  0.10971468892E+04  0.50400001928E-02 0.  1.
       -1   -1    0    0    0  501  0.00000000000E+00  0.00000000000E+00 -0.37051047427E+03  0.37051047430E+03  0.50400001928E-02 0. -1.
    10030    2    1    2    0    0  0.00000000000E+00  0.00000000000E+00  0.72663641493E+03  0.14676573635E+04  0.12751539739E+04 0.  0.
        2    1    3    3  502    0 -0.17326187483E+03  0.61314981008E+03  0.33676987675E+03  0.72068461671E+03  0.25500000920E-02 0.  1.
       -2    1    3    3    0  502  0.17326187483E+03 -0.61314981008E+03  0.38986653818E+03  0.74697274680E+03  0.25500000920E-02 0. -1.
</event>
<event>
 5   0  0.3626049E-03  0.1202335E+04  0.7818609E-02  0.9110816E-01
       -2   -1    0    0    0  501  0.00000000000E+00  0.00000000000E+00  0.47598609629E+03  0.47598609630E+03  0.25500000920E-02 0. -1.
        2   -1    0    0  501    0  0.00000000000E+00  0.00000000000E+00 -0.75927029575E+03  0.75927029576E+03  0.25500000920E-02 0.  1.
    10030    2    1    2    0    0  0.00000000000E+00  0.00000000000E+00 -0.28328419946E+03  0.12352563921E+04  0.12023345693E+04 0.  0.
        1    1    3    3  502    0 -0.40817386702E+03  0.58575184457E+02 -0.59107327722E+03  0.72069728528E+03  0.50400001928E-02 0.  1.
       -1    1    3    3    0  502  0.40817386702E+03 -0.58575184457E+02  0.30778907776E+03  0.51455910677E+03  0.50400001928E-02 0. -1.
</event>
<event>
 5   0  0.2134992E-03  0.1170723E+04  0.7818609E-02  0.9138876E-01
        1   -1    0    0  501    0  0.00000000000E+00  0.00000000000E+00  0.14214518053E+04  0.14214518053E+04  0.50400001928E-02 0.  1.
       -1   -1    0    0    0  501  0.00000000000E+00  0.00000000000E+00 -0.24105509786E+03  0.24105509791E+03  0.50400001928E-02 0. -1.
    10030    2    1    2    0    0  0.00000000000E+00  0.00000000000E+00  0.11803967074E+04  0.16625069032E+04  0.11707232023E+04 0.  0.
        4    1    3    3  502    0  0.43529003656E+03  0.36762494028E+03  0.78083202922E+03  0.96660528832E+03  0.12699999809E+01 0.  1.
       -4    1    3    3    0  502 -0.43529003656E+03 -0.36762494028E+03  0.39956467821E+03  0.69590161490E+03  0.12699999809E+01 0. -1.
</event>
<event>
 5   0  0.3626049E-03  0.1103261E+04  0.7818609E-02  0.9202019E-01
       -2   -1    0    0    0  501  0.00000000000E+00  0.00000000000E+00  0.27366863015E+03  0.27366863016E+03  0.25500000920E-02 0.  1.
        2   -1    0    0  501    0  0.00000000000E+00  0.00000000000E+00 -0.11119148880E+04  0.11119148880E+04  0.25500000920E-02 0. -1.
    10030    2    1    2    0    0  0.00000000000E+00  0.00000000000E+00 -0.83824625783E+03  0.13855835181E+04  0.11032610285E+04 0.  0.
        1    1    3    3  502    0 -0.46057327232E+03  0.30337149480E+03 -0.43367319519E+03  0.70159421554E+03  0.50400001928E-02 0.  1.
       -1    1    3    3    0  502  0.46057327232E+03 -0.30337149480E+03 -0.40457306264E+03  0.68398930260E+03  0.50400001928E-02 0. -1.
</event>
<event>
 5   0  0.2047109E-03  0.1200320E+04  0.7818609E-02  0.9112576E-01
        1   -1    0    0  501    0  0.00000000000E+00  0.00000000000E+00  0.34831578053E+03  0.34831578057E+03  0.50400001928E-02 0.  1.
       -1   -1    0    0    0  501  0.00000000000E+00  0.00000000000E+00 -0.10340968800E+04  0.10340968800E+04  0.50400001928E-02 0. -1.
    10030    2    1    2    0    0  0.00000000000E+00  0.00000000000E+00 -0.68578109948E+03  0.13824126606E+04  0.12003203938E+04 0.  0.
        1    1    3    3  502    0  0.12581694581E+03  0.50705795100E+03 -0.26902713640E+01  0.52244129537E+03  0.50400001928E-02 0.  1.
       -1    1    3    3    0  502 -0.12581694581E+03 -0.50705795100E+03 -0.68309082811E+03  0.85997136522E+03  0.50400001928E-02 0. -1.
</event>
<event>
 5   0  0.3725376E-03  0.1221544E+04  0.7818609E-02  0.9094205E-01
       -2   -1    0    0    0  501  0.00000000000E+00  0.00000000000E+00  0.26833577919E+03  0.26833577920E+03  0.25500000920E-02 0.  1.
        2   -1    0    0  501    0  0.00000000000E+00  0.00000000000E+00 -0.13902084126E+04  0.13902084126E+04  0.25500000920E-02 0. -1.
    10030    2    1    2    0    0  0.00000000000E+00  0.00000000000E+00 -0.11218726334E+04  0.16585441918E+04  0.12215443629E+04 0.  0.
        4    1    3    3  502    0  0.15344352111E+03 -0.16677587361E+03  0.20913534618E+03  0.30838014221E+03  0.12699999809E+01 0.  1.
       -4    1    3    3    0  502 -0.15344352111E+03  0.16677587361E+03 -0.13310079796E+04  0.13501640496E+04  0.12699999809E+01 0. -1.
</event>
<event>
 5   0  0.1397500E-03  0.1175455E+04  0.7818609E-02  0.9134617E-01
       -3   -1    0    0    0  501  0.00000000000E+00  0.00000000000E+00  0.85919569119E+03  0.85919569713E+03  0.10100000352E+00 0. -1.
        3   -1    0    0  501    0  0.00000000000E+00  0.00000000000E+00 -0.40203107924E+03  0.40203109193E+03  0.10100000352E+00 0.  1.
    10030    2    1    2    0    0  0.00000000000E+00  0.00000000000E+00  0.45716461195E+03  0.12612267891E+04  0.11754546061E+04 0.  0.
        2    1    3    3  502    0 -0.61519303010E+02 -0.56600492237E+03  0.38509314488E+03  0.68734483851E+03  0.25500000920E-02 0. -1.
       -2    1    3    3    0  502  0.61519303010E+02  0.56600492237E+03  0.72071467065E+02  0.57388195054E+03  0.25500000920E-02 0.  1.
</event>
<event>
 5   0  0.3650180E-03  0.1209708E+04  0.7818609E-02  0.9104402E-01
        2   -1    0    0  501    0  0.00000000000E+00  0.00000000000E+00  0.79414240770E+03  0.79414240771E+03  0.25500000920E-02 0. -1.
       -2   -1    0    0    0  501  0.00000000000E+00  0.00000000000E+00 -0.46068337881E+03  0.46068337882E+03  0.25500000920E-02 0.  1.
    10030    2    1    2    0    0  0.00000000000E+00  0.00000000000E+00  0.33345902889E+03  0.12548257865E+04  0.12097077459E+04 0.  0.
        3    1    3    3  502    0 -0.10516836050E+03 -0.13380298214E+03  0.76879473031E+03  0.78740648310E+03  0.10100000352E+00 0. -1.
       -3    1    3    3    0  502  0.10516836050E+03  0.13380298214E+03 -0.43533570142E+03  0.46741930342E+03  0.10100000352E+00 0.  1.
</event>
<event>
 5   0  0.3706035E-03  0.1211382E+04  0.7818609E-02  0.9102952E-01
       -2   -1    0    0    0  501  0.00000000000E+00  0.00000000000E+00  0.60581808381E+03  0.60581808382E+03  0.25500000920E-02 0.  1.
        2   -1    0    0  501    0  0.00000000000E+00  0.00000000000E+00 -0.60556367725E+03  0.60556367725E+03  0.25500000920E-02 0. -1.
    10030    2    1    2    0    0  0.00000000000E+00  0.00000000000E+00  0.25440656898E+00  0.12113817611E+04  0.12113817344E+04 0.  0.
        2    1    3    3  502    0  0.27607421816E+02 -0.35921346015E+03 -0.48676596502E+03  0.60558862638E+03  0.25500000920E-02 0. -1.
       -2    1    3    3    0  502 -0.27607421816E+02  0.35921346015E+03  0.48702037159E+03  0.60579313469E+03  0.25500000920E-02 0.  1.
</event>
<event>
 5   0  0.3626049E-03  0.1238006E+04  0.7818609E-02  0.9080225E-01
       -2   -1    0    0    0  501  0.00000000000E+00  0.00000000000E+00  0.68651252143E+03  0.68651252144E+03  0.25500000920E-02 0.  1.
        2   -1    0    0  501    0  0.00000000000E+00  0.00000000000E+00 -0.55813208490E+03  0.55813208490E+03  0.25500000920E-02 0. -1.
    10030    2    1    2    0    0  0.00000000000E+00  0.00000000000E+00  0.12838043654E+03  0.12446446063E+04  0.12380059207E+04 0.  0.
        1    1    3    3  502    0 -0.21512768682E+03  0.52227972057E+03 -0.19036435894E+03  0.59606595049E+03  0.50400001928E-02 0. -1.
       -1    1    3    3    0  502  0.21512768682E+03 -0.52227972057E+03  0.31874479548E+03  0.64857865585E+03  0.50400001928E-02 0.  1.
</event>
<event>
 5   0  0.2096270E-03  0.1289993E+04  0.7818609E-02  0.9037538E-01
        1   -1    0    0  501    0  0.00000000000E+00  0.00000000000E+00  0.13436679107E+04  0.13436679107E+04  0.50400001928E-02 0. -1.
       -1   -1    0    0    0  501  0.00000000000E+00  0.00000000000E+00 -0.30961567880E+03  0.30961567885E+03  0.50400001928E-02 0.  1.
    10030    2    1    2    0    0  0.00000000000E+00  0.00000000000E+00  0.10340522319E+04  0.16532835895E+04  0.12899932594E+04 0.  0.
        2    1    3    3  502    0  0.55494413620E+03  0.25391717350E+03  0.78458667622E+03  0.99398851996E+03  0.25500000920E-02 0.  1.
       -2    1    3    3    0  502 -0.55494413620E+03 -0.25391717350E+03  0.24946555565E+03  0.65929506957E+03  0.25500000920E-02 0. -1.
</event>
<event>
 5   0  0.3706035E-03  0.1183142E+04  0.7818609E-02  0.9127741E-01
        2   -1    0    0  501    0  0.00000000000E+00  0.00000000000E+00  0.16657082749E+04  0.16657082749E+04  0.25500000920E-02 0.  1.
       -2   -1    0    0    0  501  0.00000000000E+00  0.00000000000E+00 -0.21009462022E+03  0.21009462023E+03  0.25500000920E-02 0. -1.
    10030    2    1    2    0    0  0.00000000000E+00  0.00000000000E+00  0.14556136547E+04  0.18758028952E+04  0.11831421680E+04 0.  0.
        2    1    3    3  502    0  0.41122036498E+03  0.41712056317E+03  0.59644846767E+03  0.83596801816E+03  0.25500000920E-02 0. -1.
       -2    1    3    3    0  502 -0.41122036498E+03 -0.41712056317E+03  0.85916518705E+03  0.10398348770E+04  0.25500000920E-02 0.  1.
</event>
<event>
 5   0  0.2078258E-03  0.1197987E+04  0.7818609E-02  0.9114620E-01
       -1   -1    0    0    0  501  0.00000000000E+00  0.00000000000E+00  0.83674799345E+03  0.83674799347E+03  0.50400001928E-02 0.  1.
        1   -1    0    0  501    0  0.00000000000E+00  0.00000000000E+00 -0.42879482084E+03  0.42879482087E+03  0.50400001928E-02 0. -1.
    10030    2    1    2    0    0  0.00000000000E+00  0.00000000000E+00  0.40795317261E+03  0.12655428143E+04  0.11979869882E+04 0.  0.
        3    1    3    3  502    0 -0.53177811527E+03 -0.21245302738E+03  0.18373317349E+02  0.57294139466E+03  0.10100000352E+00 0. -1.
       -3    1    3    3    0  502  0.53177811527E+03  0.21245302738E+03  0.38957985526E+03  0.69260141968E+03  0.10100000352E+00 0.  1.
</event>
<event>
 5   0  0.2134992E-03  0.1204383E+04  0.7818609E-02  0.9109029E-01
        1   -1    0    0  501    0  0.00000000000E+00  0.00000000000E+00  0.16520111587E+04  0.16520111587E+04  0.50400001928E-02 0. -1.
       -1   -1    0    0    0  501  0.00000000000E+00  0.00000000000E+00 -0.21951090364E+03  0.21951090370E+03  0.50400001928E-02 0.  1.
    10030    2    1    2    0    0  0.00000000000E+00  0.00000000000E+00  0.14325002551E+04  0.18715220624E+04  0.12043827670E+04 0.  0.
        4    1    3    3  502    0 -0.45068351207E+03  0.92330053038E+02  0.13200707446E+04  0.13979373557E+04  0.12699999809E+01 0. -1.
       -4    1    3    3    0  502  0.45068351207E+03 -0.92330053038E+02  0.11242951049E+03  0.47358470676E+03  0.12699999809E+01 0.  1.
</event>
<event>
 5   0  0.2096270E-03  0.1204006E+04  0.7818609E-02  0.9109358E-01
       -1   -1    0    0    0  501  0.00000000000E+00  0.00000000000E+00  0.38783318686E+03  0.38783318689E+03  0.50400001928E-02 0.  1.
        1   -1    0    0  501    0  0.00000000000E+00  0.00000000000E+00 -0.93444131915E+03  0.93444131916E+03  0.50400001928E-02 0. -1.
    10030    2    1    2    0    0  0.00000000000E+00  0.00000000000E+00 -0.54660813229E+03  0.13222745061E+04  0.12040055727E+04 0.  0.
        2    1    3    3  502    0  0.38454922816E+03 -0.11397425048E+03  0.21972531657E+03  0.45732641888E+03  0.25500000920E-02 0.  1.
       -2    1    3    3    0  502 -0.38454922816E+03  0.11397425048E+03 -0.76633344886E+03  0.86494808718E+03  0.25500000920E-02 0. -1.
</event>
<event>
 5   0  0.2025294E-03  0.1209657E+04  0.7818609E-02  0.9104446E-01
       -1   -1    0    0    0  501  0.00000000000E+00  0.00000000000E+00  0.71933792235E+03  0.71933792237E+03  0.50400001928E-02 0.  1.
        1   -1    0    0  501    0  0.00000000000E+00  0.00000000000E+00 -0.50854711320E+03  0.50854711323E+03  0.50400001928E-02 0. -1.
    10030    2    1    2    0    0  0.00000000000E+00  0.00000000000E+00  0.21079080915E+03  0.12278850356E+04  0.12096565196E+04 0.  0.
        5    1    3    3  502    0  0.32718629042E+03  0.50781658577E+03  0.75514064122E+02  0.60881279331E+03  0.46999998093E+01 0. -1.
       -5    1    3    3    0  502 -0.32718629042E+03 -0.50781658577E+03  0.13527674502E+03  0.61907224228E+03  0.46999998093E+01 0.  1.
</event>
<event>
 5   0  0.3650180E-03  0.1167297E+04  0.7818609E-02  0.9141973E-01
        2   -1    0    0  501    0  0.00000000000E+00  0.00000000000E+00  0.99680135344E+03  0.99680135344E+03  0.25500000920E-02 0. -1.
       -2   -1    0    0    0  501  0.00000000000E+00  0.00000000000E+00 -0.34173887013E+03  0.34173887014E+03  0.25500000920E-02 0.  1.
    10030    2    1    2    0    0  0.00000000000E+00  0.00000000000E+00  0.65506248331E+03  0.13385402236E+04  0.11672973371E+04 0.  0.
        3    1    3    3  502    0  0.45906095311E+03  0.20871587724E+03  0.66448651353E+03  0.83417121321E+03  0.10100000352E+00 0. -1.
       -3    1    3    3    0  502 -0.45906095311E+03 -0.20871587724E+03 -0.94240302285E+01  0.50436901037E+03  0.10100000352E+00 0.  1.
</event>
<event>
 5   0  0.3725376E-03  0.1223071E+04  0.7818609E-02  0.9092899E-01
       -2   -1    0    0    0  501  0.00000000000E+00  0.00000000000E+00  0.38930550471E+03  0.38930550472E+03  0.25500000920E-02 0.  1.
        2   -1    0    0  501    0  0.00000000000E+00  0.00000000000E+00 -0.96062272822E+03  0.96062272823E+03  0.25500000920E-02 0. -1.
    10030    2    1    2    0    0  0.00000000000E+00  0.00000000000E+00 -0.57131722351E+03  0.13499282329E+04  0.12230710790E+04 0.  0.
        4    1    3    3  502    0 -0.13036865484E+03 -0.95357641842E+01  0.37370421821E+03  0.39590828808E+03  0.12699999809E+01 0.  1.
       -4    1    3    3    0  502  0.13036865484E+03  0.95357641842E+01 -0.94502144173E+03  0.95401994486E+03  0.12699999809E+01 0. -1.
</event>
<event>
 5   0  0.3751091E-03  0.1199359E+04  0.7818609E-02  0.9113418E-01
       -2   -1    0    0    0  501  0.00000000000E+00  0.00000000000E+00  0.43394084858E+03  0.43394084859E+03  0.25500000920E-02 0. -1.
        2   -1    0    0  501    0  0.00000000000E+00  0.00000000000E+00 -0.82872032587E+03  0.82872032588E+03  0.25500000920E-02 0.  1.
    10030    2    1    2    0    0  0.00000000000E+00  0.00000000000E+00 -0.39477947729E+03  0.12626611745E+04  0.11993591646E+04 0.  0.
        5    1    3    3  502    0 -0.57611170519E+03 -0.20448178487E+02 -0.23535371424E+02  0.57697385432E+03  0.46999998093E+01 0. -1.
       -5    1    3    3    0  502  0.57611170519E+03  0.20448178487E+02 -0.37124410587E+03  0.68568732014E+03  0.46999998093E+01 0.  1.
</event>
<event>
 5   0  0.2096270E-03  0.1285072E+04  0.7818609E-02  0.9041488E-01
       -1   -1    0    0    0  501  0.00000000000E+00  0.00000000000E+00  0.80159301965E+03  0.80159301967E+03  0.50400001928E-02 0.  1.
        1   -1    0    0  501    0  0.00000000000E+00  0.00000000000E+00 -0.51503977851E+03  0.51503977853E+03  0.50400001928E-02 0. -1.
    10030    2    1    2    0    0  0.00000000000E+00  0.00000000000E+00  0.28655324114E+03  0.13166327982E+04  0.12850716576E+04 0.  0.
        2    1    3    3  502    0  0.33685612090E+03  0.43043901409E+03  0.48936331647E+03  0.73363904377E+03  0.25500000920E-02 0.  1.
       -2    1    3    3    0  502 -0.33685612090E+03 -0.43043901409E+03 -0.20281007532E+03  0.58299375442E+03  0.25500000920E-02 0. -1.
</event>
<event>
 5   0  0.1397500E-03  0.1049669E+04  0.7818609E-02  0.9255686E-01
        4   -1    0    0  501    0  0.00000000000E+00  0.00000000000E+00  0.41642638197E+03  0.41642831856E+03  0.12699999809E+01 0. -1.
       -4   -1    0    0    0  501  0.00000000000E+00  0.00000000000E+00 -0.66146023295E+03  0.66146145215E+03  0.12699999809E+01 0.  1.
    10030    2    1    2    0    0  0.00000000000E+00  0.00000000000E+00 -0.24503385098E+03  0.10778897707E+04  0.10496688857E+04 0.  0.
        5    1    3    3  502    0 -0.27376665940E+03 -0.40521247663E+03  0.73087291545E+02  0.49447869236E+03  0.46999998093E+01 0. -1.
       -5    1    3    3    0  502  0.27376665940E+03  0.40521247663E+03 -0.31812114253E+03  0.58341107835E+03  0.46999998093E+01 0.  1.
</event>
<event>
 5   0  0.1397500E-03  0.1209175E+04  0.7818609E-02  0.9104863E-01
        3   -1    0    0  501    0  0.00000000000E+00  0.00000000000E+00  0.70121626054E+03  0.70121626781E+03  0.10100000352E+00 0. -1.
       -3   -1    0    0    0  501  0.00000000000E+00  0.00000000000E+00 -0.52127456566E+03  0.52127457545E+03  0.10100000352E+00 0.  1.
    10030    2    1    2    0    0  0.00000000000E+00  0.00000000000E+00  0.17994169488E+03  0.12224908433E+04  0.12091752761E+04 0.  0.
        4    1    3    3  502    0 -0.39938916003E+03 -0.32989707391E+03 -0.22520043063E+03  0.56485451877E+03  0.12699999809E+01 0.  1.
       -4    1    3    3    0  502  0.39938916003E+03  0.32989707391E+03  0.40514212551E+03  0.65763632449E+03  0.12699999809E+01 0. -1.
</event>
<event>
 5   0  0.1397500E-03  0.1174857E+04  0.7818609E-02  0.9135153E-01
        3   -1    0    0  501    0  0.00000000000E+00  0.00000000000E+00  0.52900938228E+03  0.52900939193E+03  0.10100000352E+00 0. -1.
       -3   -1    0    0    0  501  0.00000000000E+00  0.00000000000E+00 -0.65229936049E+03  0.65229936831E+03  0.10100000352E+00 0.  1.
    10030    2    1    2    0    0  0.00000000000E+00  0.00000000000E+00 -0.12328997821E+03  0.11813087602E+04  0.11748574247E+04 0.  0.
        2    1    3    3  502    0  0.21273630274E+03 -0.11745887969E+03  0.47609932761E+03  0.53453147024E+03  0.25500000920E-02 0. -1.
       -2    1    3    3    0  502 -0.21273630274E+03  0.11745887969E+03 -0.59938930582E+03  0.64677729000E+03  0.25500000920E-02 0.  1.
</event>
<event>
 5   0  0.2134992E-03  0.1219091E+04  0.7818609E-02  0.9096309E-01
       -1   -1    0    0    0  501  0.00000000000E+00  0.00000000000E+00  0.47221216474E+03  0.47221216477E+03  0.50400001928E-02 0. -1.
        1   -1    0    0  501    0  0.00000000000E+00  0.00000000000E+00 -0.78681892593E+03  0.78681892594E+03  0.50400001928E-02 0.  1.
    10030    2    1    2    0    0  0.00000000000E+00  0.00000000000E+00 -0.31460676119E+03  0.12590310907E+04  0.12190905927E+04 0.  0.
        4    1    3    3  502    0 -0.45173500426E+03  0.40840130520E+03 -0.18438688114E+03  0.63628317203E+03  0.12699999809E+01 0.  1.
       -4    1    3    3    0  502  0.45173500426E+03 -0.40840130520E+03 -0.13021988005E+03  0.62274791869E+03  0.12699999809E+01 0. -1.
</event>
<event>
 5   0  0.2047109E-03  0.1190640E+04  0.7818609E-02  0.9121089E-01
        1   -1    0    0  501    0  0.00000000000E+00  0.00000000000E+00  0.43081368579E+03  0.43081368581E+03  0.50400001928E-02 0. -1.
       -1   -1    0    0    0  501  0.00000000000E+00  0.00000000000E+00 -0.82264288814E+03  0.82264288816E+03  0.50400001928E-02 0.  1.
    10030    2    1    2    0    0  0.00000000000E+00  0.00000000000E+00 -0.39182920236E+03  0.12534565740E+04  0.11906398528E+04 0.  0.
        1    1    3    3  502    0 -0.11372363109E+03  0.36329584789E+03  0.28593262370E+03  0.47610335294E+03  0.50400001928E-02 0. -1.
       -1    1    3    3    0  502  0.11372363109E+03 -0.36329584789E+03 -0.67776182606E+03  0.77735322103E+03  0.50400001928E-02 0.  1.
</event>
<event>
 5   0  0.3725376E-03  0.1212468E+04  0.7818609E-02  0.9102013E-01
       -2   -1    0    0    0  501  0.00000000000E+00  0.00000000000E+00  0.59056367498E+03  0.59056367499E+03  0.25500000920E-02 0. -1.
        2   -1    0    0  501    0  0.00000000000E+00  0.00000000000E+00 -0.62231976571E+03  0.62231976571E+03  0.25500000920E-02 0.  1.
    10030    2    1    2    0    0  0.00000000000E+00  0.00000000000E+00 -0.31756090729E+02  0.12128834407E+04  0.12124676455E+04 0.  0.
        4    1    3    3  502    0  0.42583411335E+03 -0.23095431113E+02  0.41514062780E+03  0.59515665566E+03  0.12699999809E+01 0. -1.
       -4    1    3    3    0  502 -0.42583411335E+03  0.23095431113E+02 -0.44689671853E+03  0.61772678504E+03  0.12699999809E+01 0.  1.
</event>
<event>
 5   0  0.3751091E-03  0.1187581E+04  0.7818609E-02  0.9123797E-01
        2   -1    0    0  501    0  0.00000000000E+00  0.00000000000E+00  0.22034131065E+03  0.22034131067E+03  0.25500000920E-02 0. -1.
       -2   -1    0    0    0  501  0.00000000000E+00  0.00000000000E+00 -0.16001857740E+04  0.16001857740E+04  0.25500000920E-02 0.  1.
    10030    2    1    2    0    0  0.00000000000E+00  0.00000000000E+00 -0.13798444634E+04  0.18205270847E+04  0.11875807859E+04 0.  0.
        5    1    3    3  502    0  0.59904634758E+02  0.53427537272E+03 -0.10762984845E+04  0.12031123210E+04  0.46999998093E+01 0.  1.
       -5    1    3    3    0  502 -0.59904634758E+02 -0.53427537272E+03 -0.30354597885E+03  0.61741476370E+03  0.46999998093E+01 0. -1.
</event>
<event>
 5   0  0.2025294E-03  0.1260499E+04  0.7818609E-02  0.9061490E-01
        1   -1    0    0  501    0  0.00000000000E+00  0.00000000000E+00  0.88428231023E+03  0.88428231025E+03  0.50400001928E-02 0. -1.
       -1   -1    0    0    0  501  0.00000000000E+00  0.00000000000E+00 -0.44919447561E+03  0.44919447564E+03  0.50400001928E-02 0.  1.
    10030    2    1    2    0    0  0.00000000000E+00  0.00000000000E+00  0.43508783462E+03  0.13334767859E+04  0.12604994703E+04 0.  0.
        5    1    3    3  502    0  0.38180756805E+03  0.33416731959E+02 -0.31172001444E+03  0.49404974891E+03  0.46999998093E+01 0.  1.
       -5    1    3    3    0  502 -0.38180756805E+03 -0.33416731959E+02  0.74680784906E+03  0.83942703698E+03  0.46999998093E+01 0. -1.
</event>
<event>
 5   0  0.3626049E-03  0.1218003E+04  0.7818609E-02  0.9097243E-01
        2   -1    0    0  501    0  0.00000000000E+00  0.00000000000E+00  0.18915404547E+03  0.18915404549E+03  0.25500000920E-02 0.  1.
       -2   -1    0    0    0  501  0.00000000000E+00  0.00000000000E+00 -0.19607456749E+04  0.19607456749E+04  0.25500000920E-02 0. -1.
    10030    2    1    2    0    0  0.00000000000E+00  0.00000000000E+00 -0.17715916295E+04  0.21498997204E+04  0.12180032456E+04 0.  0.
        1    1    3    3  502    0  0.53161263765E+03 -0.46180598343E+02 -0.36775021700E+03  0.64806239383E+03  0.50400001928E-02 0.  1.
       -1    1    3    3    0  502 -0.53161263765E+03  0.46180598343E+02 -0.14038414125E+04  0.15018373266E+04  0.50400001928E-02 0. -1.
</event>
<event>
 5   0  0.3706035E-03  0.1202426E+04  0.7818609E-02  0.9110735E-01
        2   -1    0    0  501    0  0.00000000000E+00  0.00000000000E+00  0.48045514422E+03  0.48045514423E+03  0.25500000920E-02 0.  1.
       -2   -1    0    0    0  501  0.00000000000E+00  0.00000000000E+00 -0.75232271970E+03  0.75232271971E+03  0.25500000920E-02 0. -1.
    10030    2    1    2    0    0  0.00000000000E+00  0.00000000000E+00 -0.27186757548E+03  0.12327778639E+04  0.12024264149E+04 0.  0.
        2    1    3    3  502    0 -0.26920071282E+03 -0.34212792162E+03  0.28918540915E+03  0.52263633571E+03  0.25500000920E-02 0.  1.
       -2    1    3    3    0  502  0.26920071282E+03  0.34212792162E+03 -0.56105298463E+03  0.71014152822E+03  0.25500000920E-02 0. -1.
</event>
<event>
 5   0  0.3706035E-03  0.1197053E+04  0.7818609E-02  0.9115440E-01
       -2   -1    0    0    0  501  0.00000000000E+00  0.00000000000E+00  0.57699899887E+03  0.57699899887E+03  0.25500000920E-02 0. -1.
        2   -1    0    0  501    0  0.00000000000E+00  0.00000000000E+00 -0.62085766885E+03  0.62085766885E+03  0.25500000920E-02 0.  1.
    10030    2    1    2    0    0  0.00000000000E+00  0.00000000000E+00 -0.43858669981E+02  0.11978566677E+04  0.11970534714E+04 0.  0.
        2    1    3    3  502    0 -0.10199545039E+03 -0.84100520334E+02 -0.60606606542E+03  0.62031608481E+03  0.25500000920E-02 0.  1.
       -2    1    3    3    0  502  0.10199545039E+03  0.84100520334E+02  0.56220739543E+03  0.57754058291E+03  0.25500000920E-02 0. -1.
</event>
<event>
 5   0  0.2134992E-03  0.1220862E+04  0.7818609E-02  0.9094790E-01
       -1   -1    0    0    0  501  0.00000000000E+00  0.00000000000E+00  0.62839595429E+03  0.62839595431E+03  0.50400001928E-02 0. -1.
        1   -1    0    0  501    0  0.00000000000E+00  0.00000000000E+00 -0.59297942507E+03  0.59297942509E+03  0.50400001928E-02 0.  1.
    10030    2    1    2    0    0  0.00000000000E+00  0.00000000000E+00  0.35416529222E+02  0.12213753794E+04  0.12208617804E+04 0.  0.
        4    1    3    3  502    0  0.41392803753E+03  0.44858217320E+03  0.25577478393E+02  0.61091587528E+03  0.12699999809E+01 0. -1.
       -4    1    3    3    0  502 -0.41392803753E+03 -0.44858217320E+03  0.98390508293E+01  0.61045950413E+03  0.12699999809E+01 0.  1.
</event>
<event>
 5   0  0.2047109E-03  0.1216097E+04  0.7818609E-02  0.9098882E-01
       -1   -1    0    0    0  501  0.00000000000E+00  0.00000000000E+00  0.57896180078E+03  0.57896180080E+03  0.50400001928E-02 0.  1.
        1   -1    0    0  501    0  0.00000000000E+00  0.00000000000E+00 -0.63859643625E+03  0.63859643627E+03  0.50400001928E-02 0. -1.
    10030    2    1    2    0    0  0.00000000000E+00  0.00000000000E+00 -0.59634635471E+02  0.12175582371E+04  0.12160969414E+04 0.  0.
        1    1    3    3  502    0 -0.20002261458E+03 -0.41612857497E+03 -0.42595790298E+03  0.62818163965E+03  0.50400001928E-02 0. -1.
       -1    1    3    3    0  502  0.20002261458E+03  0.41612857497E+03  0.36632326751E+03  0.58937659743E+03  0.50400001928E-02 0.  1.
</event>
<event>
 5   0  0.3751091E-03  0.1231228E+04  0.7818609E-02  0.9085954E-01
       -2   -1    0    0    0  501  0.00000000000E+00  0.00000000000E+00  0.38650547226E+03  0.38650547227E+03  0.25500000920E-02 0. -1.
        2   -1    0    0  501    0  0.00000000000E+00  0.00000000000E+00 -0.98053021477E+03  0.98053021478E+03  0.25500000920E-02 0.  1.
    10030    2    1    2    0    0  0.00000000000E+00  0.00000000000E+00 -0.59402474251E+03  0.13670356870E+04  0.12312275074E+04 0.  0.
        5    1    3    3  502    0  0.22283237833E+02 -0.61321163570E+03 -0.24224447440E+03  0.65971927986E+03  0.46999998093E+01 0. -1.
       -5    1    3    3    0  502 -0.22283237833E+02  0.61321163570E+03 -0.35178026811E+03  0.70731640719E+03  0.46999998093E+01 0.  1.
</event>
<event>
 5   0  0.2025294E-03  0.1208791E+04  0.7818609E-02  0.9105196E-01
       -1   -1    0    0    0  501  0.00000000000E+00  0.00000000000E+00  0.74732560323E+03  0.74732560325E+03  0.50400001928E-02 0.  1.
        1   -1    0    0  501    0  0.00000000000E+00  0.00000000000E+00 -0.48880192701E+03  0.48880192703E+03  0.50400001928E-02 0. -1.
    10030    2    1    2    0    0  0.00000000000E+00  0.00000000000E+00  0.25852367622E+03  0.12361275303E+04  0.12087914543E+04 0.  0.
        5    1    3    3  502    0  0.59249224544E+03 -0.80554648849E+02  0.39318309488E+02  0.59925297815E+03  0.46999998093E+01 0.  1.
       -5    1    3    3    0  502 -0.59249224544E+03  0.80554648849E+02  0.21920536674E+03  0.63687455214E+03  0.46999998093E+01 0. -1.
</event>
<event>
 5   0  0.3706035E-03  0.1355382E+04  0.7818609E-02  0.8986764E-01
        2   -1    0    0  501    0  0.00000000000E+00  0.00000000000E+00  0.94246049903E+03  0.94246049903E+03  0.25500000920E-02 0.  1.
       -2   -1    0    0    0  501  0.00000000000E+00  0.00000000000E+00 -0.48730403843E+03  0.48730403843E+03  0.25500000920E-02 0. -1.
    10030    2    1    2    0    0  0.00000000000E+00  0.00000000000E+00  0.45515646060E+03  0.14297645375E+04  0.13553815806E+04 0.  0.
        2    1    3    3  502    0  0.41122710055E+03  0.17722516142E+03 -0.30901070366E+03  0.54406258928E+03  0.25500000920E-02 0. -1.
       -2    1    3    3    0  502 -0.41122710055E+03 -0.17722516142E+03  0.76416716427E+03  0.88570194819E+03  0.25500000920E-02 0.  1.
</event>
<event>
 5   0  0.3725376E-03  0.1201554E+04  0.7818609E-02  0.9111498E-01
       -2   -1    0    0    0  501  0.00000000000E+00  0.00000000000E+00  0.75886741503E+03  0.75886741503E+03  0.25500000920E-02 0. -1.
        2   -1    0    0  501    0  0.00000000000E+00  0.00000000000E+00 -0.47562044737E+03  0.47562044738E+03  0.25500000920E-02 0.  1.
    10030    2    1    2    0    0  0.00000000000E+00  0.00000000000E+00  0.28324696766E+03  0.12344878624E+04  0.12015537598E+04 0.  0.
        4    1    3    3  502    0  0.31892422779E+03 -0.44642368643E+03 -0.10988100392E+03  0.55953750437E+03  0.12699999809E+01 0.  1.
       -4    1    3    3    0  502 -0.31892422779E+03  0.44642368643E+03  0.39312797158E+03  0.67495035804E+03  0.12699999809E+01 0. -1.
</event>
<event>
 5   0  0.2134992E-03  0.1198899E+04  0.7818609E-02  0.9113821E-01
       -1   -1    0    0    0  501  0.00000000000E+00  0.00000000000E+00  0.26834040966E+03  0.26834040970E+03  0.50400001928E-02 0. -1.
        1   -1    0    0  501    0  0.00000000000E+00  0.00000000000E+00 -0.13391192883E+04  0.13391192883E+04  0.50400001928E-02 0.  1.
    10030    2    1    2    0    0  0.00000000000E+00  0.00000000000E+00 -0.10707788787E+04  0.16074596980E+04  0.11988991925E+04 0.  0.
        4    1    3    3  502    0 -0.41883076584E+03  0.42741894420E+03 -0.58245140413E+03  0.83507928686E+03  0.12699999809E+01 0. -1.
       -4    1    3    3    0  502  0.41883076584E+03 -0.42741894420E+03 -0.48832747453E+03  0.77238041117E+03  0.12699999809E+01 0.  1.
</event>
<event>
 5   0  0.3751091E-03  0.1142211E+04  0.7818609E-02  0.9164999E-01
       -2   -1    0    0    0  501  0.00000000000E+00  0.00000000000E+00  0.16865072353E+03  0.16865072354E+03  0.25500000920E-02 0.  1.
        2   -1    0    0  501    0  0.00000000000E+00  0.00000000000E+00 -0.19339479847E+04  0.19339479847E+04  0.25500000920E-02 0. -1.
    10030    2    1    2    0    0  0.00000000000E+00  0.00000000000E+00 -0.17652972612E+04  0.21025987083E+04  0.11422114111E+04 0.  0.
        5    1    3    3  502    0 -0.44186834303E+03  0.15224515795E+03 -0.27849860433E+03  0.54406781131E+03  0.46999998093E+01 0.  1.
       -5    1    3    3    0  502  0.44186834303E+03 -0.15224515795E+03 -0.14867986569E+04  0.15585308970E+04  0.46999998093E+01 0. -1.
</event>
<event>
 5   0  0.3650180E-03  0.1196955E+04  0.7818609E-02  0.9115526E-01
       -2   -1    0    0    0  501  0.00000000000E+00  0.00000000000E+00  0.15520999229E+03  0.15520999231E+03  0.25500000920E-02 0. -1.
        2   -1    0    0  501    0  0.00000000000E+00  0.00000000000E+00 -0.23076837890E+04  0.23076837890E+04  0.25500000920E-02 0.  1.
    10030    2    1    2    0    0  0.00000000000E+00  0.00000000000E+00 -0.21524737967E+04  0.24628937813E+04  0.11969554430E+04 0.  0.
        3    1    3    3  502    0  0.21673150759E+03  0.25724235316E+03 -0.20947738629E+04  0.21216087579E+04  0.10100000352E+00 0.  1.
       -3    1    3    3    0  502 -0.21673150759E+03 -0.25724235316E+03 -0.57699933775E+02  0.34128502340E+03  0.10100000352E+00 0. -1.
</event>
<event>
 5   0  0.3725376E-03  0.1221636E+04  0.7818609E-02  0.9094126E-01
        2   -1    0    0  501    0  0.00000000000E+00  0.00000000000E+00  0.13371995131E+04  0.13371995131E+04  0.25500000920E-02 0.  1.
       -2   -1    0    0    0  501  0.00000000000E+00  0.00000000000E+00 -0.27901497663E+03  0.27901497665E+03  0.25500000920E-02 0. -1.
    10030    2    1    2    0    0  0.00000000000E+00  0.00000000000E+00  0.10581845365E+04  0.16162144898E+04  0.12216361012E+04 0.  0.
        4    1    3    3  502    0  0.36186514808E+03 -0.65738479868E+01  0.11800626644E+04  0.12343172630E+04  0.12699999809E+01 0.  1.
       -4    1    3    3    0  502 -0.36186514808E+03  0.65738479868E+01 -0.12187812791E+03  0.38189722680E+03  0.12699999809E+01 0. -1.
</event>
<event>
 5   0  0.2096270E-03  0.1190955E+04  0.7818609E-02  0.9120810E-01
       -1   -1    0    0    0  501  0.00000000000E+00  0.00000000000E+00  0.21865446390E+03  0.21865446396E+03  0.50400001928E-02 0. -1.
        1   -1    0    0  501    0  0.00000000000E+00  0.00000000000E+00 -0.16217078344E+04  0.16217078344E+04  0.50400001928E-02 0.  1.
    10030    2    1    2    0    0  0.00000000000E+00  0.00000000000E+00 -0.14030533705E+04  0.18403622984E+04  0.11909553429E+04 0.  0.
        2    1    3    3  502    0 -0.32368404450E+03 -0.29646984946E+03 -0.13233524689E+04  0.13942480013E+04  0.25500000920E-02 0.  1.
       -2    1    3    3    0  502  0.32368404450E+03  0.29646984946E+03 -0.79700901622E+02  0.44611429705E+03  0.25500000920E-02 0. -1.
</event>
<event>
 5   0  0.3751091E-03  0.1201674E+04  0.7818609E-02  0.9111393E-01
        2   -1    0    0  501    0  0.00000000000E+00  0.00000000000E+00  0.98089551022E+03  0.98089551022E+03  0.25500000920E-02 0.  1.
       -2   -1    0    0    0  501  0.00000000000E+00  0.00000000000E+00 -0.36803598028E+03  0.36803598029E+03  0.25500000920E-02 0. -1.
    10030    2    1    2    0    0  0.00000000000E+00  0.00000000000E+00  0.61285952994E+03  0.13489314905E+04  0.12016735674E+04 0.  0.
        5    1    3    3  502    0 -0.47728511599E+03  0.36260267789E+03  0.35272659878E+03  0.69549976811E+03  0.46999998093E+01 0.  1.
       -5    1    3    3    0  502  0.47728511599E+03 -0.36260267789E+03  0.26013293116E+03  0.65343172240E+03  0.46999998093E+01 0. -1.
</event>
<event>
 5   0  0.2025294E-03  0.1042694E+04  0.7818609E-02  0.9262920E-01
        1   -1    0    0  501    0  0.00000000000E+00  0.00000000000E+00  0.56817740911E+03  0.56817740913E+03  0.50400001928E-02 0.  1.
       -1   -1    0    0    0  501  0.00000000000E+00  0.00000000000E+00 -0.47837637032E+03  0.47837637034E+03  0.50400001928E-02 0. -1.
    10030    2    1    2    0    0  0.00000000000E+00  0.00000000000E+00  0.89801038792E+02  0.10465537795E+04  0.10426939085E+04 0.  0.
        5    1    3    3  502    0  0.22364206129E+03  0.10527103590E+03  0.50560161895E+03  0.56280800426E+03  0.46999998093E+01 0.  1.
       -5    1    3    3    0  502 -0.22364206129E+03 -0.10527103590E+03 -0.41580058016E+03  0.48374577521E+03  0.46999998093E+01 0. -1.
</event>
<event>
 5   0  0.3725376E-03  0.1217182E+04  0.7818609E-02  0.9097949E-01
        2   -1    0    0  501    0  0.00000000000E+00  0.00000000000E+00  0.29775432515E+03  0.29775432516E+03  0.25500000920E-02 0. -1.
       -2   -1    0    0    0  501  0.00000000000E+00  0.00000000000E+00 -0.12439214740E+04  0.12439214740E+04  0.25500000920E-02 0.  1.
    10030    2    1    2    0    0  0.00000000000E+00  0.00000000000E+00 -0.94616714885E+03  0.15416757992E+04  0.12171819897E+04 0.  0.
        4    1    3    3  502    0 -0.42791679768E+03  0.23401502296E+03 -0.93414055712E+03  0.10538007450E+04  0.12699999809E+01 0.  1.
       -4    1    3    3    0  502  0.42791679768E+03 -0.23401502296E+03 -0.12026591732E+02  0.48787505421E+03  0.12699999809E+01 0. -1.
</event>
<event>
 5   0  0.2047109E-03  0.1195912E+04  0.7818609E-02  0.9116442E-01
        1   -1    0    0  501    0  0.00000000000E+00  0.00000000000E+00  0.21002988825E+04  0.21002988825E+04  0.50400001928E-02 0. -1.
       -1   -1    0    0    0  501  0.00000000000E+00  0.00000000000E+00 -0.17023826532E+03  0.17023826540E+03  0.50400001928E-02 0.  1.
    10030    2    1    2    0    0  0.00000000000E+00  0.00000000000E+00  0.19300606172E+04  0.22705371479E+04  0.11959117668E+04 0.  0.
        1    1    3    3  502    0 -0.36508911894E+03  0.37998136659E+03  0.15016119608E+04  0.15913875658E+04  0.50400001928E-02 0. -1.
       -1    1    3    3    0  502  0.36508911894E+03 -0.37998136659E+03  0.42844865642E+03  0.67914958215E+03  0.50400001928E-02 0.  1.
</event>
<event>
 5   0  0.3751091E-03  0.1192105E+04  0.7818609E-02  0.9119795E-01
        2   -1    0    0  501    0  0.00000000000E+00  0.00000000000E+00  0.93279172832E+03  0.93279172832E+03  0.25500000920E-02 0. -1.
       -2   -1    0    0    0  501  0.00000000000E+00  0.00000000000E+00 -0.38087687130E+03  0.38087687130E+03  0.25500000920E-02 0.  1.
    10030    2    1    2    0    0  0.00000000000E+00  0.00000000000E+00  0.55191485702E+03  0.13136685996E+04  0.11921053562E+04 0.  0.
        5    1    3    3  502    0  0.26268837881E+03 -0.44464796485E+03 -0.51941670031E+02  0.51907323577E+03  0.46999998093E+01 0.  1.
       -5    1    3    3    0  502 -0.26268837881E+03  0.44464796485E+03  0.60385652705E+03  0.79459536386E+03  0.46999998093E+01 0. -1.
</event>
<event>
 5   0  0.2025294E-03  0.1209691E+04  0.7818609E-02  0.9104416E-01
       -1   -1    0    0    0  501  0.00000000000E+00  0.00000000000E+00  0.48269621384E+03  0.48269621387E+03  0.50400001928E-02 0.  1.
        1   -1    0    0  501    0  0.00000000000E+00  0.00000000000E+00 -0.75790494593E+03  0.75790494595E+03  0.50400001928E-02 0. -1.
    10030    2    1    2    0    0  0.00000000000E+00  0.00000000000E+00 -0.27520873209E+03  0.12406011598E+04  0.12096906181E+04 0.  0.
        5    1    3    3  502    0  0.38836946509E+03 -0.41497648722E+03  0.74512584493E+02  0.57324562066E+03  0.46999998093E+01 0.  1.
       -5    1    3    3    0  502 -0.38836946509E+03  0.41497648722E+03 -0.34972131659E+03  0.66735553915E+03  0.46999998093E+01 0. -1.
</event>
<event>
 5   0  0.2025294E-03  0.1185684E+04  0.7818609E-02  0.9125480E-01
       -1   -1    0    0    0  501  0.00000000000E+00  0.00000000000E+00  0.22275202823E+03  0.22275202829E+03  0.50400001928E-02 0. -1.
        1   -1    0    0  501    0  0.00000000000E+00  0.00000000000E+00 -0.15778154323E+04  0.15778154323E+04  0.50400001928E-02 0.  1.
    10030    2    1    2    0    0  0.00000000000E+00  0.00000000000E+00 -0.13550634041E+04  0.18005674606E+04  0.11856839171E+04 0.  0.
        5    1    3    3  502    0  0.69176223100E+02 -0.55786893236E+03 -0.39166387541E+03  0.68514653676E+03  0.46999998093E+01 0.  1.
       -5    1    3    3    0  502 -0.69176223100E+02  0.55786893236E+03 -0.96339952868E+03  0.11154209239E+04  0.46999998093E+01 0. -1.
</event>
<event>
 5   0  0.3751091E-03  0.1207769E+04  0.7818609E-02  0.9106084E-01
        2   -1    0    0  501    0  0.00000000000E+00  0.00000000000E+00  0.66319885692E+03  0.66319885693E+03  0.25500000920E-02 0.  1.
       -2   -1    0    0    0  501  0.00000000000E+00  0.00000000000E+00 -0.54987480570E+03  0.54987480570E+03  0.25500000920E-02 0. -1.
    10030    2    1    2    0    0  0.00000000000E+00  0.00000000000E+00  0.11332405122E+03  0.12130736626E+04  0.12077687570E+04 0.  0.
        5    1    3    3  502    0 -0.96599353591E+02  0.45505275268E+03 -0.33006137783E+03  0.57040954232E+03  0.46999998093E+01 0. -1.
       -5    1    3    3    0  502  0.96599353591E+02 -0.45505275268E+03  0.44338542906E+03  0.64266412031E+03  0.46999998093E+01 0.  1.
</event>
<event>
 5   0  0.2134992E-03  0.1208639E+04  0.7818609E-02  0.9105328E-01
       -1   -1    0    0    0  501  0.00000000000E+00  0.00000000000E+00  0.40777278249E+03  0.40777278252E+03  0.50400001928E-02 0. -1.
        1   -1    0    0  501    0  0.00000000000E+00  0.00000000000E+00 -0.89560246644E+03  0.89560246646E+03  0.50400001928E-02 0.  1.
    10030    2    1    2    0    0  0.00000000000E+00  0.00000000000E+00 -0.48782968395E+03  0.13033752490E+04  0.12086394165E+04 0.  0.
        4    1    3    3  502    0 -0.20720036336E+03  0.42300984823E+03  0.16435128511E+03  0.49888102800E+03  0.12699999809E+01 0. -1.
       -4    1    3    3    0  502  0.20720036336E+03 -0.42300984823E+03 -0.65218096906E+03  0.80449422098E+03  0.12699999809E+01 0.  1.
</event>
<event>
 5   0  0.2134992E-03  0.1225640E+04  0.7818609E-02  0.9090706E-01
        1   -1    0    0  501    0  0.00000000000E+00  0.00000000000E+00  0.15183951961E+04  0.15183951961E+04  0.50400001928E-02 0. -1.
       -1   -1    0    0    0  501  0.00000000000E+00  0.00000000000E+00 -0.24733223276E+03  0.24733223281E+03  0.50400001928E-02 0.  1.
    10030    2    1    2    0    0  0.00000000000E+00  0.00000000000E+00  0.12710629633E+04  0.17657274289E+04  0.12256395459E+04 0.  0.
        4    1    3    3  502    0 -0.62899967425E+02  0.37326333451E+03  0.13298397738E+04  0.13826631404E+04  0.12699999809E+01 0. -1.
       -4    1    3    3    0  502  0.62899967425E+02 -0.37326333451E+03 -0.58776810505E+02  0.38306428853E+03  0.12699999809E+01 0.  1.
</event>
<event>
 5   0  0.2025294E-03  0.1206284E+04  0.7818609E-02  0.9107374E-01
       -1   -1    0    0    0  501  0.00000000000E+00  0.00000000000E+00  0.22026934750E+03  0.22026934756E+03  0.50400001928E-02 0. -1.
        1   -1    0    0  501    0  0.00000000000E+00  0.00000000000E+00 -0.16515238888E+04  0.16515238889E+04  0.50400001928E-02 0.  1.
    10030    2    1    2    0    0  0.00000000000E+00  0.00000000000E+00 -0.14312545413E+04  0.18717932364E+04  0.12062836970E+04 0.  0.
        5    1    3    3  502    0 -0.39656425516E+03  0.25620720859E+03 -0.12979864664E+04  0.13811937949E+04  0.46999998093E+01 0.  1.
       -5    1    3    3    0  502  0.39656425516E+03 -0.25620720859E+03 -0.13326807496E+03  0.49059944150E+03  0.46999998093E+01 0. -1.
</event>
<event>
 5   0  0.2134992E-03  0.1228653E+04  0.7818609E-02  0.9088140E-01
       -1   -1    0    0    0  501  0.00000000000E+00  0.00000000000E+00  0.22934415637E+03  0.22934415643E+03  0.50400001928E-02 0. -1.
        1   -1    0    0  501    0  0.00000000000E+00  0.00000000000E+00 -0.16455478051E+04  0.16455478051E+04  0.50400001928E-02 0.  1.
    10030    2    1    2    0    0  0.00000000000E+00  0.00000000000E+00 -0.14162036488E+04  0.18748919616E+04  0.12286525517E+04 0.  0.
        4    1    3    3  502    0 -0.36990563253E+03  0.14675494853E+03  0.60605202431E+01  0.39800192801E+03  0.12699999809E+01 0. -1.
       -4    1    3    3    0  502  0.36990563253E+03 -0.14675494853E+03 -0.14222641690E+04  0.14768900336E+04  0.12699999809E+01 0.  1.
</event>
<event>
 5   0  0.2134992E-03  0.1201339E+04  0.7818609E-02  0.9111686E-01
       -1   -1    0    0    0  501  0.00000000000E+00  0.00000000000E+00  0.30430221086E+03  0.30430221090E+03  0.50400001928E-02 0.  1.
        1   -1    0    0  501    0  0.00000000000E+00  0.00000000000E+00 -0.11856752680E+04  0.11856752680E+04  0.50400001928E-02 0. -1.
    10030    2    1    2    0    0  0.00000000000E+00  0.00000000000E+00 -0.88137305711E+03  0.14899774789E+04  0.12013385958E+04 0.  0.
        4    1    3    3  502    0 -0.46783834146E+03  0.15667182787E+03 -0.86561641588E+03  0.99634942049E+03  0.12699999809E+01 0. -1.
       -4    1    3    3    0  502  0.46783834146E+03 -0.15667182787E+03 -0.15756641238E+02  0.49362805839E+03  0.12699999809E+01 0.  1.
</event>
<event>
 5   0  0.2134992E-03  0.1164941E+04  0.7818609E-02  0.9144109E-01
       -1   -1    0    0    0  501  0.00000000000E+00  0.00000000000E+00  0.11418636999E+03  0.11418637010E+03  0.50400001928E-02 0.  1.
        1   -1    0    0  501    0  0.00000000000E+00  0.00000000000E+00 -0.29712127635E+04  0.29712127635E+04  0.50400001928E-02 0. -1.
    10030    2    1    2    0    0  0.00000000000E+00  0.00000000000E+00 -0.28570263935E+04  0.30853991336E+04  0.11649412004E+04 0.  0.
        4    1    3    3  502    0 -0.53591240757E+03  0.19026779156E+03 -0.10948969605E+04  0.12337766848E+04  0.12699999809E+01 0.  1.
       -4    1    3    3    0  502  0.53591240757E+03 -0.19026779156E+03 -0.17621294331E+04  0.18516224488E+04  0.12699999809E+01 0. -1.
</event>
<event>
 5   0  0.2047109E-03  0.1077856E+04  0.7818609E-02  0.9227048E-01
        1   -1    0    0  501    0  0.00000000000E+00  0.00000000000E+00  0.11784203552E+04  0.11784203552E+04  0.50400001928E-02 0. -1.
       -1   -1    0    0    0  501  0.00000000000E+00  0.00000000000E+00 -0.24646825837E+03  0.24646825842E+03  0.50400001928E-02 0.  1.
    10030    2    1    2    0    0  0.00000000000E+00  0.00000000000E+00  0.93195209680E+03  0.14248886136E+04  0.10778556724E+04 0.  0.
        1    1    3    3  502    0 -0.19742000935E+03 -0.29820615944E+03  0.99894587376E+03  0.10610346047E+04  0.50400001928E-02 0. -1.
       -1    1    3    3    0  502  0.19742000935E+03  0.29820615944E+03 -0.66993776965E+02  0.36385400891E+03  0.50400001928E-02 0.  1.
</event>
<event>
 5   0  0.3706035E-03  0.1249366E+04  0.7818609E-02  0.9070711E-01
       -2   -1    0    0    0  501  0.00000000000E+00  0.00000000000E+00  0.41928535097E+03  0.41928535098E+03  0.25500000920E-02 0. -1.
        2   -1    0    0  501    0  0.00000000000E+00  0.00000000000E+00 -0.93069987693E+03  0.93069987693E+03  0.25500000920E-02 0.  1.
    10030    2    1    2    0    0  0.00000000000E+00  0.00000000000E+00 -0.51141452595E+03  0.13499852279E+04  0.12493659585E+04 0.  0.
        2    1    3    3  502    0  0.38945415646E+02  0.28133932852E+03 -0.85689754266E+03  0.90274135930E+03  0.25500000920E-02 0.  1.
       -2    1    3    3    0  502 -0.38945415646E+02 -0.28133932852E+03  0.34548301670E+03  0.44724386861E+03  0.25500000920E-02 0. -1.
</event>
<event>
 5   0  0.2047109E-03  0.1184250E+04  0.7818609E-02  0.9126755E-01
       -1   -1    0    0    0  501  0.00000000000E+00  0.00000000000E+00  0.26088417728E+03  0.26088417733E+03  0.50400001928E-02 0. -1.
        1   -1    0    0  501    0  0.00000000000E+00  0.00000000000E+00 -0.13439381942E+04  0.13439381942E+04  0.50400001928E-02 0.  1.
    10030    2    1    2    0    0  0.00000000000E+00  0.00000000000E+00 -0.10830540169E+04  0.16048223715E+04  0.11842503285E+04 0.  0.
        1    1    3    3  502    0 -0.10276833393E+03 -0.26375112923E+03 -0.12463109977E+04  0.12780520692E+04  0.50400001928E-02 0.  1.
       -1    1    3    3    0  502  0.10276833393E+03  0.26375112923E+03  0.16325698083E+03  0.32677030227E+03  0.50400001928E-02 0. -1.
</event>
<event>
 5   0  0.2047109E-03  0.1199513E+04  0.7818609E-02  0.9113283E-01
       -1   -1    0    0    0  501  0.00000000000E+00  0.00000000000E+00  0.20511418812E+03  0.20511418818E+03  0.50400001928E-02 0. -1.
        1   -1    0    0  501    0  0.00000000000E+00  0.00000000000E+00 -0.17536959546E+04  0.17536959546E+04  0.50400001928E-02 0.  1.
    10030    2    1    2    0    0  0.00000000000E+00  0.00000000000E+00 -0.15485817665E+04  0.19588101428E+04  0.11995131046E+04 0.  0.
        1    1    3    3  502    0 -0.24158530083E+03 -0.26369774182E+03  0.11942581156E+02  0.35783038145E+03  0.50400001928E-02 0. -1.
       -1    1    3    3    0  502  0.24158530083E+03  0.26369774182E+03 -0.15605243476E+04  0.16009797613E+04  0.50400001928E-02 0.  1.
</event>
<event>
 5   0  0.3751091E-03  0.1167102E+04  0.7818609E-02  0.9142149E-01
        2   -1    0    0  501    0  0.00000000000E+00  0.00000000000E+00  0.28156564895E+03  0.28156564896E+03  0.25500000920E-02 0.  1.
       -2   -1    0    0    0  501  0.00000000000E+00  0.00000000000E+00 -0.12094225940E+04  0.12094225940E+04  0.25500000920E-02 0. -1.
    10030    2    1    2    0    0  0.00000000000E+00  0.00000000000E+00 -0.92785694500E+03  0.14909882429E+04  0.11671021507E+04 0.  0.
        5    1    3    3  502    0 -0.63201782841E+02  0.29225247830E+03 -0.11040935583E+04  0.11438752782E+04  0.46999998093E+01 0. -1.
       -5    1    3    3    0  502  0.63201782841E+02 -0.29225247830E+03  0.17623661333E+03  0.34711296476E+03  0.46999998093E+01 0.  1.
</event>
<event>
 5   0  0.1397500E-03  0.1213660E+04  0.7818609E-02  0.9100983E-01
       -4   -1    0    0    0  501  0.00000000000E+00  0.00000000000E+00  0.96450945907E+03  0.96451029519E+03  0.12699999809E+01 0.  1.
        4   -1    0    0  501    0  0.00000000000E+00  0.00000000000E+00 -0.38179060191E+03  0.38179271418E+03  0.12699999809E+01 0. -1.
    10030    2    1    2    0    0  0.00000000000E+00  0.00000000000E+00  0.58271885716E+03  0.13463030094E+04  0.12136599716E+04 0.  0.
        1    1    3    3  502    0  0.40988735805E+03 -0.34399903915E+03 -0.26098955621E+02  0.53574633991E+03  0.50400001928E-02 0. -1.
       -1    1    3    3    0  502 -0.40988735805E+03  0.34399903915E+03  0.60881781278E+03  0.81055666946E+03  0.50400001928E-02 0.  1.
</event>
<event>
 5   0  0.2078258E-03  0.1199208E+04  0.7818609E-02  0.9113550E-01
       -1   -1    0    0    0  501  0.00000000000E+00  0.00000000000E+00  0.34615345033E+03  0.34615345036E+03  0.50400001928E-02 0. -1.
        1   -1    0    0  501    0  0.00000000000E+00  0.00000000000E+00 -0.10386291360E+04  0.10386291360E+04  0.50400001928E-02 0.  1.
    10030    2    1    2    0    0  0.00000000000E+00  0.00000000000E+00 -0.69247568564E+03  0.13847825863E+04  0.11992081705E+04 0.  0.
        3    1    3    3  502    0 -0.15439805828E+03  0.25205522011E+03  0.25617571621E+03  0.39114780091E+03  0.10100000352E+00 0. -1.
       -3    1    3    3    0  502  0.15439805828E+03 -0.25205522011E+03 -0.94865140185E+03  0.99363478543E+03  0.10100000352E+00 0.  1.
</event>
<event>
 5   0  0.2134992E-03  0.1203508E+04  0.7818609E-02  0.9109791E-01
        1   -1    0    0  501    0  0.00000000000E+00  0.00000000000E+00  0.62205696352E+03  0.62205696354E+03  0.50400001928E-02 0. -1.
       -1   -1    0    0    0  501  0.00000000000E+00  0.00000000000E+00 -0.58211380549E+03  0.58211380551E+03  0.50400001928E-02 0.  1.
    10030    2    1    2    0    0  0.00000000000E+00  0.00000000000E+00  0.39943158030E+02  0.12041707691E+04  0.12035081160E+04 0.  0.
        4    1    3    3  502    0  0.53254136871E+03  0.59557581547E+02 -0.25396543228E+03  0.59299870877E+03  0.12699999809E+01 0.  1.
       -4    1    3    3    0  502 -0.53254136871E+03 -0.59557581547E+02  0.29390859031E+03  0.61117206028E+03  0.12699999809E+01 0. -1.
</event>
<event>
 5   0  0.2134992E-03  0.1200608E+04  0.7818609E-02  0.9112324E-01
       -1   -1    0    0    0  501  0.00000000000E+00  0.00000000000E+00  0.10915739556E+04  0.10915739556E+04  0.50400001928E-02 0. -1.
        1   -1    0    0  501    0  0.00000000000E+00  0.00000000000E+00 -0.33013350498E+03  0.33013350502E+03  0.50400001928E-02 0.  1.
    10030    2    1    2    0    0  0.00000000000E+00  0.00000000000E+00  0.76144045063E+03  0.14217074606E+04  0.12006084057E+04 0.  0.
        4    1    3    3  502    0 -0.14137076934E+03  0.25643627652E+03  0.10012656418E+04  0.10432064784E+04  0.12699999809E+01 0. -1.
       -4    1    3    3    0  502  0.14137076934E+03 -0.25643627652E+03 -0.23982519113E+03  0.37850098222E+03  0.12699999809E+01 0.  1.
</event>
<event>
 5   0  0.3725376E-03  0.1211956E+04  0.7818609E-02  0.9102455E-01
       -2   -1    0    0    0  501  0.00000000000E+00  0.00000000000E+00  0.37019851939E+03  0.37019851940E+03  0.25500000920E-02 0.  1.
        2   -1    0    0  501    0  0.00000000000E+00  0.00000000000E+00 -0.99192568317E+03  0.99192568318E+03  0.25500000920E-02 0. -1.
    10030    2    1    2    0    0  0.00000000000E+00  0.00000000000E+00 -0.62172716378E+03  0.13621242026E+04  0.12119561366E+04 0.  0.
        4    1    3    3  502    0  0.24740717203E+03  0.64713030597E+02  0.30657877605E+03  0.39923707734E+03  0.12699999809E+01 0.  1.
       -4    1    3    3    0  502 -0.24740717203E+03 -0.64713030597E+02 -0.92830593983E+03  0.96288712523E+03  0.12699999809E+01 0. -1.
</event>
<event>
 5   0  0.1397500E-03  0.1181404E+04  0.7818609E-02  0.9129291E-01
        3   -1    0    0  501    0  0.00000000000E+00  0.00000000000E+00  0.92002517655E+03  0.92002518209E+03  0.10100000352E+00 0. -1.
       -3   -1    0    0    0  501  0.00000000000E+00  0.00000000000E+00 -0.37926031498E+03  0.37926032842E+03  0.10100000352E+00 0.  1.
    10030    2    1    2    0    0  0.00000000000E+00  0.00000000000E+00  0.54076486157E+03  0.12992855105E+04  0.11814043348E+04 0.  0.
        4    1    3    3  502    0 -0.23978070083E+03  0.11328468748E+03 -0.31010924088E+03  0.40804112426E+03  0.12699999809E+01 0.  1.
       -4    1    3    3    0  502  0.23978070083E+03 -0.11328468748E+03  0.85087410245E+03  0.89124438626E+03  0.12699999809E+01 0. -1.
</event>
<event>
 5   0  0.2078258E-03  0.1245839E+04  0.7818609E-02  0.9073653E-01
       -1   -1    0    0    0  501  0.00000000000E+00  0.00000000000E+00  0.88106530525E+03  0.88106530527E+03  0.50400001928E-02 0.  1.
        1   -1    0    0  501    0  0.00000000000E+00  0.00000000000E+00 -0.44040890170E+03  0.44040890173E+03  0.50400001928E-02 0. -1.
    10030    2    1    2    0    0  0.00000000000E+00  0.00000000000E+00  0.44065640355E+03  0.13214742070E+04  0.12458394815E+04 0.  0.
        3    1    3    3  502    0 -0.14026897017E+03  0.25716351687E+03 -0.36279266918E+03  0.46629067052E+03  0.10100000352E+00 0. -1.
       -3    1    3    3    0  502  0.14026897017E+03 -0.25716351687E+03  0.80344907273E+03  0.85518353648E+03  0.10100000352E+00 0.  1.
</event>
<event>
 5   0  0.3706035E-03  0.1201318E+04  0.7818609E-02  0.9111704E-01
       -2   -1    0    0    0  501  0.00000000000E+00  0.00000000000E+00  0.19201341968E+03  0.19201341970E+03  0.25500000920E-02 0.  1.
        2   -1    0    0  501    0  0.00000000000E+00  0.00000000000E+00 -0.18789894632E+04  0.18789894632E+04  0.25500000920E-02 0. -1.
    10030    2    1    2    0    0  0.00000000000E+00  0.00000000000E+00 -0.16869760436E+04  0.20710028829E+04  0.12013179303E+04 0.  0.
        2    1    3    3  502    0  0.26381938216E+03 -0.41805071846E+03 -0.25526200182E+03  0.55635039246E+03  0.25500000920E-02 0.  1.
       -2    1    3    3    0  502 -0.26381938216E+03  0.41805071846E+03 -0.14317140417E+04  0.15146524905E+04  0.25500000920E-02 0. -1.
</event>
<event>
 5   0  0.3751091E-03  0.1192898E+04  0.7818609E-02  0.9119096E-01
        2   -1    0    0  501    0  0.00000000000E+00  0.00000000000E+00  0.19752968618E+04  0.19752968618E+04  0.25500000920E-02 0.  1.
       -2   -1    0    0    0  501  0.00000000000E+00  0.00000000000E+00 -0.18010022145E+03  0.18010022146E+03  0.25500000920E-02 0. -1.
    10030    2    1    2    0    0  0.00000000000E+00  0.00000000000E+00  0.17951966404E+04  0.21553970833E+04  0.11928979877E+04 0.  0.
        5    1    3    3  502    0  0.30866572317E+03 -0.19803174591E+03  0.47725277351E+02  0.36985252892E+03  0.46999998093E+01 0. -1.
       -5    1    3    3    0  502 -0.30866572317E+03  0.19803174591E+03  0.17474713630E+04  0.17855445544E+04  0.46999998093E+01 0.  1.
</event>
<event>
 5   0  0.3650180E-03  0.1174786E+04  0.7818609E-02  0.9135217E-01
        2   -1    0    0  501    0  0.00000000000E+00  0.00000000000E+00  0.53310870637E+03  0.53310870638E+03  0.25500000920E-02 0. -1.
       -2   -1    0    0    0  501  0.00000000000E+00  0.00000000000E+00 -0.64720482490E+03  0.64720482490E+03  0.25500000920E-02 0.  1.
    10030    2    1    2    0    0  0.00000000000E+00  0.00000000000E+00 -0.11409611852E+03  0.11803135313E+04  0.11747859839E+04 0.  0.
        3    1    3    3  502    0 -0.36115129082E+03 -0.32739443471E+03 -0.38632957179E+03  0.62198707300E+03  0.10100000352E+00 0.  1.
       -3    1    3    3    0  502  0.36115129082E+03  0.32739443471E+03  0.27223345327E+03  0.55832645828E+03  0.10100000352E+00 0. -1.
</event>
<event>
 5   0  0.2096270E-03  0.1212056E+04  0.7818609E-02  0.9102369E-01
       -1   -1    0    0    0  501  0.00000000000E+00  0.00000000000E+00  0.58462495691E+03  0.58462495694E+03  0.50400001928E-02 0. -1.
        1   -1    0    0  501    0  0.00000000000E+00  0.00000000000E+00 -0.62821498520E+03  0.62821498522E+03  0.50400001928E-02 0.  1.
    10030    2    1    2    0    0  0.00000000000E+00  0.00000000000E+00 -0.43590028288E+02  0.12128399422E+04  0.12120563662E+04 0.  0.
        2    1    3    3  502    0  0.39668589683E+03  0.31884030696E+03 -0.35102339611E+03  0.61825259135E+03  0.25500000920E-02 0.  1.
       -2    1    3    3    0  502 -0.39668589683E+03 -0.31884030696E+03  0.30743336782E+03  0.59458735081E+03  0.25500000920E-02 0. -1.
</event>
<event>
 5   0  0.3650180E-03  0.1181800E+04  0.7818609E-02  0.9128938E-01
        2   -1    0    0  501    0  0.00000000000E+00  0.00000000000E+00  0.83470963187E+03  0.83470963187E+03  0.25500000920E-02 0.  1.
       -2   -1    0    0    0  501  0.00000000000E+00  0.00000000000E+00 -0.41830456637E+03  0.41830456638E+03  0.25500000920E-02 0. -1.
    10030    2    1    2    0    0  0.00000000000E+00  0.00000000000E+00  0.41640506550E+03  0.12530141983E+04  0.11818000687E+04 0.  0.
        3    1    3    3  502    0 -0.32087214840E+03 -0.94189652536E+02  0.72472632000E+03  0.79815968037E+03  0.10100000352E+00 0.  1.
       -3    1    3    3    0  502  0.32087214840E+03  0.94189652536E+02 -0.30832125450E+03  0.45485451788E+03  0.10100000352E+00 0. -1.
</event>
<event>
 5   0  0.2025294E-03  0.1194603E+04  0.7818609E-02  0.9117594E-01
       -1   -1    0    0    0  501  0.00000000000E+00  0.00000000000E+00  0.42711437821E+03  0.42711437824E+03  0.50400001928E-02 0.  1.
        1   -1    0    0  501    0  0.00000000000E+00  0.00000000000E+00 -0.83530082303E+03  0.83530082305E+03  0.50400001928E-02 0. -1.
    10030    2    1    2    0    0  0.00000000000E+00  0.00000000000E+00 -0.40818644482E+03  0.12624152013E+04  0.11946028489E+04 0.  0.
        5    1    3    3  502    0  0.54301896560E+03 -0.22436971440E+03 -0.31759366569E+03  0.66790657447E+03  0.46999998093E+01 0. -1.
       -5    1    3    3    0  502 -0.54301896560E+03  0.22436971440E+03 -0.90592779128E+02  0.59450862682E+03  0.46999998093E+01 0.  1.
</event>
<event>
 5   0  0.2078258E-03  0.1195890E+04  0.7818609E-02  0.9116461E-01
       -1   -1    0    0    0  501  0.00000000000E+00  0.00000000000E+00  0.29003359739E+03  0.29003359744E+03  0.50400001928E-02 0. -1.
        1   -1    0    0  501    0  0.00000000000E+00  0.00000000000E+00 -0.12327483216E+04  0.12327483216E+04  0.50400001928E-02 0.  1.
    10030    2    1    2    0    0  0.00000000000E+00  0.00000000000E+00 -0.94271472417E+03  0.15227819190E+04  0.11958903469E+04 0.  0.
        3    1    3    3  502    0 -0.19352730516E+02 -0.11782958188E+03 -0.12174120328E+04  0.12232540236E+04  0.10100000352E+00 0.  1.
       -3    1    3    3    0  502  0.19352730516E+02  0.11782958188E+03  0.27469730862E+03  0.29952789538E+03  0.10100000352E+00 0. -1.
</event>
<event>
 5   0  0.2134992E-03  0.1054182E+04  0.7818609E-02  0.9251037E-01
       -1   -1    0    0    0  501  0.00000000000E+00  0.00000000000E+00  0.66758086816E+03  0.66758086818E+03  0.50400001928E-02 0. -1.
        1   -1    0    0  501    0  0.00000000000E+00  0.00000000000E+00 -0.41616698618E+03  0.41616698621E+03  0.50400001928E-02 0.  1.
    10030    2    1    2    0    0  0.00000000000E+00  0.00000000000E+00  0.25141388198E+03  0.10837478544E+04  0.10541823712E+04 0.  0.
        4    1    3    3  502    0  0.76335216579E+02  0.46455843074E+03  0.36938180294E+03  0.59840298304E+03  0.12699999809E+01 0. -1.
       -4    1    3    3    0  502 -0.76335216579E+02 -0.46455843074E+03 -0.11796792096E+03  0.48534487135E+03  0.12699999809E+01 0.  1.
</event>
<event>
 5   0  0.3725376E-03  0.1199072E+04  0.7818609E-02  0.9113669E-01
        2   -1    0    0  501    0  0.00000000000E+00  0.00000000000E+00  0.10287650847E+04  0.10287650847E+04  0.25500000920E-02 0. -1.
       -2   -1    0    0    0  501  0.00000000000E+00  0.00000000000E+00 -0.34939309350E+03  0.34939309351E+03  0.25500000920E-02 0.  1.
    10030    2    1    2    0    0  0.00000000000E+00  0.00000000000E+00  0.67937199123E+03  0.13781581783E+04  0.11990720003E+04 0.  0.
        4    1    3    3  502    0 -0.36643702173E+03  0.58688970941E+02  0.88088567292E+03  0.95586697184E+03  0.12699999809E+01 0. -1.
       -4    1    3    3    0  502  0.36643702173E+03 -0.58688970941E+02 -0.20151368169E+03  0.42229120641E+03  0.12699999809E+01 0.  1.
</event>
<event>
 5   0  0.2134992E-03  0.1229172E+04  0.7818609E-02  0.9087698E-01
        1   -1    0    0  501    0  0.00000000000E+00  0.00000000000E+00  0.79771160901E+03  0.79771160902E+03  0.50400001928E-02 0.  1.
       -1   -1    0    0    0  501  0.00000000000E+00  0.00000000000E+00 -0.47349960244E+03  0.47349960247E+03  0.50400001928E-02 0. -1.
    10030    2    1    2    0    0  0.00000000000E+00  0.00000000000E+00  0.32421200657E+03  0.12712112115E+04  0.12291722902E+04 0.  0.
        4    1    3    3  502    0  0.47106396557E+03  0.37008286124E+03  0.20107784324E+02  0.59939012315E+03  0.12699999809E+01 0.  1.
       -4    1    3    3    0  502 -0.47106396557E+03 -0.37008286124E+03  0.30410422224E+03  0.67182108834E+03  0.12699999809E+01 0. -1.
</event>
<event>
 5   0  0.1397500E-03  0.1187378E+04  0.7818609E-02  0.9123977E-01
        4   -1    0    0  501    0  0.00000000000E+00  0.00000000000E+00  0.33556015350E+03  0.33556255679E+03  0.12699999809E+01 0.  1.
       -4   -1    0    0    0  501  0.00000000000E+00  0.00000000000E+00 -0.10503763470E+04  0.10503771147E+04  0.12699999809E+01 0. -1.
    10030    2    1    2    0    0  0.00000000000E+00  0.00000000000E+00 -0.71481619345E+03  0.13859396715E+04  0.11873780285E+04 0.  0.
        2    1    3    3  502    0  0.21723369558E+03  0.17055268796E+03 -0.97082774047E+03  0.10093488988E+04  0.25500000920E-02 0. -1.
       -2    1    3    3    0  502 -0.21723369558E+03 -0.17055268796E+03  0.25601154702E+03  0.37659077270E+03  0.25500000920E-02 0.  1.
</event>
<event>
 5   0  0.2078258E-03  0.1232842E+04  0.7818609E-02  0.9084586E-01
       -1   -1    0    0    0  501  0.00000000000E+00  0.00000000000E+00  0.30093877359E+03  0.30093877363E+03  0.50400001928E-02 0.  1.
        1   -1    0    0  501    0  0.00000000000E+00  0.00000000000E+00 -0.12626325589E+04  0.12626325589E+04  0.50400001928E-02 0. -1.
    10030    2    1    2    0    0  0.00000000000E+00  0.00000000000E+00 -0.96169378533E+03  0.15635713326E+04  0.12328423968E+04 0.  0.
        3    1    3    3  502    0 -0.20581337725E+03 -0.36711783002E+03 -0.10520458501E+04  0.11331086127E+04  0.10100000352E+00 0. -1.
       -3    1    3    3    0  502  0.20581337725E+03  0.36711783002E+03  0.90352064727E+02  0.43046271984E+03  0.10100000352E+00 0.  1.
</event>
<event>
 5   0  0.3706035E-03  0.1131281E+04  0.7818609E-02  0.9175229E-01
       -2   -1    0    0    0  501  0.00000000000E+00  0.00000000000E+00  0.23909467503E+03  0.23909467504E+03  0.25500000920E-02 0. -1.
        2   -1    0    0  501    0  0.00000000000E+00  0.00000000000E+00 -0.13381685875E+04  0.13381685875E+04  0.25500000920E-02 0.  1.
    10030    2    1    2    0    0  0.00000000000E+00  0.00000000000E+00 -0.10990739125E+04  0.15772632625E+04  0.11312806611E+04 0.  0.
        2    1    3    3  502    0  0.23580179494E+03  0.50885379983E+03 -0.44694689665E+03  0.71714447954E+03  0.25500000920E-02 0. -1.
       -2    1    3    3    0  502 -0.23580179494E+03 -0.50885379983E+03 -0.65212701581E+03  0.86011878299E+03  0.25500000920E-02 0.  1.
</event>
<event>
 5   0  0.3725376E-03  0.1211180E+04  0.7818609E-02  0.9103127E-01
        2   -1    0    0  501    0  0.00000000000E+00  0.00000000000E+00  0.22187633499E+04  0.22187633499E+04  0.25500000920E-02 0. -1.
       -2   -1    0    0    0  501  0.00000000000E+00  0.00000000000E+00 -0.16528991566E+03  0.16528991568E+03  0.25500000920E-02 0.  1.
    10030    2    1    2    0    0  0.00000000000E+00  0.00000000000E+00  0.20534734343E+04  0.23840532656E+04  0.12111799321E+04 0.  0.
        4    1    3    3  502    0 -0.34272547318E+03 -0.18989145084E+03  0.11783002072E+03  0.40915160974E+03  0.12699999809E+01 0.  1.
       -4    1    3    3    0  502  0.34272547318E+03  0.18989145084E+03  0.19356434135E+04  0.19749016559E+04  0.12699999809E+01 0. -1.
</event>
<event>
 5   0  0.3706035E-03  0.1171405E+04  0.7818609E-02  0.9138260E-01
        2   -1    0    0  501    0  0.00000000000E+00  0.00000000000E+00  0.83163198679E+03  0.83163198679E+03  0.25500000920E-02 0. -1.
       -2   -1    0    0    0  501  0.00000000000E+00  0.00000000000E+00 -0.41249923638E+03  0.41249923639E+03  0.25500000920E-02 0.  1.
    10030    2    1    2    0    0  0.00000000000E+00  0.00000000000E+00  0.41913275041E+03  0.12441312232E+04  0.11714052407E+04 0.  0.
        2    1    3    3  502    0 -0.50227770935E+03  0.75496295191E+02  0.51933284572E+03  0.72642218616E+03  0.25500000920E-02 0. -1.
       -2    1    3    3    0  502  0.50227770935E+03 -0.75496295191E+02 -0.10020009531E+03  0.51770903702E+03  0.25500000920E-02 0.  1.
</event>
<event>
 5   0  0.2134992E-03  0.1218524E+04  0.7818609E-02  0.9096795E-01
       -1   -1    0    0    0  501  0.00000000000E+00  0.00000000000E+00  0.28280072921E+03  0.28280072925E+03  0.50400001928E-02 0.  1.
        1   -1    0    0  501    0  0.00000000000E+00  0.00000000000E+00 -0.13125856972E+04  0.13125856972E+04  0.50400001928E-02 0. -1.
    10030    2    1    2    0    0  0.00000000000E+00  0.00000000000E+00 -0.10297849680E+04  0.15953864265E+04  0.12185240127E+04 0.  0.
        4    1    3    3  502    0  0.24837322550E+03  0.21157146694E+03  0.15877748698E+03  0.36285485809E+03  0.12699999809E+01 0.  1.
       -4    1    3    3    0  502 -0.24837322550E+03 -0.21157146694E+03 -0.11885624550E+04  0.12325315684E+04  0.12699999809E+01 0. -1.
</event>
<event>
 5   0  0.3751091E-03  0.1191913E+04  0.7818609E-02  0.9119965E-01
       -2   -1    0    0    0  501  0.00000000000E+00  0.00000000000E+00  0.52286670514E+03  0.52286670515E+03  0.25500000920E-02 0. -1.
        2   -1    0    0  501    0  0.00000000000E+00  0.00000000000E+00 -0.67926337840E+03  0.67926337840E+03  0.25500000920E-02 0.  1.
    10030    2    1    2    0    0  0.00000000000E+00  0.00000000000E+00 -0.15639667326E+03  0.12021300836E+04  0.11919130918E+04 0.  0.
        5    1    3    3  502    0 -0.49765632251E+03 -0.23549242238E+03 -0.30824034614E+03  0.63099342098E+03  0.46999998093E+01 0.  1.
       -5    1    3    3    0  502  0.49765632251E+03  0.23549242238E+03  0.15184367288E+03  0.57113666257E+03  0.46999998093E+01 0. -1.
</event>
<event>
 5   0  0.2096270E-03  0.1191194E+04  0.7818609E-02  0.9120599E-01
        1   -1    0    0  501    0  0.00000000000E+00  0.00000000000E+00  0.47791929111E+03  0.47791929114E+03  0.50400001928E-02 0. -1.
       -1   -1    0    0    0  501  0.00000000000E+00  0.00000000000E+00 -0.74225046117E+03  0.74225046119E+03  0.50400001928E-02 0.  1.
    10030    2    1    2    0    0  0.00000000000E+00  0.00000000000E+00 -0.26433117006E+03  0.12201697523E+04  0.11911940468E+04 0.  0.
        2    1    3    3  502    0  0.17672438502E+03  0.54100241261E+03  0.47663095679E+02  0.57112773476E+03  0.25500000920E-02 0. -1.
       -2    1    3    3    0  502 -0.17672438502E+03 -0.54100241261E+03 -0.31199426574E+03  0.64904201757E+03  0.25500000920E-02 0.  1.
</event>
<event>
 5   0  0.2047109E-03  0.1263370E+04  0.7818609E-02  0.9059128E-01
       -1   -1    0    0    0  501  0.00000000000E+00  0.00000000000E+00  0.53463680491E+03  0.53463680493E+03  0.50400001928E-02 0. -1.
        1   -1    0    0  501    0  0.00000000000E+00  0.00000000000E+00 -0.74635003364E+03  0.74635003366E+03  0.50400001928E-02 0.  1.
    10030    2    1    2    0    0  0.00000000000E+00  0.00000000000E+00 -0.21171322874E+03  0.12809868386E+04  0.12633704086E+04 0.  0.
        1    1    3    3  502    0 -0.63042750122E+02 -0.38856407871E+03 -0.60677959881E+03  0.72328273390E+03  0.50400001928E-02 0.  1.
       -1    1    3    3    0  502  0.63042750122E+02  0.38856407871E+03  0.39506637007E+03  0.55770410469E+03  0.50400001928E-02 0. -1.
</event>
<event>
 5   0  0.2025294E-03  0.1209367E+04  0.7818609E-02  0.9104697E-01
        1   -1    0    0  501    0  0.00000000000E+00  0.00000000000E+00  0.10184205596E+04  0.10184205597E+04  0.50400001928E-02 0.  1.
       -1   -1    0    0    0  501  0.00000000000E+00  0.00000000000E+00 -0.35902874548E+03  0.35902874551E+03  0.50400001928E-02 0. -1.
    10030    2    1    2    0    0  0.00000000000E+00  0.00000000000E+00  0.65939181416E+03  0.13774493052E+04  0.12093671997E+04 0.  0.
        5    1    3    3  502    0 -0.13806217051E+03  0.48299595213E+03  0.71303436447E+03  0.87223067339E+03  0.46999998093E+01 0.  1.
       -5    1    3    3    0  502  0.13806217051E+03 -0.48299595213E+03 -0.53642550303E+02  0.50521863178E+03  0.46999998093E+01 0. -1.
</event>
<event>
 5   0  0.2134992E-03  0.1218625E+04  0.7818609E-02  0.9096708E-01
        1   -1    0    0  501    0  0.00000000000E+00  0.00000000000E+00  0.12213570777E+04  0.12213570777E+04  0.50400001928E-02 0.  1.
       -1   -1    0    0    0  501  0.00000000000E+00  0.00000000000E+00 -0.30397485373E+03  0.30397485377E+03  0.50400001928E-02 0. -1.
    10030    2    1    2    0    0  0.00000000000E+00  0.00000000000E+00  0.91738222397E+03  0.15253319315E+04  0.12186251911E+04 0.  0.
        4    1    3    3  502    0 -0.29050617526E+03  0.23017818063E+03  0.10640247836E+04  0.11267325262E+04  0.12699999809E+01 0.  1.
       -4    1    3    3    0  502  0.29050617526E+03 -0.23017818063E+03 -0.14664255958E+03  0.39859940528E+03  0.12699999809E+01 0. -1.
</event>
<event>
 5   0  0.3626049E-03  0.1201521E+04  0.7818609E-02  0.9111526E-01
       -2   -1    0    0    0  501  0.00000000000E+00  0.00000000000E+00  0.12542940085E+03  0.12542940088E+03  0.25500000920E-02 0. -1.
        2   -1    0    0  501    0  0.00000000000E+00  0.00000000000E+00 -0.28774231984E+04  0.28774231984E+04  0.25500000920E-02 0.  1.
    10030    2    1    2    0    0  0.00000000000E+00  0.00000000000E+00 -0.27519937975E+04  0.30028525993E+04  0.12015214818E+04 0.  0.
        1    1    3    3  502    0  0.92424887136E+02 -0.58698482888E+02 -0.28522774191E+04  0.28543781017E+04  0.50400001928E-02 0.  1.
       -1    1    3    3    0  502 -0.92424887136E+02  0.58698482888E+02  0.10028362158E+03  0.14847449760E+03  0.50400001928E-02 0. -1.
</event>
<event>
 5   0  0.2047109E-03  0.1197451E+04  0.7818609E-02  0.9115091E-01
       -1   -1    0    0    0  501  0.00000000000E+00  0.00000000000E+00  0.64882986044E+03  0.64882986046E+03  0.50400001928E-02 0. -1.
        1   -1    0    0  501    0  0.00000000000E+00  0.00000000000E+00 -0.55249003011E+03  0.55249003014E+03  0.50400001928E-02 0.  1.
    10030    2    1    2    0    0  0.00000000000E+00  0.00000000000E+00  0.96339830329E+02  0.12013198906E+04  0.11974506740E+04 0.  0.
        1    1    3    3  502    0 -0.29959385100E+03  0.46466253300E+03 -0.18236441843E+03  0.58217224793E+03  0.50400001928E-02 0.  1.
       -1    1    3    3    0  502  0.29959385100E+03 -0.46466253300E+03  0.27870424876E+03  0.61914764267E+03  0.50400001928E-02 0. -1.
</event>
<event>
 5   0  0.3650180E-03  0.1213535E+04  0.7818609E-02  0.9101091E-01
        2   -1    0    0  501    0  0.00000000000E+00  0.00000000000E+00  0.10473457002E+04  0.10473457002E+04  0.25500000920E-02 0. -1.
       -2   -1    0    0    0  501  0.00000000000E+00  0.00000000000E+00 -0.35152359763E+03  0.35152359764E+03  0.25500000920E-02 0.  1.
    10030    2    1    2    0    0  0.00000000000E+00  0.00000000000E+00  0.69582210253E+03  0.13988692978E+04  0.12135348837E+04 0.  0.
        3    1    3    3  502    0 -0.57608739202E+03  0.15472876667E+03  0.47600881241E+03  0.76315272008E+03  0.10100000352E+00 0. -1.
       -3    1    3    3    0  502  0.57608739202E+03 -0.15472876667E+03  0.21981329013E+03  0.63571657773E+03  0.10100000352E+00 0.  1.
</event>
<event>
 5   0  0.3626049E-03  0.1175044E+04  0.7818609E-02  0.9134986E-01
       -2   -1    0    0    0  501  0.00000000000E+00  0.00000000000E+00  0.29197842554E+03  0.29197842555E+03  0.25500000920E-02 0. -1.
        2   -1    0    0  501    0  0.00000000000E+00  0.00000000000E+00 -0.11822168297E+04  0.11822168297E+04  0.25500000920E-02 0.  1.
    10030    2    1    2    0    0  0.00000000000E+00  0.00000000000E+00 -0.89023840416E+03  0.14741952553E+04  0.11750435032E+04 0.  0.
        1    1    3    3  502    0  0.41234205274E+03 -0.10624643475E+03  0.62744909298E+02  0.43040817490E+03  0.50400001928E-02 0. -1.
       -1    1    3    3    0  502 -0.41234205274E+03  0.10624643475E+03 -0.95298331346E+03  0.10437870804E+04  0.50400001928E-02 0.  1.
</event>
<event>
 5   0  0.3626049E-03  0.1199650E+04  0.7818609E-02  0.9113163E-01
       -2   -1    0    0    0  501  0.00000000000E+00  0.00000000000E+00  0.18884230980E+03  0.18884230982E+03  0.25500000920E-02 0. -1.
        2   -1    0    0  501    0  0.00000000000E+00  0.00000000000E+00 -0.19052401977E+04  0.19052401977E+04  0.25500000920E-02 0.  1.
    10030    2    1    2    0    0  0.00000000000E+00  0.00000000000E+00 -0.17163978879E+04  0.20940825075E+04  0.11996498817E+04 0.  0.
        1    1    3    3  502    0 -0.55723554253E+03  0.14597721239E+03 -0.11501291342E+04  0.12863194867E+04  0.50400001928E-02 0.  1.
       -1    1    3    3    0  502  0.55723554253E+03 -0.14597721239E+03 -0.56626875364E+03  0.80776302080E+03  0.50400001928E-02 0. -1.
</event>
<event>
 5   0  0.3751091E-03  0.1227998E+04  0.7818609E-02  0.9088697E-01
        2   -1    0    0  501    0  0.00000000000E+00  0.00000000000E+00  0.49588806608E+03  0.49588806609E+03  0.25500000920E-02 0.  1.
       -2   -1    0    0    0  501  0.00000000000E+00  0.00000000000E+00 -0.76024157276E+03  0.76024157277E+03  0.25500000920E-02 0. -1.
    10030    2    1    2    0    0  0.00000000000E+00  0.00000000000E+00 -0.26435350668E+03  0.12561296389E+04  0.12279979206E+04 0.  0.
        5    1    3    3  502    0  0.27816125833E+03  0.17713602830E+03 -0.66194246754E+03  0.73955444592E+03  0.46999998093E+01 0.  1.
       -5    1    3    3    0  502 -0.27816125833E+03 -0.17713602830E+03  0.39758896085E+03  0.51657519293E+03  0.46999998093E+01 0. -1.
</event>
<event>
 5   0  0.2025294E-03  0.1269948E+04  0.7818609E-02  0.9053742E-01
        1   -1    0    0  501    0  0.00000000000E+00  0.00000000000E+00  0.84222180407E+03  0.84222180408E+03  0.50400001928E-02 0. -1.
       -1   -1    0    0    0  501  0.00000000000E+00  0.00000000000E+00 -0.47872446431E+03  0.47872446434E+03  0.50400001928E-02 0.  1.
    10030    2    1    2    0    0  0.00000000000E+00  0.00000000000E+00  0.36349733976E+03  0.13209462684E+04  0.12699483171E+04 0.  0.
        5    1    3    3  502    0  0.40372023265E+03  0.10861583817E+03 -0.31533634846E+03  0.52368552511E+03  0.46999998093E+01 0.  1.
       -5    1    3    3    0  502 -0.40372023265E+03 -0.10861583817E+03  0.67883368822E+03  0.79726074330E+03  0.46999998093E+01 0. -1.
</event>
<event>
 5   0  0.3650180E-03  0.1200270E+04  0.7818609E-02  0.9112620E-01
       -2   -1    0    0    0  501  0.00000000000E+00  0.00000000000E+00  0.61359587613E+03  0.61359587614E+03  0.25500000920E-02 0. -1.
        2   -1    0    0  501    0  0.00000000000E+00  0.00000000000E+00 -0.58696930302E+03  0.58696930302E+03  0.25500000920E-02 0.  1.
    10030    2    1    2    0    0  0.00000000000E+00  0.00000000000E+00  0.26626573116E+02  0.12005651792E+04  0.12002698759E+04 0.  0.
        3    1    3    3  502    0  0.29443170044E+03  0.43769558779E+03  0.29955580931E+03  0.60663098082E+03  0.10100000352E+00 0. -1.
       -3    1    3    3    0  502 -0.29443170044E+03 -0.43769558779E+03 -0.27292923620E+03  0.59393419835E+03  0.10100000352E+00 0.  1.
</event>
<event>
 5   0  0.2096270E-03  0.1210995E+04  0.7818609E-02  0.9103286E-01
       -1   -1    0    0    0  501  0.00000000000E+00  0.00000000000E+00  0.23337305602E+03  0.23337305607E+03  0.50400001928E-02 0.  1.
        1   -1    0    0  501    0  0.00000000000E+00  0.00000000000E+00 -0.15709932823E+04  0.15709932823E+04  0.50400001928E-02 0. -1.
    10030    2    1    2    0    0  0.00000000000E+00  0.00000000000E+00 -0.13376202263E+04  0.18043663384E+04  0.12109954638E+04 0.  0.
        2    1    3    3  502    0  0.10040493787E+03 -0.17432217423E+03 -0.15197449527E+04  0.15330016612E+04  0.25500000920E-02 0. -1.
       -2    1    3    3    0  502 -0.10040493787E+03  0.17432217423E+03  0.18212472649E+03  0.27136467711E+03  0.25500000920E-02 0.  1.
</event>
<event>
 5   0  0.2047109E-03  0.1205668E+04  0.7818609E-02  0.9107910E-01
       -1   -1    0    0    0  501  0.00000000000E+00  0.00000000000E+00  0.75611410441E+03  0.75611410442E+03  0.50400001928E-02 0.  1.
        1   -1    0    0  501    0  0.00000000000E+00  0.00000000000E+00 -0.48062704589E+03  0.48062704592E+03  0.50400001928E-02 0. -1.
    10030    2    1    2    0    0  0.00000000000E+00  0.00000000000E+00  0.27548705851E+03  0.12367411503E+04  0.12056680943E+04 0.  0.
        1    1    3    3  502    0 -0.45103994057E+03 -0.21331177359E+03  0.48479731421E+03  0.69567763844E+03  0.50400001928E-02 0.  1.
       -1    1    3    3    0  502  0.45103994057E+03  0.21331177359E+03 -0.20931025569E+03  0.54106351190E+03  0.50400001928E-02 0. -1.
</event>
<event>
 5   0  0.2078258E-03  0.1215670E+04  0.7818609E-02  0.9099250E-01
       -1   -1    0    0    0  501  0.00000000000E+00  0.00000000000E+00  0.57349127224E+03  0.57349127227E+03  0.50400001928E-02 0.  1.
        1   -1    0    0  501    0  0.00000000000E+00  0.00000000000E+00 -0.64423587899E+03  0.64423587901E+03  0.50400001928E-02 0. -1.
    10030    2    1    2    0    0  0.00000000000E+00  0.00000000000E+00 -0.70744606750E+02  0.12177271513E+04  0.12156704387E+04 0.  0.
        3    1    3    3  502    0  0.69783609982E+02  0.58092018713E+03  0.12960493569E+03  0.59927912161E+03  0.10100000352E+00 0. -1.
       -3    1    3    3    0  502 -0.69783609982E+02 -0.58092018713E+03 -0.20034954245E+03  0.61844802967E+03  0.10100000352E+00 0.  1.
</event>
<event>
 5   0  0.2078258E-03  0.1198520E+04  0.7818609E-02  0.9114153E-01
       -1   -1    0    0    0  501  0.00000000000E+00  0.00000000000E+00  0.61717208295E+03  0.61717208297E+03  0.50400001928E-02 0. -1.
        1   -1    0    0  501    0  0.00000000000E+00  0.00000000000E+00 -0.58186824687E+03  0.58186824689E+03  0.50400001928E-02 0.  1.
    10030    2    1    2    0    0  0.00000000000E+00  0.00000000000E+00  0.35303836078E+02  0.11990403299E+04  0.11985204845E+04 0.  0.
        3    1    3    3  502    0  0.38340081576E+03  0.24930110259E+02 -0.44243355129E+03  0.58597367981E+03  0.10100000352E+00 0.  1.
       -3    1    3    3    0  502 -0.38340081576E+03 -0.24930110259E+02  0.47773738737E+03  0.61306665006E+03  0.10100000352E+00 0. -1.
</event>
<event>
 5   0  0.3706035E-03  0.1214013E+04  0.7818609E-02  0.9100679E-01
        2   -1    0    0  501    0  0.00000000000E+00  0.00000000000E+00  0.15555710124E+04  0.15555710124E+04  0.25500000920E-02 0.  1.
       -2   -1    0    0    0  501  0.00000000000E+00  0.00000000000E+00 -0.23686279320E+03  0.23686279321E+03  0.25500000920E-02 0. -1.
    10030    2    1    2    0    0  0.00000000000E+00  0.00000000000E+00  0.13187082192E+04  0.17924338056E+04  0.12140130066E+04 0.  0.
        2    1    3    3  502    0  0.40960655737E+03 -0.44684190709E+03  0.61239283002E+03  0.86166710512E+03  0.25500000920E-02 0.  1.
       -2    1    3    3    0  502 -0.40960655737E+03  0.44684190709E+03  0.70631538921E+03  0.93076670053E+03  0.25500000920E-02 0. -1.
</event>
<event>
 5   0  0.2025294E-03  0.1186125E+04  0.7818609E-02  0.9125089E-01
        1   -1    0    0  501    0  0.00000000000E+00  0.00000000000E+00  0.75275476516E+03  0.75275476518E+03  0.50400001928E-02 0.  1.
       -1   -1    0    0    0  501  0.00000000000E+00  0.00000000000E+00 -0.46724762243E+03  0.46724762246E+03  0.50400001928E-02 0. -1.
    10030    2    1    2    0    0  0.00000000000E+00  0.00000000000E+00  0.28550714273E+03  0.12200023876E+04  0.11861245707E+04 0.  0.
        5    1    3    3  502    0 -0.15827834364E+03 -0.35971044244E+03 -0.31406815725E+03  0.50309495512E+03  0.46999998093E+01 0. -1.
       -5    1    3    3    0  502  0.15827834364E+03  0.35971044244E+03  0.59957529998E+03  0.71690743252E+03  0.46999998093E+01 0.  1.
</event>
<event>
 5   0  0.3751091E-03  0.1191461E+04  0.7818609E-02  0.9120364E-01
       -2   -1    0    0    0  501  0.00000000000E+00  0.00000000000E+00  0.54915085523E+03  0.54915085524E+03  0.25500000920E-02 0.  1.
        2   -1    0    0  501    0  0.00000000000E+00  0.00000000000E+00 -0.64626060123E+03  0.64626060123E+03  0.25500000920E-02 0. -1.
    10030    2    1    2    0    0  0.00000000000E+00  0.00000000000E+00 -0.97109745994E+02  0.11954114565E+04  0.11914605522E+04 0.  0.
        5    1    3    3  502    0 -0.48723689832E+02  0.35816086156E+03 -0.52364304041E+03  0.63629971277E+03  0.46999998093E+01 0. -1.
       -5    1    3    3    0  502  0.48723689832E+02 -0.35816086156E+03  0.42653329442E+03  0.55911174370E+03  0.46999998093E+01 0.  1.
</event>
<event>
 5   0  0.2096270E-03  0.1165690E+04  0.7818609E-02  0.9143430E-01
        1   -1    0    0  501    0  0.00000000000E+00  0.00000000000E+00  0.51570227580E+03  0.51570227582E+03  0.50400001928E-02 0.  1.
       -1   -1    0    0    0  501  0.00000000000E+00  0.00000000000E+00 -0.65872902148E+03  0.65872902150E+03  0.50400001928E-02 0. -1.
    10030    2    1    2    0    0  0.00000000000E+00  0.00000000000E+00 -0.14302674568E+03  0.11744312973E+04  0.11656895908E+04 0.  0.
        2    1    3    3  502    0 -0.18794616714E+03  0.25579669913E+03 -0.56400669253E+03  0.64719337315E+03  0.25500000920E-02 0. -1.
       -2    1    3    3    0  502  0.18794616714E+03 -0.25579669913E+03  0.42097994685E+03  0.52723792417E+03  0.25500000920E-02 0.  1.
</event>
<event>
 5   0  0.1397500E-03  0.1205439E+04  0.7818609E-02  0.9108109E-01
        4   -1    0    0  501    0  0.00000000000E+00  0.00000000000E+00  0.51744704737E+03  0.51744860589E+03  0.12699999809E+01 0.  1.
       -4   -1    0    0    0  501  0.00000000000E+00  0.00000000000E+00 -0.70204127149E+03  0.70204242021E+03  0.12699999809E+01 0. -1.
    10030    2    1    2    0    0  0.00000000000E+00  0.00000000000E+00 -0.18459422411E+03  0.12194910261E+04  0.12054390632E+04 0.  0.
        3    1    3    3  502    0 -0.24713088762E+03  0.51267895091E+02  0.46141191276E+03  0.52593063813E+03  0.10100000352E+00 0.  1.
       -3    1    3    3    0  502  0.24713088762E+03 -0.51267895091E+02 -0.64600613687E+03  0.69356038797E+03  0.10100000352E+00 0. -1.
</event>
<event>
 5   0  0.2047109E-03  0.1204128E+04  0.7818609E-02  0.9109251E-01
       -1   -1    0    0    0  501  0.00000000000E+00  0.00000000000E+00  0.38053172905E+03  0.38053172908E+03  0.50400001928E-02 0.  1.
        1   -1    0    0  501    0  0.00000000000E+00  0.00000000000E+00 -0.95256435348E+03  0.95256435349E+03  0.50400001928E-02 0. -1.
    10030    2    1    2    0    0  0.00000000000E+00  0.00000000000E+00 -0.57203262443E+03  0.13330960826E+04  0.12041278346E+04 0.  0.
        1    1    3    3  502    0 -0.28538481471E+03  0.13513219116E+03 -0.85353674992E+03  0.91007152743E+03  0.50400001928E-02 0. -1.
       -1    1    3    3    0  502  0.28538481471E+03 -0.13513219116E+03  0.28150412549E+03  0.42302455514E+03  0.50400001928E-02 0.  1.
</event>
<event>
 5   0  0.2096270E-03  0.1153388E+04  0.7818609E-02  0.9154663E-01
        1   -1    0    0  501    0  0.00000000000E+00  0.00000000000E+00  0.98645680935E+03  0.98645680936E+03  0.50400001928E-02 0. -1.
       -1   -1    0    0    0  501  0.00000000000E+00  0.00000000000E+00 -0.33714217999E+03  0.33714218002E+03  0.50400001928E-02 0.  1.
    10030    2    1    2    0    0  0.00000000000E+00  0.00000000000E+00  0.64931462936E+03  0.13235989894E+04  0.11533883981E+04 0.  0.
        2    1    3    3  502    0  0.28262273826E+03  0.59649201586E+01  0.90149469684E+03  0.94477715938E+03  0.25500000920E-02 0. -1.
       -2    1    3    3    0  502 -0.28262273826E+03 -0.59649201586E+01 -0.25218006747E+03  0.37882183001E+03  0.25500000920E-02 0.  1.
</event>
<event>
 5   0  0.3626049E-03  0.1198151E+04  0.7818609E-02  0.9114477E-01
        2   -1    0    0  501    0  0.00000000000E+00  0.00000000000E+00  0.45249903410E+03  0.45249903411E+03  0.25500000920E-02 0.  1.
       -2   -1    0    0    0  501  0.00000000000E+00  0.00000000000E+00 -0.79313145061E+03  0.79313145062E+03  0.25500000920E-02 0. -1.
    10030    2    1    2    0    0  0.00000000000E+00  0.00000000000E+00 -0.34063241651E+03  0.12456304847E+04  0.11981506004E+04 0.  0.
        1    1    3    3  502    0  0.39872419189E+03  0.32082441918E+03 -0.49407623055E+03  0.71135125695E+03  0.50400001928E-02 0.  1.
       -1    1    3    3    0  502 -0.39872419189E+03 -0.32082441918E+03  0.15344381404E+03  0.53427922778E+03  0.50400001928E-02 0. -1.
</event>
<event>
 5   0  0.3626049E-03  0.9189121E+03  0.7818609E-02  0.9402244E-01
        2   -1    0    0  501    0  0.00000000000E+00  0.00000000000E+00  0.17031141542E+04  0.17031141542E+04  0.25500000920E-02 0. -1.
       -2   -1    0    0    0  501  0.00000000000E+00  0.00000000000E+00 -0.12394932574E+03  0.12394932577E+03  0.25500000920E-02 0.  1.
    10030    2    1    2    0    0  0.00000000000E+00  0.00000000000E+00  0.15791648284E+04  0.18270634800E+04  0.91891207653E+03 0.  0.
        1    1    3    3  502    0  0.25693961026E+01 -0.23997397116E+03  0.15685905457E+04  0.15868429061E+04  0.50400001928E-02 0. -1.
       -1    1    3    3    0  502 -0.25693961026E+01  0.23997397116E+03  0.10574282792E+02  0.24022057388E+03  0.50400001928E-02 0.  1.
</event>
<event>
 5   0  0.1397500E-03  0.1127526E+04  0.7818609E-02  0.9178771E-01
       -3   -1    0    0    0  501  0.00000000000E+00  0.00000000000E+00  0.54513845599E+03  0.54513846534E+03  0.10100000352E+00 0. -1.
        3   -1    0    0  501    0  0.00000000000E+00  0.00000000000E+00 -0.58302391518E+03  0.58302392393E+03  0.10100000352E+00 0.  1.
    10030    2    1    2    0    0  0.00000000000E+00  0.00000000000E+00 -0.37885459193E+02  0.11281623893E+04  0.11275260833E+04 0.  0.
        4    1    3    3  502    0  0.20134109558E+03  0.23304454805E+03  0.45353044253E+03  0.54821480585E+03  0.12699999809E+01 0. -1.
       -4    1    3    3    0  502 -0.20134109558E+03 -0.23304454805E+03 -0.49141590172E+03  0.57994758342E+03  0.12699999809E+01 0.  1.
</event>
<event>
 5   0  0.2134992E-03  0.1062522E+04  0.7818609E-02  0.9242510E-01
        1   -1    0    0  501    0  0.00000000000E+00  0.00000000000E+00  0.62660675569E+03  0.62660675571E+03  0.50400001928E-02 0.  1.
       -1   -1    0    0    0  501  0.00000000000E+00  0.00000000000E+00 -0.45042353710E+03  0.45042353713E+03  0.50400001928E-02 0. -1.
    10030    2    1    2    0    0  0.00000000000E+00  0.00000000000E+00  0.17618321859E+03  0.10770302928E+04  0.10625223410E+04 0.  0.
        4    1    3    3  502    0 -0.51645160431E+03  0.10950350091E+03  0.27921669110E+02  0.52867240217E+03  0.12699999809E+01 0.  1.
       -4    1    3    3    0  502  0.51645160431E+03 -0.10950350091E+03  0.14826154948E+03  0.54835789067E+03  0.12699999809E+01 0. -1.
</event>
<event>
 5   0  0.3751091E-03  0.9396375E+03  0.7818609E-02  0.9377345E-01
        2   -1    0    0  501    0  0.00000000000E+00  0.00000000000E+00  0.19746317403E+04  0.19746317403E+04  0.25500000920E-02 0. -1.
       -2   -1    0    0    0  501  0.00000000000E+00  0.00000000000E+00 -0.11178270343E+03  0.11178270346E+03  0.25500000920E-02 0.  1.
    10030    2    1    2    0    0  0.00000000000E+00  0.00000000000E+00  0.18628490369E+04  0.20864144438E+04  0.93963753487E+03 0.  0.
        5    1    3    3  502    0 -0.21120488287E+02  0.11709533679E+03 -0.77719207703E+02  0.14219619604E+03  0.46999998093E+01 0.  1.
       -5    1    3    3    0  502  0.21120488287E+02 -0.11709533679E+03  0.19405682446E+04  0.19442182477E+04  0.46999998093E+01 0. -1.
</event>
<event>
 5   0  0.2025294E-03  0.1171042E+04  0.7818609E-02  0.9138588E-01
       -1   -1    0    0    0  501  0.00000000000E+00  0.00000000000E+00  0.65461787173E+03  0.65461787175E+03  0.50400001928E-02 0.  1.
        1   -1    0    0  501    0  0.00000000000E+00  0.00000000000E+00 -0.52371733799E+03  0.52371733801E+03  0.50400001928E-02 0. -1.
    10030    2    1    2    0    0  0.00000000000E+00  0.00000000000E+00  0.13090053375E+03  0.11783352098E+04  0.11710418083E+04 0.  0.
        5    1    3    3  502    0 -0.33991581155E+03  0.22359769291E+03  0.48911168720E+03  0.63623189150E+03  0.46999998093E+01 0.  1.
       -5    1    3    3    0  502  0.33991581155E+03 -0.22359769291E+03 -0.35821115345E+03  0.54210331826E+03  0.46999998093E+01 0. -1.
</event>
<event>
 5   0  0.2096270E-03  0.1178476E+04  0.7818609E-02  0.9131908E-01
        1   -1    0    0  501    0  0.00000000000E+00  0.00000000000E+00  0.45763347410E+03  0.45763347413E+03  0.50400001928E-02 0. -1.
       -1   -1    0    0    0  501  0.00000000000E+00  0.00000000000E+00 -0.75868830943E+03  0.75868830944E+03  0.50400001928E-02 0.  1.
    10030    2    1    2    0    0  0.00000000000E+00  0.00000000000E+00 -0.30105483533E+03  0.12163217836E+04  0.11784755692E+04 0.  0.
        2    1    3    3  502    0  0.32191527640E+03 -0.33960501254E+03  0.21907935598E+03  0.51667859830E+03  0.25500000920E-02 0. -1.
       -2    1    3    3    0  502 -0.32191527640E+03  0.33960501254E+03 -0.52013419130E+03  0.69964318527E+03  0.25500000920E-02 0.  1.
</event>
<event>
 5   0  0.3751091E-03  0.1214426E+04  0.7818609E-02  0.9100323E-01
       -2   -1    0    0    0  501  0.00000000000E+00  0.00000000000E+00  0.11325033594E+04  0.11325033594E+04  0.25500000920E-02 0.  1.
        2   -1    0    0  501    0  0.00000000000E+00  0.00000000000E+00 -0.32556851779E+03  0.32556851780E+03  0.25500000920E-02 0. -1.
    10030    2    1    2    0    0  0.00000000000E+00  0.00000000000E+00  0.80693484161E+03  0.14580718772E+04  0.12144256916E+04 0.  0.
        5    1    3    3  502    0  0.11425122083E+03 -0.45824474876E+03 -0.54731357320E+02  0.47545683579E+03  0.46999998093E+01 0. -1.
       -5    1    3    3    0  502 -0.11425122083E+03  0.45824474876E+03  0.86166619893E+03  0.98261504141E+03  0.46999998093E+01 0.  1.
</event>
<event>
 5   0  0.3626049E-03  0.1226960E+04  0.7818609E-02  0.9089580E-01
        2   -1    0    0  501    0  0.00000000000E+00  0.00000000000E+00  0.79073475478E+03  0.79073475478E+03  0.25500000920E-02 0.  1.
       -2   -1    0    0    0  501  0.00000000000E+00  0.00000000000E+00 -0.47595939595E+03  0.47595939596E+03  0.25500000920E-02 0. -1.
    10030    2    1    2    0    0  0.00000000000E+00  0.00000000000E+00  0.31477535882E+03  0.12666941507E+04  0.12269598791E+04 0.  0.
        1    1    3    3  502    0  0.37563119501E+03  0.11990699724E+03 -0.32781225580E+03  0.51277417810E+03  0.50400001928E-02 0. -1.
       -1    1    3    3    0  502 -0.37563119501E+03 -0.11990699724E+03  0.64258761462E+03  0.75391997264E+03  0.50400001928E-02 0.  1.
</event>
<event>
 5   0  0.2096270E-03  0.1256195E+04  0.7818609E-02  0.9065043E-01
       -1   -1    0    0    0  501  0.00000000000E+00  0.00000000000E+00  0.55989994979E+03  0.55989994981E+03  0.50400001928E-02 0.  1.
        1   -1    0    0  501    0  0.00000000000E+00  0.00000000000E+00 -0.70460212021E+03  0.70460212023E+03  0.50400001928E-02 0. -1.
    10030    2    1    2    0    0  0.00000000000E+00  0.00000000000E+00 -0.14470217042E+03  0.12645020700E+04  0.12561953538E+04 0.  0.
        2    1    3    3  502    0  0.41583363966E+02 -0.23693555354E+03 -0.65639380397E+03  0.69908544441E+03  0.25500000920E-02 0. -1.
       -2    1    3    3    0  502 -0.41583363966E+02  0.23693555354E+03  0.51169163355E+03  0.56541662563E+03  0.25500000920E-02 0.  1.
</event>
<event>
 5   0  0.2025294E-03  0.1205551E+04  0.7818609E-02  0.9108011E-01
        1   -1    0    0  501    0  0.00000000000E+00  0.00000000000E+00  0.13558337413E+04  0.13558337413E+04  0.50400001928E-02 0.  1.
       -1   -1    0    0    0  501  0.00000000000E+00  0.00000000000E+00 -0.26798151458E+03  0.26798151463E+03  0.50400001928E-02 0. -1.
    10030    2    1    2    0    0  0.00000000000E+00  0.00000000000E+00  0.10878522267E+04  0.16238152559E+04  0.12055511263E+04 0.  0.
        5    1    3    3  502    0 -0.30860214323E+03  0.51769484334E+03  0.53241337259E+03  0.80419482897E+03  0.46999998093E+01 0. -1.
       -5    1    3    3    0  502  0.30860214323E+03 -0.51769484334E+03  0.55543885409E+03  0.81962042694E+03  0.46999998093E+01 0.  1.
</event>
<event>
 5   0  0.2078258E-03  0.1204120E+04  0.7818609E-02  0.9109258E-01
       -1   -1    0    0    0  501  0.00000000000E+00  0.00000000000E+00  0.91971880290E+03  0.91971880291E+03  0.50400001928E-02 0.  1.
        1   -1    0    0  501    0  0.00000000000E+00  0.00000000000E+00 -0.39411644468E+03  0.39411644471E+03  0.50400001928E-02 0. -1.
    10030    2    1    2    0    0  0.00000000000E+00  0.00000000000E+00  0.52560235822E+03  0.13138352476E+04  0.12041201015E+04 0.  0.
        3    1    3    3  502    0  0.35717283512E+03 -0.14794519196E+03 -0.24078905235E+03  0.45545536763E+03  0.10100000352E+00 0. -1.
       -3    1    3    3    0  502 -0.35717283512E+03  0.14794519196E+03  0.76639141057E+03  0.85837987999E+03  0.10100000352E+00 0.  1.
</event>
<event>
 5   0  0.2078258E-03  0.1004753E+04  0.7818609E-02  0.9303347E-01
       -1   -1    0    0    0  501  0.00000000000E+00  0.00000000000E+00  0.32890172394E+03  0.32890172398E+03  0.50400001928E-02 0. -1.
        1   -1    0    0  501    0  0.00000000000E+00  0.00000000000E+00 -0.76734819544E+03  0.76734819545E+03  0.50400001928E-02 0.  1.
    10030    2    1    2    0    0  0.00000000000E+00  0.00000000000E+00 -0.43844647150E+03  0.10962499194E+04  0.10047529933E+04 0.  0.
        3    1    3    3  502    0  0.33553978499E+03  0.34168535375E+03 -0.53588687808E+02  0.48187922339E+03  0.10100000352E+00 0. -1.
       -3    1    3    3    0  502 -0.33553978499E+03 -0.34168535375E+03 -0.38485778369E+03  0.61437069603E+03  0.10100000352E+00 0.  1.
</event>
<event>
 5   0  0.2025294E-03  0.1180373E+04  0.7818609E-02  0.9130211E-01
        1   -1    0    0  501    0  0.00000000000E+00  0.00000000000E+00  0.17591841164E+04  0.17591841164E+04  0.50400001928E-02 0. -1.
       -1   -1    0    0    0  501  0.00000000000E+00  0.00000000000E+00 -0.19800107354E+03  0.19800107360E+03  0.50400001928E-02 0.  1.
    10030    2    1    2    0    0  0.00000000000E+00  0.00000000000E+00  0.15611830429E+04  0.19571851900E+04  0.11803734048E+04 0.  0.
        5    1    3    3  502    0  0.26142247685E+03 -0.51989716390E+03  0.61759463490E+03  0.84857527391E+03  0.46999998093E+01 0. -1.
       -5    1    3    3    0  502 -0.26142247685E+03  0.51989716390E+03  0.94358840801E+03  0.11086099161E+04  0.46999998093E+01 0.  1.
</event>
<event>
 5   0  0.2134992E-03  0.1226897E+04  0.7818609E-02  0.9089634E-01
        1   -1    0    0  501    0  0.00000000000E+00  0.00000000000E+00  0.38493977100E+03  0.38493977104E+03  0.50400001928E-02 0. -1.
       -1   -1    0    0    0  501  0.00000000000E+00  0.00000000000E+00 -0.97760453441E+03  0.97760453443E+03  0.50400001928E-02 0.  1.
    10030    2    1    2    0    0  0.00000000000E+00  0.00000000000E+00 -0.59266476341E+03  0.13625443055E+04  0.12268966797E+04 0.  0.
        4    1    3    3  502    0  0.59408779498E+03 -0.15100408576E+03 -0.32295601229E+03  0.69285261119E+03  0.12699999809E+01 0. -1.
       -4    1    3    3    0  502 -0.59408779498E+03  0.15100408576E+03 -0.26970875112E+03  0.66969169428E+03  0.12699999809E+01 0.  1.
</event>
<event>
 5   0  0.2025294E-03  0.1197028E+04  0.7818609E-02  0.9115461E-01
        1   -1    0    0  501    0  0.00000000000E+00  0.00000000000E+00  0.15259793363E+04  0.15259793363E+04  0.50400001928E-02 0. -1.
       -1   -1    0    0    0  501  0.00000000000E+00  0.00000000000E+00 -0.23474714520E+03  0.23474714526E+03  0.50400001928E-02 0.  1.
    10030    2    1    2    0    0  0.00000000000E+00  0.00000000000E+00  0.12912321911E+04  0.17607264816E+04  0.11970284757E+04 0.  0.
        5    1    3    3  502    0 -0.52045068416E+03 -0.29492162556E+03  0.67311562806E+03  0.90053007645E+03  0.46999998093E+01 0. -1.
       -5    1    3    3    0  502  0.52045068416E+03  0.29492162556E+03  0.61811656303E+03  0.86019640510E+03  0.46999998093E+01 0.  1.
</event>
<event>
 5   0  0.3725376E-03  0.1229682E+04  0.7818609E-02  0.9087265E-01
        2   -1    0    0  501    0  0.00000000000E+00  0.00000000000E+00  0.11305117658E+04  0.11305117658E+04  0.25500000920E-02 0.  1.
       -2   -1    0    0    0  501  0.00000000000E+00  0.00000000000E+00 -0.33438807433E+03  0.33438807434E+03  0.25500000920E-02 0. -1.
    10030    2    1    2    0    0  0.00000000000E+00  0.00000000000E+00  0.79612369145E+03  0.14648998401E+04  0.12296823206E+04 0.  0.
        4    1    3    3  502    0 -0.12296719244E+03  0.54696100645E+03  0.69882431603E+03  0.89590418604E+03  0.12699999809E+01 0.  1.
       -4    1    3    3    0  502  0.12296719244E+03 -0.54696100645E+03  0.97299375423E+02  0.56899565407E+03  0.12699999809E+01 0. -1.
</event>
<event>
 5   0  0.2025294E-03  0.1207771E+04  0.7818609E-02  0.9106082E-01
       -1   -1    0    0    0  501  0.00000000000E+00  0.00000000000E+00  0.77214833437E+03  0.77214833439E+03  0.50400001928E-02 0.  1.
        1   -1    0    0  501    0  0.00000000000E+00  0.00000000000E+00 -0.47228937445E+03  0.47228937448E+03  0.50400001928E-02 0. -1.
    10030    2    1    2    0    0  0.00000000000E+00  0.00000000000E+00  0.29985895992E+03  0.12444377089E+04  0.12077705972E+04 0.  0.
        5    1    3    3  502    0 -0.46050099574E+03 -0.25744474299E+03 -0.15278651727E+03  0.54927659028E+03  0.46999998093E+01 0. -1.
       -5    1    3    3    0  502  0.46050099574E+03  0.25744474299E+03  0.45264547719E+03  0.69516111858E+03  0.46999998093E+01 0.  1.
</event>
<event>
 5   0  0.3650180E-03  0.1143035E+04  0.7818609E-02  0.9164233E-01
        2   -1    0    0  501    0  0.00000000000E+00  0.00000000000E+00  0.13331635960E+04  0.13331635960E+04  0.25500000920E-02 0.  1.
       -2   -1    0    0    0  501  0.00000000000E+00  0.00000000000E+00 -0.24500524728E+03  0.24500524729E+03  0.25500000920E-02 0. -1.
    10030    2    1    2    0    0  0.00000000000E+00  0.00000000000E+00  0.10881583488E+04  0.15781688433E+04  0.11430346915E+04 0.  0.
        3    1    3    3  502    0 -0.43135321334E+03  0.12862224108E+03  0.10303125918E+04  0.11243457309E+04  0.10100000352E+00 0.  1.
       -3    1    3    3    0  502  0.43135321334E+03 -0.12862224108E+03  0.57845756926E+02  0.45382311241E+03  0.10100000352E+00 0. -1.
</event>
<event>
 5   0  0.3650180E-03  0.1216247E+04  0.7818609E-02  0.9098753E-01
        2   -1    0    0  501    0  0.00000000000E+00  0.00000000000E+00  0.19823669246E+04  0.19823669246E+04  0.25500000920E-02 0. -1.
       -2   -1    0    0    0  501  0.00000000000E+00  0.00000000000E+00 -0.18655176786E+03  0.18655176788E+03  0.25500000920E-02 0.  1.
    10030    2    1    2    0    0  0.00000000000E+00  0.00000000000E+00  0.17958151567E+04  0.21689186925E+04  0.12162467749E+04 0.  0.
        3    1    3    3  502    0 -0.56260408887E+03 -0.22795270041E+03  0.83291534867E+03  0.10306472639E+04  0.10100000352E+00 0.  1.
       -3    1    3    3    0  502  0.56260408887E+03  0.22795270041E+03  0.96289980808E+03  0.11382714285E+04  0.10100000352E+00 0. -1.
</event>
<event>
 5   0  0.1397500E-03  0.1200972E+04  0.7818609E-02  0.9112006E-01
        4   -1    0    0  501    0  0.00000000000E+00  0.00000000000E+00  0.61629253046E+03  0.61629383901E+03  0.12699999809E+01 0. -1.
       -4   -1    0    0    0  501  0.00000000000E+00  0.00000000000E+00 -0.58508264785E+03  0.58508402620E+03  0.12699999809E+01 0.  1.
    10030    2    1    2    0    0  0.00000000000E+00  0.00000000000E+00  0.31209882610E+02  0.12013778652E+04  0.12009724053E+04 0.  0.
        3    1    3    3  502    0 -0.19571670012E+03  0.28764183783E+03  0.50519924856E+03  0.61340781257E+03  0.10100000352E+00 0. -1.
       -3    1    3    3    0  502  0.19571670012E+03 -0.28764183783E+03 -0.47398936595E+03  0.58797005265E+03  0.10100000352E+00 0.  1.
</event>
<event>
 5   0  0.3751091E-03  0.1169500E+04  0.7818609E-02  0.9139980E-01
       -2   -1    0    0    0  501  0.00000000000E+00  0.00000000000E+00  0.42518288931E+03  0.42518288931E+03  0.25500000920E-02 0.  1.
        2   -1    0    0  501    0  0.00000000000E+00  0.00000000000E+00 -0.80420143830E+03  0.80420143830E+03  0.25500000920E-02 0. -1.
    10030    2    1    2    0    0  0.00000000000E+00  0.00000000000E+00 -0.37901854899E+03  0.12293843276E+04  0.11695002200E+04 0.  0.
        5    1    3    3  502    0 -0.28085563155E+03  0.34400002040E+03  0.21035598898E+03  0.49141391099E+03  0.46999998093E+01 0.  1.
       -5    1    3    3    0  502  0.28085563155E+03 -0.34400002040E+03 -0.58937453798E+03  0.73797041663E+03  0.46999998093E+01 0. -1.
</event>
<event>
 5   0  0.2025294E-03  0.1199913E+04  0.7818609E-02  0.9112932E-01
        1   -1    0    0  501    0  0.00000000000E+00  0.00000000000E+00  0.12466887746E+04  0.12466887746E+04  0.50400001928E-02 0.  1.
       -1   -1    0    0    0  501  0.00000000000E+00  0.00000000000E+00 -0.28872324947E+03  0.28872324952E+03  0.50400001928E-02 0. -1.
    10030    2    1    2    0    0  0.00000000000E+00  0.00000000000E+00  0.95796552514E+03  0.15354120241E+04  0.11999133871E+04 0.  0.
        5    1    3    3  502    0  0.13389530660E+02 -0.54955975795E+03  0.78643565968E+03  0.95953027253E+03  0.46999998093E+01 0.  1.
       -5    1    3    3    0  502 -0.13389530660E+02  0.54955975795E+03  0.17152986545E+03  0.57588175161E+03  0.46999998093E+01 0. -1.
</event>
<event>
 5   0  0.2096270E-03  0.1175003E+04  0.7818609E-02  0.9135022E-01
        1   -1    0    0  501    0  0.00000000000E+00  0.00000000000E+00  0.11891493828E+04  0.11891493828E+04  0.50400001928E-02 0.  1.
       -1   -1    0    0    0  501  0.00000000000E+00  0.00000000000E+00 -0.29025632638E+03  0.29025632642E+03  0.50400001928E-02 0. -1.
    10030    2    1    2    0    0  0.00000000000E+00  0.00000000000E+00  0.89889305646E+03  0.14794057093E+04  0.11750032024E+04 0.  0.
        2    1    3    3  502    0 -0.12280765102E+03  0.49079906421E+03  0.73424858792E+02  0.51123052577E+03  0.25500000920E-02 0. -1.
       -2    1    3    3    0  502  0.12280765102E+03 -0.49079906421E+03  0.82546819766E+03  0.96817518350E+03  0.25500000920E-02 0.  1.
</event>
<event>
 5   0  0.3751091E-03  0.1226163E+04  0.7818609E-02  0.9090260E-01
        2   -1    0    0  501    0  0.00000000000E+00  0.00000000000E+00  0.14376650580E+04  0.14376650580E+04  0.25500000920E-02 0. -1.
       -2   -1    0    0    0  501  0.00000000000E+00  0.00000000000E+00 -0.26144392524E+03  0.26144392526E+03  0.25500000920E-02 0.  1.
    10030    2    1    2    0    0  0.00000000000E+00  0.00000000000E+00  0.11762211328E+04  0.16991089833E+04  0.12261627885E+04 0.  0.
        5    1    3    3  502    0 -0.20068430787E+03  0.23914240504E+03  0.13192408798E+04  0.13556850188E+04  0.46999998093E+01 0. -1.
       -5    1    3    3    0  502  0.20068430787E+03 -0.23914240504E+03 -0.14301974704E+03  0.34342396444E+03  0.46999998093E+01 0.  1.
</event>
<event>
 5   0  0.3626049E-03  0.1209543E+04  0.7818609E-02  0.9104544E-01
       -2   -1    0    0    0  501  0.00000000000E+00  0.00000000000E+00  0.37328159340E+03  0.37328159341E+03  0.25500000920E-02 0. -1.
        2   -1    0    0  501    0  0.00000000000E+00  0.00000000000E+00 -0.97981949067E+03  0.97981949067E+03  0.25500000920E-02 0.  1.
    10030    2    1    2    0    0  0.00000000000E+00  0.00000000000E+00 -0.60653789726E+03  0.13531010841E+04  0.12095430224E+04 0.  0.
        1    1    3    3  502    0  0.18476317380E+03 -0.22439698350E+03 -0.89655030752E+03  0.94249344323E+03  0.50400001928E-02 0.  1.
       -1    1    3    3    0  502 -0.18476317380E+03  0.22439698350E+03  0.29001241026E+03  0.41060764085E+03  0.50400001928E-02 0. -1.
</event>
<event>
 5   0  0.2096270E-03  0.1193854E+04  0.7818609E-02  0.9118253E-01
        1   -1    0    0  501    0  0.00000000000E+00  0.00000000000E+00  0.73150398530E+03  0.73150398532E+03  0.50400001928E-02 0. -1.
       -1   -1    0    0    0  501  0.00000000000E+00  0.00000000000E+00 -0.48710893437E+03  0.48710893439E+03  0.50400001928E-02 0.  1.
    10030    2    1    2    0    0  0.00000000000E+00  0.00000000000E+00  0.24439505093E+03  0.12186129197E+04  0.11938544749E+04 0.  0.
        2    1    3    3  502    0 -0.12367891101E+03 -0.15795469824E+03 -0.45166798501E+03  0.49421668164E+03  0.25500000920E-02 0.  1.
       -2    1    3    3    0  502  0.12367891101E+03  0.15795469824E+03  0.69606303594E+03  0.72439623807E+03  0.25500000920E-02 0. -1.
</event>
<event>
 5   0  0.3626049E-03  0.1173383E+04  0.7818609E-02  0.9136479E-01
       -2   -1    0    0    0  501  0.00000000000E+00  0.00000000000E+00  0.14407355520E+04  0.14407355520E+04  0.25500000920E-02 0.  1.
        2   -1    0    0  501    0  0.00000000000E+00  0.00000000000E+00 -0.23891061009E+03  0.23891061011E+03  0.25500000920E-02 0. -1.
    10030    2    1    2    0    0  0.00000000000E+00  0.00000000000E+00  0.12018249419E+04  0.16796461621E+04  0.11733831594E+04 0.  0.
        1    1    3    3  502    0 -0.25499544002E+03 -0.13234441473E+03  0.13331539558E+04  0.13637584788E+04  0.50400001928E-02 0.  1.
       -1    1    3    3    0  502  0.25499544002E+03  0.13234441473E+03 -0.13132901392E+03  0.31588768331E+03  0.50400001928E-02 0. -1.
</event>
<event>
 5   0  0.2134992E-03  0.1167669E+04  0.7818609E-02  0.9141636E-01
        1   -1    0    0  501    0  0.00000000000E+00  0.00000000000E+00  0.17106449779E+04  0.17106449779E+04  0.50400001928E-02 0. -1.
       -1   -1    0    0    0  501  0.00000000000E+00  0.00000000000E+00 -0.19925985538E+03  0.19925985544E+03  0.50400001928E-02 0.  1.
    10030    2    1    2    0    0  0.00000000000E+00  0.00000000000E+00  0.15113851225E+04  0.19099048333E+04  0.11676692528E+04 0.  0.
        4    1    3    3  502    0 -0.57850314217E+02 -0.37396161853E+03  0.14829016635E+04  0.15304224604E+04  0.12699999809E+01 0. -1.
       -4    1    3    3    0  502  0.57850314217E+02  0.37396161853E+03  0.28483459014E+02  0.37948237287E+03  0.12699999809E+01 0.  1.
</event>
<event>
 5   0  0.3650180E-03  0.1244151E+04  0.7818609E-02  0.9075065E-01
       -2   -1    0    0    0  501  0.00000000000E+00  0.00000000000E+00  0.47026122386E+03  0.47026122387E+03  0.25500000920E-02 0. -1.
        2   -1    0    0  501    0  0.00000000000E+00  0.00000000000E+00 -0.82290021649E+03  0.82290021649E+03  0.25500000920E-02 0.  1.
    10030    2    1    2    0    0  0.00000000000E+00  0.00000000000E+00 -0.35263899263E+03  0.12931614404E+04  0.12441512174E+04 0.  0.
        3    1    3    3  502    0 -0.35176048491E+02  0.14871006474E+03  0.45044884353E+03  0.47566396603E+03  0.10100000352E+00 0. -1.
       -3    1    3    3    0  502  0.35176048491E+02 -0.14871006474E+03 -0.80308783616E+03  0.81749747433E+03  0.10100000352E+00 0.  1.
</event>
<event>
 5   0  0.2134992E-03  0.1126264E+04  0.7818609E-02  0.9179964E-01
       -1   -1    0    0    0  501  0.00000000000E+00  0.00000000000E+00  0.32380972081E+03  0.32380972084E+03  0.50400001928E-02 0.  1.
        1   -1    0    0  501    0  0.00000000000E+00  0.00000000000E+00 -0.97933370611E+03  0.97933370612E+03  0.50400001928E-02 0. -1.
    10030    2    1    2    0    0  0.00000000000E+00  0.00000000000E+00 -0.65552398530E+03  0.13031434270E+04  0.11262642212E+04 0.  0.
        4    1    3    3  502    0  0.39022224234E+03  0.85889143394E+02  0.13137795079E+03  0.42060922746E+03  0.12699999809E+01 0.  1.
       -4    1    3    3    0  502 -0.39022224234E+03 -0.85889143394E+02 -0.78690193609E+03  0.88253419950E+03  0.12699999809E+01 0. -1.
</event>
<event>
 5   0  0.3650180E-03  0.1395554E+04  0.7818609E-02  0.8957043E-01
       -2   -1    0    0    0  501  0.00000000000E+00  0.00000000000E+00  0.28002675718E+03  0.28002675720E+03  0.25500000920E-02 0.  1.
        2   -1    0    0  501    0  0.00000000000E+00  0.00000000000E+00 -0.17387373287E+04  0.17387373287E+04  0.25500000920E-02 0. -1.
    10030    2    1    2    0    0  0.00000000000E+00  0.00000000000E+00 -0.14587105715E+04  0.20187640859E+04  0.13955543354E+04 0.  0.
        3    1    3    3  502    0  0.46017474173E+03  0.15182509698E+02 -0.14878062435E+04  0.15574205372E+04  0.10100000352E+00 0. -1.
       -3    1    3    3    0  502 -0.46017474173E+03 -0.15182509698E+02  0.29095671988E+02  0.46134354862E+03  0.10100000352E+00 0.  1.
</event>
<event>
 5   0  0.3725376E-03  0.1207640E+04  0.7818609E-02  0.9106196E-01
       -2   -1    0    0    0  501  0.00000000000E+00  0.00000000000E+00  0.12263557117E+04  0.12263557117E+04  0.25500000920E-02 0.  1.
        2   -1    0    0  501    0  0.00000000000E+00  0.00000000000E+00 -0.29730237519E+03  0.29730237520E+03  0.25500000920E-02 0. -1.
    10030    2    1    2    0    0  0.00000000000E+00  0.00000000000E+00  0.92905333648E+03  0.15236580869E+04  0.12076397905E+04 0.  0.
        4    1    3    3  502    0 -0.32565743382E+03 -0.23063854812E+03 -0.10721179036E+03  0.41321046087E+03  0.12699999809E+01 0. -1.
       -4    1    3    3    0  502  0.32565743382E+03  0.23063854812E+03  0.10362651268E+04  0.11104476260E+04  0.12699999809E+01 0.  1.
</event>
<event>
 5   0  0.3706035E-03  0.1207020E+04  0.7818609E-02  0.9106734E-01
       -2   -1    0    0    0  501  0.00000000000E+00  0.00000000000E+00  0.39370008567E+03  0.39370008568E+03  0.25500000920E-02 0. -1.
        2   -1    0    0  501    0  0.00000000000E+00  0.00000000000E+00 -0.92513132178E+03  0.92513132178E+03  0.25500000920E-02 0.  1.
    10030    2    1    2    0    0  0.00000000000E+00  0.00000000000E+00 -0.53143123611E+03  0.13188314075E+04  0.12070199346E+04 0.  0.
        2    1    3    3  502    0 -0.90839653472E+02 -0.20609142437E+03  0.34606083048E+03  0.41289661689E+03  0.25500000920E-02 0. -1.
       -2    1    3    3    0  502  0.90839653472E+02  0.20609142437E+03 -0.87749206659E+03  0.90593479057E+03  0.25500000920E-02 0.  1.
</event>
<event>
 5   0  0.3706035E-03  0.1193087E+04  0.7818609E-02  0.9118929E-01
       -2   -1    0    0    0  501  0.00000000000E+00  0.00000000000E+00  0.69594250688E+03  0.69594250688E+03  0.25500000920E-02 0.  1.
        2   -1    0    0  501    0  0.00000000000E+00  0.00000000000E+00 -0.51134130995E+03  0.51134130995E+03  0.25500000920E-02 0. -1.
    10030    2    1    2    0    0  0.00000000000E+00  0.00000000000E+00  0.18460119693E+03  0.12072838168E+04  0.11930870096E+04 0.  0.
        2    1    3    3  502    0 -0.31069103215E+03 -0.48437429079E+03  0.25138706149E+03  0.62796721708E+03  0.25500000920E-02 0.  1.
       -2    1    3    3    0  502  0.31069103215E+03  0.48437429079E+03 -0.66785864557E+02  0.57931659975E+03  0.25500000920E-02 0. -1.
</event>
<event>
 5   0  0.2134992E-03  0.1204879E+04  0.7818609E-02  0.9108597E-01
       -1   -1    0    0    0  501  0.00000000000E+00  0.00000000000E+00  0.11347790106E+04  0.11347790106E+04  0.50400001928E-02 0. -1.
        1   -1    0    0  501    0  0.00000000000E+00  0.00000000000E+00 -0.31982707558E+03  0.31982707562E+03  0.50400001928E-02 0.  1.
    10030    2    1    2    0    0  0.00000000000E+00  0.00000000000E+00  0.81495193504E+03  0.14546060863E+04  0.12048785041E+04 0.  0.
        4    1    3    3  502    0  0.15686433505E+03 -0.35754327948E+03 -0.14640396736E+03  0.41698843014E+03  0.12699999809E+01 0.  1.
       -4    1    3    3    0  502 -0.15686433505E+03  0.35754327948E+03  0.96135590240E+03  0.10376176561E+04  0.12699999809E+01 0. -1.
</event>
<event>
 5   0  0.3706035E-03  0.1204919E+04  0.7818609E-02  0.9108561E-01
        2   -1    0    0  501    0  0.00000000000E+00  0.00000000000E+00  0.21692231172E+04  0.21692231172E+04  0.25500000920E-02 0.  1.
       -2   -1    0    0    0  501  0.00000000000E+00  0.00000000000E+00 -0.16732151007E+03  0.16732151009E+03  0.25500000920E-02 0. -1.
    10030    2    1    2    0    0  0.00000000000E+00  0.00000000000E+00  0.20019016071E+04  0.23365446272E+04  0.12049193959E+04 0.  0.
        2    1    3    3  502    0 -0.22646238555E+03 -0.40339278036E+03  0.25255458138E+03  0.52706239090E+03  0.25500000920E-02 0. -1.
       -2    1    3    3    0  502  0.22646238555E+03  0.40339278036E+03  0.17493470257E+04  0.18094822363E+04  0.25500000920E-02 0.  1.
</event>
<event>
 5   0  0.3751091E-03  0.1196086E+04  0.7818609E-02  0.9116289E-01
       -2   -1    0    0    0  501  0.00000000000E+00  0.00000000000E+00  0.25559273751E+03  0.25559273753E+03  0.25500000920E-02 0.  1.
        2   -1    0    0  501    0  0.00000000000E+00  0.00000000000E+00 -0.13993177366E+04  0.13993177367E+04  0.25500000920E-02 0. -1.
    10030    2    1    2    0    0  0.00000000000E+00  0.00000000000E+00 -0.11437249991E+04  0.16549104742E+04  0.11960860353E+04 0.  0.
        5    1    3    3  502    0  0.42125419674E+02 -0.11983101576E+03  0.23668775399E+03  0.26865815865E+03  0.46999998093E+01 0.  1.
       -5    1    3    3    0  502 -0.42125419674E+02  0.11983101576E+03 -0.13804127531E+04  0.13862523155E+04  0.46999998093E+01 0. -1.
</event>
<event>
 5   0  0.3751091E-03  0.1199581E+04  0.7818609E-02  0.9113223E-01
        2   -1    0    0  501    0  0.00000000000E+00  0.00000000000E+00  0.14286357782E+04  0.14286357782E+04  0.25500000920E-02 0. -1.
       -2   -1    0    0    0  501  0.00000000000E+00  0.00000000000E+00 -0.25181270718E+03  0.25181270719E+03  0.25500000920E-02 0.  1.
    10030    2    1    2    0    0  0.00000000000E+00  0.00000000000E+00  0.11768230710E+04  0.16804484853E+04  0.11995809983E+04 0.  0.
        5    1    3    3  502    0 -0.18547813736E+03  0.34926885720E+03  0.12200992358E+04  0.12825970175E+04  0.46999998093E+01 0. -1.
       -5    1    3    3    0  502  0.18547813736E+03 -0.34926885720E+03 -0.43276164816E+02  0.39785146787E+03  0.46999998093E+01 0.  1.
</event>
<event>
 5   0  0.3650180E-03  0.1196848E+04  0.7818609E-02  0.9115620E-01
       -2   -1    0    0    0  501  0.00000000000E+00  0.00000000000E+00  0.57575021477E+03  0.57575021477E+03  0.25500000920E-02 0.  1.
        2   -1    0    0  501    0  0.00000000000E+00  0.00000000000E+00 -0.62199078348E+03  0.62199078349E+03  0.25500000920E-02 0. -1.
    10030    2    1    2    0    0  0.00000000000E+00  0.00000000000E+00 -0.46240568712E+02  0.11977409983E+04  0.11968480725E+04 0.  0.
        3    1    3    3  502    0 -0.11439024156E+03  0.48979906006E+03  0.30134849080E+03  0.58634390055E+03  0.10100000352E+00 0.  1.
       -3    1    3    3    0  502  0.11439024156E+03 -0.48979906006E+03 -0.34758905951E+03  0.61139709771E+03  0.10100000352E+00 0. -1.
</event>
<event>
 5   0  0.2025294E-03  0.1136593E+04  0.7818609E-02  0.9170242E-01
       -1   -1    0    0    0  501  0.00000000000E+00  0.00000000000E+00  0.62047649198E+03  0.62047649200E+03  0.50400001928E-02 0. -1.
        1   -1    0    0  501    0  0.00000000000E+00  0.00000000000E+00 -0.52050437210E+03  0.52050437213E+03  0.50400001928E-02 0.  1.
    10030    2    1    2    0    0  0.00000000000E+00  0.00000000000E+00  0.99972119876E+02  0.11409808641E+04  0.11365926744E+04 0.  0.
        5    1    3    3  502    0 -0.58857411644E+02 -0.22895279549E+03 -0.46878281717E+03  0.52503618651E+03  0.46999998093E+01 0.  1.
       -5    1    3    3    0  502  0.58857411644E+02  0.22895279549E+03  0.56875493705E+03  0.61594467762E+03  0.46999998093E+01 0. -1.
</event>
<event>
 5   0  0.2047109E-03  0.1254627E+04  0.7818609E-02  0.9066341E-01
       -1   -1    0    0    0  501  0.00000000000E+00  0.00000000000E+00  0.38963359096E+03  0.38963359099E+03  0.50400001928E-02 0.  1.
        1   -1    0    0  501    0  0.00000000000E+00  0.00000000000E+00 -0.10099807188E+04  0.10099807188E+04  0.50400001928E-02 0. -1.
    10030    2    1    2    0    0  0.00000000000E+00  0.00000000000E+00 -0.62034712780E+03  0.13996143098E+04  0.12546272981E+04 0.  0.
        1    1    3    3  502    0 -0.34311362303E+03 -0.62288741820E+02  0.27154199307E+03  0.44197499895E+03  0.50400001928E-02 0.  1.
       -1    1    3    3    0  502  0.34311362303E+03  0.62288741820E+02 -0.89188912087E+03  0.95763931082E+03  0.50400001928E-02 0. -1.
</event>
<event>
 5   0  0.3650180E-03  0.1186530E+04  0.7818609E-02  0.9124729E-01
       -2   -1    0    0    0  501  0.00000000000E+00  0.00000000000E+00  0.26387288061E+03  0.26387288062E+03  0.25500000920E-02 0. -1.
        2   -1    0    0  501    0  0.00000000000E+00  0.00000000000E+00 -0.13338366889E+04  0.13338366889E+04  0.25500000920E-02 0.  1.
    10030    2    1    2    0    0  0.00000000000E+00  0.00000000000E+00 -0.10699638082E+04  0.15977095695E+04  0.11865299480E+04 0.  0.
        3    1    3    3  502    0 -0.56456487516E+02  0.43211174475E+03 -0.10770463443E+04  0.11618677777E+04  0.10100000352E+00 0.  1.
       -3    1    3    3    0  502  0.56456487516E+02 -0.43211174475E+03  0.70825360500E+01  0.43584179177E+03  0.10100000352E+00 0. -1.
</event>
<event>
 5   0  0.2096270E-03  0.1207667E+04  0.7818609E-02  0.9106172E-01
       -1   -1    0    0    0  501  0.00000000000E+00  0.00000000000E+00  0.28048348228E+03  0.28048348233E+03  0.50400001928E-02 0.  1.
        1   -1    0    0  501    0  0.00000000000E+00  0.00000000000E+00 -0.12999511288E+04  0.12999511288E+04  0.50400001928E-02 0. -1.
    10030    2    1    2    0    0  0.00000000000E+00  0.00000000000E+00 -0.10194676465E+04  0.15804346111E+04  0.12076668737E+04 0.  0.
        2    1    3    3  502    0  0.56918188946E+03 -0.16168100470E+03 -0.66735114594E+03  0.89188918738E+03  0.25500000920E-02 0.  1.
       -2    1    3    3    0  502 -0.56918188946E+03  0.16168100470E+03 -0.35211650054E+03  0.68854542372E+03  0.25500000920E-02 0. -1.
</event>
<event>
 5   0  0.3725376E-03  0.1153275E+04  0.7818609E-02  0.9154768E-01
       -2   -1    0    0    0  501  0.00000000000E+00  0.00000000000E+00  0.42712936492E+03  0.42712936493E+03  0.25500000920E-02 0. -1.
        2   -1    0    0  501    0  0.00000000000E+00  0.00000000000E+00 -0.77847791550E+03  0.77847791551E+03  0.25500000920E-02 0.  1.
    10030    2    1    2    0    0  0.00000000000E+00  0.00000000000E+00 -0.35134855058E+03  0.12056072804E+04  0.11532749502E+04 0.  0.
        4    1    3    3  502    0  0.74223378217E+02  0.25151635086E+03 -0.71253379459E+03  0.75925990673E+03  0.12699999809E+01 0.  1.
       -4    1    3    3    0  502 -0.74223378217E+02 -0.25151635086E+03  0.36118524402E+03  0.44634737371E+03  0.12699999809E+01 0. -1.
</event>
<event>
 5   0  0.1397500E-03  0.1060164E+04  0.7818609E-02  0.9244912E-01
       -3   -1    0    0    0  501  0.00000000000E+00  0.00000000000E+00  0.10230937268E+04  0.10230937318E+04  0.10100000352E+00 0.  1.
        3   -1    0    0  501    0  0.00000000000E+00  0.00000000000E+00 -0.27464452979E+03  0.27464454836E+03  0.10100000352E+00 0. -1.
    10030    2    1    2    0    0  0.00000000000E+00  0.00000000000E+00  0.74844919703E+03  0.12977382802E+04  0.10601643473E+04 0.  0.
        5    1    3    3  502    0 -0.44163040063E+03  0.27613671227E+03  0.25381400907E+03  0.57942431414E+03  0.46999998093E+01 0. -1.
       -5    1    3    3    0  502  0.44163040063E+03 -0.27613671227E+03  0.49463518796E+03  0.71831396603E+03  0.46999998093E+01 0.  1.
</event>
<event>
 5   0  0.2134992E-03  0.1184467E+04  0.7818609E-02  0.9126562E-01
        1   -1    0    0  501    0  0.00000000000E+00  0.00000000000E+00  0.32055666843E+03  0.32055666847E+03  0.50400001928E-02 0.  1.
       -1   -1    0    0    0  501  0.00000000000E+00  0.00000000000E+00 -0.10941607504E+04  0.10941607504E+04  0.50400001928E-02 0. -1.
    10030    2    1    2    0    0  0.00000000000E+00  0.00000000000E+00 -0.77360408193E+03  0.14147174188E+04  0.11844670108E+04 0.  0.
        4    1    3    3  502    0  0.57595956971E+03 -0.12056250714E+03 -0.46669396334E+03  0.75104567930E+03  0.12699999809E+01 0. -1.
       -4    1    3    3    0  502 -0.57595956971E+03  0.12056250714E+03 -0.30691011859E+03  0.66367173954E+03  0.12699999809E+01 0.  1.
</event>
<event>
 5   0  0.3725376E-03  0.1200369E+04  0.7818609E-02  0.9112533E-01
        2   -1    0    0  501    0  0.00000000000E+00  0.00000000000E+00  0.87957763887E+03  0.87957763887E+03  0.25500000920E-02 0. -1.
       -2   -1    0    0    0  501  0.00000000000E+00  0.00000000000E+00 -0.40953920929E+03  0.40953920930E+03  0.25500000920E-02 0.  1.
    10030    2    1    2    0    0  0.00000000000E+00  0.00000000000E+00  0.47003842958E+03  0.12891168482E+04  0.12003691611E+04 0.  0.
        4    1    3    3  502    0  0.15823982402E+02  0.12000539474E+03 -0.39629323807E+03  0.41436896195E+03  0.12699999809E+01 0.  1.
       -4    1    3    3    0  502 -0.15823982402E+02 -0.12000539474E+03  0.86633166764E+03  0.87474788622E+03  0.12699999809E+01 0. -1.
</event>
<event>
 5   0  0.3626049E-03  0.1223155E+04  0.7818609E-02  0.9092827E-01
        2   -1    0    0  501    0  0.00000000000E+00  0.00000000000E+00  0.23084286998E+04  0.23084286998E+04  0.25500000920E-02 0.  1.
       -2   -1    0    0    0  501  0.00000000000E+00  0.00000000000E+00 -0.16202664973E+03  0.16202664975E+03  0.25500000920E-02 0. -1.
    10030    2    1    2    0    0  0.00000000000E+00  0.00000000000E+00  0.21464020501E+04  0.24704553495E+04  0.12231548853E+04 0.  0.
        1    1    3    3  502    0 -0.11271108032E+03  0.75379519667E+01  0.22871748319E+04  0.22899627334E+04  0.50400001928E-02 0.  1.
       -1    1    3    3    0  502  0.11271108032E+03 -0.75379519667E+01 -0.14077278188E+03  0.18049261616E+03  0.50400001928E-02 0. -1.
</event>
<event>
 5   0  0.3706035E-03  0.1269663E+04  0.7818609E-02  0.9053975E-01
       -2   -1    0    0    0  501  0.00000000000E+00  0.00000000000E+00  0.42404865644E+03  0.42404865645E+03  0.25500000920E-02 0.  1.
        2   -1    0    0  501    0  0.00000000000E+00  0.00000000000E+00 -0.95038819191E+03  0.95038819191E+03  0.25500000920E-02 0. -1.
    10030    2    1    2    0    0  0.00000000000E+00  0.00000000000E+00 -0.52633953546E+03  0.13744368484E+04  0.12696626889E+04 0.  0.
        2    1    3    3  502    0  0.61075353093E+03 -0.14770565545E+03 -0.16529883188E+03  0.64973882447E+03  0.25500000920E-02 0. -1.
       -2    1    3    3    0  502 -0.61075353093E+03  0.14770565545E+03 -0.36104070358E+03  0.72469802389E+03  0.25500000920E-02 0.  1.
</event>
<event>
 5   0  0.2078258E-03  0.1220497E+04  0.7818609E-02  0.9095102E-01
        1   -1    0    0  501    0  0.00000000000E+00  0.00000000000E+00  0.76664999399E+03  0.76664999400E+03  0.50400001928E-02 0.  1.
       -1   -1    0    0    0  501  0.00000000000E+00  0.00000000000E+00 -0.48575403983E+03  0.48575403986E+03  0.50400001928E-02 0. -1.
    10030    2    1    2    0    0  0.00000000000E+00  0.00000000000E+00  0.28089595416E+03  0.12524040339E+04  0.12204971639E+04 0.  0.
        3    1    3    3  502    0  0.51263321522E+03 -0.16463468111E+03  0.43519556866E+03  0.69230960181E+03  0.10100000352E+00 0.  1.
       -3    1    3    3    0  502 -0.51263321522E+03  0.16463468111E+03 -0.15429961451E+03  0.56009443205E+03  0.10100000352E+00 0. -1.
</event>
<event>
 5   0  0.1397500E-03  0.1209497E+04  0.7818609E-02  0.9104584E-01
        3   -1    0    0  501    0  0.00000000000E+00  0.00000000000E+00  0.71331063971E+03  0.71331064686E+03  0.10100000352E+00 0.  1.
       -3   -1    0    0    0  501  0.00000000000E+00  0.00000000000E+00 -0.51270891648E+03  0.51270892643E+03  0.10100000352E+00 0. -1.
    10030    2    1    2    0    0  0.00000000000E+00  0.00000000000E+00  0.20060172322E+03  0.12260195733E+04  0.12094969792E+04 0.  0.
        3    1    3    3  502    0 -0.42388287727E+03 -0.32846180556E+02 -0.33565004206E+03  0.54167935733E+03  0.10100000352E+00 0. -1.
       -3    1    3    3    0  502  0.42388287727E+03  0.32846180556E+02  0.53625176528E+03  0.68434021596E+03  0.10100000352E+00 0.  1.
</event>
<event>
 5   0  0.2047109E-03  0.1164226E+04  0.7818609E-02  0.9144759E-01
       -1   -1    0    0    0  501  0.00000000000E+00  0.00000000000E+00  0.87291155917E+03  0.87291155919E+03  0.50400001928E-02 0. -1.
        1   -1    0    0  501    0  0.00000000000E+00  0.00000000000E+00 -0.38819001247E+03  0.38819001251E+03  0.50400001928E-02 0.  1.
    10030    2    1    2    0    0  0.00000000000E+00  0.00000000000E+00  0.48472154670E+03  0.12611015717E+04  0.11642260074E+04 0.  0.
        1    1    3    3  502    0  0.49572131684E+03  0.25781484231E+03  0.65537081881E+02  0.56258619430E+03  0.50400001928E-02 0. -1.
       -1    1    3    3    0  502 -0.49572131684E+03 -0.25781484231E+03  0.41918446482E+03  0.69851537740E+03  0.50400001928E-02 0.  1.
</event>
<event>
 5   0  0.2096270E-03  0.1193115E+04  0.7818609E-02  0.9118905E-01
       -1   -1    0    0    0  501  0.00000000000E+00  0.00000000000E+00  0.90298201661E+03  0.90298201662E+03  0.50400001928E-02 0.  1.
        1   -1    0    0  501    0  0.00000000000E+00  0.00000000000E+00 -0.39411721768E+03  0.39411721772E+03  0.50400001928E-02 0. -1.
    10030    2    1    2    0    0  0.00000000000E+00  0.00000000000E+00  0.50886479892E+03  0.12970992343E+04  0.11931148478E+04 0.  0.
        2    1    3    3  502    0 -0.35636789137E+03  0.33004393381E+03  0.63096081323E+03  0.79626542062E+03  0.25500000920E-02 0.  1.
       -2    1    3    3    0  502  0.35636789137E+03 -0.33004393381E+03 -0.12209601431E+03  0.50083381372E+03  0.25500000920E-02 0. -1.
</event>
<event>
 5   0  0.3706035E-03  0.1294798E+04  0.7818609E-02  0.9033700E-01
       -2   -1    0    0    0  501  0.00000000000E+00  0.00000000000E+00  0.70177570042E+03  0.70177570043E+03  0.25500000920E-02 0.  1.
        2   -1    0    0  501    0  0.00000000000E+00  0.00000000000E+00 -0.59723609376E+03  0.59723609376E+03  0.25500000920E-02 0. -1.
    10030    2    1    2    0    0  0.00000000000E+00  0.00000000000E+00  0.10453960666E+03  0.12990117942E+04  0.12947984832E+04 0.  0.
        2    1    3    3  502    0  0.31297742972E+03  0.41552678093E+03  0.43889167861E+03  0.68061977839E+03  0.25500000920E-02 0.  1.
       -2    1    3    3    0  502 -0.31297742972E+03 -0.41552678093E+03 -0.33435207194E+03  0.61839201580E+03  0.25500000920E-02 0. -1.
</event>
<event>
 5   0  0.3751091E-03  0.1185678E+04  0.7818609E-02  0.9125485E-01
        2   -1    0    0  501    0  0.00000000000E+00  0.00000000000E+00  0.59605674908E+03  0.59605674908E+03  0.25500000920E-02 0.  1.
       -2   -1    0    0    0  501  0.00000000000E+00  0.00000000000E+00 -0.58963896680E+03  0.58963896681E+03  0.25500000920E-02 0. -1.
    10030    2    1    2    0    0  0.00000000000E+00  0.00000000000E+00  0.64177822748E+01  0.11856957159E+04  0.11856783471E+04 0.  0.
        5    1    3    3  502    0 -0.45254020690E+03  0.37696149056E+03  0.70616046376E+02  0.59321271078E+03  0.46999998093E+01 0.  1.
       -5    1    3    3    0  502  0.45254020690E+03 -0.37696149056E+03 -0.64198264101E+02  0.59248300511E+03  0.46999998093E+01 0. -1.
</event>
<event>
 5   0  0.2047109E-03  0.1188171E+04  0.7818609E-02  0.9123274E-01
        1   -1    0    0  501    0  0.00000000000E+00  0.00000000000E+00  0.61320408032E+03  0.61320408034E+03  0.50400001928E-02 0.  1.
       -1   -1    0    0    0  501  0.00000000000E+00  0.00000000000E+00 -0.57556268817E+03  0.57556268819E+03  0.50400001928E-02 0. -1.
    10030    2    1    2    0    0  0.00000000000E+00  0.00000000000E+00  0.37641392154E+02  0.11887667685E+04  0.11881706761E+04 0.  0.
        1    1    3    3  502    0  0.24874362204E+03 -0.53598102967E+03 -0.42759635870E+02  0.59243349007E+03  0.50400001928E-02 0. -1.
       -1    1    3    3    0  502 -0.24874362204E+03  0.53598102967E+03  0.80401028024E+02  0.59633327847E+03  0.50400001928E-02 0.  1.
</event>
<event>
 5   0  0.3626049E-03  0.1104930E+04  0.7818609E-02  0.9200400E-01
        2   -1    0    0  501    0  0.00000000000E+00  0.00000000000E+00  0.53605855671E+03  0.53605855671E+03  0.25500000920E-02 0. -1.
       -2   -1    0    0    0  501  0.00000000000E+00  0.00000000000E+00 -0.56937392305E+03  0.56937392305E+03  0.25500000920E-02 0.  1.
    10030    2    1    2    0    0  0.00000000000E+00  0.00000000000E+00 -0.33315366338E+02  0.11054324798E+04  0.11049303388E+04 0.  0.
        1    1    3    3  502    0  0.37220395081E+03 -0.63482595229E+02 -0.42014227025E+03  0.56487640080E+03  0.50400001928E-02 0.  1.
       -1    1    3    3    0  502 -0.37220395081E+03  0.63482595229E+02  0.38682690391E+03  0.54055607897E+03  0.50400001928E-02 0. -1.
</event>
<event>
 5   0  0.2047109E-03  0.1193927E+04  0.7818609E-02  0.9118189E-01
       -1   -1    0    0    0  501  0.00000000000E+00  0.00000000000E+00  0.68619396265E+03  0.68619396267E+03  0.50400001928E-02 0.  1.
        1   -1    0    0  501    0  0.00000000000E+00  0.00000000000E+00 -0.51933637235E+03  0.51933637237E+03  0.50400001928E-02 0. -1.
    10030    2    1    2    0    0  0.00000000000E+00  0.00000000000E+00  0.16685759030E+03  0.12055303350E+04  0.11939271055E+04 0.  0.
        1    1    3    3  502    0  0.34352850753E+03  0.33535979510E+03 -0.27482562634E+03  0.55317913244E+03  0.50400001928E-02 0. -1.
       -1    1    3    3    0  502 -0.34352850753E+03 -0.33535979510E+03  0.44168321664E+03  0.65235120261E+03  0.50400001928E-02 0.  1.
</event>
<event>
 5   0  0.3751091E-03  0.1222983E+04  0.7818609E-02  0.9092974E-01
       -2   -1    0    0    0  501  0.00000000000E+00  0.00000000000E+00  0.89021164714E+03  0.89021164715E+03  0.25500000920E-02 0. -1.
        2   -1    0    0  501    0  0.00000000000E+00  0.00000000000E+00 -0.42003727557E+03  0.42003727558E+03  0.25500000920E-02 0.  1.
    10030    2    1    2    0    0  0.00000000000E+00  0.00000000000E+00  0.47017437157E+03  0.13102489227E+04  0.12229833604E+04 0.  0.
        5    1    3    3  502    0  0.50681274941E+03  0.18688751283E+03 -0.71915057379E+02  0.54495868733E+03  0.46999998093E+01 0.  1.
       -5    1    3    3    0  502 -0.50681274941E+03 -0.18688751283E+03  0.54208942895E+03  0.76529023540E+03  0.46999998093E+01 0. -1.
</event>
<event>
 5   0  0.3626049E-03  0.1201226E+04  0.7818609E-02  0.9111784E-01
       -2   -1    0    0    0  501  0.00000000000E+00  0.00000000000E+00  0.23379653365E+03  0.23379653366E+03  0.25500000920E-02 0.  1.
        2   -1    0    0  501    0  0.00000000000E+00  0.00000000000E+00 -0.15429485674E+04  0.15429485674E+04  0.25500000920E-02 0. -1.
    10030    2    1    2    0    0  0.00000000000E+00  0.00000000000E+00 -0.13091520337E+04  0.17767451010E+04  0.12012260847E+04 0.  0.
        1    1    3    3  502    0  0.37285048797E+03 -0.35747489826E+03 -0.11078941402E+04  0.12223891423E+04  0.50400001928E-02 0.  1.
       -1    1    3    3    0  502 -0.37285048797E+03  0.35747489826E+03 -0.20125789354E+03  0.55435595875E+03  0.50400001928E-02 0. -1.
</event>
<event>
 5   0  0.3751091E-03  0.1185772E+04  0.7818609E-02  0.9125403E-01
        2   -1    0    0  501    0  0.00000000000E+00  0.00000000000E+00  0.60342661941E+03  0.60342661941E+03  0.25500000920E-02 0. -1.
       -2   -1    0    0    0  501  0.00000000000E+00  0.00000000000E+00 -0.58252911194E+03  0.58252911195E+03  0.25500000920E-02 0.  1.
    10030    2    1    2    0    0  0.00000000000E+00  0.00000000000E+00  0.20897507464E+02  0.11859557314E+04  0.11857716015E+04 0.  0.
        5    1    3    3  502    0  0.65077201046E+02 -0.19024296485E+03 -0.54736901958E+03  0.58314866146E+03  0.46999998093E+01 0.  1.
       -5    1    3    3    0  502 -0.65077201046E+02  0.19024296485E+03  0.56826652704E+03  0.60280706990E+03  0.46999998093E+01 0. -1.
</event>
<event>
 5   0  0.3751091E-03  0.1197095E+04  0.7818609E-02  0.9115403E-01
       -2   -1    0    0    0  501  0.00000000000E+00  0.00000000000E+00  0.86801730513E+03  0.86801730513E+03  0.25500000920E-02 0. -1.
        2   -1    0    0  501    0  0.00000000000E+00  0.00000000000E+00 -0.41273290170E+03  0.41273290171E+03  0.25500000920E-02 0.  1.
    10030    2    1    2    0    0  0.00000000000E+00  0.00000000000E+00  0.45528440343E+03  0.12807502068E+04  0.11970953196E+04 0.  0.
        5    1    3    3  502    0  0.51936576335E+03  0.70448356706E+02  0.53686100529E+03  0.75029700526E+03  0.46999998093E+01 0. -1.
       -5    1    3    3    0  502 -0.51936576335E+03 -0.70448356706E+02 -0.81576601861E+02  0.53045320158E+03  0.46999998093E+01 0.  1.
</event>
<event>
 5   0  0.1397500E-03  0.1211639E+04  0.7818609E-02  0.9102730E-01
       -4   -1    0    0    0  501  0.00000000000E+00  0.00000000000E+00  0.26396573492E+03  0.26396879003E+03  0.12699999809E+01 0. -1.
        4   -1    0    0  501    0  0.00000000000E+00  0.00000000000E+00 -0.13903858032E+04  0.13903863833E+04  0.12699999809E+01 0.  1.
    10030    2    1    2    0    0  0.00000000000E+00  0.00000000000E+00 -0.11264200683E+04  0.16543551733E+04  0.12116389186E+04 0.  0.
        3    1    3    3  502    0  0.49253242364E+03 -0.14699355275E+03 -0.10010328416E+04  0.11252830991E+04  0.10100000352E+00 0.  1.
       -3    1    3    3    0  502 -0.49253242364E+03  0.14699355275E+03 -0.12538722670E+03  0.52907207421E+03  0.10100000352E+00 0. -1.
</event>
<event>
 5   0  0.3626049E-03  0.1208487E+04  0.7818609E-02  0.9105460E-01
        2   -1    0    0  501    0  0.00000000000E+00  0.00000000000E+00  0.38542662703E+03  0.38542662704E+03  0.25500000920E-02 0. -1.
       -2   -1    0    0    0  501  0.00000000000E+00  0.00000000000E+00 -0.94728846334E+03  0.94728846334E+03  0.25500000920E-02 0.  1.
    10030    2    1    2    0    0  0.00000000000E+00  0.00000000000E+00 -0.56186183630E+03  0.13327150904E+04  0.12084869834E+04 0.  0.
        1    1    3    3  502    0 -0.14285981030E+03 -0.16853032391E+03 -0.90114855459E+03  0.92783625331E+03  0.50400001928E-02 0.  1.
       -1    1    3    3    0  502  0.14285981030E+03  0.16853032391E+03  0.33928671829E+03  0.40487883708E+03  0.50400001928E-02 0. -1.
</event>
<event>
 5   0  0.2096270E-03  0.1190231E+04  0.7818609E-02  0.9121450E-01
        1   -1    0    0  501    0  0.00000000000E+00  0.00000000000E+00  0.86635976999E+03  0.86635977001E+03  0.50400001928E-02 0. -1.
       -1   -1    0    0    0  501  0.00000000000E+00  0.00000000000E+00 -0.40879400240E+03  0.40879400243E+03  0.50400001928E-02 0.  1.
    10030    2    1    2    0    0  0.00000000000E+00  0.00000000000E+00  0.45756576759E+03  0.12751537724E+04  0.11902313690E+04 0.  0.
        2    1    3    3  502    0  0.24910950525E+02 -0.16326252688E+03  0.84131703137E+03  0.85737363816E+03  0.25500000920E-02 0. -1.
       -2    1    3    3    0  502 -0.24910950525E+02  0.16326252688E+03 -0.38375126378E+03  0.41778013428E+03  0.25500000920E-02 0.  1.
</event>
<event>
 5   0  0.3725376E-03  0.1182475E+04  0.7818609E-02  0.9128336E-01
        2   -1    0    0  501    0  0.00000000000E+00  0.00000000000E+00  0.20388112908E+04  0.20388112908E+04  0.25500000920E-02 0. -1.
       -2   -1    0    0    0  501  0.00000000000E+00  0.00000000000E+00 -0.17145359378E+03  0.17145359380E+03  0.25500000920E-02 0.  1.
    10030    2    1    2    0    0  0.00000000000E+00  0.00000000000E+00  0.18673576970E+04  0.22102648846E+04  0.11824745627E+04 0.  0.
        4    1    3    3  502    0  0.67000316717E+01  0.47357684565E+03  0.15951699866E+04  0.16639978421E+04  0.12699999809E+01 0. -1.
       -4    1    3    3    0  502 -0.67000316717E+01 -0.47357684565E+03  0.27218771033E+03  0.54626704250E+03  0.12699999809E+01 0.  1.
</event>
<event>
 5   0  0.2078258E-03  0.1315723E+04  0.7818609E-02  0.9017189E-01
       -1   -1    0    0    0  501  0.00000000000E+00  0.00000000000E+00  0.88495462994E+03  0.88495462996E+03  0.50400001928E-02 0. -1.
        1   -1    0    0  501    0  0.00000000000E+00  0.00000000000E+00 -0.48904393592E+03  0.48904393595E+03  0.50400001928E-02 0.  1.
    10030    2    1    2    0    0  0.00000000000E+00  0.00000000000E+00  0.39591069402E+03  0.13739985659E+04  0.13157229121E+04 0.  0.
        3    1    3    3  502    0 -0.34051618001E+03  0.23343057755E+03 -0.33692246227E+03  0.53287696438E+03  0.10100000352E+00 0.  1.
       -3    1    3    3    0  502  0.34051618001E+03 -0.23343057755E+03  0.73283315629E+03  0.84112160152E+03  0.10100000352E+00 0. -1.
</event>
<event>
 5   0  0.3650180E-03  0.1197094E+04  0.7818609E-02  0.9115404E-01
       -2   -1    0    0    0  501  0.00000000000E+00  0.00000000000E+00  0.29857920526E+03  0.29857920527E+03  0.25500000920E-02 0.  1.
        2   -1    0    0  501    0  0.00000000000E+00  0.00000000000E+00 -0.11998778258E+04  0.11998778258E+04  0.25500000920E-02 0. -1.
    10030    2    1    2    0    0  0.00000000000E+00  0.00000000000E+00 -0.90129862055E+03  0.14984570311E+04  0.11970940943E+04 0.  0.
        3    1    3    3  502    0 -0.93220064608E+02 -0.30117092688E+03  0.18622301810E+03  0.36615970602E+03  0.10100000352E+00 0.  1.
       -3    1    3    3    0  502  0.93220064608E+02  0.30117092688E+03 -0.10875216386E+04  0.11322973251E+04  0.10100000352E+00 0. -1.
</event>
<event>
 5   0  0.2134992E-03  0.1211808E+04  0.7818609E-02  0.9102583E-01
       -1   -1    0    0    0  501  0.00000000000E+00  0.00000000000E+00  0.33416341667E+03  0.33416341671E+03  0.50400001928E-02 0.  1.
        1   -1    0    0  501    0  0.00000000000E+00  0.00000000000E+00 -0.10986235870E+04  0.10986235870E+04  0.50400001928E-02 0. -1.
    10030    2    1    2    0    0  0.00000000000E+00  0.00000000000E+00 -0.76446017033E+03  0.14327870037E+04  0.12118082546E+04 0.  0.
        4    1    3    3  502    0 -0.13405915721E+02 -0.12415959450E+03 -0.10832405849E+04  0.10904160221E+04  0.12699999809E+01 0. -1.
       -4    1    3    3    0  502  0.13405915721E+02  0.12415959450E+03  0.31878041456E+03  0.34237098167E+03  0.12699999809E+01 0.  1.
</event>
<event>
 5   0  0.3626049E-03  0.1196277E+04  0.7818609E-02  0.9116122E-01
        2   -1    0    0  501    0  0.00000000000E+00  0.00000000000E+00  0.18642189836E+04  0.18642189836E+04  0.25500000920E-02 0. -1.
       -2   -1    0    0    0  501  0.00000000000E+00  0.00000000000E+00 -0.19191393995E+03  0.19191393997E+03  0.25500000920E-02 0.  1.
    10030    2    1    2    0    0  0.00000000000E+00  0.00000000000E+00  0.16723050437E+04  0.20561329236E+04  0.11962769079E+04 0.  0.
        1    1    3    3  502    0 -0.28120109833E+03 -0.22771991874E+03  0.16547652870E+04  0.16938649811E+04  0.50400001928E-02 0. -1.
       -1    1    3    3    0  502  0.28120109833E+03  0.22771991874E+03  0.17539756702E+02  0.36226794253E+03  0.50400001928E-02 0.  1.
</event>
<event>
 5   0  0.2025294E-03  0.1179344E+04  0.7818609E-02  0.9131131E-01
       -1   -1    0    0    0  501  0.00000000000E+00  0.00000000000E+00  0.51029692949E+03  0.51029692951E+03  0.50400001928E-02 0.  1.
        1   -1    0    0  501    0  0.00000000000E+00  0.00000000000E+00 -0.68139413902E+03  0.68139413904E+03  0.50400001928E-02 0. -1.
    10030    2    1    2    0    0  0.00000000000E+00  0.00000000000E+00 -0.17109720953E+03  0.11916910686E+04  0.11793444568E+04 0.  0.
        5    1    3    3  502    0  0.26360760367E+03 -0.47220648948E+03  0.15190798668E+03  0.56175267141E+03  0.46999998093E+01 0.  1.
       -5    1    3    3    0  502 -0.26360760367E+03  0.47220648948E+03 -0.32300519621E+03  0.62993839715E+03  0.46999998093E+01 0. -1.
</event>
<event>
 5   0  0.2134992E-03  0.1211816E+04  0.7818609E-02  0.9102577E-01
        1   -1    0    0  501    0  0.00000000000E+00  0.00000000000E+00  0.74775153132E+03  0.74775153133E+03  0.50400001928E-02 0.  1.
       -1   -1    0    0    0  501  0.00000000000E+00  0.00000000000E+00 -0.49097104437E+03  0.49097104440E+03  0.50400001928E-02 0. -1.
    10030    2    1    2    0    0  0.00000000000E+00  0.00000000000E+00  0.25678048695E+03  0.12387225757E+04  0.12118157455E+04 0.  0.
        4    1    3    3  502    0 -0.17654169268E+03  0.40828887264E+03  0.54893231794E+03  0.70653738426E+03  0.12699999809E+01 0.  1.
       -4    1    3    3    0  502  0.17654169268E+03 -0.40828887264E+03 -0.29215183099E+03  0.53218519148E+03  0.12699999809E+01 0. -1.
</event>
<event>
 5   0  0.3650180E-03  0.1203399E+04  0.7818609E-02  0.9109886E-01
       -2   -1    0    0    0  501  0.00000000000E+00  0.00000000000E+00  0.21694785777E+03  0.21694785778E+03  0.25500000920E-02 0. -1.
        2   -1    0    0  501    0  0.00000000000E+00  0.00000000000E+00 -0.16687991595E+04  0.16687991595E+04  0.25500000920E-02 0.  1.
    10030    2    1    2    0    0  0.00000000000E+00  0.00000000000E+00 -0.14518513018E+04  0.18857470173E+04  0.12033991902E+04 0.  0.
        3    1    3    3  502    0  0.27341181492E+03  0.14546060794E+03 -0.15343144581E+04  0.15652583415E+04  0.10100000352E+00 0.  1.
       -3    1    3    3    0  502 -0.27341181492E+03 -0.14546060794E+03  0.82463156330E+02  0.32048867586E+03  0.10100000352E+00 0. -1.
</event>
<event>
 5   0  0.2025294E-03  0.1236513E+04  0.7818609E-02  0.9081483E-01
       -1   -1    0    0    0  501  0.00000000000E+00  0.00000000000E+00  0.62026767530E+03  0.62026767532E+03  0.50400001928E-02 0.  1.
        1   -1    0    0  501    0  0.00000000000E+00  0.00000000000E+00 -0.61625219905E+03  0.61625219907E+03  0.50400001928E-02 0. -1.
    10030    2    1    2    0    0  0.00000000000E+00  0.00000000000E+00  0.40154762496E+01  0.12365198744E+04  0.12365133544E+04 0.  0.
        5    1    3    3  502    0  0.91824266826E+02  0.13655691477E+03 -0.59393142587E+03  0.61632468357E+03  0.46999998093E+01 0. -1.
       -5    1    3    3    0  502 -0.91824266826E+02 -0.13655691477E+03  0.59794690212E+03  0.62019519081E+03  0.46999998093E+01 0.  1.
</event>
<event>
 5   0  0.2078258E-03  0.1198458E+04  0.7818609E-02  0.9114207E-01
        1   -1    0    0  501    0  0.00000000000E+00  0.00000000000E+00  0.58443363533E+03  0.58443363535E+03  0.50400001928E-02 0. -1.
       -1   -1    0    0    0  501  0.00000000000E+00  0.00000000000E+00 -0.61439887094E+03  0.61439887097E+03  0.50400001928E-02 0.  1.
    10030    2    1    2    0    0  0.00000000000E+00  0.00000000000E+00 -0.29965235618E+02  0.11988325063E+04  0.11984579521E+04 0.  0.
        3    1    3    3  502    0  0.13803073129E+03  0.55821018178E+03 -0.18363028409E+03  0.60363166025E+03  0.10100000352E+00 0.  1.
       -3    1    3    3    0  502 -0.13803073129E+03 -0.55821018178E+03  0.15366504848E+03  0.59520084606E+03  0.10100000352E+00 0. -1.
</event>
<event>
 5   0  0.2096270E-03  0.1208792E+04  0.7818609E-02  0.9105196E-01
        1   -1    0    0  501    0  0.00000000000E+00  0.00000000000E+00  0.42902695648E+03  0.42902695651E+03  0.50400001928E-02 0.  1.
       -1   -1    0    0    0  501  0.00000000000E+00  0.00000000000E+00 -0.85144892976E+03  0.85144892977E+03  0.50400001928E-02 0. -1.
    10030    2    1    2    0    0  0.00000000000E+00  0.00000000000E+00 -0.42242197328E+03  0.12804758863E+04  0.12087920300E+04 0.  0.
        2    1    3    3  502    0  0.35811329169E+03 -0.46154996396E+01 -0.72693783805E+03  0.81037340339E+03  0.25500000920E-02 0. -1.
       -2    1    3    3    0  502 -0.35811329169E+03  0.46154996396E+01  0.30451586477E+03  0.47010248289E+03  0.25500000920E-02 0.  1.
</event>
<event>
 5   0  0.3706035E-03  0.1164897E+04  0.7818609E-02  0.9144149E-01
        2   -1    0    0  501    0  0.00000000000E+00  0.00000000000E+00  0.29987119245E+03  0.29987119246E+03  0.25500000920E-02 0. -1.
       -2   -1    0    0    0  501  0.00000000000E+00  0.00000000000E+00 -0.11313073205E+04  0.11313073205E+04  0.25500000920E-02 0.  1.
    10030    2    1    2    0    0  0.00000000000E+00  0.00000000000E+00 -0.83143612807E+03  0.14311785130E+04  0.11648973779E+04 0.  0.
        2    1    3    3  502    0 -0.41045932258E+03 -0.14933968015E+03 -0.88911071896E+03  0.99060439436E+03  0.25500000920E-02 0.  1.
       -2    1    3    3    0  502  0.41045932258E+03  0.14933968015E+03  0.57674590889E+02  0.44057411863E+03  0.25500000920E-02 0. -1.
</event>
<event>
 5   0  0.2096270E-03  0.1185975E+04  0.7818609E-02  0.9125222E-01
        1   -1    0    0  501    0  0.00000000000E+00  0.00000000000E+00  0.58179569286E+03  0.58179569288E+03  0.50400001928E-02 0.  1.
       -1   -1    0    0    0  501  0.00000000000E+00  0.00000000000E+00 -0.60439439704E+03  0.60439439706E+03  0.50400001928E-02 0. -1.
    10030    2    1    2    0    0  0.00000000000E+00  0.00000000000E+00 -0.22598704179E+02  0.11861900899E+04  0.11859748008E+04 0.  0.
        2    1    3    3  502    0 -0.40482908993E+03  0.38940581357E+03 -0.20136168070E+03  0.59671601802E+03  0.25500000920E-02 0. -1.
       -2    1    3    3    0  502  0.40482908993E+03 -0.38940581357E+03  0.17876297653E+03  0.58947407193E+03  0.25500000920E-02 0.  1.
</event>
<event>
 5   0  0.2096270E-03  0.1195466E+04  0.7818609E-02  0.9116834E-01
        1   -1    0    0  501    0  0.00000000000E+00  0.00000000000E+00  0.11433042883E+04  0.11433042883E+04  0.50400001928E-02 0. -1.
       -1   -1    0    0    0  501  0.00000000000E+00  0.00000000000E+00 -0.31250203073E+03  0.31250203077E+03  0.50400001928E-02 0.  1.
    10030    2    1    2    0    0  0.00000000000E+00  0.00000000000E+00  0.83080225759E+03  0.14558063191E+04  0.11954662887E+04 0.  0.
        2    1    3    3  502    0 -0.53724070157E+03 -0.23896033565E+03  0.28449594356E+03  0.65319794499E+03  0.25500000920E-02 0. -1.
       -2    1    3    3    0  502  0.53724070157E+03  0.23896033565E+03  0.54630631403E+03  0.80260837411E+03  0.25500000920E-02 0.  1.
</event>
<event>
 5   0  0.2078258E-03  0.1210216E+04  0.7818609E-02  0.9103962E-01
       -1   -1    0    0    0  501  0.00000000000E+00  0.00000000000E+00  0.47999469545E+03  0.47999469547E+03  0.50400001928E-02 0.  1.
        1   -1    0    0  501    0  0.00000000000E+00  0.00000000000E+00 -0.76283234179E+03  0.76283234180E+03  0.50400001928E-02 0. -1.
    10030    2    1    2    0    0  0.00000000000E+00  0.00000000000E+00 -0.28283764634E+03  0.12428270373E+04  0.12102156462E+04 0.  0.
        3    1    3    3  502    0 -0.58125667846E+03 -0.46068745589E+02  0.24723935431E+02  0.58360340879E+03  0.10100000352E+00 0.  1.
       -3    1    3    3    0  502  0.58125667846E+03  0.46068745589E+02 -0.30756158177E+03  0.65922362848E+03  0.10100000352E+00 0. -1.
</event>
<event>
 5   0  0.3626049E-03  0.1205091E+04  0.7818609E-02  0.9108412E-01
       -2   -1    0    0    0  501  0.00000000000E+00  0.00000000000E+00  0.41930427573E+03  0.41930427574E+03  0.25500000920E-02 0. -1.
        2   -1    0    0  501    0  0.00000000000E+00  0.00000000000E+00 -0.86586488803E+03  0.86586488803E+03  0.25500000920E-02 0.  1.
    10030    2    1    2    0    0  0.00000000000E+00  0.00000000000E+00 -0.44656061229E+03  0.12851691638E+04  0.12050906186E+04 0.  0.
        1    1    3    3  502    0 -0.50803414005E+03  0.24963447867E+03 -0.30517772816E+01  0.56606128093E+03  0.50400001928E-02 0. -1.
       -1    1    3    3    0  502  0.50803414005E+03 -0.24963447867E+03 -0.44350883501E+03  0.71910788284E+03  0.50400001928E-02 0.  1.
</event>
<event>
 5   0  0.3725376E-03  0.1207713E+04  0.7818609E-02  0.9106132E-01
       -2   -1    0    0    0  501  0.00000000000E+00  0.00000000000E+00  0.22755563471E+03  0.22755563472E+03  0.25500000920E-02 0.  1.
        2   -1    0    0  501    0  0.00000000000E+00  0.00000000000E+00 -0.16024335276E+04  0.16024335276E+04  0.25500000920E-02 0. -1.
    10030    2    1    2    0    0  0.00000000000E+00  0.00000000000E+00 -0.13748778929E+04  0.18299891623E+04  0.12077131753E+04 0.  0.
        4    1    3    3  502    0 -0.30193786476E+03  0.26509603027E+03 -0.44003136444E+01  0.40182503046E+03  0.12699999809E+01 0.  1.
       -4    1    3    3    0  502  0.30193786476E+03 -0.26509603027E+03 -0.13704775793E+04  0.14281641319E+04  0.12699999809E+01 0. -1.
</event>
<event>
 5   0  0.2047109E-03  0.1183410E+04  0.7818609E-02  0.9127503E-01
       -1   -1    0    0    0  501  0.00000000000E+00  0.00000000000E+00  0.67801532715E+03  0.67801532717E+03  0.50400001928E-02 0. -1.
        1   -1    0    0  501    0  0.00000000000E+00  0.00000000000E+00 -0.51638219983E+03  0.51638219986E+03  0.50400001928E-02 0.  1.
    10030    2    1    2    0    0  0.00000000000E+00  0.00000000000E+00  0.16163312732E+03  0.11943975270E+04  0.11834104042E+04 0.  0.
        1    1    3    3  502    0  0.30059614716E+03  0.31391724371E+03 -0.32442454727E+03  0.54235907522E+03  0.50400001928E-02 0.  1.
       -1    1    3    3    0  502 -0.30059614716E+03 -0.31391724371E+03  0.48605767458E+03  0.65203845180E+03  0.50400001928E-02 0. -1.
</event>
<event>
 5   0  0.3626049E-03  0.1253006E+04  0.7818609E-02  0.9067685E-01
       -2   -1    0    0    0  501  0.00000000000E+00  0.00000000000E+00  0.62514564349E+03  0.62514564349E+03  0.25500000920E-02 0. -1.
        2   -1    0    0  501    0  0.00000000000E+00  0.00000000000E+00 -0.62786353332E+03  0.62786353332E+03  0.25500000920E-02 0.  1.
    10030    2    1    2    0    0  0.00000000000E+00  0.00000000000E+00 -0.27178898320E+01  0.12530091768E+04  0.12530062291E+04 0.  0.
        1    1    3    3  502    0  0.23650970583E+03  0.23195643827E+03  0.53039932040E+03  0.62535115681E+03  0.50400001928E-02 0. -1.
       -1    1    3    3    0  502 -0.23650970583E+03 -0.23195643827E+03 -0.53311721024E+03  0.62765802001E+03  0.50400001928E-02 0.  1.
</event>
<event>
 5   0  0.3725376E-03  0.1199423E+04  0.7818609E-02  0.9113362E-01
        2   -1    0    0  501    0  0.00000000000E+00  0.00000000000E+00  0.11118213680E+04  0.11118213680E+04  0.25500000920E-02 0. -1.
       -2   -1    0    0    0  501  0.00000000000E+00  0.00000000000E+00 -0.32348178282E+03  0.32348178283E+03  0.25500000920E-02 0.  1.
    10030    2    1    2    0    0  0.00000000000E+00  0.00000000000E+00  0.78833958515E+03  0.14353031508E+04  0.11994231252E+04 0.  0.
        4    1    3    3  502    0  0.33708734883E+03  0.17149710017E+03 -0.16277697631E+03  0.41174882274E+03  0.12699999809E+01 0.  1.
       -4    1    3    3    0  502 -0.33708734883E+03 -0.17149710017E+03  0.95111656147E+03  0.10235543281E+04  0.12699999809E+01 0. -1.
</event>
<event>
 5   0  0.3751091E-03  0.1198780E+04  0.7818609E-02  0.9113925E-01
        2   -1    0    0  501    0  0.00000000000E+00  0.00000000000E+00  0.11330591166E+04  0.11330591166E+04  0.25500000920E-02 0. -1.
       -2   -1    0    0    0  501  0.00000000000E+00  0.00000000000E+00 -0.31707824059E+03  0.31707824060E+03  0.25500000920E-02 0.  1.
    10030    2    1    2    0    0  0.00000000000E+00  0.00000000000E+00  0.81598087600E+03  0.14501373572E+04  0.11987800318E+04 0.  0.
        5    1    3    3  502    0 -0.35909904193E+03 -0.33374734903E+03 -0.91412123795E+01  0.49035198242E+03  0.46999998093E+01 0.  1.
       -5    1    3    3    0  502  0.35909904193E+03  0.33374734903E+03  0.82512208838E+03  0.95978537478E+03  0.46999998093E+01 0. -1.
</event>
<event>
 5   0  0.3626049E-03  0.1201234E+04  0.7818609E-02  0.9111777E-01
        2   -1    0    0  501    0  0.00000000000E+00  0.00000000000E+00  0.38557408904E+03  0.38557408905E+03  0.25500000920E-02 0.  1.
       -2   -1    0    0    0  501  0.00000000000E+00  0.00000000000E+00 -0.93559381142E+03  0.93559381143E+03  0.25500000920E-02 0. -1.
    10030    2    1    2    0    0  0.00000000000E+00  0.00000000000E+00 -0.55001972238E+03  0.13211679005E+04  0.12012339182E+04 0.  0.
        1    1    3    3  502    0 -0.17640837081E+03 -0.52380343379E+03 -0.16486592984E+02  0.55295728435E+03  0.50400001928E-02 0.  1.
       -1    1    3    3    0  502  0.17640837081E+03  0.52380343379E+03 -0.53353312940E+03  0.76821061613E+03  0.50400001928E-02 0. -1.
</event>
<event>
 5   0  0.3751091E-03  0.1206034E+04  0.7818609E-02  0.9107591E-01
       -2   -1    0    0    0  501  0.00000000000E+00  0.00000000000E+00  0.11309720660E+04  0.11309720660E+04  0.25500000920E-02 0. -1.
        2   -1    0    0  501    0  0.00000000000E+00  0.00000000000E+00 -0.32151942927E+03  0.32151942928E+03  0.25500000920E-02 0.  1.
    10030    2    1    2    0    0  0.00000000000E+00  0.00000000000E+00  0.80945263670E+03  0.14524914952E+04  0.12060339849E+04 0.  0.
        5    1    3    3  502    0 -0.22843442688E+03 -0.55804645135E+03  0.40839395300E+03  0.72828966771E+03  0.46999998093E+01 0.  1.
       -5    1    3    3    0  502  0.22843442688E+03  0.55804645135E+03  0.40105868370E+03  0.72420182754E+03  0.46999998093E+01 0. -1.
</event>
<event>
 5   0  0.3626049E-03  0.1209248E+04  0.7818609E-02  0.9104800E-01
        2   -1    0    0  501    0  0.00000000000E+00  0.00000000000E+00  0.78815135033E+03  0.78815135033E+03  0.25500000920E-02 0.  1.
       -2   -1    0    0    0  501  0.00000000000E+00  0.00000000000E+00 -0.46383253483E+03  0.46383253483E+03  0.25500000920E-02 0. -1.
    10030    2    1    2    0    0  0.00000000000E+00  0.00000000000E+00  0.32431881550E+03  0.12519838852E+04  0.12092480947E+04 0.  0.
        1    1    3    3  502    0  0.24508428828E+03 -0.15655209186E+03  0.71098317592E+03  0.76816140381E+03  0.50400001928E-02 0.  1.
       -1    1    3    3    0  502 -0.24508428828E+03  0.15655209186E+03 -0.38666436042E+03  0.48382248136E+03  0.50400001928E-02 0. -1.
</event>
<event>
 5   0  0.2134992E-03  0.1219936E+04  0.7818609E-02  0.9095584E-01
        1   -1    0    0  501    0  0.00000000000E+00  0.00000000000E+00  0.71100741438E+03  0.71100741440E+03  0.50400001928E-02 0.  1.
       -1   -1    0    0    0  501  0.00000000000E+00  0.00000000000E+00 -0.52328675632E+03  0.52328675634E+03  0.50400001928E-02 0. -1.
    10030    2    1    2    0    0  0.00000000000E+00  0.00000000000E+00  0.18772065807E+03  0.12342941707E+04  0.12199356764E+04 0.  0.
        4    1    3    3  502    0  0.40454266491E+03  0.42016504108E+03 -0.86750431770E+02  0.58967845458E+03  0.12699999809E+01 0. -1.
       -4    1    3    3    0  502 -0.40454266491E+03 -0.42016504108E+03  0.27447108984E+03  0.64461571617E+03  0.12699999809E+01 0.  1.
</event>
<event>
 5   0  0.2078258E-03  0.1201686E+04  0.7818609E-02  0.9111382E-01
       -1   -1    0    0    0  501  0.00000000000E+00  0.00000000000E+00  0.21982162306E+03  0.21982162312E+03  0.50400001928E-02 0.  1.
        1   -1    0    0  501    0  0.00000000000E+00  0.00000000000E+00 -0.16422970394E+04  0.16422970394E+04  0.50400001928E-02 0. -1.
    10030    2    1    2    0    0  0.00000000000E+00  0.00000000000E+00 -0.14224754164E+04  0.18621186626E+04  0.12016861501E+04 0.  0.
        3    1    3    3  502    0 -0.13104515708E+03 -0.56343397398E+03 -0.45954663993E+03  0.73879212279E+03  0.10100000352E+00 0.  1.
       -3    1    3    3    0  502  0.13104515708E+03  0.56343397398E+03 -0.96292877644E+03  0.11233265398E+04  0.10100000352E+00 0. -1.
</event>
<event>
 5   0  0.3626049E-03  0.1212760E+04  0.7818609E-02  0.9101761E-01
        2   -1    0    0  501    0  0.00000000000E+00  0.00000000000E+00  0.52060761621E+03  0.52060761621E+03  0.25500000920E-02 0. -1.
       -2   -1    0    0    0  501  0.00000000000E+00  0.00000000000E+00 -0.70628342874E+03  0.70628342875E+03  0.25500000920E-02 0.  1.
    10030    2    1    2    0    0  0.00000000000E+00  0.00000000000E+00 -0.18567581253E+03  0.12268910450E+04  0.12127597160E+04 0.  0.
        1    1    3    3  502    0 -0.49941059748E+03 -0.34017130004E+03 -0.41561269096E+02  0.60568539471E+03  0.50400001928E-02 0.  1.
       -1    1    3    3    0  502  0.49941059748E+03  0.34017130004E+03 -0.14411454344E+03  0.62120565025E+03  0.50400001928E-02 0. -1.
</event>
<event>
 5   0  0.2096270E-03  0.1131816E+04  0.7818609E-02  0.9174724E-01
       -1   -1    0    0    0  501  0.00000000000E+00  0.00000000000E+00  0.45315920941E+03  0.45315920943E+03  0.50400001928E-02 0.  1.
        1   -1    0    0  501    0  0.00000000000E+00  0.00000000000E+00 -0.70670996664E+03  0.70670996666E+03  0.50400001928E-02 0. -1.
    10030    2    1    2    0    0  0.00000000000E+00  0.00000000000E+00 -0.25355075723E+03  0.11598691761E+04  0.11318164688E+04 0.  0.
        2    1    3    3  502    0  0.79944459428E+02 -0.94250967079E+02 -0.69271107668E+03  0.70364976881E+03  0.25500000920E-02 0. -1.
       -2    1    3    3    0  502 -0.79944459428E+02  0.94250967079E+02  0.43916031945E+03  0.45621940728E+03  0.25500000920E-02 0.  1.
</event>
<event>
 5   0  0.3706035E-03  0.1179000E+04  0.7818609E-02  0.9131439E-01
        2   -1    0    0  501    0  0.00000000000E+00  0.00000000000E+00  0.26242531035E+04  0.26242531035E+04  0.25500000920E-02 0. -1.
       -2   -1    0    0    0  501  0.00000000000E+00  0.00000000000E+00 -0.13242250611E+03  0.13242250613E+03  0.25500000920E-02 0.  1.
    10030    2    1    2    0    0  0.00000000000E+00  0.00000000000E+00  0.24918305974E+04  0.27566756096E+04  0.11789998688E+04 0.  0.
        2    1    3    3  502    0  0.23361030204E+03 -0.16971707850E+03  0.44251885804E+02  0.29212307227E+03  0.25500000920E-02 0.  1.
       -2    1    3    3    0  502 -0.23361030204E+03  0.16971707850E+03  0.24475787116E+04  0.24645525374E+04  0.25500000920E-02 0. -1.
</event>
<event>
 5   0  0.2134992E-03  0.1205377E+04  0.7818609E-02  0.9108163E-01
        1   -1    0    0  501    0  0.00000000000E+00  0.00000000000E+00  0.13687849584E+04  0.13687849584E+04  0.50400001928E-02 0.  1.
       -1   -1    0    0    0  501  0.00000000000E+00  0.00000000000E+00 -0.26536937292E+03  0.26536937297E+03  0.50400001928E-02 0. -1.
    10030    2    1    2    0    0  0.00000000000E+00  0.00000000000E+00  0.11034155855E+04  0.16341543314E+04  0.12053772955E+04 0.  0.
        4    1    3    3  502    0  0.15261624597E+03  0.35403079145E+03  0.11797479651E+04  0.12411431802E+04  0.12699999809E+01 0.  1.
       -4    1    3    3    0  502 -0.15261624597E+03 -0.35403079145E+03 -0.76332379617E+02  0.39301115112E+03  0.12699999809E+01 0. -1.
</event>
<event>
 5   0  0.3751091E-03  0.1193876E+04  0.7818609E-02  0.9118234E-01
        2   -1    0    0  501    0  0.00000000000E+00  0.00000000000E+00  0.75474794178E+03  0.75474794178E+03  0.25500000920E-02 0. -1.
       -2   -1    0    0    0  501  0.00000000000E+00  0.00000000000E+00 -0.47212473545E+03  0.47212473545E+03  0.25500000920E-02 0.  1.
    10030    2    1    2    0    0  0.00000000000E+00  0.00000000000E+00  0.28262320633E+03  0.12268726772E+04  0.11938763292E+04 0.  0.
        5    1    3    3  502    0 -0.51820548145E+03  0.26516504172E+03  0.55090885482E+01  0.58215278098E+03  0.46999998093E+01 0.  1.
       -5    1    3    3    0  502  0.51820548145E+03 -0.26516504172E+03  0.27711411779E+03  0.64471989625E+03  0.46999998093E+01 0. -1.
</event>
<event>
 5   0  0.2134992E-03  0.9213469E+03  0.7818609E-02  0.9399283E-01
        1   -1    0    0  501    0  0.00000000000E+00  0.00000000000E+00  0.98969777486E+03  0.98969777487E+03  0.50400001928E-02 0. -1.
       -1   -1    0    0    0  501  0.00000000000E+00  0.00000000000E+00 -0.21442912347E+03  0.21442912353E+03  0.50400001928E-02 0.  1.
    10030    2    1    2    0    0  0.00000000000E+00  0.00000000000E+00  0.77526865139E+03  0.12041268984E+04  0.92134689755E+03 0.  0.
        4    1    3    3  502    0  0.11711156441E+02  0.45261916647E+03  0.27660645262E+03  0.53057893246E+03  0.12699999809E+01 0.  1.
       -4    1    3    3    0  502 -0.11711156441E+02 -0.45261916647E+03  0.49866219877E+03  0.67354796594E+03  0.12699999809E+01 0. -1.
</event>
<event>
 5   0  0.3626049E-03  0.1195805E+04  0.7818609E-02  0.9116536E-01
       -2   -1    0    0    0  501  0.00000000000E+00  0.00000000000E+00  0.14700935931E+03  0.14700935933E+03  0.25500000920E-02 0.  1.
        2   -1    0    0  501    0  0.00000000000E+00  0.00000000000E+00 -0.24317339819E+04  0.24317339819E+04  0.25500000920E-02 0. -1.
    10030    2    1    2    0    0  0.00000000000E+00  0.00000000000E+00 -0.22847246226E+04  0.25787433412E+04  0.11958054269E+04 0.  0.
        1    1    3    3  502    0 -0.34013435417E+03 -0.46194487790E+03 -0.15058011016E+04  0.16113725226E+04  0.50400001928E-02 0. -1.
       -1    1    3    3    0  502  0.34013435417E+03  0.46194487790E+03 -0.77892352104E+03  0.96737081865E+03  0.50400001928E-02 0.  1.
</event>
<event>
 5   0  0.2096270E-03  0.1229685E+04  0.7818609E-02  0.9087263E-01
        1   -1    0    0  501    0  0.00000000000E+00  0.00000000000E+00  0.56438443141E+03  0.56438443144E+03  0.50400001928E-02 0.  1.
       -1   -1    0    0    0  501  0.00000000000E+00  0.00000000000E+00 -0.66981131392E+03  0.66981131394E+03  0.50400001928E-02 0. -1.
    10030    2    1    2    0    0  0.00000000000E+00  0.00000000000E+00 -0.10542688250E+03  0.12341957454E+04  0.12296846386E+04 0.  0.
        2    1    3    3  502    0  0.10759548298E+02 -0.38395485480E+03  0.42914568623E+03  0.57593673127E+03  0.25500000920E-02 0.  1.
       -2    1    3    3    0  502 -0.10759548298E+02  0.38395485480E+03 -0.53457256873E+03  0.65825901411E+03  0.25500000920E-02 0. -1.
</event>
<event>
 5   0  0.2096270E-03  0.1225186E+04  0.7818609E-02  0.9091093E-01
       -1   -1    0    0    0  501  0.00000000000E+00  0.00000000000E+00  0.96437604148E+03  0.96437604149E+03  0.50400001928E-02 0.  1.
        1   -1    0    0  501    0  0.00000000000E+00  0.00000000000E+00 -0.38913243339E+03  0.38913243342E+03  0.50400001928E-02 0. -1.
    10030    2    1    2    0    0  0.00000000000E+00  0.00000000000E+00  0.57524360809E+03  0.13535084749E+04  0.12251856933E+04 0.  0.
        2    1    3    3  502    0 -0.23908188101E+02  0.55837993949E+03  0.56471108447E+03  0.79451769472E+03  0.25500000920E-02 0.  1.
       -2    1    3    3    0  502  0.23908188101E+02 -0.55837993949E+03  0.10532523613E+02  0.55899078019E+03  0.25500000920E-02 0. -1.
</event>
<event>
 5   0  0.2078258E-03  0.1311649E+04  0.7818609E-02  0.9020378E-01
       -1   -1    0    0    0  501  0.00000000000E+00  0.00000000000E+00  0.30360970886E+03  0.30360970890E+03  0.50400001928E-02 0. -1.
        1   -1    0    0  501    0  0.00000000000E+00  0.00000000000E+00 -0.14166407988E+04  0.14166407988E+04  0.50400001928E-02 0.  1.
    10030    2    1    2    0    0  0.00000000000E+00  0.00000000000E+00 -0.11130310900E+04  0.17202505077E+04  0.13116491917E+04 0.  0.
        3    1    3    3  502    0 -0.73348367660E+02 -0.44836186759E+03  0.63788489337E+02  0.45877808243E+03  0.10100000352E+00 0. -1.
       -3    1    3    3    0  502  0.73348367660E+02  0.44836186759E+03 -0.11768195793E+04  0.12614724253E+04  0.10100000352E+00 0.  1.
</event>
<event>
 5   0  0.2025294E-03  0.1186206E+04  0.7818609E-02  0.9125017E-01
        1   -1    0    0  501    0  0.00000000000E+00  0.00000000000E+00  0.25214710123E+03  0.25214710128E+03  0.50400001928E-02 0.  1.
       -1   -1    0    0    0  501  0.00000000000E+00  0.00000000000E+00 -0.13951020369E+04  0.13951020369E+04  0.50400001928E-02 0. -1.
    10030    2    1    2    0    0  0.00000000000E+00  0.00000000000E+00 -0.11429549357E+04  0.16472491382E+04  0.11862056054E+04 0.  0.
        5    1    3    3  502    0 -0.54821352224E+03 -0.14489196778E+03 -0.81287102875E+03  0.99111712107E+03  0.46999998093E+01 0. -1.
       -5    1    3    3    0  502  0.54821352224E+03  0.14489196778E+03 -0.33008390692E+03  0.65613201713E+03  0.46999998093E+01 0.  1.
</event>
<event>
 5   0  0.2134992E-03  0.1196189E+04  0.7818609E-02  0.9116199E-01
       -1   -1    0    0    0  501  0.00000000000E+00  0.00000000000E+00  0.61328939335E+03  0.61328939337E+03  0.50400001928E-02 0. -1.
        1   -1    0    0  501    0  0.00000000000E+00  0.00000000000E+00 -0.58327565562E+03  0.58327565564E+03  0.50400001928E-02 0.  1.
    10030    2    1    2    0    0  0.00000000000E+00  0.00000000000E+00  0.30013737733E+02  0.11965650490E+04  0.11961885688E+04 0.  0.
        4    1    3    3  502    0  0.33069805993E+02 -0.22445101906E+03  0.56857356609E+03  0.61216777519E+03  0.12699999809E+01 0. -1.
       -4    1    3    3    0  502 -0.33069805993E+02  0.22445101906E+03 -0.53855982836E+03  0.58439727382E+03  0.12699999809E+01 0.  1.
</event>
<event>
 5   0  0.3725376E-03  0.1201287E+04  0.7818609E-02  0.9111731E-01
        2   -1    0    0  501    0  0.00000000000E+00  0.00000000000E+00  0.11276466807E+04  0.11276466807E+04  0.25500000920E-02 0. -1.
       -2   -1    0    0    0  501  0.00000000000E+00  0.00000000000E+00 -0.31993398678E+03  0.31993398679E+03  0.25500000920E-02 0.  1.
    10030    2    1    2    0    0  0.00000000000E+00  0.00000000000E+00  0.80771269391E+03  0.14475806675E+04  0.12012868071E+04 0.  0.
        4    1    3    3  502    0 -0.32196788533E+03  0.65922207948E+02  0.10096877921E+04  0.10618286618E+04  0.12699999809E+01 0. -1.
       -4    1    3    3    0  502  0.32196788533E+03 -0.65922207948E+02 -0.20197509818E+03  0.38575200566E+03  0.12699999809E+01 0.  1.
</event>
<event>
 5   0  0.3626049E-03  0.1196198E+04  0.7818609E-02  0.9116191E-01
       -2   -1    0    0    0  501  0.00000000000E+00  0.00000000000E+00  0.28527879635E+03  0.28527879636E+03  0.25500000920E-02 0.  1.
        2   -1    0    0  501    0  0.00000000000E+00  0.00000000000E+00 -0.12539404791E+04  0.12539404791E+04  0.25500000920E-02 0. -1.
    10030    2    1    2    0    0  0.00000000000E+00  0.00000000000E+00 -0.96866168273E+03  0.15392192754E+04  0.11961983624E+04 0.  0.
        1    1    3    3  502    0  0.41071332085E+03  0.17792423643E+03  0.26141584191E+02  0.44835906179E+03  0.50400001928E-02 0.  1.
       -1    1    3    3    0  502 -0.41071332085E+03 -0.17792423643E+03 -0.99480326692E+03  0.10908602137E+04  0.50400001928E-02 0. -1.
</event>
<event>
 5   0  0.3751091E-03  0.1202480E+04  0.7818609E-02  0.9110689E-01
        2   -1    0    0  501    0  0.00000000000E+00  0.00000000000E+00  0.12371225431E+04  0.12371225431E+04  0.25500000920E-02 0. -1.
       -2   -1    0    0    0  501  0.00000000000E+00  0.00000000000E+00 -0.29220175767E+03  0.29220175768E+03  0.25500000920E-02 0.  1.
    10030    2    1    2    0    0  0.00000000000E+00  0.00000000000E+00  0.94492078539E+03  0.15293243008E+04  0.12024797405E+04 0.  0.
        5    1    3    3  502    0  0.51771837595E+03  0.47770861402E+01  0.83752360247E+02  0.52449183521E+03  0.46999998093E+01 0.  1.
       -5    1    3    3    0  502 -0.51771837595E+03 -0.47770861402E+01  0.86116842514E+03  0.10048324655E+04  0.46999998093E+01 0. -1.
</event>
<event>
 5   0  0.3706035E-03  0.1189425E+04  0.7818609E-02  0.9122164E-01
       -2   -1    0    0    0  501  0.00000000000E+00  0.00000000000E+00  0.40847573128E+03  0.40847573128E+03  0.25500000920E-02 0. -1.
        2   -1    0    0  501    0  0.00000000000E+00  0.00000000000E+00 -0.86585974492E+03  0.86585974492E+03  0.25500000920E-02 0.  1.
    10030    2    1    2    0    0  0.00000000000E+00  0.00000000000E+00 -0.45738401364E+03  0.12743354762E+04  0.11894245541E+04 0.  0.
        2    1    3    3  502    0 -0.36797101458E+03  0.19987994356E+03  0.22374350300E+03  0.47477975373E+03  0.25500000920E-02 0. -1.
       -2    1    3    3    0  502  0.36797101458E+03 -0.19987994356E+03 -0.68112751664E+03  0.79955572248E+03  0.25500000920E-02 0.  1.
</event>
<event>
 5   0  0.2096270E-03  0.1209479E+04  0.7818609E-02  0.9104600E-01
       -1   -1    0    0    0  501  0.00000000000E+00  0.00000000000E+00  0.58217181535E+03  0.58217181538E+03  0.50400001928E-02 0. -1.
        1   -1    0    0  501    0  0.00000000000E+00  0.00000000000E+00 -0.62818226257E+03  0.62818226259E+03  0.50400001928E-02 0.  1.
    10030    2    1    2    0    0  0.00000000000E+00  0.00000000000E+00 -0.46010447220E+02  0.12103540780E+04  0.12094792403E+04 0.  0.
        2    1    3    3  502    0 -0.34912328916E+03  0.18713326446E+03  0.43427614609E+03  0.58779392713E+03  0.25500000920E-02 0. -1.
       -2    1    3    3    0  502  0.34912328916E+03 -0.18713326446E+03 -0.48028659331E+03  0.62256015084E+03  0.25500000920E-02 0.  1.
</event>
<event>
 5   0  0.2047109E-03  0.1291357E+04  0.7818609E-02  0.9036447E-01
        1   -1    0    0  501    0  0.00000000000E+00  0.00000000000E+00  0.18125338119E+04  0.18125338119E+04  0.50400001928E-02 0. -1.
       -1   -1    0    0    0  501  0.00000000000E+00  0.00000000000E+00 -0.23000984907E+03  0.23000984913E+03  0.50400001928E-02 0.  1.
    10030    2    1    2    0    0  0.00000000000E+00  0.00000000000E+00  0.15825239628E+04  0.20425436610E+04  0.12913568501E+04 0.  0.
        1    1    3    3  502    0 -0.22105509916E+03  0.50185778948E+03  0.13303747365E+04  0.14389661348E+04  0.50400001928E-02 0. -1.
       -1    1    3    3    0  502  0.22105509916E+03 -0.50185778948E+03  0.25214922630E+03  0.60357752615E+03  0.50400001928E-02 0.  1.
</event>
<event>
 5   0  0.3751091E-03  0.1200657E+04  0.7818609E-02  0.9112282E-01
       -2   -1    0    0    0  501  0.00000000000E+00  0.00000000000E+00  0.28511876820E+03  0.28511876821E+03  0.25500000920E-02 0. -1.
        2   -1    0    0  501    0  0.00000000000E+00  0.00000000000E+00 -0.12640143349E+04  0.12640143349E+04  0.25500000920E-02 0.  1.
    10030    2    1    2    0    0  0.00000000000E+00  0.00000000000E+00 -0.97889556675E+03  0.15491331032E+04  0.12006568372E+04 0.  0.
        5    1    3    3  502    0 -0.39181940487E+03 -0.28120956674E+03 -0.95064399835E+03  0.10659959512E+04  0.46999998093E+01 0.  1.
       -5    1    3    3    0  502  0.39181940487E+03  0.28120956674E+03 -0.28251568394E+02  0.48313715192E+03  0.46999998093E+01 0. -1.
</event>
<event>
 5   0  0.3626049E-03  0.1206869E+04  0.7818609E-02  0.9106865E-01
       -2   -1    0    0    0  501  0.00000000000E+00  0.00000000000E+00  0.46187359096E+03  0.46187359096E+03  0.25500000920E-02 0.  1.
        2   -1    0    0  501    0  0.00000000000E+00  0.00000000000E+00 -0.78838296896E+03  0.78838296896E+03  0.25500000920E-02 0. -1.
    10030    2    1    2    0    0  0.00000000000E+00  0.00000000000E+00 -0.32650937800E+03  0.12502565599E+04  0.12068691278E+04 0.  0.
        1    1    3    3  502    0 -0.18500999173E+03 -0.34646733164E+03 -0.63783414528E+03  0.74906655635E+03  0.50400001928E-02 0. -1.
       -1    1    3    3    0  502  0.18500999173E+03  0.34646733164E+03  0.31132476728E+03  0.50119000357E+03  0.50400001928E-02 0.  1.
</event>
<event>
 5   0  0.2025294E-03  0.1212399E+04  0.7818609E-02  0.9102072E-01
        1   -1    0    0  501    0  0.00000000000E+00  0.00000000000E+00  0.15333871689E+04  0.15333871689E+04  0.50400001928E-02 0.  1.
       -1   -1    0    0    0  501  0.00000000000E+00  0.00000000000E+00 -0.23965108172E+03  0.23965108177E+03  0.50400001928E-02 0. -1.
    10030    2    1    2    0    0  0.00000000000E+00  0.00000000000E+00  0.12937360872E+04  0.17730382507E+04  0.12123990989E+04 0.  0.
        5    1    3    3  502    0 -0.36622607429E+03  0.26292164570E+03  0.12394762189E+04  0.13189286245E+04  0.46999998093E+01 0.  1.
       -5    1    3    3    0  502  0.36622607429E+03 -0.26292164570E+03  0.54259868252E+02  0.45410962616E+03  0.46999998093E+01 0. -1.
</event>
<event>
 5   0  0.2078258E-03  0.1194706E+04  0.7818609E-02  0.9117503E-01
        1   -1    0    0  501    0  0.00000000000E+00  0.00000000000E+00  0.47925270729E+03  0.47925270732E+03  0.50400001928E-02 0.  1.
       -1   -1    0    0    0  501  0.00000000000E+00  0.00000000000E+00 -0.74455566073E+03  0.74455566074E+03  0.50400001928E-02 0. -1.
    10030    2    1    2    0    0  0.00000000000E+00  0.00000000000E+00 -0.26530295344E+03  0.12238083681E+04  0.11947055138E+04 0.  0.
        3    1    3    3  502    0  0.83489048884E+02  0.45979488696E+02  0.47141325356E+03  0.48095218109E+03  0.10100000352E+00 0.  1.
       -3    1    3    3    0  502 -0.83489048884E+02 -0.45979488696E+02 -0.73671620700E+03  0.74285618697E+03  0.10100000352E+00 0. -1.
</event>
<event>
 5   0  0.3751091E-03  0.1200809E+04  0.7818609E-02  0.9112149E-01
       -2   -1    0    0    0  501  0.00000000000E+00  0.00000000000E+00  0.54745456247E+03  0.54745456248E+03  0.25500000920E-02 0.  1.
        2   -1    0    0  501    0  0.00000000000E+00  0.00000000000E+00 -0.65847553166E+03  0.65847553166E+03  0.25500000920E-02 0. -1.
    10030    2    1    2    0    0  0.00000000000E+00  0.00000000000E+00 -0.11102096918E+03  0.12059300941E+04  0.12008087843E+04 0.  0.
        5    1    3    3  502    0 -0.15992157711E+02  0.11750647474E+03 -0.64657802226E+03  0.65738021691E+03  0.46999998093E+01 0. -1.
       -5    1    3    3    0  502  0.15992157711E+02 -0.11750647474E+03  0.53555705308E+03  0.54854987723E+03  0.46999998093E+01 0.  1.
</event>
<event>
 5   0  0.2078258E-03  0.1205571E+04  0.7818609E-02  0.9107994E-01
        1   -1    0    0  501    0  0.00000000000E+00  0.00000000000E+00  0.18690122199E+04  0.18690122199E+04  0.50400001928E-02 0.  1.
       -1   -1    0    0    0  501  0.00000000000E+00  0.00000000000E+00 -0.19440761683E+03  0.19440761690E+03  0.50400001928E-02 0. -1.
    10030    2    1    2    0    0  0.00000000000E+00  0.00000000000E+00  0.16746046030E+04  0.20634198368E+04  0.12055707554E+04 0.  0.
        3    1    3    3  502    0 -0.62143340955E+02  0.52443947775E+03  0.33991013335E+03  0.62804256990E+03  0.10100000352E+00 0. -1.
       -3    1    3    3    0  502  0.62143340955E+02 -0.52443947775E+03  0.13346944697E+04  0.14353772669E+04  0.10100000352E+00 0.  1.
</event>
<event>
 5   0  0.3751091E-03  0.1201703E+04  0.7818609E-02  0.9111367E-01
       -2   -1    0    0    0  501  0.00000000000E+00  0.00000000000E+00  0.30083623704E+03  0.30083623705E+03  0.25500000920E-02 0.  1.
        2   -1    0    0  501    0  0.00000000000E+00  0.00000000000E+00 -0.12000637635E+04  0.12000637635E+04  0.25500000920E-02 0. -1.
    10030    2    1    2    0    0  0.00000000000E+00  0.00000000000E+00 -0.89922752651E+03  0.15009000006E+04  0.12017032360E+04 0.  0.
        5    1    3    3  502    0  0.42117653792E+02  0.35309230877E+03  0.15527366963E+03  0.38804648916E+03  0.46999998093E+01 0.  1.
       -5    1    3    3    0  502 -0.42117653792E+02 -0.35309230877E+03 -0.10545011961E+04  0.11128535114E+04  0.46999998093E+01 0. -1.
</event>
<event>
 5   0  0.2096270E-03  0.1236663E+04  0.7818609E-02  0.9081358E-01
       -1   -1    0    0    0  501  0.00000000000E+00  0.00000000000E+00  0.58852622860E+03  0.58852622862E+03  0.50400001928E-02 0. -1.
        1   -1    0    0  501    0  0.00000000000E+00  0.00000000000E+00 -0.64964585057E+03  0.64964585059E+03  0.50400001928E-02 0.  1.
    10030    2    1    2    0    0  0.00000000000E+00  0.00000000000E+00 -0.61119621969E+02  0.12381720792E+04  0.12366626418E+04 0.  0.
        2    1    3    3  502    0  0.47513549959E+03  0.38658541334E+03 -0.11511167381E+03  0.62325975502E+03  0.25500000920E-02 0.  1.
       -2    1    3    3    0  502 -0.47513549959E+03 -0.38658541334E+03  0.53992051844E+02  0.61491232419E+03  0.25500000920E-02 0. -1.
</event>
<event>
 5   0  0.3626049E-03  0.1225979E+04  0.7818609E-02  0.9090417E-01
        2   -1    0    0  501    0  0.00000000000E+00  0.00000000000E+00  0.30701832135E+03  0.30701832137E+03  0.25500000920E-02 0. -1.
       -2   -1    0    0    0  501  0.00000000000E+00  0.00000000000E+00 -0.12238873649E+04  0.12238873649E+04  0.25500000920E-02 0.  1.
    10030    2    1    2    0    0  0.00000000000E+00  0.00000000000E+00 -0.91686904351E+03  0.15309056862E+04  0.12259785386E+04 0.  0.
        1    1    3    3  502    0  0.27250136919E+03  0.23484526089E+03 -0.10782163119E+04  0.11366440551E+04  0.50400001928E-02 0.  1.
       -1    1    3    3    0  502 -0.27250136919E+03 -0.23484526089E+03  0.16134726834E+03  0.39426163115E+03  0.50400001928E-02 0. -1.
</event>
<event>
 5   0  0.2096270E-03  0.1196594E+04  0.7818609E-02  0.9115843E-01
        1   -1    0    0  501    0  0.00000000000E+00  0.00000000000E+00  0.53978286470E+03  0.53978286472E+03  0.50400001928E-02 0. -1.
       -1   -1    0    0    0  501  0.00000000000E+00  0.00000000000E+00 -0.66315374851E+03  0.66315374853E+03  0.50400001928E-02 0.  1.
    10030    2    1    2    0    0  0.00000000000E+00  0.00000000000E+00 -0.12337088381E+03  0.12029366133E+04  0.11965935486E+04 0.  0.
        2    1    3    3  502    0 -0.56789537294E+03  0.48957725280E+02  0.12109423900E+03  0.58272277130E+03  0.25500000920E-02 0. -1.
       -2    1    3    3    0  502  0.56789537294E+03 -0.48957725280E+02 -0.24446512281E+03  0.62021384195E+03  0.25500000920E-02 0.  1.
</event>
<event>
 5   0  0.3725376E-03  0.1194822E+04  0.7818609E-02  0.9117401E-01
        2   -1    0    0  501    0  0.00000000000E+00  0.00000000000E+00  0.24270827923E+03  0.24270827924E+03  0.25500000920E-02 0.  1.
       -2   -1    0    0    0  501  0.00000000000E+00  0.00000000000E+00 -0.14704881005E+04  0.14704881005E+04  0.25500000920E-02 0. -1.
    10030    2    1    2    0    0  0.00000000000E+00  0.00000000000E+00 -0.12277798213E+04  0.17131963798E+04  0.11948215541E+04 0.  0.
        4    1    3    3  502    0 -0.40735357609E+03  0.28826056899E+03 -0.10848111332E+04  0.11940887317E+04  0.12699999809E+01 0. -1.
       -4    1    3    3    0  502  0.40735357609E+03 -0.28826056899E+03 -0.14296868809E+03  0.51910764805E+03  0.12699999809E+01 0.  1.
</event>
<event>
 5   0  0.2134992E-03  0.1209210E+04  0.7818609E-02  0.9104833E-01
        1   -1    0    0  501    0  0.00000000000E+00  0.00000000000E+00  0.46381994668E+03  0.46381994670E+03  0.50400001928E-02 0. -1.
       -1   -1    0    0    0  501  0.00000000000E+00  0.00000000000E+00 -0.78812286538E+03  0.78812286540E+03  0.50400001928E-02 0.  1.
    10030    2    1    2    0    0  0.00000000000E+00  0.00000000000E+00 -0.32430291871E+03  0.12519428121E+04  0.12092098336E+04 0.  0.
        4    1    3    3  502    0 -0.48984653777E+03  0.35227416116E+03 -0.12206927515E+03  0.61558852818E+03  0.12699999809E+01 0.  1.
       -4    1    3    3    0  502  0.48984653777E+03 -0.35227416116E+03 -0.20223364356E+03  0.63635428393E+03  0.12699999809E+01 0. -1.
</event>
<event>
 5   0  0.1397500E-03  0.1199966E+04  0.7818609E-02  0.9112886E-01
       -4   -1    0    0    0  501  0.00000000000E+00  0.00000000000E+00  0.93773108187E+03  0.93773194187E+03  0.12699999809E+01 0. -1.
        4   -1    0    0  501    0  0.00000000000E+00  0.00000000000E+00 -0.38388184639E+03  0.38388394717E+03  0.12699999809E+01 0.  1.
    10030    2    1    2    0    0  0.00000000000E+00  0.00000000000E+00  0.55384923548E+03  0.13216158890E+04  0.11999664922E+04 0.  0.
        5    1    3    3  502    0 -0.37926654211E+03 -0.33503422421E+02  0.78760303146E+03  0.87481781786E+03  0.46999998093E+01 0. -1.
       -5    1    3    3    0  502  0.37926654211E+03  0.33503422421E+02 -0.23375379598E+03  0.44679807118E+03  0.46999998093E+01 0.  1.
</event>
<event>
 5   0  0.2025294E-03  0.1138879E+04  0.7818609E-02  0.9168105E-01
        1   -1    0    0  501    0  0.00000000000E+00  0.00000000000E+00  0.58370021689E+03  0.58370021692E+03  0.50400001928E-02 0. -1.
       -1   -1    0    0    0  501  0.00000000000E+00  0.00000000000E+00 -0.55552757594E+03  0.55552757597E+03  0.50400001928E-02 0.  1.
    10030    2    1    2    0    0  0.00000000000E+00  0.00000000000E+00  0.28172640951E+02  0.11392277929E+04  0.11388793906E+04 0.  0.
        5    1    3    3  502    0  0.14709477145E+03  0.52643553389E+03 -0.14555019842E+03  0.56566615012E+03  0.46999998093E+01 0. -1.
       -5    1    3    3    0  502 -0.14709477145E+03 -0.52643553389E+03  0.17372283937E+03  0.57356164276E+03  0.46999998093E+01 0.  1.
</event>
<event>
 5   0  0.2096270E-03  0.1186991E+04  0.7818609E-02  0.9124320E-01
       -1   -1    0    0    0  501  0.00000000000E+00  0.00000000000E+00  0.18685114208E+03  0.18685114215E+03  0.50400001928E-02 0.  1.
        1   -1    0    0  501    0  0.00000000000E+00  0.00000000000E+00 -0.18851191601E+04  0.18851191601E+04  0.50400001928E-02 0. -1.
    10030    2    1    2    0    0  0.00000000000E+00  0.00000000000E+00 -0.16982680180E+04  0.20719703022E+04  0.11869905949E+04 0.  0.
        2    1    3    3  502    0 -0.12441421708E+03 -0.43473660242E+03 -0.17814189044E+03  0.48601372824E+03  0.25500000920E-02 0.  1.
       -2    1    3    3    0  502  0.12441421708E+03  0.43473660242E+03 -0.15201261276E+04  0.15859565740E+04  0.25500000920E-02 0. -1.
</event>
<event>
 5   0  0.2078258E-03  0.1192266E+04  0.7818609E-02  0.9119653E-01
        1   -1    0    0  501    0  0.00000000000E+00  0.00000000000E+00  0.22120313524E+03  0.22120313530E+03  0.50400001928E-02 0. -1.
       -1   -1    0    0    0  501  0.00000000000E+00  0.00000000000E+00 -0.16065519018E+04  0.16065519018E+04  0.50400001928E-02 0.  1.
    10030    2    1    2    0    0  0.00000000000E+00  0.00000000000E+00 -0.13853487665E+04  0.18277550371E+04  0.11922656041E+04 0.  0.
        3    1    3    3  502    0 -0.36983761610E+03  0.37700977535E+03 -0.26878098529E+03  0.59258709170E+03  0.10100000352E+00 0. -1.
       -3    1    3    3    0  502  0.36983761610E+03 -0.37700977535E+03 -0.11165677813E+04  0.12351679454E+04  0.10100000352E+00 0.  1.
</event>
<event>
 5   0  0.2025294E-03  0.1202713E+04  0.7818609E-02  0.9110485E-01
       -1   -1    0    0    0  501  0.00000000000E+00  0.00000000000E+00  0.54956659753E+03  0.54956659755E+03  0.50400001928E-02 0. -1.
        1   -1    0    0  501    0  0.00000000000E+00  0.00000000000E+00 -0.65802657129E+03  0.65802657131E+03  0.50400001928E-02 0.  1.
    10030    2    1    2    0    0  0.00000000000E+00  0.00000000000E+00 -0.10845997377E+03  0.12075931689E+04  0.12027126405E+04 0.  0.
        5    1    3    3  502    0  0.15667907860E+03 -0.58047342351E+03 -0.64741702839E+02  0.60474069414E+03  0.46999998093E+01 0. -1.
       -5    1    3    3    0  502 -0.15667907860E+03  0.58047342351E+03 -0.43718270929E+02  0.60285247472E+03  0.46999998093E+01 0.  1.
</event>
<event>
 5   0  0.2025294E-03  0.1212497E+04  0.7818609E-02  0.9101987E-01
       -1   -1    0    0    0  501  0.00000000000E+00  0.00000000000E+00  0.47568654415E+03  0.47568654418E+03  0.50400001928E-02 0.  1.
        1   -1    0    0  501    0  0.00000000000E+00  0.00000000000E+00 -0.77264639703E+03  0.77264639704E+03  0.50400001928E-02 0. -1.
    10030    2    1    2    0    0  0.00000000000E+00  0.00000000000E+00 -0.29695985288E+03  0.12483329412E+04  0.12124974136E+04 0.  0.
        5    1    3    3  502    0 -0.34370593757E+02  0.44908887466E+03  0.26928768105E+03  0.52478576602E+03  0.46999998093E+01 0.  1.
       -5    1    3    3    0  502  0.34370593757E+02 -0.44908887466E+03 -0.56624753392E+03  0.72354717519E+03  0.46999998093E+01 0. -1.
</event>
<event>
 5   0  0.2025294E-03  0.1206471E+04  0.7818609E-02  0.9107211E-01
        1   -1    0    0  501    0  0.00000000000E+00  0.00000000000E+00  0.19969898187E+04  0.19969898187E+04  0.50400001928E-02 0.  1.
       -1   -1    0    0    0  501  0.00000000000E+00  0.00000000000E+00 -0.18222077808E+03  0.18222077815E+03  0.50400001928E-02 0. -1.
    10030    2    1    2    0    0  0.00000000000E+00  0.00000000000E+00  0.18147690407E+04  0.21792105969E+04  0.12064709506E+04 0.  0.
        5    1    3    3  502    0 -0.19599321315E+03 -0.45352279513E+03  0.15325066139E+04  0.16101847338E+04  0.46999998093E+01 0.  1.
       -5    1    3    3    0  502  0.19599321315E+03  0.45352279513E+03  0.28226242676E+03  0.56902586309E+03  0.46999998093E+01 0. -1.
</event>
<event>
 5   0  0.3725376E-03  0.1200073E+04  0.7818609E-02  0.9112792E-01
       -2   -1    0    0    0  501  0.00000000000E+00  0.00000000000E+00  0.49216303379E+03  0.49216303379E+03  0.25500000920E-02 0.  1.
        2   -1    0    0  501    0  0.00000000000E+00  0.00000000000E+00 -0.73155416525E+03  0.73155416526E+03  0.25500000920E-02 0. -1.
    10030    2    1    2    0    0  0.00000000000E+00  0.00000000000E+00 -0.23939113147E+03  0.12237171991E+04  0.12000731934E+04 0.  0.
        4    1    3    3  502    0  0.23263769753E+03 -0.50009613155E+03 -0.36062566583E+03  0.65899083671E+03  0.12699999809E+01 0. -1.
       -4    1    3    3    0  502 -0.23263769753E+03  0.50009613155E+03  0.12123453437E+03  0.56472636234E+03  0.12699999809E+01 0.  1.
</event>
<event>
 5   0  0.2134992E-03  0.1265018E+04  0.7818609E-02  0.9057776E-01
       -1   -1    0    0    0  501  0.00000000000E+00  0.00000000000E+00  0.36337928780E+03  0.36337928783E+03  0.50400001928E-02 0. -1.
        1   -1    0    0  501    0  0.00000000000E+00  0.00000000000E+00 -0.11009643634E+04  0.11009643634E+04  0.50400001928E-02 0.  1.
    10030    2    1    2    0    0  0.00000000000E+00  0.00000000000E+00 -0.73758507556E+03  0.14643436512E+04  0.12650180177E+04 0.  0.
        4    1    3    3  502    0 -0.29878515250E+03  0.38899339851E+03 -0.83106300165E+03  0.96501593616E+03  0.12699999809E+01 0.  1.
       -4    1    3    3    0  502  0.29878515250E+03 -0.38899339851E+03  0.93477926091E+02  0.49932771504E+03  0.12699999809E+01 0. -1.
</event>
<event>
 5   0  0.3650180E-03  0.1196116E+04  0.7818609E-02  0.9116263E-01
       -2   -1    0    0    0  501  0.00000000000E+00  0.00000000000E+00  0.22883409282E+03  0.22883409283E+03  0.25500000920E-02 0.  1.
        2   -1    0    0  501    0  0.00000000000E+00  0.00000000000E+00 -0.15630260295E+04  0.15630260295E+04  0.25500000920E-02 0. -1.
    10030    2    1    2    0    0  0.00000000000E+00  0.00000000000E+00 -0.13341919367E+04  0.17918601224E+04  0.11961164551E+04 0.  0.
        3    1    3    3  502    0  0.52412404291E+02 -0.59281040419E+03 -0.57843889704E+03  0.82991734724E+03  0.10100000352E+00 0. -1.
       -3    1    3    3    0  502 -0.52412404291E+02  0.59281040419E+03 -0.75575303967E+03  0.96194277512E+03  0.10100000352E+00 0.  1.
</event>
<event>
 5   0  0.3626049E-03  0.1191014E+04  0.7818609E-02  0.9120759E-01
        2   -1    0    0  501    0  0.00000000000E+00  0.00000000000E+00  0.51178862643E+03  0.51178862643E+03  0.25500000920E-02 0. -1.
       -2   -1    0    0    0  501  0.00000000000E+00  0.00000000000E+00 -0.69291976673E+03  0.69291976674E+03  0.25500000920E-02 0.  1.
    10030    2    1    2    0    0  0.00000000000E+00  0.00000000000E+00 -0.18113114030E+03  0.12047083932E+04  0.11910137793E+04 0.  0.
        1    1    3    3  502    0  0.29571561205E+03  0.30811413578E+03  0.32923231051E+03  0.53923645851E+03  0.50400001928E-02 0. -1.
       -1    1    3    3    0  502 -0.29571561205E+03 -0.30811413578E+03 -0.51036345081E+03  0.66547193466E+03  0.50400001928E-02 0.  1.
</event>
<event>
 5   0  0.2134992E-03  0.1200829E+04  0.7818609E-02  0.9112132E-01
        1   -1    0    0  501    0  0.00000000000E+00  0.00000000000E+00  0.79985333274E+03  0.79985333275E+03  0.50400001928E-02 0. -1.
       -1   -1    0    0    0  501  0.00000000000E+00  0.00000000000E+00 -0.45070432096E+03  0.45070432098E+03  0.50400001928E-02 0.  1.
    10030    2    1    2    0    0  0.00000000000E+00  0.00000000000E+00  0.34914901178E+03  0.12505576537E+04  0.12008286359E+04 0.  0.
        4    1    3    3  502    0 -0.37133680011E+03 -0.31374331374E+03 -0.19239566861E+03  0.52282271587E+03  0.12699999809E+01 0.  1.
       -4    1    3    3    0  502  0.37133680011E+03  0.31374331374E+03  0.54154468039E+03  0.72773493787E+03  0.12699999809E+01 0. -1.
</event>
<event>
 5   0  0.3626049E-03  0.1243058E+04  0.7818609E-02  0.9075981E-01
       -2   -1    0    0    0  501  0.00000000000E+00  0.00000000000E+00  0.46043374957E+03  0.46043374958E+03  0.25500000920E-02 0.  1.
        2   -1    0    0  501    0  0.00000000000E+00  0.00000000000E+00 -0.83898773705E+03  0.83898773705E+03  0.25500000920E-02 0. -1.
    10030    2    1    2    0    0  0.00000000000E+00  0.00000000000E+00 -0.37855398748E+03  0.12994214866E+04  0.12430579546E+04 0.  0.
        1    1    3    3  502    0 -0.27789291484E+03 -0.55542004872E+03 -0.21450349551E+03  0.65705985439E+03  0.50400001928E-02 0. -1.
       -1    1    3    3    0  502  0.27789291484E+03  0.55542004872E+03 -0.16405049197E+03  0.64236163224E+03  0.50400001928E-02 0.  1.
</event>
<event>
 5   0  0.3650180E-03  0.1163672E+04  0.7818609E-02  0.9145262E-01
        2   -1    0    0  501    0  0.00000000000E+00  0.00000000000E+00  0.67367581859E+03  0.67367581859E+03  0.25500000920E-02 0. -1.
       -2   -1    0    0    0  501  0.00000000000E+00  0.00000000000E+00 -0.50251678709E+03  0.50251678710E+03  0.25500000920E-02 0.  1.
    10030    2    1    2    0    0  0.00000000000E+00  0.00000000000E+00  0.17115903150E+03  0.11761926057E+04  0.11636724761E+04 0.  0.
        3    1    3    3  502    0  0.19983126437E+03  0.18095586784E+03 -0.43558013317E+03  0.51225737958E+03  0.10100000352E+00 0.  1.
       -3    1    3    3    0  502 -0.19983126437E+03 -0.18095586784E+03  0.60673916467E+03  0.66393522611E+03  0.10100000352E+00 0. -1.
</event>
<event>
 5   0  0.2096270E-03  0.1212328E+04  0.7818609E-02  0.9102134E-01
        1   -1    0    0  501    0  0.00000000000E+00  0.00000000000E+00  0.58099786362E+03  0.58099786364E+03  0.50400001928E-02 0. -1.
       -1   -1    0    0    0  501  0.00000000000E+00  0.00000000000E+00 -0.63242012520E+03  0.63242012522E+03  0.50400001928E-02 0.  1.
    10030    2    1    2    0    0  0.00000000000E+00  0.00000000000E+00 -0.51422261585E+02  0.12134179889E+04  0.12123279122E+04 0.  0.
        2    1    3    3  502    0 -0.32266406986E+02  0.57316543212E+03 -0.22050114612E+03  0.61496381117E+03  0.25500000920E-02 0.  1.
       -2    1    3    3    0  502  0.32266406986E+02 -0.57316543212E+03  0.16907888453E+03  0.59845417770E+03  0.25500000920E-02 0. -1.
</event>
<event>
 5   0  0.3650180E-03  0.1200521E+04  0.7818609E-02  0.9112401E-01
        2   -1    0    0  501    0  0.00000000000E+00  0.00000000000E+00  0.12394762022E+04  0.12394762022E+04  0.25500000920E-02 0.  1.
       -2   -1    0    0    0  501  0.00000000000E+00  0.00000000000E+00 -0.29069753161E+03  0.29069753162E+03  0.25500000920E-02 0. -1.
    10030    2    1    2    0    0  0.00000000000E+00  0.00000000000E+00  0.94877867056E+03  0.15301737338E+04  0.12005210077E+04 0.  0.
        3    1    3    3  502    0 -0.11119277450E+03  0.34035658808E+03 -0.13967570094E+03  0.38433806966E+03  0.10100000352E+00 0. -1.
       -3    1    3    3    0  502  0.11119277450E+03 -0.34035658808E+03  0.10884543715E+04  0.11458356641E+04  0.10100000352E+00 0.  1.
</event>
<event>
 5   0  0.2134992E-03  0.1185357E+04  0.7818609E-02  0.9125771E-01
        1   -1    0    0  501    0  0.00000000000E+00  0.00000000000E+00  0.44844118272E+03  0.44844118275E+03  0.50400001928E-02 0. -1.
       -1   -1    0    0    0  501  0.00000000000E+00  0.00000000000E+00 -0.78330916874E+03  0.78330916876E+03  0.50400001928E-02 0.  1.
    10030    2    1    2    0    0  0.00000000000E+00  0.00000000000E+00 -0.33486798602E+03  0.12317503515E+04  0.11853574821E+04 0.  0.
        4    1    3    3  502    0 -0.27133907164E+03  0.99057689556E+02  0.37034307468E+03  0.46967320929E+03  0.12699999809E+01 0. -1.
       -4    1    3    3    0  502  0.27133907164E+03 -0.99057689556E+02 -0.70521106070E+03  0.76207714222E+03  0.12699999809E+01 0.  1.
</event>
<event>
 5   0  0.2096270E-03  0.1205843E+04  0.7818609E-02  0.9107758E-01
        1   -1    0    0  501    0  0.00000000000E+00  0.00000000000E+00  0.55733887073E+03  0.55733887075E+03  0.50400001928E-02 0. -1.
       -1   -1    0    0    0  501  0.00000000000E+00  0.00000000000E+00 -0.65223187872E+03  0.65223187874E+03  0.50400001928E-02 0.  1.
    10030    2    1    2    0    0  0.00000000000E+00  0.00000000000E+00 -0.94893007990E+02  0.12095707495E+04  0.12058427406E+04 0.  0.
        2    1    3    3  502    0  0.28271248027E+02 -0.55017289739E+03  0.19831032550E+03  0.58550530800E+03  0.25500000920E-02 0. -1.
       -2    1    3    3    0  502 -0.28271248027E+02  0.55017289739E+03 -0.29320333349E+03  0.62406544149E+03  0.25500000920E-02 0.  1.
</event>
<event>
 5   0  0.2047109E-03  0.1171075E+04  0.7818609E-02  0.9138558E-01
       -1   -1    0    0    0  501  0.00000000000E+00  0.00000000000E+00  0.29052809055E+03  0.29052809059E+03  0.50400001928E-02 0.  1.
        1   -1    0    0  501    0  0.00000000000E+00  0.00000000000E+00 -0.11801061321E+04  0.11801061321E+04  0.50400001928E-02 0. -1.
    10030    2    1    2    0    0  0.00000000000E+00  0.00000000000E+00 -0.88957804152E+03  0.14706342227E+04  0.11710746880E+04 0.  0.
        1    1    3    3  502    0 -0.28533007618E+03 -0.39605785014E+03 -0.38680477600E+02  0.48966442836E+03  0.50400001928E-02 0.  1.
       -1    1    3    3    0  502  0.28533007618E+03  0.39605785014E+03 -0.85089756392E+03  0.98096979431E+03  0.50400001928E-02 0. -1.
</event>
<event>
 5   0  0.3626049E-03  0.1213975E+04  0.7818609E-02  0.9100712E-01
       -2   -1    0    0    0  501  0.00000000000E+00  0.00000000000E+00  0.39301325293E+03  0.39301325294E+03  0.25500000920E-02 0.  1.
        2   -1    0    0  501    0  0.00000000000E+00  0.00000000000E+00 -0.93745878566E+03  0.93745878566E+03  0.25500000920E-02 0. -1.
    10030    2    1    2    0    0  0.00000000000E+00  0.00000000000E+00 -0.54444553273E+03  0.13304720386E+04  0.12139748380E+04 0.  0.
        1    1    3    3  502    0  0.17724668140E+03  0.10326459549E+03  0.35387244132E+03  0.40903015476E+03  0.50400001928E-02 0.  1.
       -1    1    3    3    0  502 -0.17724668140E+03 -0.10326459549E+03 -0.89831797405E+03  0.92144188383E+03  0.50400001928E-02 0. -1.
</event>
<event>
 5   0  0.2047109E-03  0.1188892E+04  0.7818609E-02  0.9122635E-01
       -1   -1    0    0    0  501  0.00000000000E+00  0.00000000000E+00  0.26168468423E+03  0.26168468427E+03  0.50400001928E-02 0. -1.
        1   -1    0    0  501    0  0.00000000000E+00  0.00000000000E+00 -0.13503507636E+04  0.13503507637E+04  0.50400001928E-02 0.  1.
    10030    2    1    2    0    0  0.00000000000E+00  0.00000000000E+00 -0.10886660794E+04  0.16120354479E+04  0.11888921115E+04 0.  0.
        1    1    3    3  502    0 -0.21389351776E+03 -0.17056821171E+03  0.17125326538E+03  0.32275630546E+03  0.50400001928E-02 0. -1.
       -1    1    3    3    0  502  0.21389351776E+03  0.17056821171E+03 -0.12599193448E+04  0.12892791425E+04  0.50400001928E-02 0.  1.
</event>
<event>
 5   0  0.2134992E-03  0.1190563E+04  0.7818609E-02  0.9121157E-01
       -1   -1    0    0    0  501  0.00000000000E+00  0.00000000000E+00  0.67059563510E+03  0.67059563512E+03  0.50400001928E-02 0. -1.
        1   -1    0    0  501    0  0.00000000000E+00  0.00000000000E+00 -0.52842599238E+03  0.52842599241E+03  0.50400001928E-02 0.  1.
    10030    2    1    2    0    0  0.00000000000E+00  0.00000000000E+00  0.14216964272E+03  0.11990216275E+04  0.11905631676E+04 0.  0.
        4    1    3    3  502    0 -0.24422831454E+03  0.32549793035E+03  0.50863923097E+03  0.65139224164E+03  0.12699999809E+01 0. -1.
       -4    1    3    3    0  502  0.24422831454E+03 -0.32549793035E+03 -0.36646958825E+03  0.54762938589E+03  0.12699999809E+01 0.  1.
</event>
<event>
 5   0  0.3706035E-03  0.1186518E+04  0.7818609E-02  0.9124740E-01
       -2   -1    0    0    0  501  0.00000000000E+00  0.00000000000E+00  0.14925615975E+03  0.14925615978E+03  0.25500000920E-02 0. -1.
        2   -1    0    0  501    0  0.00000000000E+00  0.00000000000E+00 -0.23580697285E+04  0.23580697285E+04  0.25500000920E-02 0.  1.
    10030    2    1    2    0    0  0.00000000000E+00  0.00000000000E+00 -0.22088135688E+04  0.25073258883E+04  0.11865183221E+04 0.  0.
        2    1    3    3  502    0 -0.41084328977E+03 -0.33799113666E+03 -0.16591966905E+04  0.17424017547E+04  0.25500000920E-02 0.  1.
       -2    1    3    3    0  502  0.41084328977E+03  0.33799113666E+03 -0.54961687832E+03  0.76492413359E+03  0.25500000920E-02 0. -1.
</event>
<event>
 5   0  0.3706035E-03  0.1190298E+04  0.7818609E-02  0.9121392E-01
        2   -1    0    0  501    0  0.00000000000E+00  0.00000000000E+00  0.22882373392E+04  0.22882373392E+04  0.25500000920E-02 0.  1.
       -2   -1    0    0    0  501  0.00000000000E+00  0.00000000000E+00 -0.15479257785E+03  0.15479257787E+03  0.25500000920E-02 0. -1.
    10030    2    1    2    0    0  0.00000000000E+00  0.00000000000E+00  0.21334447613E+04  0.24430299171E+04  0.11902977048E+04 0.  0.
        2    1    3    3  502    0 -0.59273062973E+03  0.46990776476E+02  0.11196272737E+04  0.12677156482E+04  0.25500000920E-02 0.  1.
       -2    1    3    3    0  502  0.59273062973E+03 -0.46990776476E+02  0.10138174876E+04  0.11753142689E+04  0.25500000920E-02 0. -1.
</event>
<event>
 5   0  0.1397500E-03  0.1205369E+04  0.7818609E-02  0.9108170E-01
        4   -1    0    0  501    0  0.00000000000E+00  0.00000000000E+00  0.51749691390E+03  0.51749847226E+03  0.12699999809E+01 0.  1.
       -4   -1    0    0    0  501  0.00000000000E+00  0.00000000000E+00 -0.70189179608E+03  0.70189294505E+03  0.12699999809E+01 0. -1.
    10030    2    1    2    0    0  0.00000000000E+00  0.00000000000E+00 -0.18439488219E+03  0.12193914173E+04  0.12053688050E+04 0.  0.
        4    1    3    3  502    0  0.76386439224E+02 -0.32138746937E+03 -0.60214709152E+03  0.68680967254E+03  0.12699999809E+01 0. -1.
       -4    1    3    3    0  502 -0.76386439224E+02  0.32138746937E+03  0.41775220933E+03  0.53258174478E+03  0.12699999809E+01 0.  1.
</event>
<event>
 5   0  0.3626049E-03  0.1180009E+04  0.7818609E-02  0.9130537E-01
       -2   -1    0    0    0  501  0.00000000000E+00  0.00000000000E+00  0.11166845413E+04  0.11166845413E+04  0.25500000920E-02 0. -1.
        2   -1    0    0  501    0  0.00000000000E+00  0.00000000000E+00 -0.31173104271E+03  0.31173104272E+03  0.25500000920E-02 0.  1.
    10030    2    1    2    0    0  0.00000000000E+00  0.00000000000E+00  0.80495349862E+03  0.14284155840E+04  0.11800088753E+04 0.  0.
        1    1    3    3  502    0  0.13521899505E+03  0.47199477012E+03  0.79852345653E+03  0.93739156722E+03  0.50400001928E-02 0. -1.
       -1    1    3    3    0  502 -0.13521899505E+03 -0.47199477012E+03  0.64300420906E+01  0.49102401683E+03  0.50400001928E-02 0.  1.
</event>
<event>
 5   0  0.2078258E-03  0.1176194E+04  0.7818609E-02  0.9133953E-01
       -1   -1    0    0    0  501  0.00000000000E+00  0.00000000000E+00  0.16027095728E+03  0.16027095736E+03  0.50400001928E-02 0.  1.
        1   -1    0    0  501    0  0.00000000000E+00  0.00000000000E+00 -0.21579599503E+04  0.21579599503E+04  0.50400001928E-02 0. -1.
    10030    2    1    2    0    0  0.00000000000E+00  0.00000000000E+00 -0.19976889931E+04  0.23182309077E+04  0.11761943838E+04 0.  0.
        3    1    3    3  502    0 -0.64049057245E+02 -0.54418958532E+03 -0.57789955902E+03  0.79637459592E+03  0.10100000352E+00 0.  1.
       -3    1    3    3    0  502  0.64049057245E+02  0.54418958532E+03 -0.14197894340E+04  0.15218563118E+04  0.10100000352E+00 0. -1.
</event>
<event>
 5   0  0.3725376E-03  0.1239819E+04  0.7818609E-02  0.9078700E-01
       -2   -1    0    0    0  501  0.00000000000E+00  0.00000000000E+00  0.32687051424E+03  0.32687051425E+03  0.25500000920E-02 0.  1.
        2   -1    0    0  501    0  0.00000000000E+00  0.00000000000E+00 -0.11756573879E+04  0.11756573879E+04  0.25500000920E-02 0. -1.
    10030    2    1    2    0    0  0.00000000000E+00  0.00000000000E+00 -0.84878687369E+03  0.15025279022E+04  0.12398189142E+04 0.  0.
        4    1    3    3  502    0 -0.16988121306E+03  0.46519451986E+03  0.27466457002E+02  0.49600563204E+03  0.12699999809E+01 0.  1.
       -4    1    3    3    0  502  0.16988121306E+03 -0.46519451986E+03 -0.87625333069E+03  0.10065222702E+04  0.12699999809E+01 0. -1.
</event>
<event>
 5   0  0.3751091E-03  0.1016229E+04  0.7818609E-02  0.9290922E-01
       -2   -1    0    0    0  501  0.00000000000E+00  0.00000000000E+00  0.26574598763E+03  0.26574598764E+03  0.25500000920E-02 0. -1.
        2   -1    0    0  501    0  0.00000000000E+00  0.00000000000E+00 -0.97153140943E+03  0.97153140943E+03  0.25500000920E-02 0.  1.
    10030    2    1    2    0    0  0.00000000000E+00  0.00000000000E+00 -0.70578542180E+03  0.12372773971E+04  0.10162294503E+04 0.  0.
        5    1    3    3  502    0  0.47743898987E+03 -0.84794713035E+01 -0.56425952071E+03  0.73920956920E+03  0.46999998093E+01 0.  1.
       -5    1    3    3    0  502 -0.47743898987E+03  0.84794713035E+01 -0.14152590109E+03  0.49806782787E+03  0.46999998093E+01 0. -1.
</event>
<event>
 5   0  0.3650180E-03  0.1275689E+04  0.7818609E-02  0.9049069E-01
       -2   -1    0    0    0  501  0.00000000000E+00  0.00000000000E+00  0.74487590620E+03  0.74487590621E+03  0.25500000920E-02 0.  1.
        2   -1    0    0  501    0  0.00000000000E+00  0.00000000000E+00 -0.54619231566E+03  0.54619231567E+03  0.25500000920E-02 0. -1.
    10030    2    1    2    0    0  0.00000000000E+00  0.00000000000E+00  0.19868359054E+03  0.12910682219E+04  0.12756888274E+04 0.  0.
        3    1    3    3  502    0 -0.58997738836E+03  0.12749749177E+03 -0.10933948006E+03  0.61341997138E+03  0.10100000352E+00 0. -1.
       -3    1    3    3    0  502  0.58997738836E+03 -0.12749749177E+03  0.30802307060E+03  0.67764825050E+03  0.10100000352E+00 0.  1.
</event>
<event>
 5   0  0.2047109E-03  0.1173107E+04  0.7818609E-02  0.9136727E-01
       -1   -1    0    0    0  501  0.00000000000E+00  0.00000000000E+00  0.42635077982E+03  0.42635077985E+03  0.50400001928E-02 0.  1.
        1   -1    0    0  501    0  0.00000000000E+00  0.00000000000E+00 -0.80695244832E+03  0.80695244834E+03  0.50400001928E-02 0. -1.
    10030    2    1    2    0    0  0.00000000000E+00  0.00000000000E+00 -0.38060166850E+03  0.12333032282E+04  0.11731066544E+04 0.  0.
        1    1    3    3  502    0 -0.50511812822E+03  0.30364954339E+02 -0.50213272453E+03  0.71288402070E+03  0.50400001928E-02 0. -1.
       -1    1    3    3    0  502  0.50511812822E+03 -0.30364954339E+02  0.12153105603E+03  0.52041920748E+03  0.50400001928E-02 0.  1.
</event>
<event>
 5   0  0.1397500E-03  0.1256991E+04  0.7818609E-02  0.9064384E-01
       -4   -1    0    0    0  501  0.00000000000E+00  0.00000000000E+00  0.75756392725E+03  0.75756499178E+03  0.12699999809E+01 0. -1.
        4   -1    0    0  501    0  0.00000000000E+00  0.00000000000E+00 -0.52141486085E+03  0.52141640751E+03  0.12699999809E+01 0.  1.
    10030    2    1    2    0    0  0.00000000000E+00  0.00000000000E+00  0.23614906639E+03  0.12789813993E+04  0.12569912641E+04 0.  0.
        5    1    3    3  502    0  0.62796477616E+02 -0.17846490126E+03 -0.49173614546E+03  0.52689623773E+03  0.46999998093E+01 0.  1.
       -5    1    3    3    0  502 -0.62796477616E+02  0.17846490126E+03  0.72788521186E+03  0.75208516155E+03  0.46999998093E+01 0. -1.
</event>
<event>
 5   0  0.2096270E-03  0.1186452E+04  0.7818609E-02  0.9124799E-01
       -1   -1    0    0    0  501  0.00000000000E+00  0.00000000000E+00  0.44755622536E+03  0.44755622539E+03  0.50400001928E-02 0. -1.
        1   -1    0    0  501    0  0.00000000000E+00  0.00000000000E+00 -0.78630744838E+03  0.78630744840E+03  0.50400001928E-02 0.  1.
    10030    2    1    2    0    0  0.00000000000E+00  0.00000000000E+00 -0.33875122302E+03  0.12338636738E+04  0.11864515053E+04 0.  0.
        2    1    3    3  502    0 -0.43056116957E+03  0.17541112707E+03 -0.55256263526E+03  0.72213395581E+03  0.25500000920E-02 0.  1.
       -2    1    3    3    0  502  0.43056116957E+03 -0.17541112707E+03  0.21381141224E+03  0.51172971797E+03  0.25500000920E-02 0. -1.
</event>
<event>
 5   0  0.3706035E-03  0.1092939E+04  0.7818609E-02  0.9212101E-01
       -2   -1    0    0    0  501  0.00000000000E+00  0.00000000000E+00  0.33525991340E+03  0.33525991341E+03  0.25500000920E-02 0. -1.
        2   -1    0    0  501    0  0.00000000000E+00  0.00000000000E+00 -0.89073931301E+03  0.89073931301E+03  0.25500000920E-02 0.  1.
    10030    2    1    2    0    0  0.00000000000E+00  0.00000000000E+00 -0.55547939961E+03  0.12259992264E+04  0.10929394950E+04 0.  0.
        2    1    3    3  502    0 -0.14880836122E+03  0.17119633122E+03  0.27995712048E+03  0.36031666837E+03  0.25500000920E-02 0. -1.
       -2    1    3    3    0  502  0.14880836122E+03 -0.17119633122E+03 -0.83543652009E+03  0.86568255804E+03  0.25500000920E-02 0.  1.
</event>
<event>
 5   0  0.3725376E-03  0.1204163E+04  0.7818609E-02  0.9109221E-01
        2   -1    0    0  501    0  0.00000000000E+00  0.00000000000E+00  0.86729791687E+03  0.86729791687E+03  0.25500000920E-02 0. -1.
       -2   -1    0    0    0  501  0.00000000000E+00  0.00000000000E+00 -0.41796719930E+03  0.41796719931E+03  0.25500000920E-02 0.  1.
    10030    2    1    2    0    0  0.00000000000E+00  0.00000000000E+00  0.44933071757E+03  0.12852651162E+04  0.12041629147E+04 0.  0.
        4    1    3    3  502    0 -0.13794490188E+02  0.57461044504E+03  0.33335291786E+02  0.57574326404E+03  0.12699999809E+01 0.  1.
       -4    1    3    3    0  502  0.13794490188E+02 -0.57461044504E+03  0.41599542578E+03  0.70952185215E+03  0.12699999809E+01 0. -1.
</event>
<event>
 5   0  0.3751091E-03  0.1088537E+04  0.7818609E-02  0.9216437E-01
        2   -1    0    0  501    0  0.00000000000E+00  0.00000000000E+00  0.49128422543E+03  0.49128422544E+03  0.25500000920E-02 0.  1.
       -2   -1    0    0    0  501  0.00000000000E+00  0.00000000000E+00 -0.60296665316E+03  0.60296665316E+03  0.25500000920E-02 0. -1.
    10030    2    1    2    0    0  0.00000000000E+00  0.00000000000E+00 -0.11168242773E+03  0.10942508786E+04  0.10885366418E+04 0.  0.
        5    1    3    3  502    0  0.34615657356E+03 -0.16609041822E+03  0.33192393314E+03  0.50754900043E+03  0.46999998093E+01 0.  1.
       -5    1    3    3    0  502 -0.34615657356E+03  0.16609041822E+03 -0.44360636087E+03  0.58670187817E+03  0.46999998093E+01 0. -1.
</event>
<event>
 5   0  0.2047109E-03  0.1192146E+04  0.7818609E-02  0.9119759E-01
        1   -1    0    0  501    0  0.00000000000E+00  0.00000000000E+00  0.78301592020E+03  0.78301592022E+03  0.50400001928E-02 0.  1.
       -1   -1    0    0    0  501  0.00000000000E+00  0.00000000000E+00 -0.45376222285E+03  0.45376222287E+03  0.50400001928E-02 0. -1.
    10030    2    1    2    0    0  0.00000000000E+00  0.00000000000E+00  0.32925369735E+03  0.12367781431E+04  0.11921460389E+04 0.  0.
        1    1    3    3  502    0 -0.58233650075E+03 -0.57451285353E+02  0.28239596532E+03  0.64974143438E+03  0.50400001928E-02 0. -1.
       -1    1    3    3    0  502  0.58233650075E+03  0.57451285353E+02  0.46857732037E+02  0.58703670871E+03  0.50400001928E-02 0.  1.
</event>
<event>
 5   0  0.2134992E-03  0.1177908E+04  0.7818609E-02  0.9132416E-01
        1   -1    0    0  501    0  0.00000000000E+00  0.00000000000E+00  0.85459498884E+03  0.85459498885E+03  0.50400001928E-02 0. -1.
       -1   -1    0    0    0  501  0.00000000000E+00  0.00000000000E+00 -0.40588456379E+03  0.40588456382E+03  0.50400001928E-02 0.  1.
    10030    2    1    2    0    0  0.00000000000E+00  0.00000000000E+00  0.44871042505E+03  0.12604795527E+04  0.11779081701E+04 0.  0.
        4    1    3    3  502    0  0.31633703322E+03 -0.71406531831E+02 -0.30173504750E+03  0.44296011465E+03  0.12699999809E+01 0.  1.
       -4    1    3    3    0  502 -0.31633703322E+03  0.71406531831E+02  0.75044547255E+03  0.81751943803E+03  0.12699999809E+01 0. -1.
</event>
<event>
 5   0  0.3706035E-03  0.1205326E+04  0.7818609E-02  0.9108208E-01
       -2   -1    0    0    0  501  0.00000000000E+00  0.00000000000E+00  0.70839351829E+03  0.70839351829E+03  0.25500000920E-02 0. -1.
        2   -1    0    0  501    0  0.00000000000E+00  0.00000000000E+00 -0.51271278159E+03  0.51271278160E+03  0.25500000920E-02 0.  1.
    10030    2    1    2    0    0  0.00000000000E+00  0.00000000000E+00  0.19568073670E+03  0.12211062999E+04  0.12053255348E+04 0.  0.
        2    1    3    3  502    0  0.27668812263E+02 -0.21570278415E+03  0.66725709698E+03  0.70180145892E+03  0.25500000920E-02 0. -1.
       -2    1    3    3    0  502 -0.27668812263E+02  0.21570278415E+03 -0.47157636029E+03  0.51930484097E+03  0.25500000920E-02 0.  1.
</event>
<event>
 5   0  0.3626049E-03  0.1206419E+04  0.7818609E-02  0.9107256E-01
       -2   -1    0    0    0  501  0.00000000000E+00  0.00000000000E+00  0.79651259635E+03  0.79651259636E+03  0.25500000920E-02 0.  1.
        2   -1    0    0  501    0  0.00000000000E+00  0.00000000000E+00 -0.45681888340E+03  0.45681888341E+03  0.25500000920E-02 0. -1.
    10030    2    1    2    0    0  0.00000000000E+00  0.00000000000E+00  0.33969371295E+03  0.12533314798E+04  0.12064194874E+04 0.  0.
        1    1    3    3  502    0  0.19222452216E+03 -0.56361593870E+03  0.26975717315E+03  0.65374469463E+03  0.50400001928E-02 0. -1.
       -1    1    3    3    0  502 -0.19222452216E+03  0.56361593870E+03  0.69936539808E+02  0.59958678513E+03  0.50400001928E-02 0.  1.
</event>
<event>
 5   0  0.3626049E-03  0.1178461E+04  0.7818609E-02  0.9131921E-01
       -2   -1    0    0    0  501  0.00000000000E+00  0.00000000000E+00  0.25597407475E+03  0.25597407477E+03  0.25500000920E-02 0. -1.
        2   -1    0    0  501    0  0.00000000000E+00  0.00000000000E+00 -0.13563590331E+04  0.13563590331E+04  0.25500000920E-02 0.  1.
    10030    2    1    2    0    0  0.00000000000E+00  0.00000000000E+00 -0.11003849583E+04  0.16123331078E+04  0.11784612824E+04 0.  0.
        1    1    3    3  502    0  0.49001500580E+03 -0.32038885378E+03 -0.64124532362E+03  0.86830829124E+03  0.50400001928E-02 0.  1.
       -1    1    3    3    0  502 -0.49001500580E+03  0.32038885378E+03 -0.45913963468E+03  0.74402481659E+03  0.50400001928E-02 0. -1.
</event>
<event>
 5   0  0.2096270E-03  0.1192296E+04  0.7818609E-02  0.9119627E-01
        1   -1    0    0  501    0  0.00000000000E+00  0.00000000000E+00  0.49455785379E+03  0.49455785381E+03  0.50400001928E-02 0. -1.
       -1   -1    0    0    0  501  0.00000000000E+00  0.00000000000E+00 -0.71860627052E+03  0.71860627054E+03  0.50400001928E-02 0.  1.
    10030    2    1    2    0    0  0.00000000000E+00  0.00000000000E+00 -0.22404841674E+03  0.12131641244E+04  0.11922958943E+04 0.  0.
        2    1    3    3  502    0  0.16562133799E+02 -0.59571823025E+03 -0.96331535777E+02  0.60368392302E+03  0.25500000920E-02 0. -1.
       -2    1    3    3    0  502 -0.16562133799E+02  0.59571823025E+03 -0.12771688096E+03  0.60948020133E+03  0.25500000920E-02 0.  1.
</event>
<event>
 5   0  0.3751091E-03  0.1214003E+04  0.7818609E-02  0.9100687E-01
        2   -1    0    0  501    0  0.00000000000E+00  0.00000000000E+00  0.13283688503E+04  0.13283688503E+04  0.25500000920E-02 0.  1.
       -2   -1    0    0    0  501  0.00000000000E+00  0.00000000000E+00 -0.27737100094E+03  0.27737100095E+03  0.25500000920E-02 0. -1.
    10030    2    1    2    0    0  0.00000000000E+00  0.00000000000E+00  0.10509978493E+04  0.16057398512E+04  0.12140032910E+04 0.  0.
        5    1    3    3  502    0 -0.53752293333E+03 -0.57999503400E+02  0.89045854886E+03  0.10417453448E+04  0.46999998093E+01 0.  1.
       -5    1    3    3    0  502  0.53752293333E+03  0.57999503400E+02  0.16053930047E+03  0.56399450640E+03  0.46999998093E+01 0. -1.
</event>
<event>
 5   0  0.2134992E-03  0.1218840E+04  0.7818609E-02  0.9096524E-01
       -1   -1    0    0    0  501  0.00000000000E+00  0.00000000000E+00  0.66534987627E+03  0.66534987629E+03  0.50400001928E-02 0.  1.
        1   -1    0    0  501    0  0.00000000000E+00  0.00000000000E+00 -0.55819151494E+03  0.55819151496E+03  0.50400001928E-02 0. -1.
    10030    2    1    2    0    0  0.00000000000E+00  0.00000000000E+00  0.10715836133E+03  0.12235413913E+04  0.12188398671E+04 0.  0.
        4    1    3    3  502    0 -0.55497061960E+03  0.95142718717E+02  0.28760181967E+03  0.63226651431E+03  0.12699999809E+01 0.  1.
       -4    1    3    3    0  502  0.55497061960E+03 -0.95142718717E+02 -0.18044345834E+03  0.59127487694E+03  0.12699999809E+01 0. -1.
</event>
<event>
 5   0  0.2047109E-03  0.1141841E+04  0.7818609E-02  0.9165344E-01
        1   -1    0    0  501    0  0.00000000000E+00  0.00000000000E+00  0.96297974758E+03  0.96297974760E+03  0.50400001928E-02 0.  1.
       -1   -1    0    0    0  501  0.00000000000E+00  0.00000000000E+00 -0.33848075791E+03  0.33848075794E+03  0.50400001928E-02 0. -1.
    10030    2    1    2    0    0  0.00000000000E+00  0.00000000000E+00  0.62449898968E+03  0.13014605055E+04  0.11418408205E+04 0.  0.
        1    1    3    3  502    0 -0.68495605304E+02  0.19526174684E+03 -0.29423455433E+03  0.35971206640E+03  0.50400001928E-02 0. -1.
       -1    1    3    3    0  502  0.68495605304E+02 -0.19526174684E+03  0.91873354401E+03  0.94174843914E+03  0.50400001928E-02 0.  1.
</event>
<event>
 5   0  0.2047109E-03  0.1209596E+04  0.7818609E-02  0.9104499E-01
        1   -1    0    0  501    0  0.00000000000E+00  0.00000000000E+00  0.13351795373E+04  0.13351795373E+04  0.50400001928E-02 0. -1.
       -1   -1    0    0    0  501  0.00000000000E+00  0.00000000000E+00 -0.27395605053E+03  0.27395605058E+03  0.50400001928E-02 0.  1.
    10030    2    1    2    0    0  0.00000000000E+00  0.00000000000E+00  0.10612234868E+04  0.16091355879E+04  0.12095958215E+04 0.  0.
        1    1    3    3  502    0  0.13213368524E+03 -0.27950607111E+03 -0.16088966978E+03  0.34852322797E+03  0.50400001928E-02 0.  1.
       -1    1    3    3    0  502 -0.13213368524E+03  0.27950607111E+03  0.12221131566E+04  0.12606123599E+04  0.50400001928E-02 0. -1.
</event>
<event>
 5   0  0.2096270E-03  0.1138666E+04  0.7818609E-02  0.9168304E-01
       -1   -1    0    0    0  501  0.00000000000E+00  0.00000000000E+00  0.88969948635E+03  0.88969948636E+03  0.50400001928E-02 0.  1.
        1   -1    0    0  501    0  0.00000000000E+00  0.00000000000E+00 -0.36432515034E+03  0.36432515037E+03  0.50400001928E-02 0. -1.
    10030    2    1    2    0    0  0.00000000000E+00  0.00000000000E+00  0.52537433601E+03  0.12540246367E+04  0.11386657089E+04 0.  0.
        2    1    3    3  502    0 -0.50484063180E+03  0.25737372378E+02  0.55116627881E+03  0.74787080619E+03  0.25500000920E-02 0.  1.
       -2    1    3    3    0  502  0.50484063180E+03 -0.25737372378E+02 -0.25791942801E+02  0.50615383054E+03  0.25500000920E-02 0. -1.
</event>
<event>
 5   0  0.2078258E-03  0.1378381E+04  0.7818609E-02  0.8969618E-01
        1   -1    0    0  501    0  0.00000000000E+00  0.00000000000E+00  0.94852567660E+03  0.94852567661E+03  0.50400001928E-02 0. -1.
       -1   -1    0    0    0  501  0.00000000000E+00  0.00000000000E+00 -0.50076014774E+03  0.50076014776E+03  0.50400001928E-02 0.  1.
    10030    2    1    2    0    0  0.00000000000E+00  0.00000000000E+00  0.44776552886E+03  0.14492858244E+04  0.13783814537E+04 0.  0.
        3    1    3    3  502    0 -0.20874876705E+03 -0.57601286948E+03 -0.10797447526E+03  0.62211363195E+03  0.10100000352E+00 0.  1.
       -3    1    3    3    0  502  0.20874876705E+03  0.57601286948E+03  0.55574000412E+03  0.82717219243E+03  0.10100000352E+00 0. -1.
</event>
<event>
 5   0  0.3650180E-03  0.1171088E+04  0.7818609E-02  0.9138546E-01
       -2   -1    0    0    0  501  0.00000000000E+00  0.00000000000E+00  0.24774618669E+03  0.24774618671E+03  0.25500000920E-02 0.  1.
        2   -1    0    0  501    0  0.00000000000E+00  0.00000000000E+00 -0.13839246756E+04  0.13839246756E+04  0.25500000920E-02 0. -1.
    10030    2    1    2    0    0  0.00000000000E+00  0.00000000000E+00 -0.11361784889E+04  0.16316708623E+04  0.11710884870E+04 0.  0.
        3    1    3    3  502    0 -0.70969700430E+02  0.22611494907E+02  0.24111858652E+03  0.25236117183E+03  0.10100000352E+00 0.  1.
       -3    1    3    3    0  502  0.70969700430E+02 -0.22611494907E+02 -0.13772970754E+04  0.13793096905E+04  0.10100000352E+00 0. -1.
</event>
<event>
 5   0  0.2078258E-03  0.1182724E+04  0.7818609E-02  0.9128114E-01
        1   -1    0    0  501    0  0.00000000000E+00  0.00000000000E+00  0.12301249454E+04  0.12301249454E+04  0.50400001928E-02 0.  1.
       -1   -1    0    0    0  501  0.00000000000E+00  0.00000000000E+00 -0.28428725582E+03  0.28428725586E+03  0.50400001928E-02 0. -1.
    10030    2    1    2    0    0  0.00000000000E+00  0.00000000000E+00  0.94583768959E+03  0.15144122013E+04  0.11827237126E+04 0.  0.
        3    1    3    3  502    0 -0.33796729033E+03 -0.23068449268E+03  0.10195826388E+04  0.10986291422E+04  0.10100000352E+00 0.  1.
       -3    1    3    3    0  502  0.33796729033E+03  0.23068449268E+03 -0.73744949216E+02  0.41578305910E+03  0.10100000352E+00 0. -1.
</event>
<event>
 5   0  0.3725376E-03  0.1216535E+04  0.7818609E-02  0.9098505E-01
        2   -1    0    0  501    0  0.00000000000E+00  0.00000000000E+00  0.17779498736E+04  0.17779498736E+04  0.25500000920E-02 0.  1.
       -2   -1    0    0    0  501  0.00000000000E+00  0.00000000000E+00 -0.20809890854E+03  0.20809890855E+03  0.25500000920E-02 0. -1.
    10030    2    1    2    0    0  0.00000000000E+00  0.00000000000E+00  0.15698509650E+04  0.19860487821E+04  0.12165351259E+04 0.  0.
        4    1    3    3  502    0 -0.19076999360E+03  0.98469883978E+02  0.17140407515E+04  0.17274335932E+04  0.12699999809E+01 0.  1.
       -4    1    3    3    0  502  0.19076999360E+03 -0.98469883978E+02 -0.14418978643E+03  0.25861518888E+03  0.12699999809E+01 0. -1.
</event>
<event>
 5   0  0.3650180E-03  0.1219756E+04  0.7818609E-02  0.9095738E-01
        2   -1    0    0  501    0  0.00000000000E+00  0.00000000000E+00  0.11988380216E+04  0.11988380216E+04  0.25500000920E-02 0.  1.
       -2   -1    0    0    0  501  0.00000000000E+00  0.00000000000E+00 -0.31025981670E+03  0.31025981671E+03  0.25500000920E-02 0. -1.
    10030    2    1    2    0    0  0.00000000000E+00  0.00000000000E+00  0.88857820486E+03  0.15090978383E+04  0.12197561475E+04 0.  0.
        3    1    3    3  502    0  0.38081967634E+03 -0.47635742985E+03  0.44843473747E+03  0.75698992783E+03  0.10100000352E+00 0.  1.
       -3    1    3    3    0  502 -0.38081967634E+03  0.47635742985E+03  0.44014346739E+03  0.75210791045E+03  0.10100000352E+00 0. -1.
</event>
<event>
 5   0  0.3706035E-03  0.1183353E+04  0.7818609E-02  0.9127554E-01
       -2   -1    0    0    0  501  0.00000000000E+00  0.00000000000E+00  0.37809519440E+03  0.37809519441E+03  0.25500000920E-02 0. -1.
        2   -1    0    0  501    0  0.00000000000E+00  0.00000000000E+00 -0.92590730007E+03  0.92590730008E+03  0.25500000920E-02 0.  1.
    10030    2    1    2    0    0  0.00000000000E+00  0.00000000000E+00 -0.54781210567E+03  0.13040024945E+04  0.11833530338E+04 0.  0.
        2    1    3    3  502    0 -0.42510358404E+03  0.18402177291E+03  0.13173341136E+03  0.48159190373E+03  0.25500000920E-02 0. -1.
       -2    1    3    3    0  502  0.42510358404E+03 -0.18402177291E+03 -0.67954551703E+03  0.82241059076E+03  0.25500000920E-02 0.  1.
</event>
<event>
 5   0  0.2025294E-03  0.1207311E+04  0.7818609E-02  0.9106482E-01
       -1   -1    0    0    0  501  0.00000000000E+00  0.00000000000E+00  0.67723029935E+03  0.67723029937E+03  0.50400001928E-02 0.  1.
        1   -1    0    0  501    0  0.00000000000E+00  0.00000000000E+00 -0.53807357114E+03  0.53807357116E+03  0.50400001928E-02 0. -1.
    10030    2    1    2    0    0  0.00000000000E+00  0.00000000000E+00  0.13915672821E+03  0.12153038705E+04  0.12073106074E+04 0.  0.
        5    1    3    3  502    0 -0.28216732721E+03 -0.38815276463E+03  0.43819493573E+03  0.64985987792E+03  0.46999998093E+01 0.  1.
       -5    1    3    3    0  502  0.28216732721E+03  0.38815276463E+03 -0.29903820752E+03  0.56544399261E+03  0.46999998093E+01 0. -1.
</event>
<event>
 5   0  0.2047109E-03  0.1199735E+04  0.7818609E-02  0.9113088E-01
       -1   -1    0    0    0  501  0.00000000000E+00  0.00000000000E+00  0.52976547790E+03  0.52976547792E+03  0.50400001928E-02 0.  1.
        1   -1    0    0  501    0  0.00000000000E+00  0.00000000000E+00 -0.67924609312E+03  0.67924609314E+03  0.50400001928E-02 0. -1.
    10030    2    1    2    0    0  0.00000000000E+00  0.00000000000E+00 -0.14948061522E+03  0.12090115711E+04  0.11997351894E+04 0.  0.
        1    1    3    3  502    0 -0.27174944285E+03 -0.39202496141E+03  0.29181631327E+03  0.55918520257E+03  0.50400001928E-02 0.  1.
       -1    1    3    3    0  502  0.27174944285E+03  0.39202496141E+03 -0.44129692849E+03  0.64982636849E+03  0.50400001928E-02 0. -1.
</event>
<event>
 5   0  0.3626049E-03  0.1192960E+04  0.7818609E-02  0.9119041E-01
       -2   -1    0    0    0  501  0.00000000000E+00  0.00000000000E+00  0.47340383216E+03  0.47340383217E+03  0.25500000920E-02 0. -1.
        2   -1    0    0  501    0  0.00000000000E+00  0.00000000000E+00 -0.75155344234E+03  0.75155344235E+03  0.25500000920E-02 0.  1.
    10030    2    1    2    0    0  0.00000000000E+00  0.00000000000E+00 -0.27814961018E+03  0.12249572745E+04  0.11929598144E+04 0.  0.
        1    1    3    3  502    0 -0.13926079161E+02  0.56278889949E+03  0.63349790423E+02  0.56651432201E+03  0.50400001928E-02 0.  1.
       -1    1    3    3    0  502  0.13926079161E+02 -0.56278889949E+03 -0.34149940060E+03  0.65844295251E+03  0.50400001928E-02 0. -1.
</event>
<event>
 5   0  0.3725376E-03  0.1219328E+04  0.7818609E-02  0.9096105E-01
       -2   -1    0    0    0  501  0.00000000000E+00  0.00000000000E+00  0.68264660986E+03  0.68264660986E+03  0.25500000920E-02 0.  1.
        2   -1    0    0  501    0  0.00000000000E+00  0.00000000000E+00 -0.54448429547E+03  0.54448429548E+03  0.25500000920E-02 0. -1.
    10030    2    1    2    0    0  0.00000000000E+00  0.00000000000E+00  0.13816231439E+03  0.12271309053E+04  0.12193282715E+04 0.  0.
        4    1    3    3  502    0 -0.54009374893E+03 -0.26021300507E+03 -0.42428047002E+02  0.60101066356E+03  0.12699999809E+01 0.  1.
       -4    1    3    3    0  502  0.54009374893E+03  0.26021300507E+03  0.18059036139E+03  0.62612024178E+03  0.12699999809E+01 0. -1.
</event>
<event>
 5   0  0.1397500E-03  0.1179550E+04  0.7818609E-02  0.9130947E-01
        4   -1    0    0  501    0  0.00000000000E+00  0.00000000000E+00  0.50697478219E+03  0.50697637289E+03  0.12699999809E+01 0. -1.
       -4   -1    0    0    0  501  0.00000000000E+00  0.00000000000E+00 -0.68609482718E+03  0.68609600260E+03  0.12699999809E+01 0.  1.
    10030    2    1    2    0    0  0.00000000000E+00  0.00000000000E+00 -0.17912004499E+03  0.11930723755E+04  0.11795497881E+04 0.  0.
        2    1    3    3  502    0 -0.35626196840E+03 -0.23631027493E+03 -0.50050497846E+03  0.65823276250E+03  0.25500000920E-02 0.  1.
       -2    1    3    3    0  502  0.35626196840E+03  0.23631027493E+03  0.32138493347E+03  0.53483961299E+03  0.25500000920E-02 0. -1.
</event>
<event>
 5   0  0.3650180E-03  0.1154511E+04  0.7818609E-02  0.9153632E-01
        2   -1    0    0  501    0  0.00000000000E+00  0.00000000000E+00  0.12270748206E+04  0.12270748206E+04  0.25500000920E-02 0. -1.
       -2   -1    0    0    0  501  0.00000000000E+00  0.00000000000E+00 -0.27155945492E+03  0.27155945494E+03  0.25500000920E-02 0.  1.
    10030    2    1    2    0    0  0.00000000000E+00  0.00000000000E+00  0.95551536570E+03  0.14986342756E+04  0.11545107526E+04 0.  0.
        3    1    3    3  502    0 -0.45042768901E+02  0.57301384813E+03  0.40845931435E+03  0.70513313839E+03  0.10100000352E+00 0.  1.
       -3    1    3    3    0  502  0.45042768901E+02 -0.57301384813E+03  0.54705605135E+03  0.79350113717E+03  0.10100000352E+00 0. -1.
</event>
<event>
 5   0  0.3725376E-03  0.1219617E+04  0.7818609E-02  0.9095857E-01
        2   -1    0    0  501    0  0.00000000000E+00  0.00000000000E+00  0.75144764872E+03  0.75144764872E+03  0.25500000920E-02 0.  1.
       -2   -1    0    0    0  501  0.00000000000E+00  0.00000000000E+00 -0.49486690292E+03  0.49486690292E+03  0.25500000920E-02 0. -1.
    10030    2    1    2    0    0  0.00000000000E+00  0.00000000000E+00  0.25658074580E+03  0.12463145516E+04  0.12196172689E+04 0.  0.
        4    1    3    3  502    0  0.45329347556E+02  0.15241811373E+03 -0.47330595528E+03  0.49930568928E+03  0.12699999809E+01 0. -1.
       -4    1    3    3    0  502 -0.45329347556E+02 -0.15241811373E+03  0.72988670108E+03  0.74700886237E+03  0.12699999809E+01 0.  1.
</event>
<event>
 5   0  0.2025294E-03  0.1196575E+04  0.7818609E-02  0.9115860E-01
       -1   -1    0    0    0  501  0.00000000000E+00  0.00000000000E+00  0.16500266896E+03  0.16500266904E+03  0.50400001928E-02 0. -1.
        1   -1    0    0  501    0  0.00000000000E+00  0.00000000000E+00 -0.21693469780E+04  0.21693469780E+04  0.50400001928E-02 0.  1.
    10030    2    1    2    0    0  0.00000000000E+00  0.00000000000E+00 -0.20043443090E+04  0.23343496470E+04  0.11965751817E+04 0.  0.
        5    1    3    3  502    0 -0.23697597207E+03  0.45399143375E+02 -0.20701802531E+04  0.20841993820E+04  0.46999998093E+01 0.  1.
       -5    1    3    3    0  502  0.23697597207E+03 -0.45399143375E+02  0.65835944102E+02  0.25015026502E+03  0.46999998093E+01 0. -1.
</event>
<event>
 5   0  0.2096270E-03  0.1216889E+04  0.7818609E-02  0.9098201E-01
       -1   -1    0    0    0  501  0.00000000000E+00  0.00000000000E+00  0.56881350301E+03  0.56881350303E+03  0.50400001928E-02 0. -1.
        1   -1    0    0  501    0  0.00000000000E+00  0.00000000000E+00 -0.65083670656E+03  0.65083670658E+03  0.50400001928E-02 0.  1.
    10030    2    1    2    0    0  0.00000000000E+00  0.00000000000E+00 -0.82023203549E+02  0.12196502096E+04  0.12168889957E+04 0.  0.
        2    1    3    3  502    0  0.15056335836E+03  0.51999296189E+03 -0.31938757810E+03  0.62854628338E+03  0.25500000920E-02 0.  1.
       -2    1    3    3    0  502 -0.15056335836E+03 -0.51999296189E+03  0.23736437455E+03  0.59110392623E+03  0.25500000920E-02 0. -1.
</event>
<event>
 5   0  0.3725376E-03  0.1207799E+04  0.7818609E-02  0.9106057E-01
       -2   -1    0    0    0  501  0.00000000000E+00  0.00000000000E+00  0.61057662881E+03  0.61057662881E+03  0.25500000920E-02 0.  1.
        2   -1    0    0  501    0  0.00000000000E+00  0.00000000000E+00 -0.59729587819E+03  0.59729587820E+03  0.25500000920E-02 0. -1.
    10030    2    1    2    0    0  0.00000000000E+00  0.00000000000E+00  0.13280750618E+02  0.12078725070E+04  0.12077994928E+04 0.  0.
        4    1    3    3  502    0 -0.13871940002E+03  0.85795312301E+02 -0.57484931593E+03  0.59754268172E+03  0.12699999809E+01 0. -1.
       -4    1    3    3    0  502  0.13871940002E+03 -0.85795312301E+02  0.58813006655E+03  0.61032982529E+03  0.12699999809E+01 0.  1.
</event>
<event>
 5   0  0.3650180E-03  0.1198939E+04  0.7818609E-02  0.9113785E-01
        2   -1    0    0  501    0  0.00000000000E+00  0.00000000000E+00  0.48009421758E+03  0.48009421758E+03  0.25500000920E-02 0.  1.
       -2   -1    0    0    0  501  0.00000000000E+00  0.00000000000E+00 -0.74852776108E+03  0.74852776108E+03  0.25500000920E-02 0. -1.
    10030    2    1    2    0    0  0.00000000000E+00  0.00000000000E+00 -0.26843354350E+03  0.12286219787E+04  0.11989392809E+04 0.  0.
        3    1    3    3  502    0  0.14715732457E+03  0.50551754501E+03  0.15951628233E+03  0.55013518431E+03  0.10100000352E+00 0.  1.
       -3    1    3    3    0  502 -0.14715732457E+03 -0.50551754501E+03 -0.42794982583E+03  0.67848679436E+03  0.10100000352E+00 0. -1.
</event>
<event>
 5   0  0.1397500E-03  0.1205441E+04  0.7818609E-02  0.9108108E-01
        3   -1    0    0  501    0  0.00000000000E+00  0.00000000000E+00  0.58226600006E+03  0.58226600882E+03  0.10100000352E+00 0. -1.
       -3   -1    0    0    0  501  0.00000000000E+00  0.00000000000E+00 -0.62389315878E+03  0.62389316695E+03  0.10100000352E+00 0.  1.
    10030    2    1    2    0    0  0.00000000000E+00  0.00000000000E+00 -0.41627158717E+02  0.12061591758E+04  0.12054406402E+04 0.  0.
        4    1    3    3  502    0 -0.45273444285E+03  0.51322689878E+02 -0.41559619334E+03  0.61670438871E+03  0.12699999809E+01 0.  1.
       -4    1    3    3    0  502  0.45273444285E+03 -0.51322689878E+02  0.37396903462E+03  0.58945478706E+03  0.12699999809E+01 0. -1.
</event>
<event>
 5   0  0.3706035E-03  0.1196024E+04  0.7818609E-02  0.9116344E-01
        2   -1    0    0  501    0  0.00000000000E+00  0.00000000000E+00  0.68367673851E+03  0.68367673852E+03  0.25500000920E-02 0.  1.
       -2   -1    0    0    0  501  0.00000000000E+00  0.00000000000E+00 -0.52308114032E+03  0.52308114033E+03  0.25500000920E-02 0. -1.
    10030    2    1    2    0    0  0.00000000000E+00  0.00000000000E+00  0.16059559819E+03  0.12067578788E+04  0.11960240934E+04 0.  0.
        2    1    3    3  502    0 -0.49211582315E+03  0.32785258991E+03 -0.96827299295E+01  0.59140431126E+03  0.25500000920E-02 0.  1.
       -2    1    3    3    0  502  0.49211582315E+03 -0.32785258991E+03  0.17027832812E+03  0.61535356759E+03  0.25500000920E-02 0. -1.
</event>
<event>
 5   0  0.3725376E-03  0.1202098E+04  0.7818609E-02  0.9111022E-01
        2   -1    0    0  501    0  0.00000000000E+00  0.00000000000E+00  0.58589451727E+03  0.58589451728E+03  0.25500000920E-02 0. -1.
       -2   -1    0    0    0  501  0.00000000000E+00  0.00000000000E+00 -0.61659545483E+03  0.61659545484E+03  0.25500000920E-02 0.  1.
    10030    2    1    2    0    0  0.00000000000E+00  0.00000000000E+00 -0.30700937558E+02  0.12024899721E+04  0.12020979933E+04 0.  0.
        4    1    3    3  502    0 -0.37243660244E+03 -0.22600472188E+03 -0.42957621737E+03  0.61182064086E+03  0.12699999809E+01 0.  1.
       -4    1    3    3    0  502  0.37243660244E+03  0.22600472188E+03  0.39887527981E+03  0.59066933126E+03  0.12699999809E+01 0. -1.
</event>
<event>
 5   0  0.2047109E-03  0.1210581E+04  0.7818609E-02  0.9103645E-01
       -1   -1    0    0    0  501  0.00000000000E+00  0.00000000000E+00  0.71803296022E+03  0.71803296023E+03  0.50400001928E-02 0. -1.
        1   -1    0    0  501    0  0.00000000000E+00  0.00000000000E+00 -0.51025057278E+03  0.51025057280E+03  0.50400001928E-02 0.  1.
    10030    2    1    2    0    0  0.00000000000E+00  0.00000000000E+00  0.20778238744E+03  0.12282835330E+04  0.12105812311E+04 0.  0.
        1    1    3    3  502    0  0.32461140422E+03 -0.37829540812E+03 -0.24449072705E+03  0.55520779460E+03  0.50400001928E-02 0.  1.
       -1    1    3    3    0  502 -0.32461140422E+03  0.37829540812E+03  0.45227311449E+03  0.67307573843E+03  0.50400001928E-02 0. -1.
</event>
<event>
 5   0  0.3706035E-03  0.1222094E+04  0.7818609E-02  0.9093735E-01
        2   -1    0    0  501    0  0.00000000000E+00  0.00000000000E+00  0.13595767894E+04  0.13595767894E+04  0.25500000920E-02 0.  1.
       -2   -1    0    0    0  501  0.00000000000E+00  0.00000000000E+00 -0.27462831870E+03  0.27462831872E+03  0.25500000920E-02 0. -1.
    10030    2    1    2    0    0  0.00000000000E+00  0.00000000000E+00  0.10849484707E+04  0.16342051081E+04  0.12220937572E+04 0.  0.
        2    1    3    3  502    0  0.48518714416E+03  0.30142836448E+03  0.83272332709E+03  0.10097988727E+04  0.25500000920E-02 0. -1.
       -2    1    3    3    0  502 -0.48518714416E+03 -0.30142836448E+03  0.25222514358E+03  0.62440623542E+03  0.25500000920E-02 0.  1.
</event>
<event>
 5   0  0.2025294E-03  0.1201106E+04  0.7818609E-02  0.9111889E-01
       -1   -1    0    0    0  501  0.00000000000E+00  0.00000000000E+00  0.52960528284E+03  0.52960528287E+03  0.50400001928E-02 0.  1.
        1   -1    0    0  501    0  0.00000000000E+00  0.00000000000E+00 -0.68100478570E+03  0.68100478572E+03  0.50400001928E-02 0. -1.
    10030    2    1    2    0    0  0.00000000000E+00  0.00000000000E+00 -0.15139950286E+03  0.12106100686E+04  0.12011057109E+04 0.  0.
        5    1    3    3  502    0  0.31645133215E+03 -0.44713952066E+03 -0.32374967268E+03  0.63632628196E+03  0.46999998093E+01 0. -1.
       -5    1    3    3    0  502 -0.31645133215E+03  0.44713952066E+03  0.17235016982E+03  0.57428378663E+03  0.46999998093E+01 0.  1.
</event>
<event>
 5   0  0.1397500E-03  0.1189826E+04  0.7818609E-02  0.9121809E-01
        3   -1    0    0  501    0  0.00000000000E+00  0.00000000000E+00  0.13211372611E+04  0.13211372650E+04  0.10100000352E+00 0.  1.
       -3   -1    0    0    0  501  0.00000000000E+00  0.00000000000E+00 -0.26789137327E+03  0.26789139231E+03  0.10100000352E+00 0. -1.
    10030    2    1    2    0    0  0.00000000000E+00  0.00000000000E+00  0.10532458879E+04  0.15890286573E+04  0.11898256904E+04 0.  0.
        5    1    3    3  502    0 -0.21017428737E+03 -0.53208720467E+03  0.30876965317E+03  0.65011599978E+03  0.46999998093E+01 0. -1.
       -5    1    3    3    0  502  0.21017428737E+03  0.53208720467E+03  0.74447623469E+03  0.93891265753E+03  0.46999998093E+01 0.  1.
</event>
<event>
 5   0  0.2078258E-03  0.1214783E+04  0.7818609E-02  0.9100015E-01
        1   -1    0    0  501    0  0.00000000000E+00  0.00000000000E+00  0.14297372728E+04  0.14297372728E+04  0.50400001928E-02 0. -1.
       -1   -1    0    0    0  501  0.00000000000E+00  0.00000000000E+00 -0.25803639137E+03  0.25803639142E+03  0.50400001928E-02 0.  1.
    10030    2    1    2    0    0  0.00000000000E+00  0.00000000000E+00  0.11717008814E+04  0.16877736642E+04  0.12147826909E+04 0.  0.
        3    1    3    3  502    0 -0.39890932543E+03 -0.44882724276E+03  0.45889513563E+03  0.75575081837E+03  0.10100000352E+00 0.  1.
       -3    1    3    3    0  502  0.39890932543E+03  0.44882724276E+03  0.71280574578E+03  0.93202284584E+03  0.10100000352E+00 0. -1.
</event>
<event>
 5   0  0.3751091E-03  0.1222987E+04  0.7818609E-02  0.9092971E-01
       -2   -1    0    0    0  501  0.00000000000E+00  0.00000000000E+00  0.31166815002E+03  0.31166815003E+03  0.25500000920E-02 0. -1.
        2   -1    0    0  501    0  0.00000000000E+00  0.00000000000E+00 -0.11997507512E+04  0.11997507512E+04  0.25500000920E-02 0.  1.
    10030    2    1    2    0    0  0.00000000000E+00  0.00000000000E+00 -0.88808260117E+03  0.15114189012E+04  0.12229866673E+04 0.  0.
        5    1    3    3  502    0  0.24060820931E+03  0.29348699393E+02  0.24973689383E+03  0.34805784388E+03  0.46999998093E+01 0. -1.
       -5    1    3    3    0  502 -0.24060820931E+03 -0.29348699393E+02 -0.11378194950E+04  0.11633610573E+04  0.46999998093E+01 0.  1.
</event>
<event>
 5   0  0.2025294E-03  0.1179656E+04  0.7818609E-02  0.9130852E-01
       -1   -1    0    0    0  501  0.00000000000E+00  0.00000000000E+00  0.30981994305E+03  0.30981994309E+03  0.50400001928E-02 0.  1.
        1   -1    0    0  501    0  0.00000000000E+00  0.00000000000E+00 -0.11229010881E+04  0.11229010881E+04  0.50400001928E-02 0. -1.
    10030    2    1    2    0    0  0.00000000000E+00  0.00000000000E+00 -0.81308114505E+03  0.14327210312E+04  0.11796561384E+04 0.  0.
        5    1    3    3  502    0  0.18288536190E+03 -0.28684304940E+03 -0.99172084767E+03  0.10484552066E+04  0.46999998093E+01 0. -1.
       -5    1    3    3    0  502 -0.18288536190E+03  0.28684304940E+03  0.17863970262E+03  0.38426582458E+03  0.46999998093E+01 0.  1.
</event>
<event>
 5   0  0.3650180E-03  0.1198949E+04  0.7818609E-02  0.9113777E-01
       -2   -1    0    0    0  501  0.00000000000E+00  0.00000000000E+00  0.34129788815E+03  0.34129788816E+03  0.25500000920E-02 0.  1.
        2   -1    0    0  501    0  0.00000000000E+00  0.00000000000E+00 -0.10529505977E+04  0.10529505977E+04  0.25500000920E-02 0. -1.
    10030    2    1    2    0    0  0.00000000000E+00  0.00000000000E+00 -0.71165270954E+03  0.13942484859E+04  0.11989492322E+04 0.  0.
        3    1    3    3  502    0 -0.53086319269E+03  0.25570387761E+03 -0.22754084962E+03  0.63164471883E+03  0.10100000352E+00 0.  1.
       -3    1    3    3    0  502  0.53086319269E+03 -0.25570387761E+03 -0.48411185991E+03  0.76260376703E+03  0.10100000352E+00 0. -1.
</event>
<event>
 5   0  0.2047109E-03  0.1213494E+04  0.7818609E-02  0.9101127E-01
        1   -1    0    0  501    0  0.00000000000E+00  0.00000000000E+00  0.11368850346E+04  0.11368850346E+04  0.50400001928E-02 0.  1.
       -1   -1    0    0    0  501  0.00000000000E+00  0.00000000000E+00 -0.32381623944E+03  0.32381623948E+03  0.50400001928E-02 0. -1.
    10030    2    1    2    0    0  0.00000000000E+00  0.00000000000E+00  0.81306879512E+03  0.14607012741E+04  0.12134938592E+04 0.  0.
        1    1    3    3  502    0  0.13218299842E+02  0.37103257517E+02 -0.32227574073E+03  0.32467372585E+03  0.50400001928E-02 0. -1.
       -1    1    3    3    0  502 -0.13218299842E+02 -0.37103257517E+02  0.11353445359E+04  0.11360275482E+04  0.50400001928E-02 0.  1.
</event>
<event>
 5   0  0.2025294E-03  0.1218880E+04  0.7818609E-02  0.9096490E-01
        1   -1    0    0  501    0  0.00000000000E+00  0.00000000000E+00  0.61958780693E+03  0.61958780695E+03  0.50400001928E-02 0.  1.
       -1   -1    0    0    0  501  0.00000000000E+00  0.00000000000E+00 -0.59945842073E+03  0.59945842075E+03  0.50400001928E-02 0. -1.
    10030    2    1    2    0    0  0.00000000000E+00  0.00000000000E+00  0.20129386197E+02  0.12190462277E+04  0.12188800241E+04 0.  0.
        5    1    3    3  502    0  0.19863435349E+03 -0.13959734050E+03 -0.54898560041E+03  0.60029184845E+03  0.46999998093E+01 0. -1.
       -5    1    3    3    0  502 -0.19863435349E+03  0.13959734050E+03  0.56911498661E+03  0.61875437925E+03  0.46999998093E+01 0.  1.
</event>
<event>
 5   0  0.3650180E-03  0.1207061E+04  0.7818609E-02  0.9106698E-01
       -2   -1    0    0    0  501  0.00000000000E+00  0.00000000000E+00  0.16624426027E+03  0.16624426029E+03  0.25500000920E-02 0.  1.
        2   -1    0    0  501    0  0.00000000000E+00  0.00000000000E+00 -0.21910478864E+04  0.21910478864E+04  0.25500000920E-02 0. -1.
    10030    2    1    2    0    0  0.00000000000E+00  0.00000000000E+00 -0.20248036262E+04  0.23572921467E+04  0.12070611171E+04 0.  0.
        3    1    3    3  502    0  0.55446221192E+03  0.11383638626E+02 -0.54741359572E+03  0.77924295740E+03  0.10100000352E+00 0.  1.
       -3    1    3    3    0  502 -0.55446221192E+03 -0.11383638626E+02 -0.14773900304E+04  0.15780491893E+04  0.10100000352E+00 0. -1.
</event>
<event>
 5   0  0.3751091E-03  0.1200896E+04  0.7818609E-02  0.9112073E-01
        2   -1    0    0  501    0  0.00000000000E+00  0.00000000000E+00  0.11323355060E+04  0.11323355060E+04  0.25500000920E-02 0.  1.
       -2   -1    0    0    0  501  0.00000000000E+00  0.00000000000E+00 -0.31840184432E+03  0.31840184433E+03  0.25500000920E-02 0. -1.
    10030    2    1    2    0    0  0.00000000000E+00  0.00000000000E+00  0.81393366166E+03  0.14507373503E+04  0.12008958548E+04 0.  0.
        5    1    3    3  502    0 -0.33383634016E+03 -0.38776944079E+03  0.27433130967E+02  0.51243195440E+03  0.46999998093E+01 0. -1.
       -5    1    3    3    0  502  0.33383634016E+03  0.38776944079E+03  0.78650053069E+03  0.93830539591E+03  0.46999998093E+01 0.  1.
</event>
<event>
 5   0  0.3751091E-03  0.1196547E+04  0.7818609E-02  0.9115884E-01
        2   -1    0    0  501    0  0.00000000000E+00  0.00000000000E+00  0.13969322924E+04  0.13969322924E+04  0.25500000920E-02 0. -1.
       -2   -1    0    0    0  501  0.00000000000E+00  0.00000000000E+00 -0.25622663136E+03  0.25622663137E+03  0.25500000920E-02 0.  1.
    10030    2    1    2    0    0  0.00000000000E+00  0.00000000000E+00  0.11407056610E+04  0.16531589237E+04  0.11965471249E+04 0.  0.
        5    1    3    3  502    0 -0.41838514403E+03 -0.38156283601E+03  0.83708846231E+03  0.10106312435E+04  0.46999998093E+01 0.  1.
       -5    1    3    3    0  502  0.41838514403E+03  0.38156283601E+03  0.30361719869E+03  0.64252768026E+03  0.46999998093E+01 0. -1.
</event>
<event>
 5   0  0.2134992E-03  0.1220890E+04  0.7818609E-02  0.9094766E-01
        1   -1    0    0  501    0  0.00000000000E+00  0.00000000000E+00  0.89033918989E+03  0.89033918990E+03  0.50400001928E-02 0.  1.
       -1   -1    0    0    0  501  0.00000000000E+00  0.00000000000E+00 -0.41854038890E+03  0.41854038893E+03  0.50400001928E-02 0. -1.
    10030    2    1    2    0    0  0.00000000000E+00  0.00000000000E+00  0.47179880099E+03  0.13088795788E+04  0.12208896933E+04 0.  0.
        4    1    3    3  502    0  0.50881090927E+03  0.20840628269E+03 -0.48390474066E+02  0.55196464646E+03  0.12699999809E+01 0. -1.
       -4    1    3    3    0  502 -0.50881090927E+03 -0.20840628269E+03  0.52018927505E+03  0.75691493237E+03  0.12699999809E+01 0.  1.
</event>
<event>
 5   0  0.2025294E-03  0.1187671E+04  0.7818609E-02  0.9123717E-01
        1   -1    0    0  501    0  0.00000000000E+00  0.00000000000E+00  0.78159835812E+03  0.78159835813E+03  0.50400001928E-02 0. -1.
       -1   -1    0    0    0  501  0.00000000000E+00  0.00000000000E+00 -0.45117892605E+03  0.45117892608E+03  0.50400001928E-02 0.  1.
    10030    2    1    2    0    0  0.00000000000E+00  0.00000000000E+00  0.33041943207E+03  0.12327772842E+04  0.11876711798E+04 0.  0.
        5    1    3    3  502    0 -0.11870030171E+03  0.55257662432E+03 -0.23884607168E+02  0.56570597649E+03  0.46999998093E+01 0.  1.
       -5    1    3    3    0  502  0.11870030171E+03 -0.55257662432E+03  0.35430403923E+03  0.66707130773E+03  0.46999998093E+01 0. -1.
</event>
<event>
 5   0  0.2134992E-03  0.1085260E+04  0.7818609E-02  0.9219679E-01
       -1   -1    0    0    0  501  0.00000000000E+00  0.00000000000E+00  0.17129530181E+03  0.17129530189E+03  0.50400001928E-02 0. -1.
        1   -1    0    0  501    0  0.00000000000E+00  0.00000000000E+00 -0.17189460797E+04  0.17189460797E+04  0.50400001928E-02 0.  1.
    10030    2    1    2    0    0  0.00000000000E+00  0.00000000000E+00 -0.15476507778E+04  0.18902413815E+04  0.10852601303E+04 0.  0.
        4    1    3    3  502    0  0.24681491102E+02  0.10761572901E+03  0.15152154245E+03  0.18748523104E+03  0.12699999809E+01 0. -1.
       -4    1    3    3    0  502 -0.24681491102E+02 -0.10761572901E+03 -0.16991723203E+04  0.17027561505E+04  0.12699999809E+01 0.  1.
</event>
<event>
 5   0  0.2078258E-03  0.1182179E+04  0.7818609E-02  0.9128600E-01
        1   -1    0    0  501    0  0.00000000000E+00  0.00000000000E+00  0.34750577478E+03  0.34750577481E+03  0.50400001928E-02 0. -1.
       -1   -1    0    0    0  501  0.00000000000E+00  0.00000000000E+00 -0.10054122040E+04  0.10054122040E+04  0.50400001928E-02 0.  1.
    10030    2    1    2    0    0  0.00000000000E+00  0.00000000000E+00 -0.65790642923E+03  0.13529179788E+04  0.11821785770E+04 0.  0.
        3    1    3    3  502    0 -0.37686098373E+03  0.43513202563E+03 -0.48259005593E+03  0.75117058853E+03  0.10100000352E+00 0. -1.
       -3    1    3    3    0  502  0.37686098373E+03 -0.43513202563E+03 -0.17531637330E+03  0.60174739030E+03  0.10100000352E+00 0.  1.
</event>
<event>
 5   0  0.2134992E-03  0.1177781E+04  0.7818609E-02  0.9132530E-01
       -1   -1    0    0    0  501  0.00000000000E+00  0.00000000000E+00  0.54111034799E+03  0.54111034801E+03  0.50400001928E-02 0. -1.
        1   -1    0    0  501    0  0.00000000000E+00  0.00000000000E+00 -0.64088962759E+03  0.64088962761E+03  0.50400001928E-02 0.  1.
    10030    2    1    2    0    0  0.00000000000E+00  0.00000000000E+00 -0.99779279602E+02  0.11819999756E+04  0.11777809804E+04 0.  0.
        4    1    3    3  502    0  0.55233237421E+03 -0.19928973103E+03 -0.49750153230E+01  0.58720849123E+03  0.12699999809E+01 0. -1.
       -4    1    3    3    0  502 -0.55233237421E+03  0.19928973103E+03 -0.94804264279E+02  0.59479148440E+03  0.12699999809E+01 0.  1.
</event>
<event>
 5   0  0.3650180E-03  0.1166665E+04  0.7818609E-02  0.9142546E-01
       -2   -1    0    0    0  501  0.00000000000E+00  0.00000000000E+00  0.20231976083E+03  0.20231976084E+03  0.25500000920E-02 0.  1.
        2   -1    0    0  501    0  0.00000000000E+00  0.00000000000E+00 -0.16818754407E+04  0.16818754407E+04  0.25500000920E-02 0. -1.
    10030    2    1    2    0    0  0.00000000000E+00  0.00000000000E+00 -0.14795556799E+04  0.18841952015E+04  0.11666647109E+04 0.  0.
        3    1    3    3  502    0 -0.12197967569E+03 -0.27491807812E+03 -0.15469968459E+04  0.15759626399E+04  0.10100000352E+00 0. -1.
       -3    1    3    3    0  502  0.12197967569E+03  0.27491807812E+03  0.67441166049E+02  0.30823256161E+03  0.10100000352E+00 0.  1.
</event>
<event>
 5   0  0.3751091E-03  0.1219907E+04  0.7818609E-02  0.9095608E-01
       -2   -1    0    0    0  501  0.00000000000E+00  0.00000000000E+00  0.52029851403E+03  0.52029851404E+03  0.25500000920E-02 0. -1.
        2   -1    0    0  501    0  0.00000000000E+00  0.00000000000E+00 -0.71505712408E+03  0.71505712409E+03  0.25500000920E-02 0.  1.
    10030    2    1    2    0    0  0.00000000000E+00  0.00000000000E+00 -0.19475861005E+03  0.12353556381E+04  0.12199068147E+04 0.  0.
        5    1    3    3  502    0  0.27305635765E+03 -0.24069570991E+03 -0.59299204763E+03  0.69581309112E+03  0.46999998093E+01 0.  1.
       -5    1    3    3    0  502 -0.27305635765E+03  0.24069570991E+03  0.39823343758E+03  0.53954254700E+03  0.46999998093E+01 0. -1.
</event>
<event>
 5   0  0.3751091E-03  0.1190114E+04  0.7818609E-02  0.9121554E-01
        2   -1    0    0  501    0  0.00000000000E+00  0.00000000000E+00  0.35320405510E+03  0.35320405511E+03  0.25500000920E-02 0. -1.
       -2   -1    0    0    0  501  0.00000000000E+00  0.00000000000E+00 -0.10025163991E+04  0.10025163991E+04  0.25500000920E-02 0.  1.
    10030    2    1    2    0    0  0.00000000000E+00  0.00000000000E+00 -0.64931234404E+03  0.13557204542E+04  0.11901140407E+04 0.  0.
        5    1    3    3  502    0  0.58907965504E+03 -0.72966143664E+02 -0.27724953612E+03  0.65515516740E+03  0.46999998093E+01 0. -1.
       -5    1    3    3    0  502 -0.58907965504E+03  0.72966143664E+02 -0.37206280792E+03  0.70056528685E+03  0.46999998093E+01 0.  1.
</event>
<event>
 5   0  0.2047109E-03  0.1211526E+04  0.7818609E-02  0.9102827E-01
        1   -1    0    0  501    0  0.00000000000E+00  0.00000000000E+00  0.90705199792E+03  0.90705199794E+03  0.50400001928E-02 0. -1.
       -1   -1    0    0    0  501  0.00000000000E+00  0.00000000000E+00 -0.40455116847E+03  0.40455116850E+03  0.50400001928E-02 0.  1.
    10030    2    1    2    0    0  0.00000000000E+00  0.00000000000E+00  0.50250082945E+03  0.13116031664E+04  0.12115262204E+04 0.  0.
        1    1    3    3  502    0  0.13906446760E+03 -0.58204945420E+03  0.14952910880E+03  0.61683016114E+03  0.50400001928E-02 0. -1.
       -1    1    3    3    0  502 -0.13906446760E+03  0.58204945420E+03  0.35297172065E+03  0.69477300530E+03  0.50400001928E-02 0.  1.
</event>
<event>
 5   0  0.3626049E-03  0.1184306E+04  0.7818609E-02  0.9126705E-01
       -2   -1    0    0    0  501  0.00000000000E+00  0.00000000000E+00  0.68579852849E+03  0.68579852849E+03  0.25500000920E-02 0. -1.
        2   -1    0    0  501    0  0.00000000000E+00  0.00000000000E+00 -0.51129503891E+03  0.51129503891E+03  0.25500000920E-02 0.  1.
    10030    2    1    2    0    0  0.00000000000E+00  0.00000000000E+00  0.17450348958E+03  0.11970935674E+04  0.11843063545E+04 0.  0.
        1    1    3    3  502    0  0.37543029832E+03 -0.38743455930E+03  0.33400210463E+03  0.63451623506E+03  0.50400001928E-02 0. -1.
       -1    1    3    3    0  502 -0.37543029832E+03  0.38743455930E+03 -0.15949861505E+03  0.56257733234E+03  0.50400001928E-02 0.  1.
</event>
<event>
 5   0  0.3626049E-03  0.1206254E+04  0.7818609E-02  0.9107400E-01
        2   -1    0    0  501    0  0.00000000000E+00  0.00000000000E+00  0.93320105979E+03  0.93320105979E+03  0.25500000920E-02 0. -1.
       -2   -1    0    0    0  501  0.00000000000E+00  0.00000000000E+00 -0.38980041978E+03  0.38980041979E+03  0.25500000920E-02 0.  1.
    10030    2    1    2    0    0  0.00000000000E+00  0.00000000000E+00  0.54340064000E+03  0.13230014796E+04  0.12062539780E+04 0.  0.
        1    1    3    3  502    0  0.21826184635E+03  0.26543246946E+03  0.81532256981E+03  0.88478444962E+03  0.50400001928E-02 0. -1.
       -1    1    3    3    0  502 -0.21826184635E+03 -0.26543246946E+03 -0.27192192981E+03  0.43821702997E+03  0.50400001928E-02 0.  1.
</event>
<event>
 5   0  0.2078258E-03  0.1180338E+04  0.7818609E-02  0.9130242E-01
        1   -1    0    0  501    0  0.00000000000E+00  0.00000000000E+00  0.85964316810E+03  0.85964316811E+03  0.50400001928E-02 0.  1.
       -1   -1    0    0    0  501  0.00000000000E+00  0.00000000000E+00 -0.40516780648E+03  0.40516780651E+03  0.50400001928E-02 0. -1.
    10030    2    1    2    0    0  0.00000000000E+00  0.00000000000E+00  0.45447536162E+03  0.12648109746E+04  0.11803384884E+04 0.  0.
        3    1    3    3  502    0 -0.26934125933E+03 -0.17064662513E+03 -0.30492716598E+03  0.44118654943E+03  0.10100000352E+00 0. -1.
       -3    1    3    3    0  502  0.26934125933E+03  0.17064662513E+03  0.75940252760E+03  0.82362442519E+03  0.10100000352E+00 0.  1.
</event>
<event>
 5   0  0.3725376E-03  0.1193480E+04  0.7818609E-02  0.9118582E-01
        2   -1    0    0  501    0  0.00000000000E+00  0.00000000000E+00  0.73567120761E+03  0.73567120762E+03  0.25500000920E-02 0. -1.
       -2   -1    0    0    0  501  0.00000000000E+00  0.00000000000E+00 -0.48404608033E+03  0.48404608034E+03  0.25500000920E-02 0.  1.
    10030    2    1    2    0    0  0.00000000000E+00  0.00000000000E+00  0.25162512728E+03  0.12197172880E+04  0.11934802294E+04 0.  0.
        4    1    3    3  502    0  0.77957918721E+02 -0.57811287212E+03 -0.26700150719E+01  0.58335295652E+03  0.12699999809E+01 0.  1.
       -4    1    3    3    0  502 -0.77957918721E+02  0.57811287212E+03  0.25429514235E+03  0.63636433143E+03  0.12699999809E+01 0. -1.
</event>
<event>
 5   0  0.2096270E-03  0.1190064E+04  0.7818609E-02  0.9121598E-01
       -1   -1    0    0    0  501  0.00000000000E+00  0.00000000000E+00  0.10226760927E+04  0.10226760927E+04  0.50400001928E-02 0. -1.
        1   -1    0    0  501    0  0.00000000000E+00  0.00000000000E+00 -0.34621235217E+03  0.34621235220E+03  0.50400001928E-02 0.  1.
    10030    2    1    2    0    0  0.00000000000E+00  0.00000000000E+00  0.67646374052E+03  0.13688884449E+04  0.11900640245E+04 0.  0.
        2    1    3    3  502    0  0.22603631831E+03 -0.48682380733E+03  0.63368030940E+03  0.83044600734E+03  0.25500000920E-02 0.  1.
       -2    1    3    3    0  502 -0.22603631831E+03  0.48682380733E+03  0.42783431117E+02  0.53844243756E+03  0.25500000920E-02 0. -1.
</event>
<event>
 5   0  0.3706035E-03  0.1189614E+04  0.7818609E-02  0.9121997E-01
       -2   -1    0    0    0  501  0.00000000000E+00  0.00000000000E+00  0.22377630839E+03  0.22377630841E+03  0.25500000920E-02 0. -1.
        2   -1    0    0  501    0  0.00000000000E+00  0.00000000000E+00 -0.15810213429E+04  0.15810213429E+04  0.25500000920E-02 0.  1.
    10030    2    1    2    0    0  0.00000000000E+00  0.00000000000E+00 -0.13572450345E+04  0.18047976513E+04  0.11896135837E+04 0.  0.
        2    1    3    3  502    0 -0.30049314919E+03  0.49288461629E+03 -0.89617982455E+03  0.10660064051E+04  0.25500000920E-02 0.  1.
       -2    1    3    3    0  502  0.30049314919E+03 -0.49288461629E+03 -0.46106520992E+03  0.73879124621E+03  0.25500000920E-02 0. -1.
</event>
<event>
 5   0  0.2047109E-03  0.1208577E+04  0.7818609E-02  0.9105382E-01
        1   -1    0    0  501    0  0.00000000000E+00  0.00000000000E+00  0.77634395631E+03  0.77634395633E+03  0.50400001928E-02 0.  1.
       -1   -1    0    0    0  501  0.00000000000E+00  0.00000000000E+00 -0.47036417102E+03  0.47036417104E+03  0.50400001928E-02 0. -1.
    10030    2    1    2    0    0  0.00000000000E+00  0.00000000000E+00  0.30597978529E+03  0.12467081274E+04  0.12085766529E+04 0.  0.
        1    1    3    3  502    0  0.17248188264E+03  0.32226524383E+03  0.64937859265E+03  0.74518282578E+03  0.50400001928E-02 0.  1.
       -1    1    3    3    0  502 -0.17248188264E+03 -0.32226524383E+03 -0.34339880736E+03  0.50152530159E+03  0.50400001928E-02 0. -1.
</event>
<event>
 5   0  0.3706035E-03  0.1189735E+04  0.7818609E-02  0.9121889E-01
        2   -1    0    0  501    0  0.00000000000E+00  0.00000000000E+00  0.62151030986E+03  0.62151030987E+03  0.25500000920E-02 0.  1.
       -2   -1    0    0    0  501  0.00000000000E+00  0.00000000000E+00 -0.56936722744E+03  0.56936722745E+03  0.25500000920E-02 0. -1.
    10030    2    1    2    0    0  0.00000000000E+00  0.00000000000E+00  0.52143082419E+02  0.11908775373E+04  0.11897354361E+04 0.  0.
        2    1    3    3  502    0 -0.49492682462E+03  0.18693539501E+03 -0.24616417229E+03  0.58351881148E+03  0.25500000920E-02 0. -1.
       -2    1    3    3    0  502  0.49492682462E+03 -0.18693539501E+03  0.29830725471E+03  0.60735872584E+03  0.25500000920E-02 0.  1.
</event>
<event>
 5   0  0.3751091E-03  0.1179268E+04  0.7818609E-02  0.9131199E-01
        2   -1    0    0  501    0  0.00000000000E+00  0.00000000000E+00  0.55605184902E+03  0.55605184902E+03  0.25500000920E-02 0. -1.
       -2   -1    0    0    0  501  0.00000000000E+00  0.00000000000E+00 -0.62524456062E+03  0.62524456063E+03  0.25500000920E-02 0.  1.
    10030    2    1    2    0    0  0.00000000000E+00  0.00000000000E+00 -0.69192711604E+02  0.11812964096E+04  0.11792682376E+04 0.  0.
        5    1    3    3  502    0  0.16518554562E+02 -0.46604795072E+03 -0.39601147854E+03  0.61181756770E+03  0.46999998093E+01 0.  1.
       -5    1    3    3    0  502 -0.16518554562E+02  0.46604795072E+03  0.32681876693E+03  0.56947884195E+03  0.46999998093E+01 0. -1.
</event>
<event>
 5   0  0.3751091E-03  0.1199749E+04  0.7818609E-02  0.9113076E-01
       -2   -1    0    0    0  501  0.00000000000E+00  0.00000000000E+00  0.73708217328E+03  0.73708217329E+03  0.25500000920E-02 0.  1.
        2   -1    0    0  501    0  0.00000000000E+00  0.00000000000E+00 -0.48820829251E+03  0.48820829251E+03  0.25500000920E-02 0. -1.
    10030    2    1    2    0    0  0.00000000000E+00  0.00000000000E+00  0.24887388078E+03  0.12252904658E+04  0.11997493559E+04 0.  0.
        5    1    3    3  502    0  0.19164552849E+03  0.30724623659E+03 -0.36396898944E+03  0.51344305795E+03  0.46999998093E+01 0. -1.
       -5    1    3    3    0  502 -0.19164552849E+03 -0.30724623659E+03  0.61284287022E+03  0.71184740785E+03  0.46999998093E+01 0.  1.
</event>
<event>
 5   0  0.1397500E-03  0.1205484E+04  0.7818609E-02  0.9108070E-01
        4   -1    0    0  501    0  0.00000000000E+00  0.00000000000E+00  0.11862699348E+04  0.11862706147E+04  0.12699999809E+01 0. -1.
       -4   -1    0    0    0  501  0.00000000000E+00  0.00000000000E+00 -0.30625031351E+03  0.30625294681E+03  0.12699999809E+01 0.  1.
    10030    2    1    2    0    0  0.00000000000E+00  0.00000000000E+00  0.88001962133E+03  0.14925235615E+04  0.12054841549E+04 0.  0.
        4    1    3    3  502    0 -0.57390611755E+03 -0.18318839133E+03  0.41618845506E+03  0.73221626689E+03  0.12699999809E+01 0.  1.
       -4    1    3    3    0  502  0.57390611755E+03  0.18318839133E+03  0.46383116627E+03  0.76030729457E+03  0.12699999809E+01 0. -1.
</event>
<event>
 5   0  0.2047109E-03  0.1217873E+04  0.7818609E-02  0.9097355E-01
        1   -1    0    0  501    0  0.00000000000E+00  0.00000000000E+00  0.92565954415E+03  0.92565954417E+03  0.50400001928E-02 0. -1.
       -1   -1    0    0    0  501  0.00000000000E+00  0.00000000000E+00 -0.40058306530E+03  0.40058306533E+03  0.50400001928E-02 0.  1.
    10030    2    1    2    0    0  0.00000000000E+00  0.00000000000E+00  0.52507647885E+03  0.13262426095E+04  0.12178727974E+04 0.  0.
        1    1    3    3  502    0  0.46433232192E+03 -0.32647068425E+03  0.50264828069E+03  0.75818395325E+03  0.50400001928E-02 0. -1.
       -1    1    3    3    0  502 -0.46433232192E+03  0.32647068425E+03  0.22428198156E+02  0.56805865626E+03  0.50400001928E-02 0.  1.
</event>
<event>
 5   0  0.2078258E-03  0.1217023E+04  0.7818609E-02  0.9098086E-01
       -1   -1    0    0    0  501  0.00000000000E+00  0.00000000000E+00  0.48803660491E+03  0.48803660493E+03  0.50400001928E-02 0.  1.
        1   -1    0    0  501    0  0.00000000000E+00  0.00000000000E+00 -0.75872623214E+03  0.75872623215E+03  0.50400001928E-02 0. -1.
    10030    2    1    2    0    0  0.00000000000E+00  0.00000000000E+00 -0.27068962723E+03  0.12467628371E+04  0.12170228830E+04 0.  0.
        3    1    3    3  502    0  0.14709930623E+03  0.57579697827E+03 -0.13596299805E+01  0.59429136362E+03  0.10100000352E+00 0. -1.
       -3    1    3    3    0  502 -0.14709930623E+03 -0.57579697827E+03 -0.26932999725E+03  0.65247147347E+03  0.10100000352E+00 0.  1.
</event>
<event>
 5   0  0.2078258E-03  0.1197185E+04  0.7818609E-02  0.9115324E-01
       -1   -1    0    0    0  501  0.00000000000E+00  0.00000000000E+00  0.25238329181E+03  0.25238329186E+03  0.50400001928E-02 0.  1.
        1   -1    0    0  501    0  0.00000000000E+00  0.00000000000E+00 -0.14197165326E+04  0.14197165326E+04  0.50400001928E-02 0. -1.
    10030    2    1    2    0    0  0.00000000000E+00  0.00000000000E+00 -0.11673332408E+04  0.16720998245E+04  0.11971845839E+04 0.  0.
        3    1    3    3  502    0 -0.32227512293E+03  0.11366661876E+02  0.12069109744E+03  0.34432079093E+03  0.10100000352E+00 0. -1.
       -3    1    3    3    0  502  0.32227512293E+03 -0.11366661876E+02 -0.12880243382E+04  0.13277790336E+04  0.10100000352E+00 0.  1.
</event>
<event>
 5   0  0.3626049E-03  0.1205227E+04  0.7818609E-02  0.9108293E-01
       -2   -1    0    0    0  501  0.00000000000E+00  0.00000000000E+00  0.23011055317E+03  0.23011055319E+03  0.25500000920E-02 0.  1.
        2   -1    0    0  501    0  0.00000000000E+00  0.00000000000E+00 -0.15781254023E+04  0.15781254023E+04  0.25500000920E-02 0. -1.
    10030    2    1    2    0    0  0.00000000000E+00  0.00000000000E+00 -0.13480148491E+04  0.18082359555E+04  0.12052274629E+04 0.  0.
        1    1    3    3  502    0  0.51612517578E+03  0.13520192999E+03 -0.25370531719E+03  0.59078858058E+03  0.50400001928E-02 0.  1.
       -1    1    3    3    0  502 -0.51612517578E+03 -0.13520192999E+03 -0.10943095319E+04  0.12174473749E+04  0.50400001928E-02 0. -1.
</event>
<event>
 5   0  0.2025294E-03  0.1061627E+04  0.7818609E-02  0.9243421E-01
        1   -1    0    0  501    0  0.00000000000E+00  0.00000000000E+00  0.20990512855E+04  0.20990512855E+04  0.50400001928E-02 0. -1.
       -1   -1    0    0    0  501  0.00000000000E+00  0.00000000000E+00 -0.13423352839E+03  0.13423352849E+03  0.50400001928E-02 0.  1.
    10030    2    1    2    0    0  0.00000000000E+00  0.00000000000E+00  0.19648177571E+04  0.22332848140E+04  0.10616271670E+04 0.  0.
        5    1    3    3  502    0  0.32409905214E+03  0.11459728316E+03  0.18331973106E+04  0.18651560800E+04  0.46999998093E+01 0. -1.
       -5    1    3    3    0  502 -0.32409905214E+03 -0.11459728316E+03  0.13162044651E+03  0.36812873407E+03  0.46999998093E+01 0.  1.
</event>
<event>
 5   0  0.3626049E-03  0.1203839E+04  0.7818609E-02  0.9109503E-01
        2   -1    0    0  501    0  0.00000000000E+00  0.00000000000E+00  0.74148632023E+03  0.74148632023E+03  0.25500000920E-02 0.  1.
       -2   -1    0    0    0  501  0.00000000000E+00  0.00000000000E+00 -0.48862285457E+03  0.48862285458E+03  0.25500000920E-02 0. -1.
    10030    2    1    2    0    0  0.00000000000E+00  0.00000000000E+00  0.25286346566E+03  0.12301091748E+04  0.12038391295E+04 0.  0.
        1    1    3    3  502    0 -0.15702663749E+03 -0.14044813016E+03 -0.44972009143E+03  0.49661977690E+03  0.50400001928E-02 0. -1.
       -1    1    3    3    0  502  0.15702663749E+03  0.14044813016E+03  0.70258355708E+03  0.73348939792E+03  0.50400001928E-02 0.  1.
</event>
<event>
 5   0  0.3650180E-03  0.1064643E+04  0.7818609E-02  0.9240355E-01
       -2   -1    0    0    0  501  0.00000000000E+00  0.00000000000E+00  0.29428686441E+03  0.29428686442E+03  0.25500000920E-02 0. -1.
        2   -1    0    0  501    0  0.00000000000E+00  0.00000000000E+00 -0.96289101347E+03  0.96289101348E+03  0.25500000920E-02 0.  1.
    10030    2    1    2    0    0  0.00000000000E+00  0.00000000000E+00 -0.66860414907E+03  0.12571778779E+04  0.10646429958E+04 0.  0.
        3    1    3    3  502    0  0.30155705883E+03  0.43800277249E+03 -0.36281594948E+03  0.64375345579E+03  0.10100000352E+00 0.  1.
       -3    1    3    3    0  502 -0.30155705883E+03 -0.43800277249E+03 -0.30578819958E+03  0.61342442211E+03  0.10100000352E+00 0. -1.
</event>
<event>
 5   0  0.3706035E-03  0.1185637E+04  0.7818609E-02  0.9125522E-01
       -2   -1    0    0    0  501  0.00000000000E+00  0.00000000000E+00  0.23683925736E+03  0.23683925737E+03  0.25500000920E-02 0. -1.
        2   -1    0    0  501    0  0.00000000000E+00  0.00000000000E+00 -0.14838501845E+04  0.14838501845E+04  0.25500000920E-02 0.  1.
    10030    2    1    2    0    0  0.00000000000E+00  0.00000000000E+00 -0.12470109271E+04  0.17206894419E+04  0.11856373404E+04 0.  0.
        2    1    3    3  502    0  0.83527976103E+02 -0.51784141267E+03 -0.22263387306E+03  0.56982672183E+03  0.25500000920E-02 0. -1.
       -2    1    3    3    0  502 -0.83527976103E+02  0.51784141267E+03 -0.10243770541E+04  0.11508627200E+04  0.25500000920E-02 0.  1.
</event>
<event>
 5   0  0.2096270E-03  0.1195787E+04  0.7818609E-02  0.9116552E-01
        1   -1    0    0  501    0  0.00000000000E+00  0.00000000000E+00  0.83133191673E+03  0.83133191674E+03  0.50400001928E-02 0. -1.
       -1   -1    0    0    0  501  0.00000000000E+00  0.00000000000E+00 -0.43000454055E+03  0.43000454058E+03  0.50400001928E-02 0.  1.
    10030    2    1    2    0    0  0.00000000000E+00  0.00000000000E+00  0.40132737618E+03  0.12613364573E+04  0.11957867685E+04 0.  0.
        2    1    3    3  502    0  0.26760816105E+03 -0.51660067542E+03  0.34600706224E+03  0.67691304673E+03  0.25500000920E-02 0. -1.
       -2    1    3    3    0  502 -0.26760816105E+03  0.51660067542E+03  0.55320313939E+02  0.58442341059E+03  0.25500000920E-02 0.  1.
</event>
<event>
 5   0  0.3751091E-03  0.1221952E+04  0.7818609E-02  0.9093856E-01
       -2   -1    0    0    0  501  0.00000000000E+00  0.00000000000E+00  0.37885217426E+03  0.37885217427E+03  0.25500000920E-02 0.  1.
        2   -1    0    0  501    0  0.00000000000E+00  0.00000000000E+00 -0.98532335918E+03  0.98532335919E+03  0.25500000920E-02 0. -1.
    10030    2    1    2    0    0  0.00000000000E+00  0.00000000000E+00 -0.60647118492E+03  0.13641755335E+04  0.12219523673E+04 0.  0.
        5    1    3    3  502    0  0.48361834637E+03  0.34669827618E+03 -0.14861089838E+03  0.61334630411E+03  0.46999998093E+01 0. -1.
       -5    1    3    3    0  502 -0.48361834637E+03 -0.34669827618E+03 -0.45786028654E+03  0.75082922935E+03  0.46999998093E+01 0.  1.
</event>
<event>
 5   0  0.1397500E-03  0.1177133E+04  0.7818609E-02  0.9133111E-01
        3   -1    0    0  501    0  0.00000000000E+00  0.00000000000E+00  0.52412131739E+03  0.52412132712E+03  0.10100000352E+00 0. -1.
       -3   -1    0    0    0  501  0.00000000000E+00  0.00000000000E+00 -0.66093559874E+03  0.66093560645E+03  0.10100000352E+00 0.  1.
    10030    2    1    2    0    0  0.00000000000E+00  0.00000000000E+00 -0.13681428134E+03  0.11850569336E+04  0.11771328677E+04 0.  0.
        4    1    3    3  502    0  0.13130308002E+03 -0.38127378359E+03 -0.50001055636E+03  0.64235688386E+03  0.12699999809E+01 0.  1.
       -4    1    3    3    0  502 -0.13130308002E+03  0.38127378359E+03  0.36319627502E+03  0.54270004971E+03  0.12699999809E+01 0. -1.
</event>
<event>
 5   0  0.3751091E-03  0.1191384E+04  0.7818609E-02  0.9120432E-01
        2   -1    0    0  501    0  0.00000000000E+00  0.00000000000E+00  0.11447182459E+04  0.11447182459E+04  0.25500000920E-02 0. -1.
       -2   -1    0    0    0  501  0.00000000000E+00  0.00000000000E+00 -0.30998789427E+03  0.30998789428E+03  0.25500000920E-02 0.  1.
    10030    2    1    2    0    0  0.00000000000E+00  0.00000000000E+00  0.83473035162E+03  0.14547061402E+04  0.11913837309E+04 0.  0.
        5    1    3    3  502    0 -0.58989899600E+03 -0.66363074694E+02  0.47770178682E+03  0.76197504571E+03  0.46999998093E+01 0.  1.
       -5    1    3    3    0  502  0.58989899600E+03  0.66363074694E+02  0.35702856480E+03  0.69273109447E+03  0.46999998093E+01 0. -1.
</event>
<event>
 5   0  0.3626049E-03  0.1174577E+04  0.7818609E-02  0.9135405E-01
        2   -1    0    0  501    0  0.00000000000E+00  0.00000000000E+00  0.30329154544E+03  0.30329154545E+03  0.25500000920E-02 0.  1.
       -2   -1    0    0    0  501  0.00000000000E+00  0.00000000000E+00 -0.11372151956E+04  0.11372151956E+04  0.25500000920E-02 0. -1.
    10030    2    1    2    0    0  0.00000000000E+00  0.00000000000E+00 -0.83392365018E+03  0.14405067411E+04  0.11745769523E+04 0.  0.
        1    1    3    3  502    0 -0.18502436095E+03 -0.53624910889E+03 -0.60340210353E+03  0.82818549824E+03  0.50400001928E-02 0. -1.
       -1    1    3    3    0  502  0.18502436095E+03  0.53624910889E+03 -0.23052154666E+03  0.61232124284E+03  0.50400001928E-02 0.  1.
</event>
<event>
 5   0  0.3725376E-03  0.1193347E+04  0.7818609E-02  0.9118700E-01
       -2   -1    0    0    0  501  0.00000000000E+00  0.00000000000E+00  0.18119757194E+03  0.18119757196E+03  0.25500000920E-02 0. -1.
        2   -1    0    0  501    0  0.00000000000E+00  0.00000000000E+00 -0.19648129477E+04  0.19648129477E+04  0.25500000920E-02 0.  1.
    10030    2    1    2    0    0  0.00000000000E+00  0.00000000000E+00 -0.17836153758E+04  0.21460105197E+04  0.11933471171E+04 0.  0.
        4    1    3    3  502    0 -0.11819461748E+03 -0.12157936891E+02 -0.19433205038E+04  0.19469499162E+04  0.12699999809E+01 0.  1.
       -4    1    3    3    0  502  0.11819461748E+03  0.12157936891E+02  0.15970512800E+03  0.19906060344E+03  0.12699999809E+01 0. -1.
</event>
<event>
 5   0  0.2096270E-03  0.1217888E+04  0.7818609E-02  0.9097342E-01
        1   -1    0    0  501    0  0.00000000000E+00  0.00000000000E+00  0.87949523368E+03  0.87949523369E+03  0.50400001928E-02 0. -1.
       -1   -1    0    0    0  501  0.00000000000E+00  0.00000000000E+00 -0.42162006376E+03  0.42162006379E+03  0.50400001928E-02 0.  1.
    10030    2    1    2    0    0  0.00000000000E+00  0.00000000000E+00  0.45787516991E+03  0.13011152975E+04  0.12178880680E+04 0.  0.
        2    1    3    3  502    0 -0.27876626543E+03 -0.22656445234E+03 -0.29636591030E+03  0.46569822267E+03  0.25500000920E-02 0.  1.
       -2    1    3    3    0  502  0.27876626543E+03  0.22656445234E+03  0.75424108021E+03  0.83541707481E+03  0.25500000920E-02 0. -1.
</event>
<event>
 5   0  0.2096270E-03  0.1185918E+04  0.7818609E-02  0.9125273E-01
       -1   -1    0    0    0  501  0.00000000000E+00  0.00000000000E+00  0.26177217407E+03  0.26177217412E+03  0.50400001928E-02 0.  1.
        1   -1    0    0  501    0  0.00000000000E+00  0.00000000000E+00 -0.13431539700E+04  0.13431539700E+04  0.50400001928E-02 0. -1.
    10030    2    1    2    0    0  0.00000000000E+00  0.00000000000E+00 -0.10813817959E+04  0.16049261441E+04  0.11859179312E+04 0.  0.
        2    1    3    3  502    0 -0.34508266556E+03 -0.43442114943E+03 -0.82390859371E+03  0.99329207785E+03  0.25500000920E-02 0.  1.
       -2    1    3    3    0  502  0.34508266556E+03  0.43442114943E+03 -0.25747320220E+03  0.61163406625E+03  0.25500000920E-02 0. -1.
</event>
<event>
 5   0  0.3751091E-03  0.1183145E+04  0.7818609E-02  0.9127739E-01
       -2   -1    0    0    0  501  0.00000000000E+00  0.00000000000E+00  0.42321224925E+03  0.42321224926E+03  0.25500000920E-02 0. -1.
        2   -1    0    0  501    0  0.00000000000E+00  0.00000000000E+00 -0.82690940919E+03  0.82690940919E+03  0.25500000920E-02 0.  1.
    10030    2    1    2    0    0  0.00000000000E+00  0.00000000000E+00 -0.40369715994E+03  0.12501216584E+04  0.11831452844E+04 0.  0.
        5    1    3    3  502    0 -0.12530966130E+03  0.24127084214E+01 -0.81269983017E+03  0.82232076244E+03  0.46999998093E+01 0.  1.
       -5    1    3    3    0  502  0.12530966130E+03 -0.24127084214E+01  0.40900267023E+03  0.42780089601E+03  0.46999998093E+01 0. -1.
</event>
<event>
 5   0  0.3650180E-03  0.1187039E+04  0.7818609E-02  0.9124277E-01
        2   -1    0    0  501    0  0.00000000000E+00  0.00000000000E+00  0.47451571270E+03  0.47451571271E+03  0.25500000920E-02 0.  1.
       -2   -1    0    0    0  501  0.00000000000E+00  0.00000000000E+00 -0.74236847478E+03  0.74236847479E+03  0.25500000920E-02 0. -1.
    10030    2    1    2    0    0  0.00000000000E+00  0.00000000000E+00 -0.26785276208E+03  0.12168841875E+04  0.11870391837E+04 0.  0.
        3    1    3    3  502    0  0.49913294555E+03  0.16991832496E+03 -0.41328391102E+03  0.66993248600E+03  0.10100000352E+00 0. -1.
       -3    1    3    3    0  502 -0.49913294555E+03 -0.16991832496E+03  0.14543114893E+03  0.54695170150E+03  0.10100000352E+00 0.  1.
</event>
<event>
 5   0  0.2096270E-03  0.1199630E+04  0.7818609E-02  0.9113180E-01
        1   -1    0    0  501    0  0.00000000000E+00  0.00000000000E+00  0.26661361502E+03  0.26661361507E+03  0.50400001928E-02 0. -1.
       -1   -1    0    0    0  501  0.00000000000E+00  0.00000000000E+00 -0.13494362619E+04  0.13494362619E+04  0.50400001928E-02 0.  1.
    10030    2    1    2    0    0  0.00000000000E+00  0.00000000000E+00 -0.10828226469E+04  0.16160498770E+04  0.11996300764E+04 0.  0.
        2    1    3    3  502    0  0.37212224543E+02 -0.17894203636E+03 -0.13110104720E+04  0.13236893366E+04  0.25500000920E-02 0.  1.
       -2    1    3    3    0  502 -0.37212224543E+02  0.17894203636E+03  0.22818782514E+03  0.29236054040E+03  0.25500000920E-02 0. -1.
</event>
<event>
 5   0  0.3725376E-03  0.1199662E+04  0.7818609E-02  0.9113152E-01
       -2   -1    0    0    0  501  0.00000000000E+00  0.00000000000E+00  0.31738624878E+03  0.31738624879E+03  0.25500000920E-02 0. -1.
        2   -1    0    0  501    0  0.00000000000E+00  0.00000000000E+00 -0.11336265866E+04  0.11336265866E+04  0.25500000920E-02 0.  1.
    10030    2    1    2    0    0  0.00000000000E+00  0.00000000000E+00 -0.81624033785E+03  0.14510128354E+04  0.11996624356E+04 0.  0.
        4    1    3    3  502    0  0.18269683317E+03  0.95915224231E+00  0.28291231235E+03  0.33677892185E+03  0.12699999809E+01 0. -1.
       -4    1    3    3    0  502 -0.18269683317E+03 -0.95915224231E+00 -0.10991526502E+04  0.11142339136E+04  0.12699999809E+01 0.  1.
</event>
<event>
 5   0  0.2134992E-03  0.1144209E+04  0.7818609E-02  0.9163143E-01
        1   -1    0    0  501    0  0.00000000000E+00  0.00000000000E+00  0.30919239091E+03  0.30919239095E+03  0.50400001928E-02 0. -1.
       -1   -1    0    0    0  501  0.00000000000E+00  0.00000000000E+00 -0.10585760150E+04  0.10585760150E+04  0.50400001928E-02 0.  1.
    10030    2    1    2    0    0  0.00000000000E+00  0.00000000000E+00 -0.74938362406E+03  0.13677684059E+04  0.11442091576E+04 0.  0.
        4    1    3    3  502    0  0.28937997050E+03  0.40095718897E+03 -0.30731639237E+02  0.49543262030E+03  0.12699999809E+01 0. -1.
       -4    1    3    3    0  502 -0.28937997050E+03 -0.40095718897E+03 -0.71865198483E+03  0.87233578564E+03  0.12699999809E+01 0.  1.
</event>
<event>
 5   0  0.2078258E-03  0.1198372E+04  0.7818609E-02  0.9114283E-01
       -1   -1    0    0    0  501  0.00000000000E+00  0.00000000000E+00  0.94923432273E+03  0.94923432274E+03  0.50400001928E-02 0.  1.
        1   -1    0    0  501    0  0.00000000000E+00  0.00000000000E+00 -0.37822464847E+03  0.37822464851E+03  0.50400001928E-02 0. -1.
    10030    2    1    2    0    0  0.00000000000E+00  0.00000000000E+00  0.57100967426E+03  0.13274589713E+04  0.11983719257E+04 0.  0.
        3    1    3    3  502    0  0.44303821411E+03  0.24722720012E+03  0.63862161250E+03  0.81562351719E+03  0.10100000352E+00 0.  1.
       -3    1    3    3    0  502 -0.44303821411E+03 -0.24722720012E+03 -0.67611938240E+02  0.51183545406E+03  0.10100000352E+00 0. -1.
</event>
<event>
 5   0  0.3626049E-03  0.1148445E+04  0.7818609E-02  0.9159219E-01
       -2   -1    0    0    0  501  0.00000000000E+00  0.00000000000E+00  0.40831290292E+03  0.40831290293E+03  0.25500000920E-02 0. -1.
        2   -1    0    0  501    0  0.00000000000E+00  0.00000000000E+00 -0.80754606162E+03  0.80754606163E+03  0.25500000920E-02 0.  1.
    10030    2    1    2    0    0  0.00000000000E+00  0.00000000000E+00 -0.39923315870E+03  0.12158589646E+04  0.11484449951E+04 0.  0.
        1    1    3    3  502    0  0.12197025615E+03  0.21310642549E+03  0.34992979469E+03  0.42748327828E+03  0.50400001928E-02 0. -1.
       -1    1    3    3    0  502 -0.12197025615E+03 -0.21310642549E+03 -0.74916295339E+03  0.78837568628E+03  0.50400001928E-02 0.  1.
</event>
<event>
 5   0  0.2096270E-03  0.1201678E+04  0.7818609E-02  0.9111389E-01
        1   -1    0    0  501    0  0.00000000000E+00  0.00000000000E+00  0.69105293733E+03  0.69105293735E+03  0.50400001928E-02 0.  1.
       -1   -1    0    0    0  501  0.00000000000E+00  0.00000000000E+00 -0.52240250517E+03  0.52240250520E+03  0.50400001928E-02 0. -1.
    10030    2    1    2    0    0  0.00000000000E+00  0.00000000000E+00  0.16865043216E+03  0.12134554425E+04  0.12016784690E+04 0.  0.
        2    1    3    3  502    0  0.53005764413E+03 -0.27812716804E+03  0.31932647242E+02  0.59944601231E+03  0.25500000920E-02 0. -1.
       -2    1    3    3    0  502 -0.53005764413E+03  0.27812716804E+03  0.13671778492E+03  0.61400943024E+03  0.25500000920E-02 0.  1.
</event>
<event>
 5   0  0.3626049E-03  0.1266347E+04  0.7818609E-02  0.9056687E-01
       -2   -1    0    0    0  501  0.00000000000E+00  0.00000000000E+00  0.40832800929E+03  0.40832800929E+03  0.25500000920E-02 0.  1.
        2   -1    0    0  501    0  0.00000000000E+00  0.00000000000E+00 -0.98182948318E+03  0.98182948319E+03  0.25500000920E-02 0. -1.
    10030    2    1    2    0    0  0.00000000000E+00  0.00000000000E+00 -0.57350147390E+03  0.13901574925E+04  0.12663466798E+04 0.  0.
        1    1    3    3  502    0 -0.11164061077E+03  0.34349362179E+03  0.28414984955E+03  0.45955699451E+03  0.50400001928E-02 0.  1.
       -1    1    3    3    0  502  0.11164061077E+03 -0.34349362179E+03 -0.85765132345E+03  0.93060049797E+03  0.50400001928E-02 0. -1.
</event>
<event>
 5   0  0.3650180E-03  0.1198596E+04  0.7818609E-02  0.9114086E-01
       -2   -1    0    0    0  501  0.00000000000E+00  0.00000000000E+00  0.37450599873E+03  0.37450599874E+03  0.25500000920E-02 0. -1.
        2   -1    0    0  501    0  0.00000000000E+00  0.00000000000E+00 -0.95901899068E+03  0.95901899068E+03  0.25500000920E-02 0.  1.
    10030    2    1    2    0    0  0.00000000000E+00  0.00000000000E+00 -0.58451299195E+03  0.13335249894E+04  0.11985964540E+04 0.  0.
        3    1    3    3  502    0  0.48720766489E+03  0.33135240664E+03 -0.17041776635E+03  0.61335793090E+03  0.10100000352E+00 0. -1.
       -3    1    3    3    0  502 -0.48720766489E+03 -0.33135240664E+03 -0.41409522559E+03  0.72016705852E+03  0.10100000352E+00 0.  1.
</event>
<event>
 5   0  0.2047109E-03  0.1201836E+04  0.7818609E-02  0.9111251E-01
        1   -1    0    0  501    0  0.00000000000E+00  0.00000000000E+00  0.60652559487E+03  0.60652559489E+03  0.50400001928E-02 0.  1.
       -1   -1    0    0    0  501  0.00000000000E+00  0.00000000000E+00 -0.59536243805E+03  0.59536243807E+03  0.50400001928E-02 0. -1.
    10030    2    1    2    0    0  0.00000000000E+00  0.00000000000E+00  0.11163156819E+02  0.12018880330E+04  0.12018361900E+04 0.  0.
        1    1    3    3  502    0 -0.13644108430E+03 -0.49137071923E+02 -0.57760044737E+03  0.59552741175E+03  0.50400001928E-02 0. -1.
       -1    1    3    3    0  502  0.13644108430E+03  0.49137071923E+02  0.58876360418E+03  0.60636062121E+03  0.50400001928E-02 0.  1.
</event>
<event>
 5   0  0.2047109E-03  0.1198301E+04  0.7818609E-02  0.9114345E-01
        1   -1    0    0  501    0  0.00000000000E+00  0.00000000000E+00  0.55531101413E+03  0.55531101415E+03  0.50400001928E-02 0.  1.
       -1   -1    0    0    0  501  0.00000000000E+00  0.00000000000E+00 -0.64645067331E+03  0.64645067333E+03  0.50400001928E-02 0. -1.
    10030    2    1    2    0    0  0.00000000000E+00  0.00000000000E+00 -0.91139659184E+02  0.12017616875E+04  0.11983007619E+04 0.  0.
        1    1    3    3  502    0 -0.42546814775E+03  0.19155928702E+03  0.33136549986E+03  0.57229467910E+03  0.50400001928E-02 0.  1.
       -1    1    3    3    0  502  0.42546814775E+03 -0.19155928702E+03 -0.42250515905E+03  0.62946700839E+03  0.50400001928E-02 0. -1.
</event>
<event>
 5   0  0.3626049E-03  0.1185447E+04  0.7818609E-02  0.9125691E-01
       -2   -1    0    0    0  501  0.00000000000E+00  0.00000000000E+00  0.37213623424E+03  0.37213623425E+03  0.25500000920E-02 0.  1.
        2   -1    0    0  501    0  0.00000000000E+00  0.00000000000E+00 -0.94406652636E+03  0.94406652636E+03  0.25500000920E-02 0. -1.
    10030    2    1    2    0    0  0.00000000000E+00  0.00000000000E+00 -0.57193029212E+03  0.13162027606E+04  0.11854473620E+04 0.  0.
        1    1    3    3  502    0  0.39951414643E+03 -0.33580925192E+03 -0.59792194970E+03  0.79365613765E+03  0.50400001928E-02 0. -1.
       -1    1    3    3    0  502 -0.39951414643E+03  0.33580925192E+03  0.25991657577E+02  0.52254662296E+03  0.50400001928E-02 0.  1.
</event>
<event>
 5   0  0.2096270E-03  0.1176668E+04  0.7818609E-02  0.9133527E-01
       -1   -1    0    0    0  501  0.00000000000E+00  0.00000000000E+00  0.29619109813E+03  0.29619109817E+03  0.50400001928E-02 0.  1.
        1   -1    0    0  501    0  0.00000000000E+00  0.00000000000E+00 -0.11686275808E+04  0.11686275808E+04  0.50400001928E-02 0. -1.
    10030    2    1    2    0    0  0.00000000000E+00  0.00000000000E+00 -0.87243648269E+03  0.14648186790E+04  0.11766683246E+04 0.  0.
        2    1    3    3  502    0  0.15580717337E+03 -0.49911400206E+03 -0.10045308010E+03  0.53242979221E+03  0.25500000920E-02 0.  1.
       -2    1    3    3    0  502 -0.15580717337E+03  0.49911400206E+03 -0.77198340259E+03  0.93238888679E+03  0.25500000920E-02 0. -1.
</event>
<event>
 5   0  0.2047109E-03  0.1158784E+04  0.7818609E-02  0.9149718E-01
        1   -1    0    0  501    0  0.00000000000E+00  0.00000000000E+00  0.86607286170E+03  0.86607286172E+03  0.50400001928E-02 0. -1.
       -1   -1    0    0    0  501  0.00000000000E+00  0.00000000000E+00 -0.38760602799E+03  0.38760602803E+03  0.50400001928E-02 0.  1.
    10030    2    1    2    0    0  0.00000000000E+00  0.00000000000E+00  0.47846683371E+03  0.12536788897E+04  0.11587839521E+04 0.  0.
        1    1    3    3  502    0 -0.27679234183E+03 -0.29709560713E+03 -0.20791034490E+03  0.45618692639E+03  0.50400001928E-02 0.  1.
       -1    1    3    3    0  502  0.27679234183E+03  0.29709560713E+03  0.68637717861E+03  0.79749196335E+03  0.50400001928E-02 0. -1.
</event>
<event>
 5   0  0.3650180E-03  0.1197449E+04  0.7818609E-02  0.9115092E-01
       -2   -1    0    0    0  501  0.00000000000E+00  0.00000000000E+00  0.48041127195E+03  0.48041127196E+03  0.25500000920E-02 0.  1.
        2   -1    0    0  501    0  0.00000000000E+00  0.00000000000E+00 -0.74617532915E+03  0.74617532915E+03  0.25500000920E-02 0. -1.
    10030    2    1    2    0    0  0.00000000000E+00  0.00000000000E+00 -0.26576405720E+03  0.12265866011E+04  0.11974490202E+04 0.  0.
        3    1    3    3  502    0  0.72819621679E+02 -0.17122873310E+03 -0.71580678332E+03  0.73959538776E+03  0.10100000352E+00 0. -1.
       -3    1    3    3    0  502 -0.72819621679E+02  0.17122873310E+03  0.45004272612E+03  0.48699121335E+03  0.10100000352E+00 0.  1.
</event>
<event>
 5   0  0.2134992E-03  0.1197958E+04  0.7818609E-02  0.9114646E-01
        1   -1    0    0  501    0  0.00000000000E+00  0.00000000000E+00  0.19749416882E+04  0.19749416882E+04  0.50400001928E-02 0.  1.
       -1   -1    0    0    0  501  0.00000000000E+00  0.00000000000E+00 -0.18166404477E+03  0.18166404484E+03  0.50400001928E-02 0. -1.
    10030    2    1    2    0    0  0.00000000000E+00  0.00000000000E+00  0.17932776434E+04  0.21566057331E+04  0.11979580883E+04 0.  0.
        4    1    3    3  502    0 -0.52869563740E+03  0.20507855360E+03  0.12438461487E+04  0.13670154150E+04  0.12699999809E+01 0.  1.
       -4    1    3    3    0  502  0.52869563740E+03 -0.20507855360E+03  0.54943149473E+03  0.78959031811E+03  0.12699999809E+01 0. -1.
</event>
<event>
 5   0  0.2047109E-03  0.1208871E+04  0.7818609E-02  0.9105127E-01
        1   -1    0    0  501    0  0.00000000000E+00  0.00000000000E+00  0.74102831896E+03  0.74102831897E+03  0.50400001928E-02 0.  1.
       -1   -1    0    0    0  501  0.00000000000E+00  0.00000000000E+00 -0.49302082598E+03  0.49302082600E+03  0.50400001928E-02 0. -1.
    10030    2    1    2    0    0  0.00000000000E+00  0.00000000000E+00  0.24800749298E+03  0.12340491450E+04  0.12088711989E+04 0.  0.
        1    1    3    3  502    0 -0.34080559621E+03 -0.11939714985E+03 -0.37079580668E+03  0.51758445115E+03  0.50400001928E-02 0. -1.
       -1    1    3    3    0  502  0.34080559621E+03  0.11939714985E+03  0.61880329966E+03  0.71646469382E+03  0.50400001928E-02 0.  1.
</event>
<event>
 5   0  0.2134992E-03  0.1188401E+04  0.7818609E-02  0.9123070E-01
        1   -1    0    0  501    0  0.00000000000E+00  0.00000000000E+00  0.73207965564E+03  0.73207965566E+03  0.50400001928E-02 0. -1.
       -1   -1    0    0    0  501  0.00000000000E+00  0.00000000000E+00 -0.48228910738E+03  0.48228910741E+03  0.50400001928E-02 0.  1.
    10030    2    1    2    0    0  0.00000000000E+00  0.00000000000E+00  0.24979054826E+03  0.12143687631E+04  0.11884006794E+04 0.  0.
        4    1    3    3  502    0 -0.41089332600E+03 -0.35777900927E+03 -0.11742202909E+03  0.55734073118E+03  0.12699999809E+01 0.  1.
       -4    1    3    3    0  502  0.41089332600E+03  0.35777900927E+03  0.36721257734E+03  0.65702803188E+03  0.12699999809E+01 0. -1.
</event>
<event>
 5   0  0.3706035E-03  0.1194961E+04  0.7818609E-02  0.9117279E-01
       -2   -1    0    0    0  501  0.00000000000E+00  0.00000000000E+00  0.32670584720E+03  0.32670584721E+03  0.25500000920E-02 0.  1.
        2   -1    0    0  501    0  0.00000000000E+00  0.00000000000E+00 -0.10926740603E+04  0.10926740603E+04  0.25500000920E-02 0. -1.
    10030    2    1    2    0    0  0.00000000000E+00  0.00000000000E+00 -0.76596821306E+03  0.14193799075E+04  0.11949610949E+04 0.  0.
        2    1    3    3  502    0 -0.49194848148E+03 -0.22314399742E+03 -0.79741482073E+02  0.54604510435E+03  0.25500000920E-02 0.  1.
       -2    1    3    3    0  502  0.49194848148E+03  0.22314399742E+03 -0.68622673099E+03  0.87333480312E+03  0.25500000920E-02 0. -1.
</event>
<event>
 5   0  0.3725376E-03  0.1186385E+04  0.7818609E-02  0.9124858E-01
        2   -1    0    0  501    0  0.00000000000E+00  0.00000000000E+00  0.70905712038E+03  0.70905712038E+03  0.25500000920E-02 0. -1.
       -2   -1    0    0    0  501  0.00000000000E+00  0.00000000000E+00 -0.49626108128E+03  0.49626108128E+03  0.25500000920E-02 0.  1.
    10030    2    1    2    0    0  0.00000000000E+00  0.00000000000E+00  0.21279603910E+03  0.12053182017E+04  0.11863851875E+04 0.  0.
        4    1    3    3  502    0 -0.48249889283E+03  0.73633964357E+02  0.44889617090E+03  0.66312632841E+03  0.12699999809E+01 0. -1.
       -4    1    3    3    0  502  0.48249889283E+03 -0.73633964357E+02 -0.23610013180E+03  0.54219187325E+03  0.12699999809E+01 0.  1.
</event>
<event>
 5   0  0.3650180E-03  0.1203866E+04  0.7818609E-02  0.9109479E-01
       -2   -1    0    0    0  501  0.00000000000E+00  0.00000000000E+00  0.20983464392E+03  0.20983464393E+03  0.25500000920E-02 0.  1.
        2   -1    0    0  501    0  0.00000000000E+00  0.00000000000E+00 -0.17267085864E+04  0.17267085864E+04  0.25500000920E-02 0. -1.
    10030    2    1    2    0    0  0.00000000000E+00  0.00000000000E+00 -0.15168739425E+04  0.19365432303E+04  0.12038659085E+04 0.  0.
        3    1    3    3  502    0  0.25518890874E+03  0.30194563604E+03 -0.28281951004E+02  0.39634886807E+03  0.10100000352E+00 0.  1.
       -3    1    3    3    0  502 -0.25518890874E+03 -0.30194563604E+03 -0.14885919914E+04  0.15401943622E+04  0.10100000352E+00 0. -1.
</event>
<event>
 5   0  0.2078258E-03  0.1187459E+04  0.7818609E-02  0.9123905E-01
       -1   -1    0    0    0  501  0.00000000000E+00  0.00000000000E+00  0.25069351736E+03  0.25069351741E+03  0.50400001928E-02 0.  1.
        1   -1    0    0  501    0  0.00000000000E+00  0.00000000000E+00 -0.14061591666E+04  0.14061591666E+04  0.50400001928E-02 0. -1.
    10030    2    1    2    0    0  0.00000000000E+00  0.00000000000E+00 -0.11554656492E+04  0.16568526840E+04  0.11874594519E+04 0.  0.
        3    1    3    3  502    0 -0.33625316306E+03  0.32975428919E+03 -0.73279482831E+02  0.47662770976E+03  0.10100000352E+00 0. -1.
       -3    1    3    3    0  502  0.33625316306E+03 -0.32975428919E+03 -0.10821861664E+04  0.11802249742E+04  0.10100000352E+00 0.  1.
</event>
<event>
 5   0  0.3751091E-03  0.1202977E+04  0.7818609E-02  0.9110255E-01
        2   -1    0    0  501    0  0.00000000000E+00  0.00000000000E+00  0.21791001054E+04  0.21791001054E+04  0.25500000920E-02 0.  1.
       -2   -1    0    0    0  501  0.00000000000E+00  0.00000000000E+00 -0.16602644440E+03  0.16602644442E+03  0.25500000920E-02 0. -1.
    10030    2    1    2    0    0  0.00000000000E+00  0.00000000000E+00  0.20130736610E+04  0.23451265499E+04  0.12029767122E+04 0.  0.
        5    1    3    3  502    0 -0.96779381043E+02 -0.25979282058E+03 -0.34008671356E+02  0.27935145954E+03  0.46999998093E+01 0. -1.
       -5    1    3    3    0  502  0.96779381043E+02  0.25979282058E+03  0.20470823324E+04  0.20657750903E+04  0.46999998093E+01 0.  1.
</event>
<event>
 5   0  0.3706035E-03  0.1218336E+04  0.7818609E-02  0.9096957E-01
       -2   -1    0    0    0  501  0.00000000000E+00  0.00000000000E+00  0.39423557093E+03  0.39423557094E+03  0.25500000920E-02 0. -1.
        2   -1    0    0  501    0  0.00000000000E+00  0.00000000000E+00 -0.94127879494E+03  0.94127879495E+03  0.25500000920E-02 0.  1.
    10030    2    1    2    0    0  0.00000000000E+00  0.00000000000E+00 -0.54704322401E+03  0.13355143659E+04  0.12183358866E+04 0.  0.
        2    1    3    3  502    0 -0.27466861461E+03  0.10616177671E+03  0.31103322489E+03  0.42831628230E+03  0.25500000920E-02 0. -1.
       -2    1    3    3    0  502  0.27466861461E+03 -0.10616177671E+03 -0.85807644890E+03  0.90719808358E+03  0.25500000920E-02 0.  1.
</event>
<event>
 5   0  0.2078258E-03  0.1179513E+04  0.7818609E-02  0.9130980E-01
        1   -1    0    0  501    0  0.00000000000E+00  0.00000000000E+00  0.18799966994E+04  0.18799966994E+04  0.50400001928E-02 0. -1.
       -1   -1    0    0    0  501  0.00000000000E+00  0.00000000000E+00 -0.18500704638E+03  0.18500704645E+03  0.50400001928E-02 0.  1.
    10030    2    1    2    0    0  0.00000000000E+00  0.00000000000E+00  0.16949896530E+04  0.20650037458E+04  0.11795128429E+04 0.  0.
        3    1    3    3  502    0 -0.12369981438E+03  0.32300888449E+02  0.18554442356E+04  0.18598436260E+04  0.10100000352E+00 0. -1.
       -3    1    3    3    0  502  0.12369981438E+03 -0.32300888449E+02 -0.16045458263E+03  0.20516011981E+03  0.10100000352E+00 0.  1.
</event>
<event>
 5   0  0.3751091E-03  0.1202218E+04  0.7818609E-02  0.9110917E-01
       -2   -1    0    0    0  501  0.00000000000E+00  0.00000000000E+00  0.33624046852E+03  0.33624046853E+03  0.25500000920E-02 0.  1.
        2   -1    0    0  501    0  0.00000000000E+00  0.00000000000E+00 -0.10746238634E+04  0.10746238634E+04  0.25500000920E-02 0. -1.
    10030    2    1    2    0    0  0.00000000000E+00  0.00000000000E+00 -0.73838339483E+03  0.14108643319E+04  0.12022180024E+04 0.  0.
        5    1    3    3  502    0  0.32758922053E+03  0.57082731949E+02  0.21844792577E+03  0.39788782586E+03  0.46999998093E+01 0.  1.
       -5    1    3    3    0  502 -0.32758922053E+03 -0.57082731949E+02 -0.95683132060E+03  0.10129765060E+04  0.46999998093E+01 0. -1.
</event>
<event>
 5   0  0.1397500E-03  0.1218902E+04  0.7818609E-02  0.9096470E-01
       -3   -1    0    0    0  501  0.00000000000E+00  0.00000000000E+00  0.10516342580E+04  0.10516342629E+04  0.10100000352E+00 0. -1.
        3   -1    0    0  501    0  0.00000000000E+00  0.00000000000E+00 -0.35319378703E+03  0.35319380147E+03  0.10100000352E+00 0.  1.
    10030    2    1    2    0    0  0.00000000000E+00  0.00000000000E+00  0.69844047101E+03  0.14048280644E+04  0.12189022926E+04 0.  0.
        2    1    3    3  502    0 -0.16763306120E+03 -0.44902269494E+03 -0.84642344314E+02  0.48670992412E+03  0.25500000920E-02 0.  1.
       -2    1    3    3    0  502  0.16763306120E+03  0.44902269494E+03  0.78308281533E+03  0.91811814024E+03  0.25500000920E-02 0. -1.
</event>
<event>
 5   0  0.3751091E-03  0.1191445E+04  0.7818609E-02  0.9120378E-01
        2   -1    0    0  501    0  0.00000000000E+00  0.00000000000E+00  0.84109970880E+03  0.84109970880E+03  0.25500000920E-02 0. -1.
       -2   -1    0    0    0  501  0.00000000000E+00  0.00000000000E+00 -0.42193025611E+03  0.42193025612E+03  0.25500000920E-02 0.  1.
    10030    2    1    2    0    0  0.00000000000E+00  0.00000000000E+00  0.41916945269E+03  0.12630299649E+04  0.11914451990E+04 0.  0.
        5    1    3    3  502    0 -0.11394206157E+03 -0.57687235950E+03  0.10846591582E+03  0.59795606649E+03  0.46999998093E+01 0. -1.
       -5    1    3    3    0  502  0.11394206157E+03  0.57687235950E+03  0.31070353687E+03  0.66507389843E+03  0.46999998093E+01 0.  1.
</event>
<event>
 5   0  0.3626049E-03  0.1188964E+04  0.7818609E-02  0.9122572E-01
       -2   -1    0    0    0  501  0.00000000000E+00  0.00000000000E+00  0.40399930028E+03  0.40399930029E+03  0.25500000920E-02 0. -1.
        2   -1    0    0  501    0  0.00000000000E+00  0.00000000000E+00 -0.87477545070E+03  0.87477545071E+03  0.25500000920E-02 0.  1.
    10030    2    1    2    0    0  0.00000000000E+00  0.00000000000E+00 -0.47077615042E+03  0.12787747510E+04  0.11889637000E+04 0.  0.
        1    1    3    3  502    0  0.14378139638E+03  0.18418050501E+03  0.35254147556E+03  0.42294330635E+03  0.50400001928E-02 0. -1.
       -1    1    3    3    0  502 -0.14378139638E+03 -0.18418050501E+03 -0.82331762598E+03  0.85583144465E+03  0.50400001928E-02 0.  1.
</event>
<event>
 5   0  0.3725376E-03  0.1233465E+04  0.7818609E-02  0.9084059E-01
        2   -1    0    0  501    0  0.00000000000E+00  0.00000000000E+00  0.12616882074E+04  0.12616882074E+04  0.25500000920E-02 0. -1.
       -2   -1    0    0    0  501  0.00000000000E+00  0.00000000000E+00 -0.30146831239E+03  0.30146831240E+03  0.25500000920E-02 0.  1.
    10030    2    1    2    0    0  0.00000000000E+00  0.00000000000E+00  0.96021989497E+03  0.15631565198E+04  0.12334650618E+04 0.  0.
        4    1    3    3  502    0  0.10586752159E+03  0.47397217172E+03  0.96184618025E+03  0.10775004590E+04  0.12699999809E+01 0. -1.
       -4    1    3    3    0  502 -0.10586752159E+03 -0.47397217172E+03 -0.16262852830E+01  0.48565606080E+03  0.12699999809E+01 0.  1.
</event>
<event>
 5   0  0.2078258E-03  0.1197917E+04  0.7818609E-02  0.9114682E-01
        1   -1    0    0  501    0  0.00000000000E+00  0.00000000000E+00  0.80373382471E+03  0.80373382473E+03  0.50400001928E-02 0. -1.
       -1   -1    0    0    0  501  0.00000000000E+00  0.00000000000E+00 -0.44635584087E+03  0.44635584089E+03  0.50400001928E-02 0.  1.
    10030    2    1    2    0    0  0.00000000000E+00  0.00000000000E+00  0.35737798385E+03  0.12500896656E+04  0.11979170041E+04 0.  0.
        3    1    3    3  502    0 -0.25339010928E+03 -0.53754653421E+03  0.25670078124E+03  0.64734698981E+03  0.10100000352E+00 0. -1.
       -3    1    3    3    0  502  0.25339010928E+03  0.53754653421E+03  0.10067720261E+03  0.60274267582E+03  0.10100000352E+00 0.  1.
</event>
<event>
 5   0  0.2134992E-03  0.1204822E+04  0.7818609E-02  0.9108646E-01
       -1   -1    0    0    0  501  0.00000000000E+00  0.00000000000E+00  0.81039944555E+03  0.81039944557E+03  0.50400001928E-02 0. -1.
        1   -1    0    0  501    0  0.00000000000E+00  0.00000000000E+00 -0.44780284169E+03  0.44780284172E+03  0.50400001928E-02 0.  1.
    10030    2    1    2    0    0  0.00000000000E+00  0.00000000000E+00  0.36259660386E+03  0.12582022873E+04  0.12048222685E+04 0.  0.
        4    1    3    3  502    0 -0.43832793589E+03 -0.18689588131E+02  0.61240402823E+03  0.75333988795E+03  0.12699999809E+01 0. -1.
       -4    1    3    3    0  502  0.43832793589E+03  0.18689588131E+02 -0.24980742437E+03  0.50486239933E+03  0.12699999809E+01 0.  1.
</event>
<event>
 5   0  0.3626049E-03  0.1195811E+04  0.7818609E-02  0.9116531E-01
       -2   -1    0    0    0  501  0.00000000000E+00  0.00000000000E+00  0.75377830404E+03  0.75377830405E+03  0.25500000920E-02 0. -1.
        2   -1    0    0  501    0  0.00000000000E+00  0.00000000000E+00 -0.47426546871E+03  0.47426546872E+03  0.25500000920E-02 0.  1.
    10030    2    1    2    0    0  0.00000000000E+00  0.00000000000E+00  0.27951283533E+03  0.12280437728E+04  0.11958110564E+04 0.  0.
        1    1    3    3  502    0 -0.32755559076E+03  0.24651793647E+03  0.58672039640E+03  0.71575455403E+03  0.50400001928E-02 0. -1.
       -1    1    3    3    0  502  0.32755559076E+03 -0.24651793647E+03 -0.30720756106E+03  0.51228921874E+03  0.50400001928E-02 0.  1.
</event>
<event>
 5   0  0.2047109E-03  0.1197276E+04  0.7818609E-02  0.9115245E-01
       -1   -1    0    0    0  501  0.00000000000E+00  0.00000000000E+00  0.60210049754E+03  0.60210049757E+03  0.50400001928E-02 0. -1.
        1   -1    0    0  501    0  0.00000000000E+00  0.00000000000E+00 -0.59519501578E+03  0.59519501580E+03  0.50400001928E-02 0.  1.
    10030    2    1    2    0    0  0.00000000000E+00  0.00000000000E+00  0.69054817626E+01  0.11972955134E+04  0.11972755993E+04 0.  0.
        1    1    3    3  502    0  0.23304751605E+03  0.42279183033E+02 -0.54634594621E+03  0.59547675607E+03  0.50400001928E-02 0.  1.
       -1    1    3    3    0  502 -0.23304751605E+03 -0.42279183033E+02  0.55325142797E+03  0.60181875730E+03  0.50400001928E-02 0. -1.
</event>
<event>
 5   0  0.3725376E-03  0.1301269E+04  0.7818609E-02  0.9028559E-01
       -2   -1    0    0    0  501  0.00000000000E+00  0.00000000000E+00  0.32949738983E+03  0.32949738984E+03  0.25500000920E-02 0. -1.
        2   -1    0    0  501    0  0.00000000000E+00  0.00000000000E+00 -0.12847604982E+04  0.12847604982E+04  0.25500000920E-02 0.  1.
    10030    2    1    2    0    0  0.00000000000E+00  0.00000000000E+00 -0.95526310832E+03  0.16142578880E+04  0.13012689664E+04 0.  0.
        4    1    3    3  502    0  0.15165047834E+03  0.36167403841E+03  0.16638857613E+03  0.42601965777E+03  0.12699999809E+01 0. -1.
       -4    1    3    3    0  502 -0.15165047834E+03 -0.36167403841E+03 -0.11216516845E+04  0.11882382302E+04  0.12699999809E+01 0.  1.
</event>
<event>
 5   0  0.3751091E-03  0.1205639E+04  0.7818609E-02  0.9107935E-01
        2   -1    0    0  501    0  0.00000000000E+00  0.00000000000E+00  0.17536479206E+04  0.17536479206E+04  0.25500000920E-02 0. -1.
       -2   -1    0    0    0  501  0.00000000000E+00  0.00000000000E+00 -0.20722039195E+03  0.20722039196E+03  0.25500000920E-02 0.  1.
    10030    2    1    2    0    0  0.00000000000E+00  0.00000000000E+00  0.15464275287E+04  0.19608683126E+04  0.12056394311E+04 0.  0.
        5    1    3    3  502    0  0.35228153536E+03 -0.48914629733E+03  0.77033215984E+03  0.97816159546E+03  0.46999998093E+01 0.  1.
       -5    1    3    3    0  502 -0.35228153536E+03  0.48914629733E+03  0.77609536882E+03  0.98270671711E+03  0.46999998093E+01 0. -1.
</event>
<event>
 5   0  0.3751091E-03  0.1202720E+04  0.7818609E-02  0.9110479E-01
       -2   -1    0    0    0  501  0.00000000000E+00  0.00000000000E+00  0.57793921385E+03  0.57793921386E+03  0.25500000920E-02 0. -1.
        2   -1    0    0  501    0  0.00000000000E+00  0.00000000000E+00 -0.62572972617E+03  0.62572972618E+03  0.25500000920E-02 0.  1.
    10030    2    1    2    0    0  0.00000000000E+00  0.00000000000E+00 -0.47790512321E+02  0.12036689400E+04  0.12027198278E+04 0.  0.
        5    1    3    3  502    0 -0.16772007554E+03 -0.98375034561E+02  0.54559156437E+03  0.57922354603E+03  0.46999998093E+01 0. -1.
       -5    1    3    3    0  502  0.16772007554E+03  0.98375034561E+02 -0.59338207669E+03  0.62444539401E+03  0.46999998093E+01 0.  1.
</event>
<event>
 5   0  0.2134992E-03  0.1249017E+04  0.7818609E-02  0.9071002E-01
       -1   -1    0    0    0  501  0.00000000000E+00  0.00000000000E+00  0.44524263932E+03  0.44524263935E+03  0.50400001928E-02 0.  1.
        1   -1    0    0  501    0  0.00000000000E+00  0.00000000000E+00 -0.87595086253E+03  0.87595086254E+03  0.50400001928E-02 0. -1.
    10030    2    1    2    0    0  0.00000000000E+00  0.00000000000E+00 -0.43070822321E+03  0.13211935019E+04  0.12490166916E+04 0.  0.
        4    1    3    3  502    0 -0.16836450744E+02 -0.50190103835E+03 -0.60804949429E+03  0.78861519056E+03  0.12699999809E+01 0. -1.
       -4    1    3    3    0  502  0.16836450744E+02  0.50190103835E+03  0.17734127107E+03  0.53257831133E+03  0.12699999809E+01 0.  1.
</event>
<event>
 5   0  0.2134992E-03  0.8936108E+03  0.7818609E-02  0.9433604E-01
        1   -1    0    0  501    0  0.00000000000E+00  0.00000000000E+00  0.13074423284E+04  0.13074423284E+04  0.50400001928E-02 0. -1.
       -1   -1    0    0    0  501  0.00000000000E+00  0.00000000000E+00 -0.15269129093E+03  0.15269129101E+03  0.50400001928E-02 0.  1.
    10030    2    1    2    0    0  0.00000000000E+00  0.00000000000E+00  0.11547510374E+04  0.14601336194E+04  0.89361078105E+03 0.  0.
        4    1    3    3  502    0  0.17549404653E+02 -0.34782586616E+03  0.12003121682E+03  0.36837470147E+03  0.12699999809E+01 0.  1.
       -4    1    3    3    0  502 -0.17549404653E+02  0.34782586616E+03  0.10347198206E+04  0.10917589179E+04  0.12699999809E+01 0. -1.
</event>
<event>
 5   0  0.2047109E-03  0.1210961E+04  0.7818609E-02  0.9103316E-01
        1   -1    0    0  501    0  0.00000000000E+00  0.00000000000E+00  0.77520723696E+03  0.77520723698E+03  0.50400001928E-02 0. -1.
       -1   -1    0    0    0  501  0.00000000000E+00  0.00000000000E+00 -0.47291421214E+03  0.47291421217E+03  0.50400001928E-02 0.  1.
    10030    2    1    2    0    0  0.00000000000E+00  0.00000000000E+00  0.30229302482E+03  0.12481214491E+04  0.12109608082E+04 0.  0.
        1    1    3    3  502    0  0.80042548141E+02 -0.38240953250E+03 -0.32560903245E+03  0.50859129180E+03  0.50400001928E-02 0.  1.
       -1    1    3    3    0  502 -0.80042548141E+02  0.38240953250E+03  0.62790205728E+03  0.73953015734E+03  0.50400001928E-02 0. -1.
</event>
<event>
 5   0  0.3751091E-03  0.1197558E+04  0.7818609E-02  0.9114997E-01
        2   -1    0    0  501    0  0.00000000000E+00  0.00000000000E+00  0.17703107258E+04  0.17703107258E+04  0.25500000920E-02 0.  1.
       -2   -1    0    0    0  501  0.00000000000E+00  0.00000000000E+00 -0.20252719113E+03  0.20252719115E+03  0.25500000920E-02 0. -1.
    10030    2    1    2    0    0  0.00000000000E+00  0.00000000000E+00  0.15677835347E+04  0.19728379169E+04  0.11975576124E+04 0.  0.
        5    1    3    3  502    0 -0.55069256267E+03  0.30108019473E+02  0.39985262099E+03  0.68122903632E+03  0.46999998093E+01 0. -1.
       -5    1    3    3    0  502  0.55069256267E+03 -0.30108019473E+02  0.11679309137E+04  0.12916088806E+04  0.46999998093E+01 0.  1.
</event>
<event>
 5   0  0.3626049E-03  0.1206458E+04  0.7818609E-02  0.9107223E-01
       -2   -1    0    0    0  501  0.00000000000E+00  0.00000000000E+00  0.46699851784E+03  0.46699851784E+03  0.25500000920E-02 0.  1.
        2   -1    0    0  501    0  0.00000000000E+00  0.00000000000E+00 -0.77919936676E+03  0.77919936677E+03  0.25500000920E-02 0. -1.
    10030    2    1    2    0    0  0.00000000000E+00  0.00000000000E+00 -0.31220084893E+03  0.12461978846E+04  0.12064575407E+04 0.  0.
        1    1    3    3  502    0 -0.56601721533E+03  0.48637630749E+02  0.53420494480E+02  0.57060919764E+03  0.50400001928E-02 0.  1.
       -1    1    3    3    0  502  0.56601721533E+03 -0.48637630749E+02 -0.36562134341E+03  0.67558868697E+03  0.50400001928E-02 0. -1.
</event>
<event>
 5   0  0.3626049E-03  0.1199025E+04  0.7818609E-02  0.9113711E-01
        2   -1    0    0  501    0  0.00000000000E+00  0.00000000000E+00  0.11811466234E+04  0.11811466234E+04  0.25500000920E-02 0. -1.
       -2   -1    0    0    0  501  0.00000000000E+00  0.00000000000E+00 -0.30429329227E+03  0.30429329228E+03  0.25500000920E-02 0.  1.
    10030    2    1    2    0    0  0.00000000000E+00  0.00000000000E+00  0.87685333117E+03  0.14854399157E+04  0.11990245948E+04 0.  0.
        1    1    3    3  502    0 -0.14640560004E+03  0.89734353923E+02 -0.27317454463E+03  0.32266265023E+03  0.50400001928E-02 0.  1.
       -1    1    3    3    0  502  0.14640560004E+03 -0.89734353923E+02  0.11500278758E+04  0.11627772655E+04  0.50400001928E-02 0. -1.
</event>
<event>
 5   0  0.3626049E-03  0.1246133E+04  0.7818609E-02  0.9073408E-01
        2   -1    0    0  501    0  0.00000000000E+00  0.00000000000E+00  0.12276376786E+04  0.12276376786E+04  0.25500000920E-02 0. -1.
       -2   -1    0    0    0  501  0.00000000000E+00  0.00000000000E+00 -0.31622672828E+03  0.31622672829E+03  0.25500000920E-02 0.  1.
    10030    2    1    2    0    0  0.00000000000E+00  0.00000000000E+00  0.91141095033E+03  0.15438644069E+04  0.12461329731E+04 0.  0.
        1    1    3    3  502    0 -0.40446834328E+03 -0.12671514473E+03 -0.11009169875E+03  0.43791728760E+03  0.50400001928E-02 0.  1.
       -1    1    3    3    0  502  0.40446834328E+03  0.12671514473E+03  0.10215026491E+04  0.11059471193E+04  0.50400001928E-02 0. -1.
</event>
<event>
 5   0  0.2096270E-03  0.1206128E+04  0.7818609E-02  0.9107510E-01
        1   -1    0    0  501    0  0.00000000000E+00  0.00000000000E+00  0.18614943604E+04  0.18614943604E+04  0.50400001928E-02 0. -1.
       -1   -1    0    0    0  501  0.00000000000E+00  0.00000000000E+00 -0.19537320227E+03  0.19537320234E+03  0.50400001928E-02 0.  1.
    10030    2    1    2    0    0  0.00000000000E+00  0.00000000000E+00  0.16661211581E+04  0.20568675627E+04  0.12061278776E+04 0.  0.
        2    1    3    3  502    0 -0.36577155255E+03 -0.28971994135E+03  0.18153815577E+03  0.50068210980E+03  0.25500000920E-02 0.  1.
       -2    1    3    3    0  502  0.36577155255E+03  0.28971994135E+03  0.14845830023E+04  0.15561854529E+04  0.25500000920E-02 0. -1.
</event>
<event>
 5   0  0.2025294E-03  0.1174906E+04  0.7818609E-02  0.9135109E-01
       -1   -1    0    0    0  501  0.00000000000E+00  0.00000000000E+00  0.56750153762E+03  0.56750153764E+03  0.50400001928E-02 0. -1.
        1   -1    0    0  501    0  0.00000000000E+00  0.00000000000E+00 -0.60810577853E+03  0.60810577855E+03  0.50400001928E-02 0.  1.
    10030    2    1    2    0    0  0.00000000000E+00  0.00000000000E+00 -0.40604240908E+02  0.11756073162E+04  0.11749058930E+04 0.  0.
        5    1    3    3  502    0 -0.38870301800E+03  0.30095565623E+03 -0.34207540358E+03  0.59891736905E+03  0.46999998093E+01 0.  1.
       -5    1    3    3    0  502  0.38870301800E+03 -0.30095565623E+03  0.30147116268E+03  0.57668994715E+03  0.46999998093E+01 0. -1.
</event>
<event>
 5   0  0.3751091E-03  0.1182295E+04  0.7818609E-02  0.9128497E-01
       -2   -1    0    0    0  501  0.00000000000E+00  0.00000000000E+00  0.84855638651E+03  0.84855638651E+03  0.25500000920E-02 0.  1.
        2   -1    0    0  501    0  0.00000000000E+00  0.00000000000E+00 -0.41182304268E+03  0.41182304269E+03  0.25500000920E-02 0. -1.
    10030    2    1    2    0    0  0.00000000000E+00  0.00000000000E+00  0.43673334383E+03  0.12603794292E+04  0.11822945030E+04 0.  0.
        5    1    3    3  502    0  0.37971353969E+03 -0.42946899016E+03  0.64593582091E+02  0.57690589057E+03  0.46999998093E+01 0. -1.
       -5    1    3    3    0  502 -0.37971353969E+03  0.42946899016E+03  0.37213976174E+03  0.68347353862E+03  0.46999998093E+01 0.  1.
</event>
<event>
 5   0  0.2134992E-03  0.1035037E+04  0.7818609E-02  0.9270931E-01
        1   -1    0    0  501    0  0.00000000000E+00  0.00000000000E+00  0.12554753961E+04  0.12554753961E+04  0.50400001928E-02 0.  1.
       -1   -1    0    0    0  501  0.00000000000E+00  0.00000000000E+00 -0.21332572602E+03  0.21332572608E+03  0.50400001928E-02 0. -1.
    10030    2    1    2    0    0  0.00000000000E+00  0.00000000000E+00  0.10421496701E+04  0.14688011222E+04  0.10350366185E+04 0.  0.
        4    1    3    3  502    0 -0.57543817608E+02 -0.50591034378E+03  0.65242244872E+03  0.82759484736E+03  0.12699999809E+01 0.  1.
       -4    1    3    3    0  502  0.57543817608E+02  0.50591034378E+03  0.38972722134E+03  0.64120627480E+03  0.12699999809E+01 0. -1.
</event>
<event>
 5   0  0.3706035E-03  0.1203906E+04  0.7818609E-02  0.9109444E-01
       -2   -1    0    0    0  501  0.00000000000E+00  0.00000000000E+00  0.41647056819E+03  0.41647056819E+03  0.25500000920E-02 0.  1.
        2   -1    0    0  501    0  0.00000000000E+00  0.00000000000E+00 -0.87004389205E+03  0.87004389205E+03  0.25500000920E-02 0. -1.
    10030    2    1    2    0    0  0.00000000000E+00  0.00000000000E+00 -0.45357332386E+03  0.12865144602E+04  0.12039064317E+04 0.  0.
        2    1    3    3  502    0  0.35381829146E+03  0.47970841197E+03 -0.13712386494E+03  0.61164572934E+03  0.25500000920E-02 0.  1.
       -2    1    3    3    0  502 -0.35381829146E+03 -0.47970841197E+03 -0.31644945893E+03  0.67486873090E+03  0.25500000920E-02 0. -1.
</event>
<event>
 5   0  0.2047109E-03  0.1040671E+04  0.7818609E-02  0.9265029E-01
       -1   -1    0    0    0  501  0.00000000000E+00  0.00000000000E+00  0.18570190012E+03  0.18570190019E+03  0.50400001928E-02 0. -1.
        1   -1    0    0  501    0  0.00000000000E+00  0.00000000000E+00 -0.14579772706E+04  0.14579772707E+04  0.50400001928E-02 0.  1.
    10030    2    1    2    0    0  0.00000000000E+00  0.00000000000E+00 -0.12722753705E+04  0.16436791708E+04  0.10406712249E+04 0.  0.
        1    1    3    3  502    0 -0.15857044819E+03 -0.28089585939E+03 -0.12810104167E+04  0.13209976376E+04  0.50400001928E-02 0.  1.
       -1    1    3    3    0  502  0.15857044819E+03  0.28089585939E+03  0.87350461352E+01  0.32268153328E+03  0.50400001928E-02 0. -1.
</event>
<event>
 5   0  0.3650180E-03  0.1193776E+04  0.7818609E-02  0.9118322E-01
       -2   -1    0    0    0  501  0.00000000000E+00  0.00000000000E+00  0.40235676481E+03  0.40235676481E+03  0.25500000920E-02 0.  1.
        2   -1    0    0  501    0  0.00000000000E+00  0.00000000000E+00 -0.88547087697E+03  0.88547087697E+03  0.25500000920E-02 0. -1.
    10030    2    1    2    0    0  0.00000000000E+00  0.00000000000E+00 -0.48311411216E+03  0.12878276418E+04  0.11937758540E+04 0.  0.
        3    1    3    3  502    0 -0.13544314462E+03 -0.20189742761E+03 -0.82963623739E+03  0.86452513746E+03  0.10100000352E+00 0. -1.
       -3    1    3    3    0  502  0.13544314462E+03  0.20189742761E+03  0.34652212523E+03  0.42330250433E+03  0.10100000352E+00 0.  1.
</event>
<event>
 5   0  0.3751091E-03  0.1156324E+04  0.7818609E-02  0.9151969E-01
        2   -1    0    0  501    0  0.00000000000E+00  0.00000000000E+00  0.69493835086E+03  0.69493835086E+03  0.25500000920E-02 0.  1.
       -2   -1    0    0    0  501  0.00000000000E+00  0.00000000000E+00 -0.48100834023E+03  0.48100834024E+03  0.25500000920E-02 0. -1.
    10030    2    1    2    0    0  0.00000000000E+00  0.00000000000E+00  0.21393001063E+03  0.11759466911E+04  0.11563237310E+04 0.  0.
        5    1    3    3  502    0 -0.13828811987E+03  0.54924115632E+03  0.22494932315E+03  0.60943723210E+03  0.46999998093E+01 0. -1.
       -5    1    3    3    0  502  0.13828811987E+03 -0.54924115632E+03 -0.11019312524E+02  0.56650945900E+03  0.46999998093E+01 0.  1.
</event>
<event>
 5   0  0.2047109E-03  0.1224766E+04  0.7818609E-02  0.9091451E-01
        1   -1    0    0  501    0  0.00000000000E+00  0.00000000000E+00  0.46358225993E+03  0.46358225996E+03  0.50400001928E-02 0. -1.
       -1   -1    0    0    0  501  0.00000000000E+00  0.00000000000E+00 -0.80894531050E+03  0.80894531052E+03  0.50400001928E-02 0.  1.
    10030    2    1    2    0    0  0.00000000000E+00  0.00000000000E+00 -0.34536305056E+03  0.12725275705E+04  0.12247656024E+04 0.  0.
        1    1    3    3  502    0 -0.56359136207E+03  0.93018256486E+02 -0.40202716160E+03  0.69850802295E+03  0.50400001928E-02 0.  1.
       -1    1    3    3    0  502  0.56359136207E+03 -0.93018256486E+02  0.56664111034E+02  0.57401954753E+03  0.50400001928E-02 0. -1.
</event>
<event>
 5   0  0.2134992E-03  0.1181298E+04  0.7818609E-02  0.9129385E-01
       -1   -1    0    0    0  501  0.00000000000E+00  0.00000000000E+00  0.36355793789E+03  0.36355793792E+03  0.50400001928E-02 0. -1.
        1   -1    0    0  501    0  0.00000000000E+00  0.00000000000E+00 -0.95958980923E+03  0.95958980925E+03  0.50400001928E-02 0.  1.
    10030    2    1    2    0    0  0.00000000000E+00  0.00000000000E+00 -0.59603187134E+03  0.13231477472E+04  0.11812984251E+04 0.  0.
        4    1    3    3  502    0  0.10375731774E+03 -0.15002046428E+02  0.35305192254E+03  0.36829053109E+03  0.12699999809E+01 0. -1.
       -4    1    3    3    0  502 -0.10375731774E+03  0.15002046428E+02 -0.94908379388E+03  0.95485721608E+03  0.12699999809E+01 0.  1.
</event>
<event>
 5   0  0.2025294E-03  0.1075140E+04  0.7818609E-02  0.9229766E-01
        1   -1    0    0  501    0  0.00000000000E+00  0.00000000000E+00  0.43412447767E+03  0.43412447769E+03  0.50400001928E-02 0.  1.
       -1   -1    0    0    0  501  0.00000000000E+00  0.00000000000E+00 -0.66566552046E+03  0.66566552048E+03  0.50400001928E-02 0. -1.
    10030    2    1    2    0    0  0.00000000000E+00  0.00000000000E+00 -0.23154104279E+03  0.10997899982E+04  0.10751403562E+04 0.  0.
        5    1    3    3  502    0  0.38470250630E+02  0.38527323208E+03 -0.49720593702E+03  0.63019937905E+03  0.46999998093E+01 0. -1.
       -5    1    3    3    0  502 -0.38470250630E+02 -0.38527323208E+03  0.26566489423E+03  0.46959061912E+03  0.46999998093E+01 0.  1.
</event>
<event>
 5   0  0.2025294E-03  0.1199452E+04  0.7818609E-02  0.9113336E-01
        1   -1    0    0  501    0  0.00000000000E+00  0.00000000000E+00  0.14250518512E+04  0.14250518512E+04  0.50400001928E-02 0.  1.
       -1   -1    0    0    0  501  0.00000000000E+00  0.00000000000E+00 -0.25239169636E+03  0.25239169641E+03  0.50400001928E-02 0. -1.
    10030    2    1    2    0    0  0.00000000000E+00  0.00000000000E+00  0.11726601549E+04  0.16774435477E+04  0.11994519652E+04 0.  0.
        5    1    3    3  502    0  0.47400681901E+02  0.55088957595E+03  0.26157785252E+03  0.61169535920E+03  0.46999998093E+01 0. -1.
       -5    1    3    3    0  502 -0.47400681901E+02 -0.55088957595E+03  0.91108230235E+03  0.10657481885E+04  0.46999998093E+01 0.  1.
</event>
<event>
 5   0  0.3751091E-03  0.1299836E+04  0.7818609E-02  0.9029695E-01
       -2   -1    0    0    0  501  0.00000000000E+00  0.00000000000E+00  0.43679097408E+03  0.43679097409E+03  0.25500000920E-02 0. -1.
        2   -1    0    0  501    0  0.00000000000E+00  0.00000000000E+00 -0.96703836561E+03  0.96703836561E+03  0.25500000920E-02 0.  1.
    10030    2    1    2    0    0  0.00000000000E+00  0.00000000000E+00 -0.53024739152E+03  0.14038293397E+04  0.12998363431E+04 0.  0.
        5    1    3    3  502    0 -0.83899601398E+02 -0.10429490643E+03  0.42172444501E+03  0.44248182804E+03  0.46999998093E+01 0. -1.
       -5    1    3    3    0  502  0.83899601398E+02  0.10429490643E+03 -0.95197183654E+03  0.96134751166E+03  0.46999998093E+01 0.  1.
</event>
<event>
 5   0  0.3751091E-03  0.1207231E+04  0.7818609E-02  0.9106551E-01
       -2   -1    0    0    0  501  0.00000000000E+00  0.00000000000E+00  0.29726590440E+03  0.29726590442E+03  0.25500000920E-02 0.  1.
        2   -1    0    0  501    0  0.00000000000E+00  0.00000000000E+00 -0.12256751483E+04  0.12256751483E+04  0.25500000920E-02 0. -1.
    10030    2    1    2    0    0  0.00000000000E+00  0.00000000000E+00 -0.92840924390E+03  0.15229410527E+04  0.12072306018E+04 0.  0.
        5    1    3    3  502    0  0.93797942615E+02  0.11066333928E+02 -0.12162723636E+04  0.12199430602E+04  0.46999998093E+01 0. -1.
       -5    1    3    3    0  502 -0.93797942615E+02 -0.11066333928E+02  0.28786311968E+03  0.30299799250E+03  0.46999998093E+01 0.  1.
</event>
<event>
 5   0  0.3650180E-03  0.1068490E+04  0.7818609E-02  0.9236460E-01
       -2   -1    0    0    0  501  0.00000000000E+00  0.00000000000E+00  0.70009709707E+03  0.70009709707E+03  0.25500000920E-02 0. -1.
        2   -1    0    0  501    0  0.00000000000E+00  0.00000000000E+00 -0.40768291527E+03  0.40768291528E+03  0.25500000920E-02 0.  1.
    10030    2    1    2    0    0  0.00000000000E+00  0.00000000000E+00  0.29241418180E+03  0.11077800124E+04  0.10684898231E+04 0.  0.
        3    1    3    3  502    0  0.38305673338E+03 -0.28328071249E+03 -0.10441988012E+03  0.48773347704E+03  0.10100000352E+00 0.  1.
       -3    1    3    3    0  502 -0.38305673338E+03  0.28328071249E+03  0.39683406192E+03  0.62004653531E+03  0.10100000352E+00 0. -1.
</event>
<event>
 5   0  0.3751091E-03  0.1200356E+04  0.7818609E-02  0.9112545E-01
       -2   -1    0    0    0  501  0.00000000000E+00  0.00000000000E+00  0.35437546748E+03  0.35437546749E+03  0.25500000920E-02 0. -1.
        2   -1    0    0  501    0  0.00000000000E+00  0.00000000000E+00 -0.10164743351E+04  0.10164743351E+04  0.25500000920E-02 0.  1.
    10030    2    1    2    0    0  0.00000000000E+00  0.00000000000E+00 -0.66209886759E+03  0.13708498026E+04  0.12003558934E+04 0.  0.
        5    1    3    3  502    0  0.57099193632E+03  0.14565411835E+03 -0.20111520866E+03  0.62266871664E+03  0.46999998093E+01 0. -1.
       -5    1    3    3    0  502 -0.57099193632E+03 -0.14565411835E+03 -0.46098365894E+03  0.74818108593E+03  0.46999998093E+01 0.  1.
</event>
<event>
 5   0  0.2096270E-03  0.1210291E+04  0.7818609E-02  0.9103896E-01
       -1   -1    0    0    0  501  0.00000000000E+00  0.00000000000E+00  0.42446680117E+03  0.42446680120E+03  0.50400001928E-02 0.  1.
        1   -1    0    0  501    0  0.00000000000E+00  0.00000000000E+00 -0.86273244687E+03  0.86273244688E+03  0.50400001928E-02 0. -1.
    10030    2    1    2    0    0  0.00000000000E+00  0.00000000000E+00 -0.43826564570E+03  0.12871992481E+04  0.12102913402E+04 0.  0.
        2    1    3    3  502    0  0.21568693571E+03 -0.50335043450E+03 -0.49302149845E+03  0.73685325004E+03  0.25500000920E-02 0. -1.
       -2    1    3    3    0  502 -0.21568693571E+03  0.50335043450E+03  0.54755852747E+02  0.55034599805E+03  0.25500000920E-02 0.  1.
</event>
<event>
 5   0  0.3650180E-03  0.1195088E+04  0.7818609E-02  0.9117166E-01
       -2   -1    0    0    0  501  0.00000000000E+00  0.00000000000E+00  0.28013546016E+03  0.28013546017E+03  0.25500000920E-02 0. -1.
        2   -1    0    0  501    0  0.00000000000E+00  0.00000000000E+00 -0.12745944601E+04  0.12745944601E+04  0.25500000920E-02 0.  1.
    10030    2    1    2    0    0  0.00000000000E+00  0.00000000000E+00 -0.99445899997E+03  0.15547299203E+04  0.11950884580E+04 0.  0.
        3    1    3    3  502    0 -0.10869050747E+03 -0.53816285746E+03 -0.19040175265E+03  0.58110732672E+03  0.10100000352E+00 0. -1.
       -3    1    3    3    0  502  0.10869050747E+03  0.53816285746E+03 -0.80405724733E+03  0.97362259359E+03  0.10100000352E+00 0.  1.
</event>
<event>
 5   0  0.3725376E-03  0.1099396E+04  0.7818609E-02  0.9205781E-01
       -2   -1    0    0    0  501  0.00000000000E+00  0.00000000000E+00  0.13384452679E+03  0.13384452682E+03  0.25500000920E-02 0.  1.
        2   -1    0    0  501    0  0.00000000000E+00  0.00000000000E+00 -0.22576023265E+04  0.22576023265E+04  0.25500000920E-02 0. -1.
    10030    2    1    2    0    0  0.00000000000E+00  0.00000000000E+00 -0.21237577997E+04  0.23914468533E+04  0.10993956796E+04 0.  0.
        4    1    3    3  502    0  0.30975251280E+03  0.36104962614E+03 -0.46274938634E+03  0.66365808906E+03  0.12699999809E+01 0.  1.
       -4    1    3    3    0  502 -0.30975251280E+03 -0.36104962614E+03 -0.16610084133E+04  0.17277887642E+04  0.12699999809E+01 0. -1.
</event>
<event>
 5   0  0.3650180E-03  0.1216246E+04  0.7818609E-02  0.9098754E-01
        2   -1    0    0  501    0  0.00000000000E+00  0.00000000000E+00  0.40244952320E+03  0.40244952321E+03  0.25500000920E-02 0. -1.
       -2   -1    0    0    0  501  0.00000000000E+00  0.00000000000E+00 -0.91890612170E+03  0.91890612170E+03  0.25500000920E-02 0.  1.
    10030    2    1    2    0    0  0.00000000000E+00  0.00000000000E+00 -0.51645659850E+03  0.13213556449E+04  0.12162455847E+04 0.  0.
        3    1    3    3  502    0 -0.13847462323E+03 -0.32368549799E+03 -0.79692895810E+03  0.87123090932E+03  0.10100000352E+00 0.  1.
       -3    1    3    3    0  502  0.13847462323E+03  0.32368549799E+03  0.28047235960E+03  0.45012473559E+03  0.10100000352E+00 0. -1.
</event>
<event>
 5   0  0.2096270E-03  0.1219010E+04  0.7818609E-02  0.9096378E-01
       -1   -1    0    0    0  501  0.00000000000E+00  0.00000000000E+00  0.10354467060E+04  0.10354467060E+04  0.50400001928E-02 0.  1.
        1   -1    0    0  501    0  0.00000000000E+00  0.00000000000E+00 -0.35877899284E+03  0.35877899288E+03  0.50400001928E-02 0. -1.
    10030    2    1    2    0    0  0.00000000000E+00  0.00000000000E+00  0.67666771318E+03  0.13942256989E+04  0.12190102975E+04 0.  0.
        2    1    3    3  502    0 -0.18775489769E+03  0.52126320718E+03  0.62887267412E+03  0.83812175311E+03  0.25500000920E-02 0.  1.
       -2    1    3    3    0  502  0.18775489769E+03 -0.52126320718E+03  0.47795039060E+02  0.55610394580E+03  0.25500000920E-02 0. -1.
</event>
<event>
 5   0  0.3706035E-03  0.1194900E+04  0.7818609E-02  0.9117332E-01
       -2   -1    0    0    0  501  0.00000000000E+00  0.00000000000E+00  0.20164924857E+03  0.20164924858E+03  0.25500000920E-02 0. -1.
        2   -1    0    0  501    0  0.00000000000E+00  0.00000000000E+00 -0.17701354603E+04  0.17701354603E+04  0.25500000920E-02 0.  1.
    10030    2    1    2    0    0  0.00000000000E+00  0.00000000000E+00 -0.15684862117E+04  0.19717847089E+04  0.11948999715E+04 0.  0.
        2    1    3    3  502    0 -0.45618167834E+03  0.24515734331E+03 -0.12758230013E+04  0.13769270777E+04  0.25500000920E-02 0.  1.
       -2    1    3    3    0  502  0.45618167834E+03 -0.24515734331E+03 -0.29266321040E+03  0.59485763117E+03  0.25500000920E-02 0. -1.
</event>
<event>
 5   0  0.2134992E-03  0.1191480E+04  0.7818609E-02  0.9120347E-01
       -1   -1    0    0    0  501  0.00000000000E+00  0.00000000000E+00  0.37775552513E+03  0.37775552516E+03  0.50400001928E-02 0. -1.
        1   -1    0    0  501    0  0.00000000000E+00  0.00000000000E+00 -0.93951206640E+03  0.93951206641E+03  0.50400001928E-02 0.  1.
    10030    2    1    2    0    0  0.00000000000E+00  0.00000000000E+00 -0.56175654127E+03  0.13172675916E+04  0.11914795408E+04 0.  0.
        4    1    3    3  502    0 -0.14541546442E+03  0.31070535526E+03  0.25759455107E+03  0.42899888196E+03  0.12699999809E+01 0. -1.
       -4    1    3    3    0  502  0.14541546442E+03 -0.31070535526E+03 -0.81935109233E+03  0.88826870962E+03  0.12699999809E+01 0.  1.
</event>
<event>
 5   0  0.2134992E-03  0.1105283E+04  0.7818609E-02  0.9200058E-01
       -1   -1    0    0    0  501  0.00000000000E+00  0.00000000000E+00  0.32850681357E+03  0.32850681361E+03  0.50400001928E-02 0. -1.
        1   -1    0    0  501    0  0.00000000000E+00  0.00000000000E+00 -0.92969873447E+03  0.92969873448E+03  0.50400001928E-02 0.  1.
    10030    2    1    2    0    0  0.00000000000E+00  0.00000000000E+00 -0.60119192090E+03  0.12582055481E+04  0.11052825320E+04 0.  0.
        4    1    3    3  502    0 -0.35646359958E+03  0.21069944354E+03 -0.71722542154E+03  0.82817538694E+03  0.12699999809E+01 0.  1.
       -4    1    3    3    0  502  0.35646359958E+03 -0.21069944354E+03  0.11603350063E+03  0.43003016115E+03  0.12699999809E+01 0. -1.
</event>
<event>
 5   0  0.3725376E-03  0.1162761E+04  0.7818609E-02  0.9146091E-01
       -2   -1    0    0    0  501  0.00000000000E+00  0.00000000000E+00  0.25969455464E+03  0.25969455466E+03  0.25500000920E-02 0. -1.
        2   -1    0    0  501    0  0.00000000000E+00  0.00000000000E+00 -0.13015427128E+04  0.13015427128E+04  0.25500000920E-02 0.  1.
    10030    2    1    2    0    0  0.00000000000E+00  0.00000000000E+00 -0.10418481581E+04  0.15612372674E+04  0.11627614633E+04 0.  0.
        4    1    3    3  502    0  0.15775765067E+02  0.26083093654E+03  0.17640068531E+03  0.31527839586E+03  0.12699999809E+01 0. -1.
       -4    1    3    3    0  502 -0.15775765067E+02 -0.26083093654E+03 -0.12182488434E+04  0.12459588716E+04  0.12699999809E+01 0.  1.
</event>
<event>
 5   0  0.2078258E-03  0.1199806E+04  0.7818609E-02  0.9113026E-01
        1   -1    0    0  501    0  0.00000000000E+00  0.00000000000E+00  0.31461271912E+03  0.31461271917E+03  0.50400001928E-02 0. -1.
       -1   -1    0    0    0  501  0.00000000000E+00  0.00000000000E+00 -0.11438947477E+04  0.11438947477E+04  0.50400001928E-02 0.  1.
    10030    2    1    2    0    0  0.00000000000E+00  0.00000000000E+00 -0.82928202857E+03  0.14585074669E+04  0.11998063794E+04 0.  0.
        3    1    3    3  502    0 -0.55168452443E+03 -0.13093692631E+03 -0.65280164242E+03  0.86466773255E+03  0.10100000352E+00 0.  1.
       -3    1    3    3    0  502  0.55168452443E+03  0.13093692631E+03 -0.17648038615E+03  0.59383973432E+03  0.10100000352E+00 0. -1.
</event>
<event>
 5   0  0.1397500E-03  0.1208447E+04  0.7818609E-02  0.9105495E-01
        4   -1    0    0  501    0  0.00000000000E+00  0.00000000000E+00  0.18989205781E+04  0.18989210028E+04  0.12699999809E+01 0. -1.
       -4   -1    0    0    0  501  0.00000000000E+00  0.00000000000E+00 -0.19225718916E+03  0.19226138375E+03  0.12699999809E+01 0.  1.
    10030    2    1    2    0    0  0.00000000000E+00  0.00000000000E+00  0.17066633890E+04  0.20911823866E+04  0.12084468754E+04 0.  0.
        5    1    3    3  502    0 -0.31420446349E+03  0.43476216995E+03  0.13345186838E+04  0.14382992723E+04  0.46999998093E+01 0. -1.
       -5    1    3    3    0  502  0.31420446349E+03 -0.43476216995E+03  0.37214470514E+03  0.65288311424E+03  0.46999998093E+01 0.  1.
</event>
<event>
 5   0  0.3650180E-03  0.1524428E+04  0.7818609E-02  0.8868369E-01
       -2   -1    0    0    0  501  0.00000000000E+00  0.00000000000E+00  0.43905651626E+03  0.43905651626E+03  0.25500000920E-02 0. -1.
        2   -1    0    0  501    0  0.00000000000E+00  0.00000000000E+00 -0.13232246244E+04  0.13232246244E+04  0.25500000920E-02 0.  1.
    10030    2    1    2    0    0  0.00000000000E+00  0.00000000000E+00 -0.88416810811E+03  0.17622811406E+04  0.15244282782E+04 0.  0.
        3    1    3    3  502    0 -0.42108134593E+03 -0.32238358074E+03  0.19081302948E+03  0.56360473334E+03  0.10100000352E+00 0. -1.
       -3    1    3    3    0  502  0.42108134593E+03  0.32238358074E+03 -0.10749811376E+04  0.11986764073E+04  0.10100000352E+00 0.  1.
</event>
<event>
 5   0  0.3650180E-03  0.1204649E+04  0.7818609E-02  0.9108797E-01
       -2   -1    0    0    0  501  0.00000000000E+00  0.00000000000E+00  0.20536982048E+03  0.20536982050E+03  0.25500000920E-02 0. -1.
        2   -1    0    0  501    0  0.00000000000E+00  0.00000000000E+00 -0.17665444441E+04  0.17665444441E+04  0.25500000920E-02 0.  1.
    10030    2    1    2    0    0  0.00000000000E+00  0.00000000000E+00 -0.15611746236E+04  0.19719142646E+04  0.12046491861E+04 0.  0.
        3    1    3    3  502    0  0.21033173532E+03 -0.47657537077E+03 -0.28562163970E+03  0.59409027443E+03  0.10100000352E+00 0. -1.
       -3    1    3    3    0  502 -0.21033173532E+03  0.47657537077E+03 -0.12755529839E+04  0.13778239901E+04  0.10100000352E+00 0.  1.
</event>
<event>
 5   0  0.3725376E-03  0.1218894E+04  0.7818609E-02  0.9096477E-01
        2   -1    0    0  501    0  0.00000000000E+00  0.00000000000E+00  0.72985832620E+03  0.72985832620E+03  0.25500000920E-02 0.  1.
       -2   -1    0    0    0  501  0.00000000000E+00  0.00000000000E+00 -0.50890134638E+03  0.50890134639E+03  0.25500000920E-02 0. -1.
    10030    2    1    2    0    0  0.00000000000E+00  0.00000000000E+00  0.22095697981E+03  0.12387596726E+04  0.12188943923E+04 0.  0.
        4    1    3    3  502    0  0.76844673886E+02  0.53553789220E+03 -0.17466202328E+03  0.56851945715E+03  0.12699999809E+01 0. -1.
       -4    1    3    3    0  502 -0.76844673886E+02 -0.53553789220E+03  0.39561900309E+03  0.67024021544E+03  0.12699999809E+01 0.  1.
</event>
<event>
 5   0  0.2047109E-03  0.1196154E+04  0.7818609E-02  0.9116229E-01
        1   -1    0    0  501    0  0.00000000000E+00  0.00000000000E+00  0.73169809172E+03  0.73169809174E+03  0.50400001928E-02 0. -1.
       -1   -1    0    0    0  501  0.00000000000E+00  0.00000000000E+00 -0.48885787927E+03  0.48885787930E+03  0.50400001928E-02 0.  1.
    10030    2    1    2    0    0  0.00000000000E+00  0.00000000000E+00  0.24284021245E+03  0.12205559710E+04  0.11961544673E+04 0.  0.
        1    1    3    3  502    0  0.50351852206E+03  0.19921355818E+03  0.38052823616E+03  0.66182979864E+03  0.50400001928E-02 0. -1.
       -1    1    3    3    0  502 -0.50351852206E+03 -0.19921355818E+03 -0.13768802371E+03  0.55872617240E+03  0.50400001928E-02 0.  1.
</event>
<event>
 5   0  0.3725376E-03  0.1212459E+04  0.7818609E-02  0.9102021E-01
        2   -1    0    0  501    0  0.00000000000E+00  0.00000000000E+00  0.72289046419E+03  0.72289046420E+03  0.25500000920E-02 0. -1.
       -2   -1    0    0    0  501  0.00000000000E+00  0.00000000000E+00 -0.50839512978E+03  0.50839512979E+03  0.25500000920E-02 0.  1.
    10030    2    1    2    0    0  0.00000000000E+00  0.00000000000E+00  0.21449533441E+03  0.12312855940E+04  0.12124586449E+04 0.  0.
        4    1    3    3  502    0  0.39122020932E+02 -0.72302681923E+02  0.71720231182E+03  0.72189956318E+03  0.12699999809E+01 0. -1.
       -4    1    3    3    0  502 -0.39122020932E+02  0.72302681923E+02 -0.50270697742E+03  0.50938603081E+03  0.12699999809E+01 0.  1.
</event>
<event>
 5   0  0.2078258E-03  0.1183022E+04  0.7818609E-02  0.9127848E-01
        1   -1    0    0  501    0  0.00000000000E+00  0.00000000000E+00  0.46288580031E+03  0.46288580034E+03  0.50400001928E-02 0.  1.
       -1   -1    0    0    0  501  0.00000000000E+00  0.00000000000E+00 -0.75587847399E+03  0.75587847400E+03  0.50400001928E-02 0. -1.
    10030    2    1    2    0    0  0.00000000000E+00  0.00000000000E+00 -0.29299267368E+03  0.12187642743E+04  0.11830222524E+04 0.  0.
        3    1    3    3  502    0  0.47664978154E+03 -0.35011486917E+03 -0.15729964269E+03  0.61197926734E+03  0.10100000352E+00 0.  1.
       -3    1    3    3    0  502 -0.47664978154E+03  0.35011486917E+03 -0.13569303099E+03  0.60678500700E+03  0.10100000352E+00 0. -1.
</event>
<event>
 5   0  0.3650180E-03  0.1194440E+04  0.7818609E-02  0.9117737E-01
        2   -1    0    0  501    0  0.00000000000E+00  0.00000000000E+00  0.38963750070E+03  0.38963750071E+03  0.25500000920E-02 0.  1.
       -2   -1    0    0    0  501  0.00000000000E+00  0.00000000000E+00 -0.91539420135E+03  0.91539420135E+03  0.25500000920E-02 0. -1.
    10030    2    1    2    0    0  0.00000000000E+00  0.00000000000E+00 -0.52575670065E+03  0.13050317021E+04  0.11944403020E+04 0.  0.
        3    1    3    3  502    0  0.37083000370E+03 -0.33930506559E+03 -0.61527680130E+03  0.79448623122E+03  0.10100000352E+00 0. -1.
       -3    1    3    3    0  502 -0.37083000370E+03  0.33930506559E+03  0.89520100651E+02  0.51054547085E+03  0.10100000352E+00 0.  1.
</event>
<event>
 5   0  0.3650180E-03  0.1201286E+04  0.7818609E-02  0.9111732E-01
       -2   -1    0    0    0  501  0.00000000000E+00  0.00000000000E+00  0.28956517023E+03  0.28956517024E+03  0.25500000920E-02 0. -1.
        2   -1    0    0  501    0  0.00000000000E+00  0.00000000000E+00 -0.12459097139E+04  0.12459097139E+04  0.25500000920E-02 0.  1.
    10030    2    1    2    0    0  0.00000000000E+00  0.00000000000E+00 -0.95634454370E+03  0.15354748842E+04  0.12012860749E+04 0.  0.
        3    1    3    3  502    0  0.29591623696E+03 -0.12003555569E+03 -0.11284157009E+04  0.11727305565E+04  0.10100000352E+00 0.  1.
       -3    1    3    3    0  502 -0.29591623696E+03  0.12003555569E+03  0.17207115719E+03  0.36274432768E+03  0.10100000352E+00 0. -1.
</event>
<event>
 5   0  0.2134992E-03  0.1192986E+04  0.7818609E-02  0.9119018E-01
        1   -1    0    0  501    0  0.00000000000E+00  0.00000000000E+00  0.10300797896E+04  0.10300797896E+04  0.50400001928E-02 0.  1.
       -1   -1    0    0    0  501  0.00000000000E+00  0.00000000000E+00 -0.34541379485E+03  0.34541379489E+03  0.50400001928E-02 0. -1.
    10030    2    1    2    0    0  0.00000000000E+00  0.00000000000E+00  0.68466599473E+03  0.13754935845E+04  0.11929857822E+04 0.  0.
        4    1    3    3  502    0  0.10548673829E+03  0.49745149521E+03  0.70182875564E+03  0.86668948141E+03  0.12699999809E+01 0.  1.
       -4    1    3    3    0  502 -0.10548673829E+03 -0.49745149521E+03 -0.17162760917E+02  0.50880410307E+03  0.12699999809E+01 0. -1.
</event>
<event>
 5   0  0.2047109E-03  0.1169982E+04  0.7818609E-02  0.9139544E-01
        1   -1    0    0  501    0  0.00000000000E+00  0.00000000000E+00  0.40767035363E+03  0.40767035366E+03  0.50400001928E-02 0.  1.
       -1   -1    0    0    0  501  0.00000000000E+00  0.00000000000E+00 -0.83943950249E+03  0.83943950250E+03  0.50400001928E-02 0. -1.
    10030    2    1    2    0    0  0.00000000000E+00  0.00000000000E+00 -0.43176914885E+03  0.12471098562E+04  0.11699822201E+04 0.  0.
        1    1    3    3  502    0 -0.33628232133E+03 -0.64263703418E+02 -0.72149465027E+03  0.79860512997E+03  0.50400001928E-02 0. -1.
       -1    1    3    3    0  502  0.33628232133E+03  0.64263703418E+02  0.28972550142E+03  0.44850472619E+03  0.50400001928E-02 0.  1.
</event>
<event>
 5   0  0.3626049E-03  0.1208752E+04  0.7818609E-02  0.9105230E-01
       -2   -1    0    0    0  501  0.00000000000E+00  0.00000000000E+00  0.31063035394E+03  0.31063035395E+03  0.25500000920E-02 0.  1.
        2   -1    0    0  501    0  0.00000000000E+00  0.00000000000E+00 -0.11759012693E+04  0.11759012693E+04  0.25500000920E-02 0. -1.
    10030    2    1    2    0    0  0.00000000000E+00  0.00000000000E+00 -0.86527091536E+03  0.14865316233E+04  0.12087524602E+04 0.  0.
        1    1    3    3  502    0 -0.51461368475E+03 -0.30536316239E+03 -0.53696424144E+03  0.80399284953E+03  0.50400001928E-02 0.  1.
       -1    1    3    3    0  502  0.51461368475E+03  0.30536316239E+03 -0.32830667392E+03  0.68253877373E+03  0.50400001928E-02 0. -1.
</event>
<event>
 5   0  0.2134992E-03  0.1190880E+04  0.7818609E-02  0.9120877E-01
        1   -1    0    0  501    0  0.00000000000E+00  0.00000000000E+00  0.11252779635E+04  0.11252779635E+04  0.50400001928E-02 0. -1.
       -1   -1    0    0    0  501  0.00000000000E+00  0.00000000000E+00 -0.31507641629E+03  0.31507641633E+03  0.50400001928E-02 0.  1.
    10030    2    1    2    0    0  0.00000000000E+00  0.00000000000E+00  0.81020154716E+03  0.14403543798E+04  0.11908795877E+04 0.  0.
        4    1    3    3  502    0 -0.15356198085E+03 -0.45524557894E+03  0.83051930122E+03  0.95947576400E+03  0.12699999809E+01 0. -1.
       -4    1    3    3    0  502  0.15356198085E+03  0.45524557894E+03 -0.20317754054E+02  0.48087861580E+03  0.12699999809E+01 0.  1.
</event>
<event>
 5   0  0.3751091E-03  0.1201280E+04  0.7818609E-02  0.9111737E-01
        2   -1    0    0  501    0  0.00000000000E+00  0.00000000000E+00  0.62250797705E+03  0.62250797705E+03  0.25500000920E-02 0.  1.
       -2   -1    0    0    0  501  0.00000000000E+00  0.00000000000E+00 -0.57954033828E+03  0.57954033828E+03  0.25500000920E-02 0. -1.
    10030    2    1    2    0    0  0.00000000000E+00  0.00000000000E+00  0.42967638771E+02  0.12020483153E+04  0.12012801232E+04 0.  0.
        5    1    3    3  502    0 -0.58238414641E+03 -0.68933833632E+02  0.15127114250E+03  0.60566345107E+03  0.46999998093E+01 0.  1.
       -5    1    3    3    0  502  0.58238414641E+03  0.68933833632E+02 -0.10830350373E+03  0.59638486427E+03  0.46999998093E+01 0. -1.
</event>
<event>
 5   0  0.2096270E-03  0.1188431E+04  0.7818609E-02  0.9123044E-01
        1   -1    0    0  501    0  0.00000000000E+00  0.00000000000E+00  0.87041601918E+03  0.87041601920E+03  0.50400001928E-02 0.  1.
       -1   -1    0    0    0  501  0.00000000000E+00  0.00000000000E+00 -0.40565888238E+03  0.40565888241E+03  0.50400001928E-02 0. -1.
    10030    2    1    2    0    0  0.00000000000E+00  0.00000000000E+00  0.46475713680E+03  0.12760749016E+04  0.11884308807E+04 0.  0.
        2    1    3    3  502    0  0.45686389892E+03  0.35270801762E+03  0.80662840021E+02  0.58278131542E+03  0.25500000920E-02 0. -1.
       -2    1    3    3    0  502 -0.45686389892E+03 -0.35270801762E+03  0.38409429678E+03  0.69329358619E+03  0.25500000920E-02 0.  1.
</event>
<event>
 5   0  0.2025294E-03  0.1223826E+04  0.7818609E-02  0.9092254E-01
       -1   -1    0    0    0  501  0.00000000000E+00  0.00000000000E+00  0.36386784106E+03  0.36386784110E+03  0.50400001928E-02 0.  1.
        1   -1    0    0  501    0  0.00000000000E+00  0.00000000000E+00 -0.10290475203E+04  0.10290475203E+04  0.50400001928E-02 0. -1.
    10030    2    1    2    0    0  0.00000000000E+00  0.00000000000E+00 -0.66517967927E+03  0.13929153614E+04  0.12238256405E+04 0.  0.
        5    1    3    3  502    0 -0.12566950682E+03  0.56249677036E+03 -0.56645369302E+03  0.80813817998E+03  0.46999998093E+01 0.  1.
       -5    1    3    3    0  502  0.12566950682E+03 -0.56249677036E+03 -0.98725986251E+02  0.58477718147E+03  0.46999998093E+01 0. -1.
</event>
<event>
 5   0  0.2047109E-03  0.1275032E+04  0.7818609E-02  0.9049603E-01
       -1   -1    0    0    0  501  0.00000000000E+00  0.00000000000E+00  0.41754371205E+03  0.41754371208E+03  0.50400001928E-02 0.  1.
        1   -1    0    0  501    0  0.00000000000E+00  0.00000000000E+00 -0.97337489134E+03  0.97337489135E+03  0.50400001928E-02 0. -1.
    10030    2    1    2    0    0  0.00000000000E+00  0.00000000000E+00 -0.55583117929E+03  0.13909186034E+04  0.12750318669E+04 0.  0.
        1    1    3    3  502    0  0.18103558944E+03 -0.13195310837E+03  0.37319185722E+03  0.43526735436E+03  0.50400001928E-02 0.  1.
       -1    1    3    3    0  502 -0.18103558944E+03  0.13195310837E+03 -0.92902303651E+03  0.95565124906E+03  0.50400001928E-02 0. -1.
</event>
<event>
 5   0  0.3751091E-03  0.1105855E+04  0.7818609E-02  0.9199504E-01
        2   -1    0    0  501    0  0.00000000000E+00  0.00000000000E+00  0.17570697390E+04  0.17570697390E+04  0.25500000920E-02 0.  1.
       -2   -1    0    0    0  501  0.00000000000E+00  0.00000000000E+00 -0.17399937736E+03  0.17399937737E+03  0.25500000920E-02 0. -1.
    10030    2    1    2    0    0  0.00000000000E+00  0.00000000000E+00  0.15830703616E+04  0.19310691164E+04  0.11058553985E+04 0.  0.
        5    1    3    3  502    0  0.42364471455E+02  0.46444695742E+03  0.13101402846E+04  0.13906816242E+04  0.46999998093E+01 0.  1.
       -5    1    3    3    0  502 -0.42364471455E+02 -0.46444695742E+03  0.27293007706E+03  0.54038749214E+03  0.46999998093E+01 0. -1.
</event>
<event>
 5   0  0.2096270E-03  0.1173415E+04  0.7818609E-02  0.9136450E-01
        1   -1    0    0  501    0  0.00000000000E+00  0.00000000000E+00  0.40317122194E+03  0.40317122198E+03  0.50400001928E-02 0.  1.
       -1   -1    0    0    0  501  0.00000000000E+00  0.00000000000E+00 -0.85379513911E+03  0.85379513913E+03  0.50400001928E-02 0. -1.
    10030    2    1    2    0    0  0.00000000000E+00  0.00000000000E+00 -0.45062391717E+03  0.12569663611E+04  0.11734148960E+04 0.  0.
        2    1    3    3  502    0  0.47310440330E+03 -0.34178277195E+03 -0.28942678714E+03  0.65146842191E+03  0.25500000920E-02 0. -1.
       -2    1    3    3    0  502 -0.47310440330E+03  0.34178277195E+03 -0.16119713003E+03  0.60549793919E+03  0.25500000920E-02 0.  1.
</event>
<event>
 5   0  0.2078258E-03  0.1195674E+04  0.7818609E-02  0.9116651E-01
       -1   -1    0    0    0  501  0.00000000000E+00  0.00000000000E+00  0.29915013104E+03  0.29915013108E+03  0.50400001928E-02 0. -1.
        1   -1    0    0  501    0  0.00000000000E+00  0.00000000000E+00 -0.11947482305E+04  0.11947482306E+04  0.50400001928E-02 0.  1.
    10030    2    1    2    0    0  0.00000000000E+00  0.00000000000E+00 -0.89559809951E+03  0.14938983616E+04  0.11956740187E+04 0.  0.
        3    1    3    3  502    0  0.56038738501E+03  0.29660451540E+02 -0.70535927108E+03  0.90135757342E+03  0.10100000352E+00 0.  1.
       -3    1    3    3    0  502 -0.56038738501E+03 -0.29660451540E+02 -0.19023882843E+03  0.59254078822E+03  0.10100000352E+00 0. -1.
</event>
<event>
 5   0  0.3650180E-03  0.1180947E+04  0.7818609E-02  0.9129699E-01
       -2   -1    0    0    0  501  0.00000000000E+00  0.00000000000E+00  0.25981024944E+03  0.25981024945E+03  0.25500000920E-02 0.  1.
        2   -1    0    0  501    0  0.00000000000E+00  0.00000000000E+00 -0.13419760491E+04  0.13419760491E+04  0.25500000920E-02 0. -1.
    10030    2    1    2    0    0  0.00000000000E+00  0.00000000000E+00 -0.10821657996E+04  0.16017862985E+04  0.11809473012E+04 0.  0.
        3    1    3    3  502    0  0.14677907499E+03  0.57176817322E+03 -0.56008067009E+03  0.81372803072E+03  0.10100000352E+00 0.  1.
       -3    1    3    3    0  502 -0.14677907499E+03 -0.57176817322E+03 -0.52208512953E+03  0.78805826780E+03  0.10100000352E+00 0. -1.
</event>
<event>
 5   0  0.3751091E-03  0.1203327E+04  0.7818609E-02  0.9109949E-01
        2   -1    0    0  501    0  0.00000000000E+00  0.00000000000E+00  0.49163190733E+03  0.49163190734E+03  0.25500000920E-02 0. -1.
       -2   -1    0    0    0  501  0.00000000000E+00  0.00000000000E+00 -0.73632172580E+03  0.73632172580E+03  0.25500000920E-02 0.  1.
    10030    2    1    2    0    0  0.00000000000E+00  0.00000000000E+00 -0.24468981847E+03  0.12279536331E+04  0.12033274774E+04 0.  0.
        5    1    3    3  502    0  0.11627143640E+03 -0.10168678221E+03  0.47103416456E+03  0.49573634402E+03  0.46999998093E+01 0. -1.
       -5    1    3    3    0  502 -0.11627143640E+03  0.10168678221E+03 -0.71572398303E+03  0.73221728912E+03  0.46999998093E+01 0.  1.
</event>
<event>
 5   0  0.3626049E-03  0.1186361E+04  0.7818609E-02  0.9124879E-01
        2   -1    0    0  501    0  0.00000000000E+00  0.00000000000E+00  0.10989909058E+04  0.10989909058E+04  0.25500000920E-02 0. -1.
       -2   -1    0    0    0  501  0.00000000000E+00  0.00000000000E+00 -0.32016938797E+03  0.32016938798E+03  0.25500000920E-02 0.  1.
    10030    2    1    2    0    0  0.00000000000E+00  0.00000000000E+00  0.77882151783E+03  0.14191602938E+04  0.11863612362E+04 0.  0.
        1    1    3    3  502    0  0.41057751362E+03 -0.12781123792E+03  0.87818965688E+03  0.97781730436E+03  0.50400001928E-02 0. -1.
       -1    1    3    3    0  502 -0.41057751362E+03  0.12781123792E+03 -0.99368139055E+02  0.44134298942E+03  0.50400001928E-02 0.  1.
</event>
<event>
 5   0  0.2134992E-03  0.1214715E+04  0.7818609E-02  0.9100073E-01
       -1   -1    0    0    0  501  0.00000000000E+00  0.00000000000E+00  0.14263592566E+04  0.14263592566E+04  0.50400001928E-02 0. -1.
        1   -1    0    0  501    0  0.00000000000E+00  0.00000000000E+00 -0.25861887274E+03  0.25861887279E+03  0.50400001928E-02 0.  1.
    10030    2    1    2    0    0  0.00000000000E+00  0.00000000000E+00  0.11677403839E+04  0.16849781294E+04  0.12147154780E+04 0.  0.
        4    1    3    3  502    0  0.12664383094E+02 -0.56533272622E+03  0.27643728550E+03  0.62942883922E+03  0.12699999809E+01 0.  1.
       -4    1    3    3    0  502 -0.12664383094E+02  0.56533272622E+03  0.89130309838E+03  0.10555492902E+04  0.12699999809E+01 0. -1.
</event>
<event>
 5   0  0.2078258E-03  0.1194239E+04  0.7818609E-02  0.9117914E-01
       -1   -1    0    0    0  501  0.00000000000E+00  0.00000000000E+00  0.13988686473E+03  0.13988686482E+03  0.50400001928E-02 0.  1.
        1   -1    0    0  501    0  0.00000000000E+00  0.00000000000E+00 -0.25488576997E+04  0.25488576997E+04  0.50400001928E-02 0. -1.
    10030    2    1    2    0    0  0.00000000000E+00  0.00000000000E+00 -0.24089708349E+04  0.26887445645E+04  0.11942390253E+04 0.  0.
        3    1    3    3  502    0  0.26979197288E+03 -0.23246817993E+03 -0.22835814361E+04  0.23111844039E+04  0.10100000352E+00 0. -1.
       -3    1    3    3    0  502 -0.26979197288E+03  0.23246817993E+03 -0.12538939880E+03  0.37756016056E+03  0.10100000352E+00 0.  1.
</event>
<event>
 5   0  0.2047109E-03  0.1196721E+04  0.7818609E-02  0.9115731E-01
       -1   -1    0    0    0  501  0.00000000000E+00  0.00000000000E+00  0.94460436501E+03  0.94460436502E+03  0.50400001928E-02 0.  1.
        1   -1    0    0  501    0  0.00000000000E+00  0.00000000000E+00 -0.37903212989E+03  0.37903212993E+03  0.50400001928E-02 0. -1.
    10030    2    1    2    0    0  0.00000000000E+00  0.00000000000E+00  0.56557223511E+03  0.13236364950E+04  0.11967211946E+04 0.  0.
        1    1    3    3  502    0 -0.69105476599E+02  0.10824905395E+03  0.92918083113E+03  0.93801409454E+03  0.50400001928E-02 0.  1.
       -1    1    3    3    0  502  0.69105476599E+02 -0.10824905395E+03 -0.36360859602E+03  0.38562240041E+03  0.50400001928E-02 0. -1.
</event>
<event>
 5   0  0.3706035E-03  0.1205672E+04  0.7818609E-02  0.9107906E-01
        2   -1    0    0  501    0  0.00000000000E+00  0.00000000000E+00  0.52012025332E+03  0.52012025333E+03  0.25500000920E-02 0. -1.
       -2   -1    0    0    0  501  0.00000000000E+00  0.00000000000E+00 -0.69870622164E+03  0.69870622164E+03  0.25500000920E-02 0.  1.
    10030    2    1    2    0    0  0.00000000000E+00  0.00000000000E+00 -0.17858596831E+03  0.12188264750E+04  0.12056720234E+04 0.  0.
        2    1    3    3  502    0 -0.23833899262E+03 -0.34808747812E+03  0.34603385770E+03  0.54562789381E+03  0.25500000920E-02 0. -1.
       -2    1    3    3    0  502  0.23833899262E+03  0.34808747812E+03 -0.52461982601E+03  0.67319858116E+03  0.25500000920E-02 0.  1.
</event>
<event>
 5   0  0.2047109E-03  0.9294714E+03  0.7818609E-02  0.9389473E-01
        1   -1    0    0  501    0  0.00000000000E+00  0.00000000000E+00  0.32172467842E+03  0.32172467846E+03  0.50400001928E-02 0.  1.
       -1   -1    0    0    0  501  0.00000000000E+00  0.00000000000E+00 -0.67131703490E+03  0.67131703492E+03  0.50400001928E-02 0. -1.
    10030    2    1    2    0    0  0.00000000000E+00  0.00000000000E+00 -0.34959235647E+03  0.99304171338E+03  0.92947137062E+03 0.  0.
        1    1    3    3  502    0  0.23714126394E+03  0.10777483562E+03 -0.58599309829E+03  0.64127942858E+03  0.50400001928E-02 0. -1.
       -1    1    3    3    0  502 -0.23714126394E+03 -0.10777483562E+03  0.23640074181E+03  0.35176228480E+03  0.50400001928E-02 0.  1.
</event>
<event>
 5   0  0.1397500E-03  0.1205255E+04  0.7818609E-02  0.9108269E-01
        4   -1    0    0  501    0  0.00000000000E+00  0.00000000000E+00  0.81524296997E+03  0.81524395918E+03  0.12699999809E+01 0.  1.
       -4   -1    0    0    0  501  0.00000000000E+00  0.00000000000E+00 -0.44546034668E+03  0.44546215705E+03  0.12699999809E+01 0. -1.
    10030    2    1    2    0    0  0.00000000000E+00  0.00000000000E+00  0.36978262329E+03  0.12607061162E+04  0.12052554597E+04 0.  0.
        5    1    3    3  502    0 -0.40690707801E+03  0.51436078009E+02 -0.27691716037E+03  0.49489821576E+03  0.46999998093E+01 0. -1.
       -5    1    3    3    0  502  0.40690707801E+03 -0.51436078009E+02  0.64669978366E+03  0.76580790048E+03  0.46999998093E+01 0.  1.
</event>
<event>
 5   0  0.2134992E-03  0.1209384E+04  0.7818609E-02  0.9104682E-01
        1   -1    0    0  501    0  0.00000000000E+00  0.00000000000E+00  0.12975650133E+04  0.12975650133E+04  0.50400001928E-02 0. -1.
       -1   -1    0    0    0  501  0.00000000000E+00  0.00000000000E+00 -0.28179883718E+03  0.28179883723E+03  0.50400001928E-02 0.  1.
    10030    2    1    2    0    0  0.00000000000E+00  0.00000000000E+00  0.10157661761E+04  0.15793638505E+04  0.12093838298E+04 0.  0.
        4    1    3    3  502    0 -0.36373098495E+03 -0.20772763895E+03 -0.61655228190E+02  0.42338396457E+03  0.12699999809E+01 0.  1.
       -4    1    3    3    0  502  0.36373098495E+03  0.20772763895E+03  0.10774214043E+04  0.11559798859E+04  0.12699999809E+01 0. -1.
</event>
<event>
 5   0  0.3650180E-03  0.1106370E+04  0.7818609E-02  0.9199005E-01
        2   -1    0    0  501    0  0.00000000000E+00  0.00000000000E+00  0.90652122543E+03  0.90652122544E+03  0.25500000920E-02 0.  1.
       -2   -1    0    0    0  501  0.00000000000E+00  0.00000000000E+00 -0.33756926099E+03  0.33756926100E+03  0.25500000920E-02 0. -1.
    10030    2    1    2    0    0  0.00000000000E+00  0.00000000000E+00  0.56895196444E+03  0.12440904864E+04  0.11063701011E+04 0.  0.
        3    1    3    3  502    0  0.41070656739E+03  0.17003965243E+03 -0.85784092794E+02  0.45271656550E+03  0.10100000352E+00 0. -1.
       -3    1    3    3    0  502 -0.41070656739E+03 -0.17003965243E+03  0.65473605723E+03  0.79137392094E+03  0.10100000352E+00 0.  1.
</event>
<event>
 5   0  0.3650180E-03  0.1168864E+04  0.7818609E-02  0.9140555E-01
       -2   -1    0    0    0  501  0.00000000000E+00  0.00000000000E+00  0.54077982039E+03  0.54077982040E+03  0.25500000920E-02 0. -1.
        2   -1    0    0  501    0  0.00000000000E+00  0.00000000000E+00 -0.63160793214E+03  0.63160793215E+03  0.25500000920E-02 0.  1.
    10030    2    1    2    0    0  0.00000000000E+00  0.00000000000E+00 -0.90828111749E+02  0.11723877525E+04  0.11688641052E+04 0.  0.
        3    1    3    3  502    0 -0.10351515614E+02 -0.58112339926E+03 -0.10682980206E+03  0.59095192347E+03  0.10100000352E+00 0. -1.
       -3    1    3    3    0  502  0.10351515614E+02  0.58112339926E+03  0.16001690309E+02  0.58143582908E+03  0.10100000352E+00 0.  1.
</event>
<event>
 5   0  0.2096270E-03  0.1180262E+04  0.7818609E-02  0.9130311E-01
       -1   -1    0    0    0  501  0.00000000000E+00  0.00000000000E+00  0.81458324070E+03  0.81458324072E+03  0.50400001928E-02 0.  1.
        1   -1    0    0  501    0  0.00000000000E+00  0.00000000000E+00 -0.42752476089E+03  0.42752476092E+03  0.50400001928E-02 0. -1.
    10030    2    1    2    0    0  0.00000000000E+00  0.00000000000E+00  0.38705847981E+03  0.12421080016E+04  0.11802618442E+04 0.  0.
        2    1    3    3  502    0 -0.32175588545E+03 -0.27596539046E+03 -0.23855866820E+03  0.48640927698E+03  0.25500000920E-02 0. -1.
       -2    1    3    3    0  502  0.32175588545E+03  0.27596539046E+03  0.62561714801E+03  0.75569872465E+03  0.25500000920E-02 0.  1.
</event>
<event>
 5   0  0.1397500E-03  0.1171310E+04  0.7818609E-02  0.9138346E-01
        3   -1    0    0  501    0  0.00000000000E+00  0.00000000000E+00  0.13475618459E+04  0.13475618497E+04  0.10100000352E+00 0.  1.
       -3   -1    0    0    0  501  0.00000000000E+00  0.00000000000E+00 -0.25452781987E+03  0.25452783991E+03  0.10100000352E+00 0. -1.
    10030    2    1    2    0    0  0.00000000000E+00  0.00000000000E+00  0.10930340260E+04  0.16020896896E+04  0.11713103737E+04 0.  0.
        3    1    3    3  502    0 -0.30498960121E+03  0.34003740486E+03  0.45179424690E+02  0.45900466682E+03  0.10100000352E+00 0. -1.
       -3    1    3    3    0  502  0.30498960121E+03 -0.34003740486E+03  0.10478546014E+04  0.11430850228E+04  0.10100000352E+00 0.  1.
</event>
<event>
 5   0  0.2025294E-03  0.1197305E+04  0.7818609E-02  0.9115218E-01
        1   -1    0    0  501    0  0.00000000000E+00  0.00000000000E+00  0.50147447361E+03  0.50147447364E+03  0.50400001928E-02 0. -1.
       -1   -1    0    0    0  501  0.00000000000E+00  0.00000000000E+00 -0.71466260833E+03  0.71466260835E+03  0.50400001928E-02 0.  1.
    10030    2    1    2    0    0  0.00000000000E+00  0.00000000000E+00 -0.21318813471E+03  0.12161370820E+04  0.11973054002E+04 0.  0.
        5    1    3    3  502    0 -0.12397148911E+03 -0.54381863524E+03 -0.32739605423E+03  0.64677500297E+03  0.46999998093E+01 0.  1.
       -5    1    3    3    0  502  0.12397148911E+03  0.54381863524E+03  0.11420791952E+03  0.56936207901E+03  0.46999998093E+01 0. -1.
</event>
<event>
 5   0  0.3751091E-03  0.1219340E+04  0.7818609E-02  0.9096095E-01
        2   -1    0    0  501    0  0.00000000000E+00  0.00000000000E+00  0.10524992138E+04  0.10524992138E+04  0.25500000920E-02 0. -1.
       -2   -1    0    0    0  501  0.00000000000E+00  0.00000000000E+00 -0.35315687172E+03  0.35315687173E+03  0.25500000920E-02 0.  1.
    10030    2    1    2    0    0  0.00000000000E+00  0.00000000000E+00  0.69934234204E+03  0.14056560855E+04  0.12193397063E+04 0.  0.
        5    1    3    3  502    0  0.99162384057E+02  0.56211032911E+03  0.10276164140E+03  0.57998555624E+03  0.46999998093E+01 0.  1.
       -5    1    3    3    0  502 -0.99162384057E+02 -0.56211032911E+03  0.59658070064E+03  0.82567052925E+03  0.46999998093E+01 0. -1.
</event>
<event>
 5   0  0.3626049E-03  0.1212160E+04  0.7818609E-02  0.9102279E-01
       -2   -1    0    0    0  501  0.00000000000E+00  0.00000000000E+00  0.33513507332E+03  0.33513507333E+03  0.25500000920E-02 0.  1.
        2   -1    0    0  501    0  0.00000000000E+00  0.00000000000E+00 -0.10960745469E+04  0.10960745469E+04  0.25500000920E-02 0. -1.
    10030    2    1    2    0    0  0.00000000000E+00  0.00000000000E+00 -0.76093947355E+03  0.14312096202E+04  0.12121600944E+04 0.  0.
        1    1    3    3  502    0 -0.31263389510E+03  0.43518073542E+03 -0.46074806206E+02  0.53781512868E+03  0.50400001928E-02 0.  1.
       -1    1    3    3    0  502  0.31263389510E+03 -0.43518073542E+03 -0.71486466734E+03  0.89339449152E+03  0.50400001928E-02 0. -1.
</event>
<event>
 5   0  0.2025294E-03  0.1162709E+04  0.7818609E-02  0.9146139E-01
        1   -1    0    0  501    0  0.00000000000E+00  0.00000000000E+00  0.13798380916E+04  0.13798380916E+04  0.50400001928E-02 0.  1.
       -1   -1    0    0    0  501  0.00000000000E+00  0.00000000000E+00 -0.24493658341E+03  0.24493658346E+03  0.50400001928E-02 0. -1.
    10030    2    1    2    0    0  0.00000000000E+00  0.00000000000E+00  0.11349015082E+04  0.16247746751E+04  0.11627086099E+04 0.  0.
        5    1    3    3  502    0 -0.37247197356E+03 -0.29672936210E+03  0.10333696221E+04  0.11378306338E+04  0.46999998093E+01 0.  1.
       -5    1    3    3    0  502  0.37247197356E+03  0.29672936210E+03  0.10153188613E+03  0.48694404126E+03  0.46999998093E+01 0. -1.
</event>
<event>
 5   0  0.2134992E-03  0.1195166E+04  0.7818609E-02  0.9117098E-01
       -1   -1    0    0    0  501  0.00000000000E+00  0.00000000000E+00  0.71139478565E+03  0.71139478567E+03  0.50400001928E-02 0. -1.
        1   -1    0    0  501    0  0.00000000000E+00  0.00000000000E+00 -0.50197913948E+03  0.50197913950E+03  0.50400001928E-02 0.  1.
    10030    2    1    2    0    0  0.00000000000E+00  0.00000000000E+00  0.20941564617E+03  0.12133739252E+04  0.11951658334E+04 0.  0.
        4    1    3    3  502    0  0.44847524529E+03 -0.15798649965E+03 -0.26276502761E+03  0.54326499275E+03  0.12699999809E+01 0.  1.
       -4    1    3    3    0  502 -0.44847524529E+03  0.15798649965E+03  0.47218067379E+03  0.67010893242E+03  0.12699999809E+01 0. -1.
</event>
<event>
 5   0  0.3725376E-03  0.1175637E+04  0.7818609E-02  0.9134453E-01
        2   -1    0    0  501    0  0.00000000000E+00  0.00000000000E+00  0.15684767613E+04  0.15684767613E+04  0.25500000920E-02 0. -1.
       -2   -1    0    0    0  501  0.00000000000E+00  0.00000000000E+00 -0.22029695586E+03  0.22029695588E+03  0.25500000920E-02 0.  1.
    10030    2    1    2    0    0  0.00000000000E+00  0.00000000000E+00  0.13481798054E+04  0.17887737171E+04  0.11756371138E+04 0.  0.
        4    1    3    3  502    0 -0.18426018101E+03 -0.51728363728E+03  0.35494851952E+03  0.65385337815E+03  0.12699999809E+01 0.  1.
       -4    1    3    3    0  502  0.18426018101E+03  0.51728363728E+03  0.99323128587E+03  0.11349203390E+04  0.12699999809E+01 0. -1.
</event>
<event>
 5   0  0.3650180E-03  0.1214026E+04  0.7818609E-02  0.9100667E-01
        2   -1    0    0  501    0  0.00000000000E+00  0.00000000000E+00  0.85423752479E+03  0.85423752479E+03  0.25500000920E-02 0. -1.
       -2   -1    0    0    0  501  0.00000000000E+00  0.00000000000E+00 -0.43133793070E+03  0.43133793071E+03  0.25500000920E-02 0.  1.
    10030    2    1    2    0    0  0.00000000000E+00  0.00000000000E+00  0.42289959408E+03  0.12855754555E+04  0.12140264351E+04 0.  0.
        3    1    3    3  502    0  0.23505390238E+03  0.44792867169E+03  0.56674524465E+03  0.75966480403E+03  0.10100000352E+00 0. -1.
       -3    1    3    3    0  502 -0.23505390238E+03 -0.44792867169E+03 -0.14384565057E+03  0.52591065147E+03  0.10100000352E+00 0.  1.
</event>
<event>
 5   0  0.3751091E-03  0.1182002E+04  0.7818609E-02  0.9128757E-01
       -2   -1    0    0    0  501  0.00000000000E+00  0.00000000000E+00  0.23853508903E+03  0.23853508904E+03  0.25500000920E-02 0. -1.
        2   -1    0    0  501    0  0.00000000000E+00  0.00000000000E+00 -0.14642813189E+04  0.14642813189E+04  0.25500000920E-02 0.  1.
    10030    2    1    2    0    0  0.00000000000E+00  0.00000000000E+00 -0.12257462299E+04  0.17028164079E+04  0.11820024954E+04 0.  0.
        5    1    3    3  502    0 -0.50717899625E+03  0.30223727362E+03 -0.57523787313E+03  0.82431705337E+03  0.46999998093E+01 0.  1.
       -5    1    3    3    0  502  0.50717899625E+03 -0.30223727362E+03 -0.65050835674E+03  0.87849935457E+03  0.46999998093E+01 0. -1.
</event>
<event>
 5   0  0.3751091E-03  0.1176740E+04  0.7818609E-02  0.9133464E-01
        2   -1    0    0  501    0  0.00000000000E+00  0.00000000000E+00  0.11207567848E+04  0.11207567848E+04  0.25500000920E-02 0.  1.
       -2   -1    0    0    0  501  0.00000000000E+00  0.00000000000E+00 -0.30887967238E+03  0.30887967239E+03  0.25500000920E-02 0. -1.
    10030    2    1    2    0    0  0.00000000000E+00  0.00000000000E+00  0.81187711240E+03  0.14296364572E+04  0.11767395438E+04 0.  0.
        5    1    3    3  502    0 -0.46423541326E+03  0.33294098752E+03  0.23501671957E+03  0.61775332340E+03  0.46999998093E+01 0. -1.
       -5    1    3    3    0  502  0.46423541326E+03 -0.33294098752E+03  0.57686039283E+03  0.81188313378E+03  0.46999998093E+01 0.  1.
</event>
<event>
 5   0  0.3751091E-03  0.1224837E+04  0.7818609E-02  0.9091390E-01
       -2   -1    0    0    0  501  0.00000000000E+00  0.00000000000E+00  0.48261172608E+03  0.48261172609E+03  0.25500000920E-02 0.  1.
        2   -1    0    0  501    0  0.00000000000E+00  0.00000000000E+00 -0.77713941389E+03  0.77713941389E+03  0.25500000920E-02 0. -1.
    10030    2    1    2    0    0  0.00000000000E+00  0.00000000000E+00 -0.29452768780E+03  0.12597511400E+04  0.12248372854E+04 0.  0.
        5    1    3    3  502    0 -0.40121700593E+03  0.45883103157E+03 -0.20840153983E+03  0.64416945999E+03  0.46999998093E+01 0. -1.
       -5    1    3    3    0  502  0.40121700593E+03 -0.45883103157E+03 -0.86126147973E+02  0.61558167999E+03  0.46999998093E+01 0.  1.
</event>
<event>
 5   0  0.2025294E-03  0.1221032E+04  0.7818609E-02  0.9094644E-01
       -1   -1    0    0    0  501  0.00000000000E+00  0.00000000000E+00  0.24831725378E+03  0.24831725383E+03  0.50400001928E-02 0. -1.
        1   -1    0    0  501    0  0.00000000000E+00  0.00000000000E+00 -0.15010231691E+04  0.15010231691E+04  0.50400001928E-02 0.  1.
    10030    2    1    2    0    0  0.00000000000E+00  0.00000000000E+00 -0.12527059154E+04  0.17493404230E+04  0.12210322703E+04 0.  0.
        5    1    3    3  502    0 -0.43776700990E+02 -0.29759600456E+03  0.13475681841E+03  0.32963809183E+03  0.46999998093E+01 0. -1.
       -5    1    3    3    0  502  0.43776700990E+02  0.29759600456E+03 -0.13874627338E+04  0.14197023311E+04  0.46999998093E+01 0.  1.
</event>
<event>
 5   0  0.3626049E-03  0.1200954E+04  0.7818609E-02  0.9112022E-01
        2   -1    0    0  501    0  0.00000000000E+00  0.00000000000E+00  0.78777237040E+03  0.78777237040E+03  0.25500000920E-02 0.  1.
       -2   -1    0    0    0  501  0.00000000000E+00  0.00000000000E+00 -0.45771154015E+03  0.45771154015E+03  0.25500000920E-02 0. -1.
    10030    2    1    2    0    0  0.00000000000E+00  0.00000000000E+00  0.33006083025E+03  0.12454839106E+04  0.12009537959E+04 0.  0.
        1    1    3    3  502    0  0.12636445852E+02  0.60019005213E+03  0.17912578250E+03  0.62647731357E+03  0.50400001928E-02 0.  1.
       -1    1    3    3    0  502 -0.12636445852E+02 -0.60019005213E+03  0.15093504775E+03  0.61900659698E+03  0.50400001928E-02 0. -1.
</event>
<event>
 5   0  0.2096270E-03  0.1203405E+04  0.7818609E-02  0.9109881E-01
       -1   -1    0    0    0  501  0.00000000000E+00  0.00000000000E+00  0.23568556047E+03  0.23568556053E+03  0.50400001928E-02 0. -1.
        1   -1    0    0  501    0  0.00000000000E+00  0.00000000000E+00 -0.15361394817E+04  0.15361394817E+04  0.50400001928E-02 0.  1.
    10030    2    1    2    0    0  0.00000000000E+00  0.00000000000E+00 -0.13004539212E+04  0.17718250422E+04  0.12034049938E+04 0.  0.
        2    1    3    3  502    0  0.18183015980E+03  0.55420093755E+03 -0.86784011069E+03  0.10456325090E+04  0.25500000920E-02 0.  1.
       -2    1    3    3    0  502 -0.18183015980E+03 -0.55420093755E+03 -0.43261381049E+03  0.72619253316E+03  0.25500000920E-02 0. -1.
</event>
<event>
 5   0  0.2096270E-03  0.1202526E+04  0.7818609E-02  0.9110648E-01
        1   -1    0    0  501    0  0.00000000000E+00  0.00000000000E+00  0.12034970256E+04  0.12034970256E+04  0.50400001928E-02 0.  1.
       -1   -1    0    0    0  501  0.00000000000E+00  0.00000000000E+00 -0.30038908658E+03  0.30038908662E+03  0.50400001928E-02 0. -1.
    10030    2    1    2    0    0  0.00000000000E+00  0.00000000000E+00  0.90310793900E+03  0.15038861122E+04  0.12025262945E+04 0.  0.
        2    1    3    3  502    0  0.57958724842E+03 -0.15347146830E+03  0.39503403799E+03  0.71800192290E+03  0.25500000920E-02 0. -1.
       -2    1    3    3    0  502 -0.57958724842E+03  0.15347146830E+03  0.50807390101E+03  0.78588418931E+03  0.25500000920E-02 0.  1.
</event>
<event>
 5   0  0.2078258E-03  0.1200307E+04  0.7818609E-02  0.9112588E-01
       -1   -1    0    0    0  501  0.00000000000E+00  0.00000000000E+00  0.28358738691E+03  0.28358738696E+03  0.50400001928E-02 0. -1.
        1   -1    0    0  501    0  0.00000000000E+00  0.00000000000E+00 -0.12700992027E+04  0.12700992027E+04  0.50400001928E-02 0.  1.
    10030    2    1    2    0    0  0.00000000000E+00  0.00000000000E+00 -0.98651181581E+03  0.15536865897E+04  0.12003068176E+04 0.  0.
        3    1    3    3  502    0  0.16488796162E+02 -0.58291466890E+03 -0.30963826722E+03  0.66025544932E+03  0.10100000352E+00 0. -1.
       -3    1    3    3    0  502 -0.16488796162E+02  0.58291466890E+03 -0.67687354858E+03  0.89343114038E+03  0.10100000352E+00 0.  1.
</event>
<event>
 5   0  0.3626049E-03  0.1210863E+04  0.7818609E-02  0.9103401E-01
        2   -1    0    0  501    0  0.00000000000E+00  0.00000000000E+00  0.49418601086E+03  0.49418601087E+03  0.25500000920E-02 0.  1.
       -2   -1    0    0    0  501  0.00000000000E+00  0.00000000000E+00 -0.74171896589E+03  0.74171896590E+03  0.25500000920E-02 0. -1.
    10030    2    1    2    0    0  0.00000000000E+00  0.00000000000E+00 -0.24753295504E+03  0.12359049768E+04  0.12108627287E+04 0.  0.
        1    1    3    3  502    0  0.33847581183E+03  0.11271359291E+02 -0.63599621062E+03  0.72054430723E+03  0.50400001928E-02 0. -1.
       -1    1    3    3    0  502 -0.33847581183E+03 -0.11271359291E+02  0.38846325558E+03  0.51536066953E+03  0.50400001928E-02 0.  1.
</event>
<event>
 5   0  0.2134992E-03  0.1197062E+04  0.7818609E-02  0.9115432E-01
       -1   -1    0    0    0  501  0.00000000000E+00  0.00000000000E+00  0.81786172119E+03  0.81786172120E+03  0.50400001928E-02 0.  1.
        1   -1    0    0  501    0  0.00000000000E+00  0.00000000000E+00 -0.43801979247E+03  0.43801979250E+03  0.50400001928E-02 0. -1.
    10030    2    1    2    0    0  0.00000000000E+00  0.00000000000E+00  0.37984192872E+03  0.12558815137E+04  0.11970624402E+04 0.  0.
        4    1    3    3  502    0  0.45332764891E+02  0.59663405646E+03  0.17469035389E+03  0.62333425186E+03  0.12699999809E+01 0. -1.
       -4    1    3    3    0  502 -0.45332764891E+02 -0.59663405646E+03  0.20515157482E+03  0.63254726184E+03  0.12699999809E+01 0.  1.
</event>
<event>
 5   0  0.2134992E-03  0.1178026E+04  0.7818609E-02  0.9132310E-01
       -1   -1    0    0    0  501  0.00000000000E+00  0.00000000000E+00  0.29009647323E+03  0.29009647328E+03  0.50400001928E-02 0. -1.
        1   -1    0    0  501    0  0.00000000000E+00  0.00000000000E+00 -0.11959349113E+04  0.11959349113E+04  0.50400001928E-02 0.  1.
    10030    2    1    2    0    0  0.00000000000E+00  0.00000000000E+00 -0.90583843810E+03  0.14860313846E+04  0.11780263156E+04 0.  0.
        4    1    3    3  502    0 -0.19345662688E+03  0.51724560614E+02  0.24583545140E+03  0.31707661333E+03  0.12699999809E+01 0. -1.
       -4    1    3    3    0  502  0.19345662688E+03 -0.51724560614E+02 -0.11516738895E+04  0.11689547713E+04  0.12699999809E+01 0.  1.
</event>
<event>
 5   0  0.2025294E-03  0.1209798E+04  0.7818609E-02  0.9104324E-01
       -1   -1    0    0    0  501  0.00000000000E+00  0.00000000000E+00  0.25012347699E+03  0.25012347704E+03  0.50400001928E-02 0. -1.
        1   -1    0    0  501    0  0.00000000000E+00  0.00000000000E+00 -0.14628881641E+04  0.14628881641E+04  0.50400001928E-02 0.  1.
    10030    2    1    2    0    0  0.00000000000E+00  0.00000000000E+00 -0.12127646871E+04  0.17130116412E+04  0.12097977916E+04 0.  0.
        5    1    3    3  502    0  0.71499313909E+02 -0.59189431651E+03 -0.75098634758E+03  0.95888144109E+03  0.46999998093E+01 0. -1.
       -5    1    3    3    0  502 -0.71499313909E+02  0.59189431651E+03 -0.46177833955E+03  0.75413020009E+03  0.46999998093E+01 0.  1.
</event>
<event>
 5   0  0.3706035E-03  0.1222381E+04  0.7818609E-02  0.9093489E-01
       -2   -1    0    0    0  501  0.00000000000E+00  0.00000000000E+00  0.81645858102E+03  0.81645858102E+03  0.25500000920E-02 0.  1.
        2   -1    0    0  501    0  0.00000000000E+00  0.00000000000E+00 -0.45752947179E+03  0.45752947180E+03  0.25500000920E-02 0. -1.
    10030    2    1    2    0    0  0.00000000000E+00  0.00000000000E+00  0.35892910923E+03  0.12739880528E+04  0.12223810590E+04 0.  0.
        2    1    3    3  502    0 -0.30801193081E+03  0.36729875325E+03 -0.21571924469E+03  0.52565627191E+03  0.25500000920E-02 0.  1.
       -2    1    3    3    0  502  0.30801193081E+03 -0.36729875325E+03  0.57464835392E+03  0.74833178091E+03  0.25500000920E-02 0. -1.
</event>
<event>
 5   0  0.3725376E-03  0.1262262E+04  0.7818609E-02  0.9060039E-01
        2   -1    0    0  501    0  0.00000000000E+00  0.00000000000E+00  0.12974020222E+04  0.12974020222E+04  0.25500000920E-02 0.  1.
       -2   -1    0    0    0  501  0.00000000000E+00  0.00000000000E+00 -0.30701855670E+03  0.30701855671E+03  0.25500000920E-02 0. -1.
    10030    2    1    2    0    0  0.00000000000E+00  0.00000000000E+00  0.99038346551E+03  0.16044205789E+04  0.12622622490E+04 0.  0.
        4    1    3    3  502    0  0.61299657816E+02 -0.34405761491E+03  0.11631877259E+04  0.12145536584E+04  0.12699999809E+01 0.  1.
       -4    1    3    3    0  502 -0.61299657816E+02  0.34405761491E+03 -0.17280426041E+03  0.38986692056E+03  0.12699999809E+01 0. -1.
</event>
<event>
 5   0  0.3751091E-03  0.1183939E+04  0.7818609E-02  0.9127032E-01
       -2   -1    0    0    0  501  0.00000000000E+00  0.00000000000E+00  0.33059488271E+03  0.33059488272E+03  0.25500000920E-02 0. -1.
        2   -1    0    0  501    0  0.00000000000E+00  0.00000000000E+00 -0.10599921052E+04  0.10599921053E+04  0.25500000920E-02 0.  1.
    10030    2    1    2    0    0  0.00000000000E+00  0.00000000000E+00 -0.72939722254E+03  0.13905869880E+04  0.11839391297E+04 0.  0.
        5    1    3    3  502    0  0.35260808866E+03  0.22985910016E+03  0.12416827969E+03  0.43887073472E+03  0.46999998093E+01 0. -1.
       -5    1    3    3    0  502 -0.35260808866E+03 -0.22985910016E+03 -0.85356550223E+03  0.95171625325E+03  0.46999998093E+01 0.  1.
</event>
<event>
 5   0  0.3650180E-03  0.1197500E+04  0.7818609E-02  0.9115047E-01
       -2   -1    0    0    0  501  0.00000000000E+00  0.00000000000E+00  0.58669002351E+03  0.58669002352E+03  0.25500000920E-02 0.  1.
        2   -1    0    0  501    0  0.00000000000E+00  0.00000000000E+00 -0.61105800653E+03  0.61105800654E+03  0.25500000920E-02 0. -1.
    10030    2    1    2    0    0  0.00000000000E+00  0.00000000000E+00 -0.24367983019E+02  0.11977480301E+04  0.11975001231E+04 0.  0.
        3    1    3    3  502    0 -0.36559198785E+03 -0.47026082105E+03 -0.73015038456E+02  0.60011161249E+03  0.10100000352E+00 0. -1.
       -3    1    3    3    0  502  0.36559198785E+03  0.47026082105E+03  0.48647055437E+02  0.59763641757E+03  0.10100000352E+00 0.  1.
</event>
<event>
 5   0  0.3751091E-03  0.1199259E+04  0.7818609E-02  0.9113506E-01
       -2   -1    0    0    0  501  0.00000000000E+00  0.00000000000E+00  0.25168330076E+03  0.25168330078E+03  0.25500000920E-02 0.  1.
        2   -1    0    0  501    0  0.00000000000E+00  0.00000000000E+00 -0.14286019350E+04  0.14286019350E+04  0.25500000920E-02 0. -1.
    10030    2    1    2    0    0  0.00000000000E+00  0.00000000000E+00 -0.11769186342E+04  0.16802852357E+04  0.11992585217E+04 0.  0.
        5    1    3    3  502    0 -0.88913990412E+01  0.15901165727E+03 -0.13984005993E+04  0.14074480773E+04  0.46999998093E+01 0. -1.
       -5    1    3    3    0  502  0.88913990412E+01 -0.15901165727E+03  0.22148196515E+03  0.27283715841E+03  0.46999998093E+01 0.  1.
</event>
<event>
 5   0  0.3706035E-03  0.1212430E+04  0.7818609E-02  0.9102046E-01
        2   -1    0    0  501    0  0.00000000000E+00  0.00000000000E+00  0.14733460434E+04  0.14733460434E+04  0.25500000920E-02 0. -1.
       -2   -1    0    0    0  501  0.00000000000E+00  0.00000000000E+00 -0.24942978161E+03  0.24942978163E+03  0.25500000920E-02 0.  1.
    10030    2    1    2    0    0  0.00000000000E+00  0.00000000000E+00  0.12239162618E+04  0.17227758250E+04  0.12124295969E+04 0.  0.
        2    1    3    3  502    0  0.25547054692E+03  0.30581761180E+03 -0.37185062479E+02  0.40021536815E+03  0.25500000920E-02 0.  1.
       -2    1    3    3    0  502 -0.25547054692E+03 -0.30581761180E+03  0.12611013242E+04  0.13225604568E+04  0.25500000920E-02 0. -1.
</event>
<event>
 5   0  0.2047109E-03  0.1205245E+04  0.7818609E-02  0.9108278E-01
        1   -1    0    0  501    0  0.00000000000E+00  0.00000000000E+00  0.46316917884E+03  0.46316917887E+03  0.50400001928E-02 0. -1.
       -1   -1    0    0    0  501  0.00000000000E+00  0.00000000000E+00 -0.78406312358E+03  0.78406312360E+03  0.50400001928E-02 0.  1.
    10030    2    1    2    0    0  0.00000000000E+00  0.00000000000E+00 -0.32089394474E+03  0.12472323025E+04  0.12052449927E+04 0.  0.
        1    1    3    3  502    0 -0.39603683544E+03 -0.44794045799E+03 -0.82606550378E+02  0.60358899188E+03  0.50400001928E-02 0. -1.
       -1    1    3    3    0  502  0.39603683544E+03  0.44794045799E+03 -0.23828739437E+03  0.64364331059E+03  0.50400001928E-02 0.  1.
</event>
<event>
 5   0  0.2134992E-03  0.1188711E+04  0.7818609E-02  0.9122795E-01
       -1   -1    0    0    0  501  0.00000000000E+00  0.00000000000E+00  0.16853566795E+03  0.16853566802E+03  0.50400001928E-02 0. -1.
        1   -1    0    0  501    0  0.00000000000E+00  0.00000000000E+00 -0.20960474057E+04  0.20960474057E+04  0.50400001928E-02 0.  1.
    10030    2    1    2    0    0  0.00000000000E+00  0.00000000000E+00 -0.19275117377E+04  0.22645830737E+04  0.11887114867E+04 0.  0.
        4    1    3    3  502    0  0.13060548944E+03 -0.35853145258E+03 -0.95630368755E+02  0.39338197301E+03  0.12699999809E+01 0. -1.
       -4    1    3    3    0  502 -0.13060548944E+03  0.35853145258E+03 -0.18318813690E+04  0.18712011007E+04  0.12699999809E+01 0.  1.
</event>
<event>
 5   0  0.3725376E-03  0.1204605E+04  0.7818609E-02  0.9108835E-01
        2   -1    0    0  501    0  0.00000000000E+00  0.00000000000E+00  0.42162946873E+03  0.42162946874E+03  0.25500000920E-02 0.  1.
       -2   -1    0    0    0  501  0.00000000000E+00  0.00000000000E+00 -0.86039628982E+03  0.86039628982E+03  0.25500000920E-02 0. -1.
    10030    2    1    2    0    0  0.00000000000E+00  0.00000000000E+00 -0.43876682109E+03  0.12820257586E+04  0.12046052143E+04 0.  0.
        4    1    3    3  502    0 -0.58291221440E+03  0.52387642212E+02 -0.67988540361E+02  0.58919875193E+03  0.12699999809E+01 0.  1.
       -4    1    3    3    0  502  0.58291221440E+03 -0.52387642212E+02 -0.37077828073E+03  0.69282700663E+03  0.12699999809E+01 0. -1.
</event>
<event>
 5   0  0.3725376E-03  0.1186463E+04  0.7818609E-02  0.9124789E-01
       -2   -1    0    0    0  501  0.00000000000E+00  0.00000000000E+00  0.24679581631E+03  0.24679581632E+03  0.25500000920E-02 0. -1.
        2   -1    0    0  501    0  0.00000000000E+00  0.00000000000E+00 -0.14259700854E+04  0.14259700854E+04  0.25500000920E-02 0.  1.
    10030    2    1    2    0    0  0.00000000000E+00  0.00000000000E+00 -0.11791742691E+04  0.16727659018E+04  0.11864627281E+04 0.  0.
        4    1    3    3  502    0 -0.43086080635E+03  0.19585803955E+02 -0.15337674245E+02  0.43158023045E+03  0.12699999809E+01 0. -1.
       -4    1    3    3    0  502  0.43086080635E+03 -0.19585803955E+02 -0.11638365949E+04  0.12411856713E+04  0.12699999809E+01 0.  1.
</event>
<event>
 5   0  0.2096270E-03  0.1043266E+04  0.7818609E-02  0.9262324E-01
       -1   -1    0    0    0  501  0.00000000000E+00  0.00000000000E+00  0.99688882440E+03  0.99688882441E+03  0.50400001928E-02 0. -1.
        1   -1    0    0  501    0  0.00000000000E+00  0.00000000000E+00 -0.27295019048E+03  0.27295019053E+03  0.50400001928E-02 0.  1.
    10030    2    1    2    0    0  0.00000000000E+00  0.00000000000E+00  0.72393863392E+03  0.12698390149E+04  0.10432660151E+04 0.  0.
        2    1    3    3  502    0 -0.66593770002E+01  0.21219389384E+03 -0.21798743907E+03  0.30428460277E+03  0.25500000920E-02 0.  1.
       -2    1    3    3    0  502  0.66593770002E+01 -0.21219389384E+03  0.94192607299E+03  0.96555441217E+03  0.25500000920E-02 0. -1.
</event>
<event>
 5   0  0.2096270E-03  0.1211583E+04  0.7818609E-02  0.9102778E-01
       -1   -1    0    0    0  501  0.00000000000E+00  0.00000000000E+00  0.29608210609E+03  0.29608210614E+03  0.50400001928E-02 0.  1.
        1   -1    0    0  501    0  0.00000000000E+00  0.00000000000E+00 -0.12394644683E+04  0.12394644683E+04  0.50400001928E-02 0. -1.
    10030    2    1    2    0    0  0.00000000000E+00  0.00000000000E+00 -0.94338236217E+03  0.15355465744E+04  0.12115828494E+04 0.  0.
        2    1    3    3  502    0  0.33899282808E+03  0.57139854270E+02 -0.11038656331E+04  0.11561576174E+04  0.25500000920E-02 0. -1.
       -2    1    3    3    0  502 -0.33899282808E+03 -0.57139854270E+02  0.16048327091E+03  0.37938895699E+03  0.25500000920E-02 0.  1.
</event>
<event>
 5   0  0.3706035E-03  0.1197581E+04  0.7818609E-02  0.9114976E-01
        2   -1    0    0  501    0  0.00000000000E+00  0.00000000000E+00  0.61135325329E+03  0.61135325330E+03  0.25500000920E-02 0.  1.
       -2   -1    0    0    0  501  0.00000000000E+00  0.00000000000E+00 -0.58648637682E+03  0.58648637682E+03  0.25500000920E-02 0. -1.
    10030    2    1    2    0    0  0.00000000000E+00  0.00000000000E+00  0.24866876476E+02  0.11978396301E+04  0.11975814870E+04 0.  0.
        2    1    3    3  502    0  0.53343375276E+03 -0.22500717546E+02 -0.25872000575E+03  0.59329073164E+03  0.25500000920E-02 0. -1.
       -2    1    3    3    0  502 -0.53343375276E+03  0.22500717546E+02  0.28358688223E+03  0.60454889848E+03  0.25500000920E-02 0.  1.
</event>
<event>
 5   0  0.3650180E-03  0.1193926E+04  0.7818609E-02  0.9118190E-01
       -2   -1    0    0    0  501  0.00000000000E+00  0.00000000000E+00  0.15739932333E+03  0.15739932335E+03  0.25500000920E-02 0. -1.
        2   -1    0    0  501    0  0.00000000000E+00  0.00000000000E+00 -0.22640811015E+04  0.22640811015E+04  0.25500000920E-02 0.  1.
    10030    2    1    2    0    0  0.00000000000E+00  0.00000000000E+00 -0.21066817782E+04  0.24214804249E+04  0.11939260168E+04 0.  0.
        3    1    3    3  502    0 -0.59422187444E+03  0.47875899516E+02 -0.11166081474E+04  0.12657825654E+04  0.10100000352E+00 0.  1.
       -3    1    3    3    0  502  0.59422187444E+03 -0.47875899516E+02 -0.99007363080E+03  0.11556978595E+04  0.10100000352E+00 0. -1.
</event>
<event>
 5   0  0.3706035E-03  0.1209059E+04  0.7818609E-02  0.9104964E-01
        2   -1    0    0  501    0  0.00000000000E+00  0.00000000000E+00  0.13168300295E+04  0.13168300295E+04  0.25500000920E-02 0.  1.
       -2   -1    0    0    0  501  0.00000000000E+00  0.00000000000E+00 -0.27752698908E+03  0.27752698909E+03  0.25500000920E-02 0. -1.
    10030    2    1    2    0    0  0.00000000000E+00  0.00000000000E+00  0.10393030404E+04  0.15943570186E+04  0.12090589286E+04 0.  0.
        2    1    3    3  502    0 -0.15015959113E+03 -0.12405837733E+03  0.12743185165E+04  0.12891183287E+04  0.25500000920E-02 0.  1.
       -2    1    3    3    0  502  0.15015959113E+03  0.12405837733E+03 -0.23501547611E+03  0.30523868990E+03  0.25500000920E-02 0. -1.
</event>
<event>
 5   0  0.3626049E-03  0.1194196E+04  0.7818609E-02  0.9117952E-01
        2   -1    0    0  501    0  0.00000000000E+00  0.00000000000E+00  0.71085201713E+03  0.71085201713E+03  0.25500000920E-02 0.  1.
       -2   -1    0    0    0  501  0.00000000000E+00  0.00000000000E+00 -0.50154786907E+03  0.50154786908E+03  0.25500000920E-02 0. -1.
    10030    2    1    2    0    0  0.00000000000E+00  0.00000000000E+00  0.20930414806E+03  0.12123998862E+04  0.11941964904E+04 0.  0.
        1    1    3    3  502    0 -0.37936466297E+03 -0.26227021074E+03  0.48967307995E+03  0.67266851882E+03  0.50400001928E-02 0. -1.
       -1    1    3    3    0  502  0.37936466297E+03  0.26227021074E+03 -0.28036893190E+03  0.53973136740E+03  0.50400001928E-02 0.  1.
</event>
<event>
 5   0  0.2025294E-03  0.1195083E+04  0.7818609E-02  0.9117171E-01
        1   -1    0    0  501    0  0.00000000000E+00  0.00000000000E+00  0.69306740724E+03  0.69306740726E+03  0.50400001928E-02 0. -1.
       -1   -1    0    0    0  501  0.00000000000E+00  0.00000000000E+00 -0.51518220569E+03  0.51518220572E+03  0.50400001928E-02 0.  1.
    10030    2    1    2    0    0  0.00000000000E+00  0.00000000000E+00  0.17788520154E+03  0.12082496130E+04  0.11950832533E+04 0.  0.
        5    1    3    3  502    0  0.69156299153E+02 -0.41547129905E+03  0.51744561007E+03  0.66721139336E+03  0.46999998093E+01 0. -1.
       -5    1    3    3    0  502 -0.69156299153E+02  0.41547129905E+03 -0.33956040853E+03  0.54103821962E+03  0.46999998093E+01 0.  1.
</event>
<event>
 5   0  0.3751091E-03  0.1193604E+04  0.7818609E-02  0.9118474E-01
       -2   -1    0    0    0  501  0.00000000000E+00  0.00000000000E+00  0.38437367501E+03  0.38437367502E+03  0.25500000920E-02 0.  1.
        2   -1    0    0  501    0  0.00000000000E+00  0.00000000000E+00 -0.92663041091E+03  0.92663041091E+03  0.25500000920E-02 0. -1.
    10030    2    1    2    0    0  0.00000000000E+00  0.00000000000E+00 -0.54225673590E+03  0.13110040859E+04  0.11936035128E+04 0.  0.
        5    1    3    3  502    0  0.17663110365E+03  0.11727899906E+03  0.34159140033E+03  0.40206925421E+03  0.46999998093E+01 0.  1.
       -5    1    3    3    0  502 -0.17663110365E+03 -0.11727899906E+03 -0.88384813623E+03  0.90893483172E+03  0.46999998093E+01 0. -1.
</event>
<event>
 5   0  0.3725376E-03  0.1201792E+04  0.7818609E-02  0.9111289E-01
        2   -1    0    0  501    0  0.00000000000E+00  0.00000000000E+00  0.18438651503E+04  0.18438651503E+04  0.25500000920E-02 0. -1.
       -2   -1    0    0    0  501  0.00000000000E+00  0.00000000000E+00 -0.19582568634E+03  0.19582568636E+03  0.25500000920E-02 0.  1.
    10030    2    1    2    0    0  0.00000000000E+00  0.00000000000E+00  0.16480394639E+04  0.20396908366E+04  0.12017922592E+04 0.  0.
        4    1    3    3  502    0 -0.17251326419E+03  0.53767516509E+03  0.11727499764E+04  0.13016142015E+04  0.12699999809E+01 0. -1.
       -4    1    3    3    0  502  0.17251326419E+03 -0.53767516509E+03  0.47528948749E+03  0.73807663511E+03  0.12699999809E+01 0.  1.
</event>
<event>
 5   0  0.3706035E-03  0.1246049E+04  0.7818609E-02  0.9073478E-01
        2   -1    0    0  501    0  0.00000000000E+00  0.00000000000E+00  0.93124325748E+03  0.93124325748E+03  0.25500000920E-02 0. -1.
       -2   -1    0    0    0  501  0.00000000000E+00  0.00000000000E+00 -0.41681866032E+03  0.41681866032E+03  0.25500000920E-02 0.  1.
    10030    2    1    2    0    0  0.00000000000E+00  0.00000000000E+00  0.51442459716E+03  0.13480619178E+04  0.12460490633E+04 0.  0.
        2    1    3    3  502    0 -0.99543568129E+02 -0.37547384900E+03  0.78419473767E+03  0.87512908752E+03  0.25500000920E-02 0. -1.
       -2    1    3    3    0  502  0.99543568129E+02  0.37547384900E+03 -0.26977014051E+03  0.47293283028E+03  0.25500000920E-02 0.  1.
</event>
<event>
 5   0  0.2078258E-03  0.1172244E+04  0.7818609E-02  0.9137504E-01
        1   -1    0    0  501    0  0.00000000000E+00  0.00000000000E+00  0.94620053072E+03  0.94620053073E+03  0.50400001928E-02 0.  1.
       -1   -1    0    0    0  501  0.00000000000E+00  0.00000000000E+00 -0.36307198405E+03  0.36307198409E+03  0.50400001928E-02 0. -1.
    10030    2    1    2    0    0  0.00000000000E+00  0.00000000000E+00  0.58312854667E+03  0.13092725148E+04  0.11722438382E+04 0.  0.
        3    1    3    3  502    0  0.51690823769E+03  0.26137343021E+03  0.19148718920E+03  0.61006356229E+03  0.10100000352E+00 0. -1.
       -3    1    3    3    0  502 -0.51690823769E+03 -0.26137343021E+03  0.39164135747E+03  0.69920895253E+03  0.10100000352E+00 0.  1.
</event>
<event>
 5   0  0.2025294E-03  0.1185423E+04  0.7818609E-02  0.9125712E-01
        1   -1    0    0  501    0  0.00000000000E+00  0.00000000000E+00  0.56763252101E+03  0.56763252103E+03  0.50400001928E-02 0. -1.
       -1   -1    0    0    0  501  0.00000000000E+00  0.00000000000E+00 -0.61889877757E+03  0.61889877759E+03  0.50400001928E-02 0.  1.
    10030    2    1    2    0    0  0.00000000000E+00  0.00000000000E+00 -0.51266256569E+02  0.11865312986E+04  0.11854232550E+04 0.  0.
        5    1    3    3  502    0  0.29748457023E+03  0.49303397627E+03  0.11487405149E+03  0.58719477943E+03  0.46999998093E+01 0.  1.
       -5    1    3    3    0  502 -0.29748457023E+03 -0.49303397627E+03 -0.16614030806E+03  0.59933651920E+03  0.46999998093E+01 0. -1.
</event>
<event>
 5   0  0.3626049E-03  0.1325352E+04  0.7818609E-02  0.9009699E-01
        2   -1    0    0  501    0  0.00000000000E+00  0.00000000000E+00  0.21127212597E+04  0.21127212597E+04  0.25500000920E-02 0. -1.
       -2   -1    0    0    0  501  0.00000000000E+00  0.00000000000E+00 -0.20785477055E+03  0.20785477056E+03  0.25500000920E-02 0.  1.
    10030    2    1    2    0    0  0.00000000000E+00  0.00000000000E+00  0.19048664892E+04  0.23205760303E+04  0.13253515650E+04 0.  0.
        1    1    3    3  502    0 -0.25676776576E+03  0.60980649260E+03  0.88820672049E+03  0.11075670735E+04  0.50400001928E-02 0.  1.
       -1    1    3    3    0  502  0.25676776576E+03 -0.60980649260E+03  0.10166597687E+04  0.12130089568E+04  0.50400001928E-02 0. -1.
</event>
<event>
 5   0  0.3751091E-03  0.1198704E+04  0.7818609E-02  0.9113991E-01
       -2   -1    0    0    0  501  0.00000000000E+00  0.00000000000E+00  0.40060763025E+03  0.40060763026E+03  0.25500000920E-02 0. -1.
        2   -1    0    0  501    0  0.00000000000E+00  0.00000000000E+00 -0.89669542570E+03  0.89669542570E+03  0.25500000920E-02 0.  1.
    10030    2    1    2    0    0  0.00000000000E+00  0.00000000000E+00 -0.49608779545E+03  0.12973030560E+04  0.11987043498E+04 0.  0.
        5    1    3    3  502    0  0.19467133766E+03  0.54513467786E+03 -0.79920656766E+02  0.58436131639E+03  0.46999998093E+01 0. -1.
       -5    1    3    3    0  502 -0.19467133766E+03 -0.54513467786E+03 -0.41616713868E+03  0.71294173958E+03  0.46999998093E+01 0.  1.
</event>
<event>
 5   0  0.3751091E-03  0.1211124E+04  0.7818609E-02  0.9103175E-01
        2   -1    0    0  501    0  0.00000000000E+00  0.00000000000E+00  0.97179308844E+03  0.97179308844E+03  0.25500000920E-02 0.  1.
       -2   -1    0    0    0  501  0.00000000000E+00  0.00000000000E+00 -0.37734930287E+03  0.37734930287E+03  0.25500000920E-02 0. -1.
    10030    2    1    2    0    0  0.00000000000E+00  0.00000000000E+00  0.59444378557E+03  0.13491423913E+04  0.12111241794E+04 0.  0.
        5    1    3    3  502    0  0.32212070361E+02  0.52751220346E+03 -0.32059139663E+02  0.52948712988E+03  0.46999998093E+01 0. -1.
       -5    1    3    3    0  502 -0.32212070361E+02 -0.52751220346E+03  0.62650292524E+03  0.81965526144E+03  0.46999998093E+01 0.  1.
</event>
<event>
 5   0  0.2134992E-03  0.1239167E+04  0.7818609E-02  0.9079248E-01
       -1   -1    0    0    0  501  0.00000000000E+00  0.00000000000E+00  0.24326293260E+03  0.24326293266E+03  0.50400001928E-02 0.  1.
        1   -1    0    0  501    0  0.00000000000E+00  0.00000000000E+00 -0.15780603479E+04  0.15780603479E+04  0.50400001928E-02 0. -1.
    10030    2    1    2    0    0  0.00000000000E+00  0.00000000000E+00 -0.13347974153E+04  0.18213232805E+04  0.12391667977E+04 0.  0.
        4    1    3    3  502    0  0.26330084323E+03  0.54431331391E+03 -0.46868970778E+03  0.76503331485E+03  0.12699999809E+01 0. -1.
       -4    1    3    3    0  502 -0.26330084323E+03 -0.54431331391E+03 -0.86610770748E+03  0.10562899657E+04  0.12699999809E+01 0.  1.
</event>
<event>
 5   0  0.2134992E-03  0.1214405E+04  0.7818609E-02  0.9100340E-01
        1   -1    0    0  501    0  0.00000000000E+00  0.00000000000E+00  0.81276438625E+03  0.81276438627E+03  0.50400001928E-02 0. -1.
       -1   -1    0    0    0  501  0.00000000000E+00  0.00000000000E+00 -0.45363091329E+03  0.45363091332E+03  0.50400001928E-02 0.  1.
    10030    2    1    2    0    0  0.00000000000E+00  0.00000000000E+00  0.35913347296E+03  0.12663952996E+04  0.12144052880E+04 0.  0.
        4    1    3    3  502    0 -0.38888338628E+03 -0.44498652577E+03  0.32500109686E+03  0.67444097006E+03  0.12699999809E+01 0. -1.
       -4    1    3    3    0  502  0.38888338628E+03  0.44498652577E+03  0.34132376101E+02  0.59195432952E+03  0.12699999809E+01 0.  1.
</event>
<event>
 5   0  0.2096270E-03  0.1203509E+04  0.7818609E-02  0.9109791E-01
        1   -1    0    0  501    0  0.00000000000E+00  0.00000000000E+00  0.40127052240E+03  0.40127052243E+03  0.50400001928E-02 0. -1.
       -1   -1    0    0    0  501  0.00000000000E+00  0.00000000000E+00 -0.90240419007E+03  0.90240419009E+03  0.50400001928E-02 0.  1.
    10030    2    1    2    0    0  0.00000000000E+00  0.00000000000E+00 -0.50113366767E+03  0.13036747125E+04  0.12035085389E+04 0.  0.
        2    1    3    3  502    0 -0.31130615619E+03  0.26570689459E+03  0.22727878103E+03  0.46815309572E+03  0.25500000920E-02 0. -1.
       -2    1    3    3    0  502  0.31130615619E+03 -0.26570689459E+03 -0.72841244870E+03  0.83552161680E+03  0.25500000920E-02 0.  1.
</event>
<event>
 5   0  0.3626049E-03  0.1195670E+04  0.7818609E-02  0.9116655E-01
        2   -1    0    0  501    0  0.00000000000E+00  0.00000000000E+00  0.55202782528E+03  0.55202782529E+03  0.25500000920E-02 0. -1.
       -2   -1    0    0    0  501  0.00000000000E+00  0.00000000000E+00 -0.64744354624E+03  0.64744354625E+03  0.25500000920E-02 0.  1.
    10030    2    1    2    0    0  0.00000000000E+00  0.00000000000E+00 -0.95415720956E+02  0.11994713715E+04  0.11956702770E+04 0.  0.
        1    1    3    3  502    0  0.34939000298E+03 -0.11498974193E+03 -0.52049246802E+03  0.63734482364E+03  0.50400001928E-02 0.  1.
       -1    1    3    3    0  502 -0.34939000298E+03  0.11498974193E+03  0.42507674706E+03  0.56212654790E+03  0.50400001928E-02 0. -1.
</event>
<event>
 5   0  0.3751091E-03  0.1188724E+04  0.7818609E-02  0.9122784E-01
        2   -1    0    0  501    0  0.00000000000E+00  0.00000000000E+00  0.12766223544E+04  0.12766223544E+04  0.25500000920E-02 0.  1.
       -2   -1    0    0    0  501  0.00000000000E+00  0.00000000000E+00 -0.27671958479E+03  0.27671958480E+03  0.25500000920E-02 0. -1.
    10030    2    1    2    0    0  0.00000000000E+00  0.00000000000E+00  0.99990276962E+03  0.15533419392E+04  0.11887243715E+04 0.  0.
        5    1    3    3  502    0  0.50737630751E+03  0.26712909238E+02  0.90292462510E+03  0.10360691413E+04  0.46999998093E+01 0.  1.
       -5    1    3    3    0  502 -0.50737630751E+03 -0.26712909238E+02  0.96978144516E+02  0.51727279791E+03  0.46999998093E+01 0. -1.
</event>
<event>
 5   0  0.3650180E-03  0.1198141E+04  0.7818609E-02  0.9114486E-01
       -2   -1    0    0    0  501  0.00000000000E+00  0.00000000000E+00  0.97665363184E+03  0.97665363185E+03  0.25500000920E-02 0.  1.
        2   -1    0    0  501    0  0.00000000000E+00  0.00000000000E+00 -0.36746416133E+03  0.36746416134E+03  0.25500000920E-02 0. -1.
    10030    2    1    2    0    0  0.00000000000E+00  0.00000000000E+00  0.60918947052E+03  0.13441177932E+04  0.11981405723E+04 0.  0.
        3    1    3    3  502    0  0.18284627984E+03 -0.37494724416E+03  0.78694136876E+03  0.89067105377E+03  0.10100000352E+00 0.  1.
       -3    1    3    3    0  502 -0.18284627984E+03  0.37494724416E+03 -0.17775189825E+03  0.45344673941E+03  0.10100000352E+00 0. -1.
</event>
<event>
 5   0  0.2134992E-03  0.1172949E+04  0.7818609E-02  0.9136869E-01
        1   -1    0    0  501    0  0.00000000000E+00  0.00000000000E+00  0.13452285552E+04  0.13452285552E+04  0.50400001928E-02 0.  1.
       -1   -1    0    0    0  501  0.00000000000E+00  0.00000000000E+00 -0.25568330673E+03  0.25568330678E+03  0.50400001928E-02 0. -1.
    10030    2    1    2    0    0  0.00000000000E+00  0.00000000000E+00  0.10895452485E+04  0.16009118620E+04  0.11729492493E+04 0.  0.
        4    1    3    3  502    0 -0.33338046967E+02 -0.56159551703E+03  0.77090292525E+03  0.95435521856E+03  0.12699999809E+01 0.  1.
       -4    1    3    3    0  502  0.33338046967E+02  0.56159551703E+03  0.31864232324E+03  0.64655664345E+03  0.12699999809E+01 0. -1.
</event>
<event>
 5   0  0.3626049E-03  0.1198048E+04  0.7818609E-02  0.9114567E-01
       -2   -1    0    0    0  501  0.00000000000E+00  0.00000000000E+00  0.32781240862E+03  0.32781240863E+03  0.25500000920E-02 0. -1.
        2   -1    0    0  501    0  0.00000000000E+00  0.00000000000E+00 -0.10946193007E+04  0.10946193007E+04  0.25500000920E-02 0.  1.
    10030    2    1    2    0    0  0.00000000000E+00  0.00000000000E+00 -0.76680689205E+03  0.14224317093E+04  0.11980480616E+04 0.  0.
        1    1    3    3  502    0  0.44592318838E+03 -0.15648902297E+01  0.91483058494E+02  0.45521323447E+03  0.50400001928E-02 0. -1.
       -1    1    3    3    0  502 -0.44592318838E+03  0.15648902297E+01 -0.85828995055E+03  0.96721847483E+03  0.50400001928E-02 0.  1.
</event>
<event>
 5   0  0.2134992E-03  0.1203829E+04  0.7818609E-02  0.9109512E-01
        1   -1    0    0  501    0  0.00000000000E+00  0.00000000000E+00  0.18164648583E+04  0.18164648583E+04  0.50400001928E-02 0. -1.
       -1   -1    0    0    0  501  0.00000000000E+00  0.00000000000E+00 -0.19945395149E+03  0.19945395156E+03  0.50400001928E-02 0.  1.
    10030    2    1    2    0    0  0.00000000000E+00  0.00000000000E+00  0.16170109068E+04  0.20159188099E+04  0.12038290474E+04 0.  0.
        4    1    3    3  502    0 -0.56899995515E+03  0.74086807263E+02  0.50407238275E+03  0.76376723150E+03  0.12699999809E+01 0. -1.
       -4    1    3    3    0  502  0.56899995515E+03 -0.74086807263E+02  0.11129385241E+04  0.12521515784E+04  0.12699999809E+01 0.  1.
</event>
<event>
 5   0  0.3650180E-03  0.1198524E+04  0.7818609E-02  0.9114149E-01
       -2   -1    0    0    0  501  0.00000000000E+00  0.00000000000E+00  0.24621392926E+03  0.24621392927E+03  0.25500000920E-02 0.  1.
        2   -1    0    0  501    0  0.00000000000E+00  0.00000000000E+00 -0.14585486858E+04  0.14585486858E+04  0.25500000920E-02 0. -1.
    10030    2    1    2    0    0  0.00000000000E+00  0.00000000000E+00 -0.12123347565E+04  0.17047626151E+04  0.11985240973E+04 0.  0.
        3    1    3    3  502    0 -0.39969328715E+03 -0.27301547778E+03 -0.11086998550E+04  0.12097551627E+04  0.10100000352E+00 0. -1.
       -3    1    3    3    0  502  0.39969328715E+03  0.27301547778E+03 -0.10363490150E+03  0.49500745238E+03  0.10100000352E+00 0.  1.
</event>
<event>
 5   0  0.3725376E-03  0.1208970E+04  0.7818609E-02  0.9105041E-01
        2   -1    0    0  501    0  0.00000000000E+00  0.00000000000E+00  0.61970541543E+03  0.61970541544E+03  0.25500000920E-02 0.  1.
       -2   -1    0    0    0  501  0.00000000000E+00  0.00000000000E+00 -0.58963862980E+03  0.58963862980E+03  0.25500000920E-02 0. -1.
    10030    2    1    2    0    0  0.00000000000E+00  0.00000000000E+00  0.30066785634E+02  0.12093440452E+04  0.12089702263E+04 0.  0.
        4    1    3    3  502    0 -0.21848092270E+03 -0.22870403335E+03 -0.50025809532E+03  0.59186081412E+03  0.12699999809E+01 0. -1.
       -4    1    3    3    0  502  0.21848092270E+03  0.22870403335E+03  0.53032488096E+03  0.61748323112E+03  0.12699999809E+01 0.  1.
</event>
<event>
 5   0  0.2047109E-03  0.1176868E+04  0.7818609E-02  0.9133349E-01
       -1   -1    0    0    0  501  0.00000000000E+00  0.00000000000E+00  0.29926491554E+03  0.29926491558E+03  0.50400001928E-02 0.  1.
        1   -1    0    0  501    0  0.00000000000E+00  0.00000000000E+00 -0.11570165805E+04  0.11570165805E+04  0.50400001928E-02 0. -1.
    10030    2    1    2    0    0  0.00000000000E+00  0.00000000000E+00 -0.85775166497E+03  0.14562814961E+04  0.11768678248E+04 0.  0.
        1    1    3    3  502    0  0.52518532677E+03 -0.26024346540E+03 -0.49327146988E+03  0.76606986089E+03  0.50400001928E-02 0. -1.
       -1    1    3    3    0  502 -0.52518532677E+03  0.26024346540E+03 -0.36448019509E+03  0.69021163521E+03  0.50400001928E-02 0.  1.
</event>
<event>
 5   0  0.3626049E-03  0.1207628E+04  0.7818609E-02  0.9106206E-01
        2   -1    0    0  501    0  0.00000000000E+00  0.00000000000E+00  0.11843051490E+04  0.11843051490E+04  0.25500000920E-02 0. -1.
       -2   -1    0    0    0  501  0.00000000000E+00  0.00000000000E+00 -0.30785270353E+03  0.30785270354E+03  0.25500000920E-02 0.  1.
    10030    2    1    2    0    0  0.00000000000E+00  0.00000000000E+00  0.87645244544E+03  0.14921578525E+04  0.12076283235E+04 0.  0.
        1    1    3    3  502    0 -0.41260360539E+03 -0.21759419106E+02  0.98228256624E+03  0.10656426453E+04  0.50400001928E-02 0. -1.
       -1    1    3    3    0  502  0.41260360539E+03  0.21759419106E+02 -0.10583012080E+03  0.42651520722E+03  0.50400001928E-02 0.  1.
</event>
<event>
 5   0  0.2025294E-03  0.1197532E+04  0.7818609E-02  0.9115019E-01
        1   -1    0    0  501    0  0.00000000000E+00  0.00000000000E+00  0.70660693368E+03  0.70660693370E+03  0.50400001928E-02 0. -1.
       -1   -1    0    0    0  501  0.00000000000E+00  0.00000000000E+00 -0.50738368389E+03  0.50738368392E+03  0.50400001928E-02 0.  1.
    10030    2    1    2    0    0  0.00000000000E+00  0.00000000000E+00  0.19922324979E+03  0.12139906176E+04  0.11975321776E+04 0.  0.
        5    1    3    3  502    0 -0.40345140856E+03  0.43713808449E+03  0.30587704327E+02  0.59566806330E+03  0.46999998093E+01 0. -1.
       -5    1    3    3    0  502  0.40345140856E+03 -0.43713808449E+03  0.16863554546E+03  0.61832255431E+03  0.46999998093E+01 0.  1.
</event>
<event>
 5   0  0.2025294E-03  0.1179713E+04  0.7818609E-02  0.9130801E-01
       -1   -1    0    0    0  501  0.00000000000E+00  0.00000000000E+00  0.75886699732E+03  0.75886699734E+03  0.50400001928E-02 0. -1.
        1   -1    0    0  501    0  0.00000000000E+00  0.00000000000E+00 -0.45848709362E+03  0.45848709365E+03  0.50400001928E-02 0.  1.
    10030    2    1    2    0    0  0.00000000000E+00  0.00000000000E+00  0.30037990369E+03  0.12173540910E+04  0.11797130568E+04 0.  0.
        5    1    3    3  502    0 -0.18917391869E+03 -0.29032627182E+03 -0.34235785415E+03  0.48714177188E+03  0.46999998093E+01 0.  1.
       -5    1    3    3    0  502  0.18917391869E+03  0.29032627182E+03  0.64273775784E+03  0.73021231910E+03  0.46999998093E+01 0. -1.
</event>
<event>
 5   0  0.2134992E-03  0.1191908E+04  0.7818609E-02  0.9119969E-01
       -1   -1    0    0    0  501  0.00000000000E+00  0.00000000000E+00  0.27529476848E+03  0.27529476853E+03  0.50400001928E-02 0.  1.
        1   -1    0    0  501    0  0.00000000000E+00  0.00000000000E+00 -0.12901114387E+04  0.12901114387E+04  0.50400001928E-02 0. -1.
    10030    2    1    2    0    0  0.00000000000E+00  0.00000000000E+00 -0.10148166702E+04  0.15654062072E+04  0.11919075969E+04 0.  0.
        4    1    3    3  502    0  0.27340125471E+03 -0.52925647326E+03 -0.53010543576E+03  0.79741710948E+03  0.12699999809E+01 0. -1.
       -4    1    3    3    0  502 -0.27340125471E+03  0.52925647326E+03 -0.48471123442E+03  0.76798909774E+03  0.12699999809E+01 0.  1.
</event>
<event>
 5   0  0.2078258E-03  0.1145895E+04  0.7818609E-02  0.9161579E-01
        1   -1    0    0  501    0  0.00000000000E+00  0.00000000000E+00  0.10873218577E+04  0.10873218577E+04  0.50400001928E-02 0.  1.
       -1   -1    0    0    0  501  0.00000000000E+00  0.00000000000E+00 -0.30190569432E+03  0.30190569436E+03  0.50400001928E-02 0. -1.
    10030    2    1    2    0    0  0.00000000000E+00  0.00000000000E+00  0.78541616335E+03  0.13892275520E+04  0.11458946905E+04 0.  0.
        3    1    3    3  502    0  0.38311410623E+03 -0.30883016648E+03  0.36936701122E+02  0.49347423460E+03  0.10100000352E+00 0. -1.
       -3    1    3    3    0  502 -0.38311410623E+03  0.30883016648E+03  0.74847946223E+03  0.89575331744E+03  0.10100000352E+00 0.  1.
</event>
<event>
 5   0  0.2078258E-03  0.1214929E+04  0.7818609E-02  0.9099889E-01
       -1   -1    0    0    0  501  0.00000000000E+00  0.00000000000E+00  0.11797658769E+04  0.11797658769E+04  0.50400001928E-02 0. -1.
        1   -1    0    0  501    0  0.00000000000E+00  0.00000000000E+00 -0.31278495048E+03  0.31278495052E+03  0.50400001928E-02 0.  1.
    10030    2    1    2    0    0  0.00000000000E+00  0.00000000000E+00  0.86698092638E+03  0.14925508274E+04  0.12149288233E+04 0.  0.
        3    1    3    3  502    0  0.23739114736E+03 -0.41520888096E+03  0.89358307251E+03  0.10135303100E+04  0.10100000352E+00 0. -1.
       -3    1    3    3    0  502 -0.23739114736E+03  0.41520888096E+03 -0.26602146130E+02  0.47902051736E+03  0.10100000352E+00 0.  1.
</event>
<event>
 5   0  0.2134992E-03  0.1197351E+04  0.7818609E-02  0.9115178E-01
       -1   -1    0    0    0  501  0.00000000000E+00  0.00000000000E+00  0.38258971219E+03  0.38258971222E+03  0.50400001928E-02 0. -1.
        1   -1    0    0  501    0  0.00000000000E+00  0.00000000000E+00 -0.93680579415E+03  0.93680579416E+03  0.50400001928E-02 0.  1.
    10030    2    1    2    0    0  0.00000000000E+00  0.00000000000E+00 -0.55421608196E+03  0.13193955064E+04  0.11973508411E+04 0.  0.
        4    1    3    3  502    0  0.36655874105E+02  0.56155105190E+03 -0.50220223226E+03  0.75424925057E+03  0.12699999809E+01 0.  1.
       -4    1    3    3    0  502 -0.36655874105E+02 -0.56155105190E+03 -0.52013849704E+02  0.56514625581E+03  0.12699999809E+01 0. -1.
</event>
<event>
 5   0  0.2078258E-03  0.1237508E+04  0.7818609E-02  0.9080644E-01
        1   -1    0    0  501    0  0.00000000000E+00  0.00000000000E+00  0.19775507206E+04  0.19775507206E+04  0.50400001928E-02 0.  1.
       -1   -1    0    0    0  501  0.00000000000E+00  0.00000000000E+00 -0.19360150000E+03  0.19360150007E+03  0.50400001928E-02 0. -1.
    10030    2    1    2    0    0  0.00000000000E+00  0.00000000000E+00  0.17839492206E+04  0.21711522207E+04  0.12375084419E+04 0.  0.
        3    1    3    3  502    0 -0.30590562866E+03 -0.54156838394E+02 -0.46856189421E+02  0.31417627135E+03  0.10100000352E+00 0. -1.
       -3    1    3    3    0  502  0.30590562866E+03  0.54156838394E+02  0.18308054100E+04  0.18569759493E+04  0.10100000352E+00 0.  1.
</event>
<event>
 5   0  0.2047109E-03  0.9419601E+03  0.7818609E-02  0.9374598E-01
       -1   -1    0    0    0  501  0.00000000000E+00  0.00000000000E+00  0.17965067326E+03  0.17965067333E+03  0.50400001928E-02 0.  1.
        1   -1    0    0  501    0  0.00000000000E+00  0.00000000000E+00 -0.12347417549E+04  0.12347417549E+04  0.50400001928E-02 0. -1.
    10030    2    1    2    0    0  0.00000000000E+00  0.00000000000E+00 -0.10550910816E+04  0.14143924282E+04  0.94196005779E+03 0.  0.
        1    1    3    3  502    0  0.19227380016E+03 -0.40763379784E+03 -0.32228054267E+03  0.55407515337E+03  0.50400001928E-02 0. -1.
       -1    1    3    3    0  502 -0.19227380016E+03  0.40763379784E+03 -0.73281053896E+03  0.86031727485E+03  0.50400001928E-02 0.  1.
</event>
<event>
 5   0  0.2025294E-03  0.1107816E+04  0.7818609E-02  0.9197607E-01
       -1   -1    0    0    0  501  0.00000000000E+00  0.00000000000E+00  0.61266265983E+03  0.61266265985E+03  0.50400001928E-02 0. -1.
        1   -1    0    0  501    0  0.00000000000E+00  0.00000000000E+00 -0.50078782458E+03  0.50078782461E+03  0.50400001928E-02 0.  1.
    10030    2    1    2    0    0  0.00000000000E+00  0.00000000000E+00  0.11187483524E+03  0.11134504845E+04  0.11078158703E+04 0.  0.
        5    1    3    3  502    0 -0.24782119161E+03 -0.47739064988E+03 -0.76926980932E+02  0.54337558465E+03  0.46999998093E+01 0. -1.
       -5    1    3    3    0  502  0.24782119161E+03  0.47739064988E+03  0.18880181618E+03  0.57007489981E+03  0.46999998093E+01 0.  1.
</event>
<event>
 5   0  0.3650180E-03  0.1201474E+04  0.7818609E-02  0.9111567E-01
        2   -1    0    0  501    0  0.00000000000E+00  0.00000000000E+00  0.99911260425E+03  0.99911260425E+03  0.25500000920E-02 0. -1.
       -2   -1    0    0    0  501  0.00000000000E+00  0.00000000000E+00 -0.36120569321E+03  0.36120569322E+03  0.25500000920E-02 0.  1.
    10030    2    1    2    0    0  0.00000000000E+00  0.00000000000E+00  0.63790691104E+03  0.13603182975E+04  0.12014743623E+04 0.  0.
        3    1    3    3  502    0 -0.11616541435E+03 -0.40239399499E+03 -0.16864537673E+03  0.45150482167E+03  0.10100000352E+00 0.  1.
       -3    1    3    3    0  502  0.11616541435E+03  0.40239399499E+03  0.80655228777E+03  0.90881347581E+03  0.10100000352E+00 0. -1.
</event>
<event>
 5   0  0.3706035E-03  0.1211799E+04  0.7818609E-02  0.9102591E-01
        2   -1    0    0  501    0  0.00000000000E+00  0.00000000000E+00  0.76099153900E+03  0.76099153901E+03  0.25500000920E-02 0. -1.
       -2   -1    0    0    0  501  0.00000000000E+00  0.00000000000E+00 -0.48241533552E+03  0.48241533553E+03  0.25500000920E-02 0.  1.
    10030    2    1    2    0    0  0.00000000000E+00  0.00000000000E+00  0.27857620349E+03  0.12434068745E+04  0.12117986444E+04 0.  0.
        2    1    3    3  502    0  0.26230846119E+03 -0.24323616363E+03  0.64106762610E+03  0.73412346465E+03  0.25500000920E-02 0. -1.
       -2    1    3    3    0  502 -0.26230846119E+03  0.24323616363E+03 -0.36249142262E+03  0.50928340988E+03  0.25500000920E-02 0.  1.
</event>
<event>
 5   0  0.2025294E-03  0.1182942E+04  0.7818609E-02  0.9127920E-01
        1   -1    0    0  501    0  0.00000000000E+00  0.00000000000E+00  0.22852984531E+03  0.22852984536E+03  0.50400001928E-02 0.  1.
       -1   -1    0    0    0  501  0.00000000000E+00  0.00000000000E+00 -0.15308196050E+04  0.15308196050E+04  0.50400001928E-02 0. -1.
    10030    2    1    2    0    0  0.00000000000E+00  0.00000000000E+00 -0.13022897597E+04  0.17593494503E+04  0.11829420401E+04 0.  0.
        5    1    3    3  502    0 -0.42757913010E+03 -0.10033884021E+03 -0.61984624070E+02  0.44357184195E+03  0.46999998093E+01 0.  1.
       -5    1    3    3    0  502  0.42757913010E+03  0.10033884021E+03 -0.12403051356E+04  0.13157776084E+04  0.46999998093E+01 0. -1.
</event>
<event>
 5   0  0.3650180E-03  0.1183503E+04  0.7818609E-02  0.9127420E-01
       -2   -1    0    0    0  501  0.00000000000E+00  0.00000000000E+00  0.79065734765E+03  0.79065734765E+03  0.25500000920E-02 0. -1.
        2   -1    0    0  501    0  0.00000000000E+00  0.00000000000E+00 -0.44288425214E+03  0.44288425215E+03  0.25500000920E-02 0.  1.
    10030    2    1    2    0    0  0.00000000000E+00  0.00000000000E+00  0.34777309551E+03  0.12335415998E+04  0.11835027471E+04 0.  0.
        3    1    3    3  502    0  0.11079368282E+03  0.37942847918E+03  0.63287875479E+03  0.74617473786E+03  0.10100000352E+00 0. -1.
       -3    1    3    3    0  502 -0.11079368282E+03 -0.37942847918E+03 -0.28510565928E+03  0.48736686194E+03  0.10100000352E+00 0.  1.
</event>
<event>
 5   0  0.3626049E-03  0.1207369E+04  0.7818609E-02  0.9106431E-01
       -2   -1    0    0    0  501  0.00000000000E+00  0.00000000000E+00  0.50095863874E+03  0.50095863875E+03  0.25500000920E-02 0.  1.
        2   -1    0    0  501    0  0.00000000000E+00  0.00000000000E+00 -0.72747461301E+03  0.72747461301E+03  0.25500000920E-02 0. -1.
    10030    2    1    2    0    0  0.00000000000E+00  0.00000000000E+00 -0.22651597427E+03  0.12284332518E+04  0.12073685301E+04 0.  0.
        1    1    3    3  502    0 -0.40085724626E+03 -0.10097647699E+03  0.33436300308E+03  0.53167790873E+03  0.50400001928E-02 0.  1.
       -1    1    3    3    0  502  0.40085724626E+03  0.10097647699E+03 -0.56087897735E+03  0.69675534303E+03  0.50400001928E-02 0. -1.
</event>
<event>
 5   0  0.3725376E-03  0.1133573E+04  0.7818609E-02  0.9173074E-01
        2   -1    0    0  501    0  0.00000000000E+00  0.00000000000E+00  0.11614836782E+04  0.11614836782E+04  0.25500000920E-02 0.  1.
       -2   -1    0    0    0  501  0.00000000000E+00  0.00000000000E+00 -0.27658313349E+03  0.27658313350E+03  0.25500000920E-02 0. -1.
    10030    2    1    2    0    0  0.00000000000E+00  0.00000000000E+00  0.88490054476E+03  0.14380668118E+04  0.11335727506E+04 0.  0.
        4    1    3    3  502    0  0.32640807147E+03 -0.46131188231E+03  0.38723565096E+03  0.68505762104E+03  0.12699999809E+01 0. -1.
       -4    1    3    3    0  502 -0.32640807147E+03  0.46131188231E+03  0.49766489380E+03  0.75300919071E+03  0.12699999809E+01 0.  1.
</event>
<event>
 5   0  0.3706035E-03  0.1208607E+04  0.7818609E-02  0.9105356E-01
       -2   -1    0    0    0  501  0.00000000000E+00  0.00000000000E+00  0.30001765047E+03  0.30001765048E+03  0.25500000920E-02 0. -1.
        2   -1    0    0  501    0  0.00000000000E+00  0.00000000000E+00 -0.12172034899E+04  0.12172034899E+04  0.25500000920E-02 0.  1.
    10030    2    1    2    0    0  0.00000000000E+00  0.00000000000E+00 -0.91718583946E+03  0.15172211404E+04  0.12086066874E+04 0.  0.
        2    1    3    3  502    0 -0.37648007770E+03  0.47259796013E+03 -0.47092157912E+03  0.76606345331E+03  0.25500000920E-02 0.  1.
       -2    1    3    3    0  502  0.37648007770E+03 -0.47259796013E+03 -0.44626426034E+03  0.75115768709E+03  0.25500000920E-02 0. -1.
</event>
<event>
 5   0  0.2025294E-03  0.1199982E+04  0.7818609E-02  0.9112872E-01
        1   -1    0    0  501    0  0.00000000000E+00  0.00000000000E+00  0.80500152700E+03  0.80500152702E+03  0.50400001928E-02 0.  1.
       -1   -1    0    0    0  501  0.00000000000E+00  0.00000000000E+00 -0.44719098434E+03  0.44719098437E+03  0.50400001928E-02 0. -1.
    10030    2    1    2    0    0  0.00000000000E+00  0.00000000000E+00  0.35781054266E+03  0.12521925114E+04  0.11999823753E+04 0.  0.
        5    1    3    3  502    0 -0.45897377166E+03  0.35459388332E+02 -0.22261262313E+03  0.51136362920E+03  0.46999998093E+01 0. -1.
       -5    1    3    3    0  502  0.45897377166E+03 -0.35459388332E+02  0.58042316579E+03  0.74082888219E+03  0.46999998093E+01 0.  1.
</event>
<event>
 5   0  0.3706035E-03  0.1178606E+04  0.7818609E-02  0.9131791E-01
        2   -1    0    0  501    0  0.00000000000E+00  0.00000000000E+00  0.84214638211E+03  0.84214638211E+03  0.25500000920E-02 0.  1.
       -2   -1    0    0    0  501  0.00000000000E+00  0.00000000000E+00 -0.41237275144E+03  0.41237275144E+03  0.25500000920E-02 0. -1.
    10030    2    1    2    0    0  0.00000000000E+00  0.00000000000E+00  0.42977363067E+03  0.12545191336E+04  0.11786063307E+04 0.  0.
        2    1    3    3  502    0 -0.49904391563E+03 -0.22018063155E+03  0.45230938391E+03  0.70859587849E+03  0.25500000920E-02 0.  1.
       -2    1    3    3    0  502  0.49904391563E+03  0.22018063155E+03 -0.22535753240E+02  0.54592325506E+03  0.25500000920E-02 0. -1.
</event>
<event>
 5   0  0.2025294E-03  0.1201266E+04  0.7818609E-02  0.9111749E-01
       -1   -1    0    0    0  501  0.00000000000E+00  0.00000000000E+00  0.74408147358E+03  0.74408147359E+03  0.50400001928E-02 0.  1.
        1   -1    0    0  501    0  0.00000000000E+00  0.00000000000E+00 -0.48483959376E+03  0.48483959379E+03  0.50400001928E-02 0. -1.
    10030    2    1    2    0    0  0.00000000000E+00  0.00000000000E+00  0.25924187981E+03  0.12289210674E+04  0.12012662642E+04 0.  0.
        5    1    3    3  502    0  0.18418006580E+03  0.27079801624E+03  0.64468371327E+03  0.72311343674E+03  0.46999998093E+01 0.  1.
       -5    1    3    3    0  502 -0.18418006580E+03 -0.27079801624E+03 -0.38544183346E+03  0.50580763064E+03  0.46999998093E+01 0. -1.
</event>
<event>
 5   0  0.2096270E-03  0.1210722E+04  0.7818609E-02  0.9103523E-01
       -1   -1    0    0    0  501  0.00000000000E+00  0.00000000000E+00  0.52440868037E+03  0.52440868040E+03  0.50400001928E-02 0. -1.
        1   -1    0    0  501    0  0.00000000000E+00  0.00000000000E+00 -0.69880988281E+03  0.69880988282E+03  0.50400001928E-02 0.  1.
    10030    2    1    2    0    0  0.00000000000E+00  0.00000000000E+00 -0.17440120243E+03  0.12232185632E+04  0.12107220466E+04 0.  0.
        2    1    3    3  502    0 -0.38416110959E+03  0.42693471246E+03 -0.28051015488E+03  0.63917052015E+03  0.25500000920E-02 0.  1.
       -2    1    3    3    0  502  0.38416110959E+03 -0.42693471246E+03  0.10610895245E+03  0.58404804308E+03  0.25500000920E-02 0. -1.
</event>
<event>
 5   0  0.2096270E-03  0.1180023E+04  0.7818609E-02  0.9130524E-01
       -1   -1    0    0    0  501  0.00000000000E+00  0.00000000000E+00  0.40824099695E+03  0.40824099698E+03  0.50400001928E-02 0.  1.
        1   -1    0    0  501    0  0.00000000000E+00  0.00000000000E+00 -0.85271639141E+03  0.85271639142E+03  0.50400001928E-02 0. -1.
    10030    2    1    2    0    0  0.00000000000E+00  0.00000000000E+00 -0.44447539446E+03  0.12609573884E+04  0.11800233723E+04 0.  0.
        2    1    3    3  502    0 -0.25001236498E+02 -0.58641294546E+03 -0.15804608382E+03  0.60785176569E+03  0.25500000920E-02 0.  1.
       -2    1    3    3    0  502  0.25001236498E+02  0.58641294546E+03 -0.28642931064E+03  0.65310562272E+03  0.25500000920E-02 0. -1.
</event>
<event>
 5   0  0.2134992E-03  0.1204710E+04  0.7818609E-02  0.9108744E-01
       -1   -1    0    0    0  501  0.00000000000E+00  0.00000000000E+00  0.26250719252E+03  0.26250719257E+03  0.50400001928E-02 0.  1.
        1   -1    0    0  501    0  0.00000000000E+00  0.00000000000E+00 -0.13821765108E+04  0.13821765108E+04  0.50400001928E-02 0. -1.
    10030    2    1    2    0    0  0.00000000000E+00  0.00000000000E+00 -0.11196693183E+04  0.16446837034E+04  0.12047095508E+04 0.  0.
        4    1    3    3  502    0  0.49731456323E+03 -0.30770294944E+03 -0.75685502826E+03  0.95646956386E+03  0.12699999809E+01 0. -1.
       -4    1    3    3    0  502 -0.49731456323E+03  0.30770294944E+03 -0.36281429003E+03  0.68821413952E+03  0.12699999809E+01 0.  1.
</event>
<event>
 5   0  0.3626049E-03  0.1197723E+04  0.7818609E-02  0.9114852E-01
        2   -1    0    0  501    0  0.00000000000E+00  0.00000000000E+00  0.14550080999E+04  0.14550080999E+04  0.25500000920E-02 0. -1.
       -2   -1    0    0    0  501  0.00000000000E+00  0.00000000000E+00 -0.24648342606E+03  0.24648342608E+03  0.25500000920E-02 0.  1.
    10030    2    1    2    0    0  0.00000000000E+00  0.00000000000E+00  0.12085246738E+04  0.17014915260E+04  0.11977234763E+04 0.  0.
        1    1    3    3  502    0  0.46008887596E+03  0.31353573472E+03  0.29092657357E+03  0.62819161246E+03  0.50400001928E-02 0.  1.
       -1    1    3    3    0  502 -0.46008887596E+03 -0.31353573472E+03  0.91759810024E+03  0.10732999135E+04  0.50400001928E-02 0. -1.
</event>
<event>
 5   0  0.3725376E-03  0.1193874E+04  0.7818609E-02  0.9118235E-01
       -2   -1    0    0    0  501  0.00000000000E+00  0.00000000000E+00  0.48234002512E+03  0.48234002513E+03  0.25500000920E-02 0.  1.
        2   -1    0    0  501    0  0.00000000000E+00  0.00000000000E+00 -0.73876074800E+03  0.73876074800E+03  0.25500000920E-02 0. -1.
    10030    2    1    2    0    0  0.00000000000E+00  0.00000000000E+00 -0.25642072287E+03  0.12211007731E+04  0.11938741605E+04 0.  0.
        4    1    3    3  502    0 -0.35871372512E+03 -0.17254058280E+03  0.32677875719E+03  0.51500656147E+03  0.12699999809E+01 0.  1.
       -4    1    3    3    0  502  0.35871372512E+03  0.17254058280E+03 -0.58319948007E+03  0.70609421167E+03  0.12699999809E+01 0. -1.
</event>
<event>
 5   0  0.2078258E-03  0.1203844E+04  0.7818609E-02  0.9109498E-01
       -1   -1    0    0    0  501  0.00000000000E+00  0.00000000000E+00  0.49300487880E+03  0.49300487882E+03  0.50400001928E-02 0. -1.
        1   -1    0    0  501    0  0.00000000000E+00  0.00000000000E+00 -0.73490209852E+03  0.73490209854E+03  0.50400001928E-02 0.  1.
    10030    2    1    2    0    0  0.00000000000E+00  0.00000000000E+00 -0.24189721972E+03  0.12279069774E+04  0.12038443754E+04 0.  0.
        3    1    3    3  502    0 -0.40269995321E+03  0.29121033975E+02  0.33439929817E+03  0.52425011946E+03  0.10100000352E+00 0. -1.
       -3    1    3    3    0  502  0.40269995321E+03 -0.29121033975E+02 -0.57629651789E+03  0.70365685790E+03  0.10100000352E+00 0.  1.
</event>
<event>
 5   0  0.3650180E-03  0.1081744E+04  0.7818609E-02  0.9223171E-01
       -2   -1    0    0    0  501  0.00000000000E+00  0.00000000000E+00  0.10876080718E+04  0.10876080718E+04  0.25500000920E-02 0. -1.
        2   -1    0    0  501    0  0.00000000000E+00  0.00000000000E+00 -0.26897764354E+03  0.26897764355E+03  0.25500000920E-02 0.  1.
    10030    2    1    2    0    0  0.00000000000E+00  0.00000000000E+00  0.81863042821E+03  0.13565857153E+04  0.10817435116E+04 0.  0.
        3    1    3    3  502    0  0.40433277839E+03  0.35856457327E+03  0.38159204663E+03  0.66156333721E+03  0.10100000352E+00 0.  1.
       -3    1    3    3    0  502 -0.40433277839E+03 -0.35856457327E+03  0.43703838158E+03  0.69502237810E+03  0.10100000352E+00 0. -1.
</event>
<event>
 5   0  0.2078258E-03  0.1194348E+04  0.7818609E-02  0.9117818E-01
        1   -1    0    0  501    0  0.00000000000E+00  0.00000000000E+00  0.96821650272E+03  0.96821650273E+03  0.50400001928E-02 0. -1.
       -1   -1    0    0    0  501  0.00000000000E+00  0.00000000000E+00 -0.36832320276E+03  0.36832320280E+03  0.50400001928E-02 0.  1.
    10030    2    1    2    0    0  0.00000000000E+00  0.00000000000E+00  0.59989329995E+03  0.13365397055E+04  0.11943476936E+04 0.  0.
        3    1    3    3  502    0 -0.37229940698E+03 -0.14738637861E+03  0.79573561780E+03  0.89080007671E+03  0.10100000352E+00 0. -1.
       -3    1    3    3    0  502  0.37229940698E+03  0.14738637861E+03 -0.19584231785E+03  0.44573962882E+03  0.10100000352E+00 0.  1.
</event>
<event>
 5   0  0.2096270E-03  0.1215549E+04  0.7818609E-02  0.9099354E-01
       -1   -1    0    0    0  501  0.00000000000E+00  0.00000000000E+00  0.36273110343E+03  0.36273110346E+03  0.50400001928E-02 0. -1.
        1   -1    0    0  501    0  0.00000000000E+00  0.00000000000E+00 -0.10183576757E+04  0.10183576757E+04  0.50400001928E-02 0.  1.
    10030    2    1    2    0    0  0.00000000000E+00  0.00000000000E+00 -0.65562657229E+03  0.13810887792E+04  0.12155492642E+04 0.  0.
        2    1    3    3  502    0  0.35044355487E+03  0.27091558779E+03  0.14501450357E+03  0.46608491406E+03  0.25500000920E-02 0.  1.
       -2    1    3    3    0  502 -0.35044355487E+03 -0.27091558779E+03 -0.80064107586E+03  0.91500386514E+03  0.25500000920E-02 0. -1.
</event>
<event>
 5   0  0.3706035E-03  0.1198462E+04  0.7818609E-02  0.9114203E-01
       -2   -1    0    0    0  501  0.00000000000E+00  0.00000000000E+00  0.32794082023E+03  0.32794082024E+03  0.25500000920E-02 0. -1.
        2   -1    0    0  501    0  0.00000000000E+00  0.00000000000E+00 -0.10949477066E+04  0.10949477066E+04  0.25500000920E-02 0.  1.
    10030    2    1    2    0    0  0.00000000000E+00  0.00000000000E+00 -0.76700688639E+03  0.14228885269E+04  0.11984624300E+04 0.  0.
        2    1    3    3  502    0  0.86449518391E+02  0.26823296780E+03 -0.10113567954E+04  0.10498880949E+04  0.25500000920E-02 0.  1.
       -2    1    3    3    0  502 -0.86449518391E+02 -0.26823296780E+03  0.24434990896E+03  0.37300043199E+03  0.25500000920E-02 0. -1.
</event>
<event>
 5   0  0.2025294E-03  0.1194815E+04  0.7818609E-02  0.9117407E-01
       -1   -1    0    0    0  501  0.00000000000E+00  0.00000000000E+00  0.29774730281E+03  0.29774730285E+03  0.50400001928E-02 0. -1.
        1   -1    0    0  501    0  0.00000000000E+00  0.00000000000E+00 -0.11986533694E+04  0.11986533694E+04  0.50400001928E-02 0.  1.
    10030    2    1    2    0    0  0.00000000000E+00  0.00000000000E+00 -0.90090606656E+03  0.14964006722E+04  0.11948151452E+04 0.  0.
        5    1    3    3  502    0 -0.30585348003E+03  0.45479283103E+03 -0.15278224311E+03  0.56898802642E+03  0.46999998093E+01 0. -1.
       -5    1    3    3    0  502  0.30585348003E+03 -0.45479283103E+03 -0.74812382344E+03  0.92741264581E+03  0.46999998093E+01 0.  1.
</event>
<event>
 5   0  0.2047109E-03  0.1188551E+04  0.7818609E-02  0.9122938E-01
       -1   -1    0    0    0  501  0.00000000000E+00  0.00000000000E+00  0.43423246213E+03  0.43423246215E+03  0.50400001928E-02 0.  1.
        1   -1    0    0  501    0  0.00000000000E+00  0.00000000000E+00 -0.81330440014E+03  0.81330440016E+03  0.50400001928E-02 0. -1.
    10030    2    1    2    0    0  0.00000000000E+00  0.00000000000E+00 -0.37907193802E+03  0.12475368623E+04  0.11885506673E+04 0.  0.
        1    1    3    3  502    0 -0.49230257323E+03  0.28723701540E+03 -0.12972808425E+02  0.57011860205E+03  0.50400001928E-02 0.  1.
       -1    1    3    3    0  502  0.49230257323E+03 -0.28723701540E+03 -0.36609912959E+03  0.67741826026E+03  0.50400001928E-02 0. -1.
</event>
<event>
 5   0  0.3725376E-03  0.1216740E+04  0.7818609E-02  0.9098329E-01
       -2   -1    0    0    0  501  0.00000000000E+00  0.00000000000E+00  0.17750006801E+03  0.17750006803E+03  0.25500000920E-02 0. -1.
        2   -1    0    0  501    0  0.00000000000E+00  0.00000000000E+00 -0.20851486517E+04  0.20851486517E+04  0.25500000920E-02 0.  1.
    10030    2    1    2    0    0  0.00000000000E+00  0.00000000000E+00 -0.19076485837E+04  0.22626487198E+04  0.12167399517E+04 0.  0.
        4    1    3    3  502    0 -0.88762660354E+02 -0.65964349031E+02 -0.20662972972E+04  0.20692549960E+04  0.12699999809E+01 0.  1.
       -4    1    3    3    0  502  0.88762660354E+02  0.65964349031E+02  0.15864871345E+03  0.19339372378E+03  0.12699999809E+01 0. -1.
</event>
<event>
 5   0  0.2047109E-03  0.1200862E+04  0.7818609E-02  0.9112102E-01
       -1   -1    0    0    0  501  0.00000000000E+00  0.00000000000E+00  0.34451396828E+03  0.34451396832E+03  0.50400001928E-02 0. -1.
        1   -1    0    0  501    0  0.00000000000E+00  0.00000000000E+00 -0.10464524186E+04  0.10464524186E+04  0.50400001928E-02 0.  1.
    10030    2    1    2    0    0  0.00000000000E+00  0.00000000000E+00 -0.70193845035E+03  0.13909663870E+04  0.12008621493E+04 0.  0.
        1    1    3    3  502    0 -0.34199285918E+03  0.43927915790E+03 -0.61150368895E+03  0.82695952496E+03  0.50400001928E-02 0. -1.
       -1    1    3    3    0  502  0.34199285918E+03 -0.43927915790E+03 -0.90434761402E+02  0.56400686201E+03  0.50400001928E-02 0.  1.
</event>
<event>
 5   0  0.3725376E-03  0.1206315E+04  0.7818609E-02  0.9107347E-01
       -2   -1    0    0    0  501  0.00000000000E+00  0.00000000000E+00  0.29885373577E+03  0.29885373578E+03  0.25500000920E-02 0. -1.
        2   -1    0    0  501    0  0.00000000000E+00  0.00000000000E+00 -0.12173141150E+04  0.12173141150E+04  0.25500000920E-02 0.  1.
    10030    2    1    2    0    0  0.00000000000E+00  0.00000000000E+00 -0.91846037920E+03  0.15161678508E+04  0.12063148360E+04 0.  0.
        4    1    3    3  502    0 -0.46204934385E+03  0.37053297554E+03 -0.60260568335E+03  0.84493757439E+03  0.12699999809E+01 0.  1.
       -4    1    3    3    0  502  0.46204934385E+03 -0.37053297554E+03 -0.31585469585E+03  0.67123027636E+03  0.12699999809E+01 0. -1.
</event>
<event>
 5   0  0.3751091E-03  0.1163126E+04  0.7818609E-02  0.9145759E-01
        2   -1    0    0  501    0  0.00000000000E+00  0.00000000000E+00  0.23459126030E+04  0.23459126030E+04  0.25500000920E-02 0. -1.
       -2   -1    0    0    0  501  0.00000000000E+00  0.00000000000E+00 -0.14417215853E+03  0.14417215855E+03  0.25500000920E-02 0.  1.
    10030    2    1    2    0    0  0.00000000000E+00  0.00000000000E+00  0.22017404445E+04  0.24900847616E+04  0.11631255886E+04 0.  0.
        5    1    3    3  502    0 -0.20011689823E+03 -0.55985384011E+02  0.22636765959E+04  0.22731992779E+04  0.46999998093E+01 0. -1.
       -5    1    3    3    0  502  0.20011689823E+03  0.55985384011E+02 -0.61936151416E+02  0.21688548368E+03  0.46999998093E+01 0.  1.
</event>
<event>
 5   0  0.2134992E-03  0.1273979E+04  0.7818609E-02  0.9050458E-01
       -1   -1    0    0    0  501  0.00000000000E+00  0.00000000000E+00  0.25021971738E+03  0.25021971743E+03  0.50400001928E-02 0. -1.
        1   -1    0    0  501    0  0.00000000000E+00  0.00000000000E+00 -0.16215981032E+04  0.16215981032E+04  0.50400001928E-02 0.  1.
    10030    2    1    2    0    0  0.00000000000E+00  0.00000000000E+00 -0.13713783858E+04  0.18718178206E+04  0.12739793077E+04 0.  0.
        4    1    3    3  502    0  0.17342268673E+03  0.88422795315E+02  0.20544395225E+03  0.28302446788E+03  0.12699999809E+01 0. -1.
       -4    1    3    3    0  502 -0.17342268673E+03 -0.88422795315E+02 -0.15768223380E+04  0.15887933527E+04  0.12699999809E+01 0.  1.
</event>
<event>
 5   0  0.3751091E-03  0.1271554E+04  0.7818609E-02  0.9052432E-01
       -2   -1    0    0    0  501  0.00000000000E+00  0.00000000000E+00  0.48311801366E+03  0.48311801366E+03  0.25500000920E-02 0.  1.
        2   -1    0    0  501    0  0.00000000000E+00  0.00000000000E+00 -0.83667477769E+03  0.83667477770E+03  0.25500000920E-02 0. -1.
    10030    2    1    2    0    0  0.00000000000E+00  0.00000000000E+00 -0.35355676404E+03  0.13197927914E+04  0.12715544136E+04 0.  0.
        5    1    3    3  502    0 -0.94338564842E+02 -0.18829154243E+03  0.44584262485E+03  0.49310364620E+03  0.46999998093E+01 0.  1.
       -5    1    3    3    0  502  0.94338564842E+02  0.18829154243E+03 -0.79939938889E+03  0.82668914516E+03  0.46999998093E+01 0. -1.
</event>
<event>
 5   0  0.2096270E-03  0.1262773E+04  0.7818609E-02  0.9059619E-01
        1   -1    0    0  501    0  0.00000000000E+00  0.00000000000E+00  0.17693223655E+04  0.17693223655E+04  0.50400001928E-02 0. -1.
       -1   -1    0    0    0  501  0.00000000000E+00  0.00000000000E+00 -0.22531164292E+03  0.22531164297E+03  0.50400001928E-02 0.  1.
    10030    2    1    2    0    0  0.00000000000E+00  0.00000000000E+00  0.15440107226E+04  0.19946340085E+04  0.12627730265E+04 0.  0.
        2    1    3    3  502    0 -0.14731697392E+03  0.17805596926E+02  0.17413877979E+04  0.17476987134E+04  0.25500000920E-02 0. -1.
       -2    1    3    3    0  502  0.14731697392E+03 -0.17805596926E+02 -0.19737707533E+03  0.24693529508E+03  0.25500000920E-02 0.  1.
</event>
<event>
 5   0  0.3706035E-03  0.1223601E+04  0.7818609E-02  0.9092446E-01
       -2   -1    0    0    0  501  0.00000000000E+00  0.00000000000E+00  0.28907907907E+03  0.28907907908E+03  0.25500000920E-02 0.  1.
        2   -1    0    0  501    0  0.00000000000E+00  0.00000000000E+00 -0.12948002104E+04  0.12948002104E+04  0.25500000920E-02 0. -1.
    10030    2    1    2    0    0  0.00000000000E+00  0.00000000000E+00 -0.10057211313E+04  0.15838792895E+04  0.12236006741E+04 0.  0.
        2    1    3    3  502    0 -0.23667168708E+03 -0.53819932673E+03 -0.28384488017E+03  0.65287052220E+03  0.25500000920E-02 0.  1.
       -2    1    3    3    0  502  0.23667168708E+03  0.53819932673E+03 -0.72187625113E+03  0.93100876726E+03  0.25500000920E-02 0. -1.
</event>
<event>
 5   0  0.2025294E-03  0.1201438E+04  0.7818609E-02  0.9111599E-01
       -1   -1    0    0    0  501  0.00000000000E+00  0.00000000000E+00  0.38276246514E+03  0.38276246517E+03  0.50400001928E-02 0. -1.
        1   -1    0    0  501    0  0.00000000000E+00  0.00000000000E+00 -0.94278634360E+03  0.94278634361E+03  0.50400001928E-02 0.  1.
    10030    2    1    2    0    0  0.00000000000E+00  0.00000000000E+00 -0.56002387846E+03  0.13255488088E+04  0.12014378469E+04 0.  0.
        5    1    3    3  502    0  0.14941260494E+03 -0.84885829591E+02 -0.91506879351E+03  0.93107610722E+03  0.46999998093E+01 0.  1.
       -5    1    3    3    0  502 -0.14941260494E+03  0.84885829591E+02  0.35504491505E+03  0.39447270156E+03  0.46999998093E+01 0. -1.
</event>
</LesHouchesEvents>
