<LesHouchesEvents version="3.0">
<header>
<!--
#*********************************************************************
#                                                                    *
#                        MadGraph5_aMC@NLO                           *
#                                                                    *
#                           Going Beyond                             *
#                                                                    *
#                   http://madgraph.hep.uiuc.edu                     *
#                   http://madgraph.phys.ucl.ac.be                   *
#                   http://amcatnlo.cern.ch                          *
#                                                                    *
#                     The MadGraph5_aMC@NLO team                     *
#                                                                    *
#....................................................................*
#                                                                    *
# This file contains all the information necessary to reproduce      *
# the events generated:                                              *
#                                                                    *
# 1. software version                                                *
# 2. proc_card          : code generation info including model       *
# 3. param_card         : model primary parameters in the LH format  *
# 4. run_card           : running parameters (collider and cuts)     *
# 5. pythia_card        : present only if pythia has been run        *
# 6. pgs_card           : present only if pgs has been run           *
# 7. delphes_cards      : present only if delphes has been run       *
#                                                                    *
#                                                                    *
#*********************************************************************
-->
<MGVersion>
#5.2.2.3
</MGVersion>
<MG5ProcCard>
#************************************************************
#*                     MadGraph5_aMC@NLO                    *
#*                                                          *
#*                *                       *                 *
#*                  *        * *        *                   *
#*                    * * * * 5 * * * *                     *
#*                  *        * *        *                   *
#*                *                       *                 *
#*                                                          *
#*                                                          *
#*         VERSION 2.2.3                 2015-02-10         *
#*                                                          *
#*    The MadGraph5_aMC@NLO Development Team - Find us at   *
#*    https://server06.fynu.ucl.ac.be/projects/madgraph     *
#*                                                          *
#************************************************************
#*                                                          *
#*               Command File for MadGraph5_aMC@NLO         *
#*                                                          *
#*     run as ./bin/mg5_aMC  filename                       *
#*                                                          *
#************************************************************
set group_subprocesses Auto
set ignore_six_quark_processes False
set loop_optimized_output True
set gauge unitary
set complex_mass_scheme False
import model sm
define p = g u c d s u~ c~ d~ s~
define j = g u c d s u~ c~ d~ s~
define l+ = e+ mu+
define l- = e- mu-
define vl = ve vm vt
define vl~ = ve~ vm~ vt~
import model Zprime_UFO
generate p p > zph, zph > j j
add process p p > zph, zph > b b~
output Dijet_signal
</MG5ProcCard>
<MGProcCard>
#*********************************************************************
#                        MadGraph/MadEvent                           *
#                   http://madgraph.hep.uiuc.edu                     *
#                                                                    *
#                          proc_card.dat                             *
#*********************************************************************
#                                                                    *
#            This Files is generated by MADGRAPH 5                   *
#                                                                    *
# WARNING: This Files is generated for MADEVENT (compatibility issue)*
#          This files is NOT a valid MG4 proc_card.dat               *
#          Running this in MG4 will NEVER reproduce the result of MG5*
#                                                                    *
#*********************************************************************
#*********************************************************************
# Process(es) requested : mg2 input                                  *
#*********************************************************************
# Begin PROCESS # This is TAG. Do not modify this line
p p > zph , zph > j j           #Process
# Be carefull the coupling are here in MG5 convention
          
end_coup           # End the couplings input

done               # this tells MG there are no more procs
# End PROCESS  # This is TAG. Do not modify this line
#*********************************************************************
# Model information                                                  *
#*********************************************************************
# Begin MODEL  # This is TAG. Do not modify this line
Zprime_UFO
# End   MODEL  # This is TAG. Do not modify this line
#*********************************************************************
# Start multiparticle definitions                                    *
#*********************************************************************
# Begin MULTIPARTICLES # This is TAG. Do not modify this line

# End  MULTIPARTICLES # This is TAG. Do not modify this line
</MGProcCard>
<MGRunCard>
#*********************************************************************
#                       MadGraph5_aMC@NLO                            *
#                                                                    *
#                     run_card.dat MadEvent                          *
#                                                                    *
#  This file is used to set the parameters of the run.               *
#                                                                    *
#  Some notation/conventions:                                        *
#                                                                    *
#   Lines starting with a '# ' are info or comments                  *
#                                                                    *
#   mind the format:   value    = variable     ! comment             *
#*********************************************************************
#
#*******************                                                 
# Running parameters
#*******************                                                 
#                                                                    
#*********************************************************************
# Tag name for the run (one word)                                    *
#*********************************************************************
  tag_1     = run_tag ! name of the run 
#*********************************************************************
# Run to generate the grid pack                                      *
#*********************************************************************
  .false.     = gridpack  !True = setting up the grid pack
#*********************************************************************
# Number of events and rnd seed                                      *
# Warning: Do not generate more than 1M events in a single run       *
# If you want to run Pythia, avoid more than 50k events in a run.    *
#*********************************************************************
  2000 = nevents ! Number of unweighted events requested 
 1641 = iseed   ! rnd seed (0=assigned automatically=default))
#*********************************************************************
# Collider type and energy                                           *
# lpp: 0=No PDF, 1=proton, -1=antiproton, 2=photon from proton,      *
#                                         3=photon from electron     *
#*********************************************************************
        1     = lpp1    ! beam 1 type 
        1     = lpp2    ! beam 2 type
     4000     = ebeam1  ! beam 1 total energy in GeV
     4000     = ebeam2  ! beam 2 total energy in GeV
#*********************************************************************
# Beam polarization from -100 (left-handed) to 100 (right-handed)    *
#*********************************************************************
        0     = polbeam1 ! beam polarization for beam 1
        0     = polbeam2 ! beam polarization for beam 2
#*********************************************************************
# PDF CHOICE: this automatically fixes also alpha_s and its evol.    *
#*********************************************************************
 'nn23lo1'    = pdlabel     ! PDF set                                     
 230000    = lhaid     ! if pdlabel=lhapdf, this is the lhapdf number
#*********************************************************************
# Renormalization and factorization scales                           *
#*********************************************************************
 F        = fixed_ren_scale  ! if .true. use fixed ren scale
 F        = fixed_fac_scale  ! if .true. use fixed fac scale
 91.1880  = scale            ! fixed ren scale
 91.1880  = dsqrt_q2fact1    ! fixed fact scale for pdf1
 91.1880  = dsqrt_q2fact2    ! fixed fact scale for pdf2
 1        = scalefact        ! scale factor for event-by-event scales
#*********************************************************************
# Matching - Warning! ickkw > 1 is still beta
#*********************************************************************
 0        = ickkw            ! 0 no matching, 1 MLM, 2 CKKW matching
 1        = highestmult      ! for ickkw=2, highest mult group
 1        = ktscheme         ! for ickkw=1, 1 Durham kT, 2 Pythia pTE
 1        = alpsfact         ! scale factor for QCD emission vx
 F        = chcluster        ! cluster only according to channel diag
 T        = pdfwgt           ! for ickkw=1, perform pdf reweighting
 5        = asrwgtflavor     ! highest quark flavor for a_s reweight
 T        = clusinfo         ! include clustering tag in output
 3.0      = lhe_version       ! Change the way clustering information pass to shower.        
#*********************************************************************
#**********************************************************
#
#**********************************************************
# Automatic ptj and mjj cuts if xqcut > 0
# (turn off for VBF and single top processes)
#**********************************************************
   T  = auto_ptj_mjj  ! Automatic setting of ptj and mjj
#**********************************************************
#                                                                    
#**********************************
# BW cutoff (M+/-bwcutoff*Gamma)
#**********************************
  15  = bwcutoff      ! (M+/-bwcutoff*Gamma)
#**********************************************************
# Apply pt/E/eta/dr/mij cuts on decay products or not
# (note that etmiss/ptll/ptheavy/ht/sorted cuts always apply)
#**********************************************************
   T  = cut_decays    ! Cut decay products 
#*************************************************************
# Number of helicities to sum per event (0 = all helicities)
# 0 gives more stable result, but longer run time (needed for
# long decay chains e.g.).
# Use >=2 if most helicities contribute, e.g. pure QCD.
#*************************************************************
   0  = nhel          ! Number of helicities used per event
#*******************                                                 
# Standard Cuts
#*******************                                                 
#                                                                    
#*********************************************************************
# Minimum and maximum pt's (for max, -1 means no cut)                *
#*********************************************************************
 20  = ptj       ! minimum pt for the jets 
  0  = ptb       ! minimum pt for the b 
 10  = pta       ! minimum pt for the photons 
 10  = ptl       ! minimum pt for the charged leptons 
  0  = misset    ! minimum missing Et (sum of neutrino's momenta)
  0  = ptheavy   ! minimum pt for one heavy final state
 1.0 = ptonium   ! minimum pt for the quarkonium states
 -1  = ptjmax    ! maximum pt for the jets
 -1  = ptbmax    ! maximum pt for the b
 -1  = ptamax    ! maximum pt for the photons
 -1  = ptlmax    ! maximum pt for the charged leptons
 -1  = missetmax ! maximum missing Et (sum of neutrino's momenta)
#*********************************************************************
# Minimum and maximum E's (in the center of mass frame)              *
#*********************************************************************
  0  = ej     ! minimum E for the jets 
  0  = eb     ! minimum E for the b 
  0  = ea     ! minimum E for the photons 
  0  = el     ! minimum E for the charged leptons 
 -1   = ejmax ! maximum E for the jets
 -1   = ebmax ! maximum E for the b
 -1   = eamax ! maximum E for the photons
 -1   = elmax ! maximum E for the charged leptons
#*********************************************************************
# Maximum and minimum absolute rapidity (for max, -1 means no cut)   *
#*********************************************************************
   5  = etaj    ! max rap for the jets 
  -1  = etab    ! max rap for the b
 2.5  = etaa    ! max rap for the photons 
 2.5  = etal    ! max rap for the charged leptons 
 0.6  = etaonium ! max rap for the quarkonium states
   0  = etajmin ! min rap for the jets
   0  = etabmin ! min rap for the b
   0  = etaamin ! min rap for the photons
   0  = etalmin ! main rap for the charged leptons
#*********************************************************************
# Minimum and maximum DeltaR distance                                *
#*********************************************************************
 0.4 = drjj    ! min distance between jets 
 0   = drbb    ! min distance between b's 
 0.4 = drll    ! min distance between leptons 
 0.4 = draa    ! min distance between gammas 
 0   = drbj    ! min distance between b and jet 
 0.4 = draj    ! min distance between gamma and jet 
 0.4 = drjl    ! min distance between jet and lepton 
 0   = drab    ! min distance between gamma and b 
 0   = drbl    ! min distance between b and lepton 
 0.4 = dral    ! min distance between gamma and lepton 
 -1  = drjjmax ! max distance between jets
 -1  = drbbmax ! max distance between b's
 -1  = drllmax ! max distance between leptons
 -1  = draamax ! max distance between gammas
 -1  = drbjmax ! max distance between b and jet
 -1  = drajmax ! max distance between gamma and jet
 -1  = drjlmax ! max distance between jet and lepton
 -1  = drabmax ! max distance between gamma and b
 -1  = drblmax ! max distance between b and lepton
 -1  = dralmax ! maxdistance between gamma and lepton
#*********************************************************************
# Minimum and maximum invariant mass for pairs                       *
# WARNING: for four lepton final state mmll cut require to have      *
#          different lepton masses for each flavor!                  *           
#*********************************************************************
 0   = mmjj    ! min invariant mass of a jet pair 
 0   = mmbb    ! min invariant mass of a b pair 
 0   = mmaa    ! min invariant mass of gamma gamma pair
 0   = mmll    ! min invariant mass of l+l- (same flavour) lepton pair
 -1  = mmjjmax ! max invariant mass of a jet pair
 -1  = mmbbmax ! max invariant mass of a b pair
 -1  = mmaamax ! max invariant mass of gamma gamma pair
 -1  = mmllmax ! max invariant mass of l+l- (same flavour) lepton pair
#*********************************************************************
# Minimum and maximum invariant mass for all letpons                 *
#*********************************************************************
 0   = mmnl    ! min invariant mass for all letpons (l+- and vl) 
 -1  = mmnlmax ! max invariant mass for all letpons (l+- and vl) 
#*********************************************************************
# Minimum and maximum pt for 4-momenta sum of leptons                *
#*********************************************************************
 0   = ptllmin  ! Minimum pt for 4-momenta sum of leptons(l and vl)
 -1  = ptllmax  ! Maximum pt for 4-momenta sum of leptons(l and vl)
#*********************************************************************
# Inclusive cuts                                                     *
#*********************************************************************
 0  = xptj ! minimum pt for at least one jet  
 0  = xptb ! minimum pt for at least one b 
 0  = xpta ! minimum pt for at least one photon 
 0  = xptl ! minimum pt for at least one charged lepton 
#*********************************************************************
# Control the pt's of the jets sorted by pt                          *
#*********************************************************************
 0   = ptj1min ! minimum pt for the leading jet in pt
 0   = ptj2min ! minimum pt for the second jet in pt
 0   = ptj3min ! minimum pt for the third jet in pt
 0   = ptj4min ! minimum pt for the fourth jet in pt
 -1  = ptj1max ! maximum pt for the leading jet in pt 
 -1  = ptj2max ! maximum pt for the second jet in pt
 -1  = ptj3max ! maximum pt for the third jet in pt
 -1  = ptj4max ! maximum pt for the fourth jet in pt
 0   = cutuse  ! reject event if fails any (0) / all (1) jet pt cuts
#*********************************************************************
# Control the pt's of leptons sorted by pt                           *
#*********************************************************************
 0   = ptl1min ! minimum pt for the leading lepton in pt
 0   = ptl2min ! minimum pt for the second lepton in pt
 0   = ptl3min ! minimum pt for the third lepton in pt
 0   = ptl4min ! minimum pt for the fourth lepton in pt
 -1  = ptl1max ! maximum pt for the leading lepton in pt 
 -1  = ptl2max ! maximum pt for the second lepton in pt
 -1  = ptl3max ! maximum pt for the third lepton in pt
 -1  = ptl4max ! maximum pt for the fourth lepton in pt
#*********************************************************************
# Control the Ht(k)=Sum of k leading jets                            *
#*********************************************************************
 0   = htjmin ! minimum jet HT=Sum(jet pt)
 -1  = htjmax ! maximum jet HT=Sum(jet pt)
 0   = ihtmin  !inclusive Ht for all partons (including b)
 -1  = ihtmax  !inclusive Ht for all partons (including b)
 0   = ht2min ! minimum Ht for the two leading jets
 0   = ht3min ! minimum Ht for the three leading jets
 0   = ht4min ! minimum Ht for the four leading jets
 -1  = ht2max ! maximum Ht for the two leading jets
 -1  = ht3max ! maximum Ht for the three leading jets
 -1  = ht4max ! maximum Ht for the four leading jets
#***********************************************************************
# Photon-isolation cuts, according to hep-ph/9801442                   *
# When ptgmin=0, all the other parameters are ignored                  *
# When ptgmin>0, pta and draj are not going to be used                 *
#***********************************************************************
   0 = ptgmin ! Min photon transverse momentum
 0.4 = R0gamma ! Radius of isolation code
 1.0 = xn ! n parameter of eq.(3.4) in hep-ph/9801442
 1.0 = epsgamma ! epsilon_gamma parameter of eq.(3.4) in hep-ph/9801442
 .true. = isoEM ! isolate photons from EM energy (photons and leptons)
#*********************************************************************
# WBF cuts                                                           *
#*********************************************************************
 0   = xetamin ! minimum rapidity for two jets in the WBF case  
 0   = deltaeta ! minimum rapidity for two jets in the WBF case 
#*********************************************************************
# KT DURHAM CUT                                                      *
#*********************************************************************
 -1    =  ktdurham        
 0.4  =  dparameter 
#*********************************************************************
# maximal pdg code for quark to be considered as a light jet         *
# (otherwise b cuts are applied)                                     *
#*********************************************************************
 4 = maxjetflavor    ! Maximum jet pdg code
#*********************************************************************
# Jet measure cuts                                                   *
#*********************************************************************
 0   = xqcut   ! minimum kt jet measure between partons
#*********************************************************************
#
#*********************************************************************
# Store info for systematics studies                                 *
# WARNING: If use_syst is T, matched Pythia output is                *
#          meaningful ONLY if plotted taking matchscale              *
#          reweighting into account!                                 *
#*********************************************************************
   F  = use_syst      ! Enable systematics studies
#
#**************************************
# Parameter of the systematics study
#  will be used by SysCalc (if installed)
#**************************************                                  
#
0.5 1 2 = sys_scalefact  # factorization/renormalization scale factor
0.5 1 2 = sys_alpsfact  # \alpha_s emission scale factors
30 50 = sys_matchscale # variation of merging scale
# PDF sets and number of members (0 or none for all members).
CT10nlo.LHgrid = sys_pdf # matching scales
# MSTW2008nlo68cl.LHgrid 1  = sys_pdf
</MGRunCard>
<slha>
######################################################################
## PARAM_CARD AUTOMATICALY GENERATED BY MG5 FOLLOWING UFO MODEL   ####
######################################################################
##                                                                  ##
##  Width set on Auto will be computed following the information    ##
##        present in the decay.py files of the model.               ##
##        See  arXiv:1402.1178 for more details.                    ##
##                                                                  ##
######################################################################

###################################
## INFORMATION FOR CKMBLOCK
###################################
Block ckmblock 
    1 2.277360e-01 # cabi 

###################################
## INFORMATION FOR FRBLOCK
###################################
Block frblock 
    1 8.000000e-01 # gz 

###################################
## INFORMATION FOR MASS
###################################
Block mass 
    1 5.040000e-03 # MD 
    2 2.550000e-03 # MU 
    3 1.010000e-01 # MS 
    4 1.270000e+00 # MC 
    5 4.700000e+00 # MB 
    6 1.720000e+02 # MT 
   11 5.110000e-04 # Me 
   13 1.056600e-01 # MM 
   15 1.777000e+00 # MTA 
   23 9.118760e+01 # MZ 
   25 1.200000e+02 # MH 
  10030 2.400000e+03 # MZph 
  10031 3.000000e+02 # MZpl 
## Dependent parameters, given by model restrictions.
## Those values should be edited following the 
## analytical expression. MG5 ignores those values 
## but they are important for interfacing the output of MG5
## to external program such as Pythia.
  12 0.000000 # ve : 0.0 
  14 0.000000 # vm : 0.0 
  16 0.000000 # vt : 0.0 
  21 0.000000 # g : 0.0 
  22 0.000000 # a : 0.0 
  24 79.824360 # w+ : cmath.sqrt(MZ__exp__2/2. + cmath.sqrt(MZ__exp__4/4. - (aEW*cmath.pi*MZ__exp__2)/(Gf*sqrt__2))) 

###################################
## INFORMATION FOR SMINPUTS
###################################
Block sminputs 
    1 1.279000e+02 # aEWM1 
    2 1.166370e-05 # Gf 
    3 1.184000e-01 # aS 

###################################
## INFORMATION FOR YUKAWA
###################################
Block yukawa 
    1 5.040000e-03 # ymdo 
    2 2.550000e-03 # ymup 
    3 1.010000e-01 # yms 
    4 1.270000e+00 # ymc 
    5 4.700000e+00 # ymb 
    6 1.720000e+02 # ymt 
   11 5.110000e-04 # yme 
   13 1.056600e-01 # ymm 
   15 1.777000e+00 # ymtau 

###################################
## INFORMATION FOR DECAY
###################################
DECAY   6 1.508336e+00 # WT 
DECAY  23 2.495200e+00 # WZ 
DECAY  24 2.085000e+00 # WW 
DECAY  25 5.753088e-03 # WH 
## Dependent parameters, given by model restrictions.
## Those values should be edited following the 
## analytical expression. MG5 ignores those values 
## but they are important for interfacing the output of MG5
## to external program such as Pythia.
DECAY  1 0.000000 # d : 0.0 
DECAY  2 0.000000 # u : 0.0 
DECAY  3 0.000000 # s : 0.0 
DECAY  4 0.000000 # c : 0.0 
DECAY  5 0.000000 # b : 0.0 
DECAY  11 0.000000 # e- : 0.0 
DECAY  12 0.000000 # ve : 0.0 
DECAY  13 0.000000 # mu- : 0.0 
DECAY  14 0.000000 # vm : 0.0 
DECAY  15 0.000000 # ta- : 0.0 
DECAY  16 0.000000 # vt : 0.0 
DECAY  21 0.000000 # g : 0.0 
DECAY  22 0.000000 # a : 0.0 
DECAY  10030 0.308725 # zph : (gz__exp__2*MZph*(5 + cmath.sqrt(1 - (4*MT__exp__2)/MZph__exp__2)))/(144.*cmath.pi) 
DECAY  10031 0.132629 # zpl : (5*gz__exp__2*MZpl)/(144.*cmath.pi) 
#===========================================================
# QUANTUM NUMBERS OF NEW STATE(S) (NON SM PDG CODE)
#===========================================================

Block QNUMBERS 10030  # zph 
        1 0  # 3 times electric charge
        2 3  # number of spin states (2S+1)
        3 1  # colour rep (1: singlet, 3: triplet, 8: octet)
        4 0  # Particle/Antiparticle distinction (0=own anti)
Block QNUMBERS 10031  # zpl 
        1 0  # 3 times electric charge
        2 3  # number of spin states (2S+1)
        3 1  # colour rep (1: singlet, 3: triplet, 8: octet)
        4 0  # Particle/Antiparticle distinction (0=own anti)
</slha>
## END BANNER##
<MGGenerationInfo>
#  Number of Events        :         3955
#  Integrated weight (pb)  :  0.57869E-02
#  Max wgt                 :  0.21222E-05
#  Average wgt             :  0.14632E-05
</MGGenerationInfo>
</header>
<init>
     2212     2212  0.40000000000E+04  0.40000000000E+04 0 0  247000  247000 2   1
  0.57897913636E-02  0.12962473329E-04  0.21221940000E-05   0
</init>
<event>
 5   0  0.2080257E-05  0.2377628E+04  0.7818609E-02  0.8447927E-01
        2   -1    0    0  501    0  0.00000000000E+00  0.00000000000E+00  0.12096492569E+04  0.12096492569E+04  0.25500000920E-02 0. -1.
       -2   -1    0    0    0  501  0.00000000000E+00  0.00000000000E+00 -0.11683379061E+04  0.11683379061E+04  0.25500000920E-02 0.  1.
    10030    2    1    2    0    0  0.00000000000E+00  0.00000000000E+00  0.41311350819E+02  0.23779871630E+04  0.23776282972E+04 0.  0.
        1    1    3    3  502    0 -0.34743463520E+03  0.11321277839E+04 -0.83547069708E+02  0.11871833294E+04  0.50400001928E-02 0. -1.
       -1    1    3    3    0  502  0.34743463520E+03 -0.11321277839E+04  0.12485842053E+03  0.11908038335E+04  0.50400001928E-02 0.  1.
</event>
<event>
 5   0  0.2080257E-05  0.2411835E+04  0.7818609E-02  0.8435086E-01
        2   -1    0    0  501    0  0.00000000000E+00  0.00000000000E+00  0.12742362256E+04  0.12742362256E+04  0.25500000920E-02 0.  1.
       -2   -1    0    0    0  501  0.00000000000E+00  0.00000000000E+00 -0.11412613189E+04  0.11412613189E+04  0.25500000920E-02 0. -1.
    10030    2    1    2    0    0  0.00000000000E+00  0.00000000000E+00  0.13297490678E+03  0.24154975445E+04  0.24118345842E+04 0.  0.
        1    1    3    3  502    0 -0.58245738512E+03 -0.54325001133E+03 -0.84034855147E+03  0.11578267868E+04  0.50400001928E-02 0. -1.
       -1    1    3    3    0  502  0.58245738512E+03  0.54325001133E+03  0.97332345825E+03  0.12576707577E+04  0.50400001928E-02 0.  1.
</event>
<event>
 5   0  0.2122194E-05  0.2430898E+04  0.7818609E-02  0.8428026E-01
        2   -1    0    0  501    0  0.00000000000E+00  0.00000000000E+00  0.15794892229E+04  0.15794892229E+04  0.25500000920E-02 0. -1.
       -2   -1    0    0    0  501  0.00000000000E+00  0.00000000000E+00 -0.93531246026E+03  0.93531246027E+03  0.25500000920E-02 0.  1.
    10030    2    1    2    0    0  0.00000000000E+00  0.00000000000E+00  0.64417676259E+03  0.25148016831E+04  0.24308977362E+04 0.  0.
        3    1    3    3  502    0 -0.60477097604E+03  0.35305516836E+03  0.13498160300E+04  0.15206574928E+04  0.10100000352E+00 0. -1.
       -3    1    3    3    0  502  0.60477097604E+03 -0.35305516836E+03 -0.70563926737E+03  0.99414419036E+03  0.10100000352E+00 0.  1.
</event>
<event>
 5   0  0.2080257E-05  0.2403612E+04  0.7818609E-02  0.8438152E-01
       -2   -1    0    0    0  501  0.00000000000E+00  0.00000000000E+00  0.78295775883E+03  0.78295775883E+03  0.25500000920E-02 0. -1.
        2   -1    0    0  501    0  0.00000000000E+00  0.00000000000E+00 -0.18447202778E+04  0.18447202778E+04  0.25500000920E-02 0.  1.
    10030    2    1    2    0    0  0.00000000000E+00  0.00000000000E+00 -0.10617625190E+04  0.26276780367E+04  0.24036123268E+04 0.  0.
        1    1    3    3  502    0  0.39796231523E+03 -0.14557109684E+03  0.69857770952E+03  0.81705309793E+03  0.50400001928E-02 0. -1.
       -1    1    3    3    0  502 -0.39796231523E+03  0.14557109684E+03 -0.17603402285E+04  0.18106249387E+04  0.50400001928E-02 0.  1.
</event>
<event>
 5   0  0.2122194E-05  0.2423509E+04  0.7818609E-02  0.8430754E-01
       -2   -1    0    0    0  501  0.00000000000E+00  0.00000000000E+00  0.10108940037E+04  0.10108940037E+04  0.25500000920E-02 0.  1.
        2   -1    0    0  501    0  0.00000000000E+00  0.00000000000E+00 -0.14525253485E+04  0.14525253485E+04  0.25500000920E-02 0. -1.
    10030    2    1    2    0    0  0.00000000000E+00  0.00000000000E+00 -0.44163134476E+03  0.24634193522E+04  0.24235091624E+04 0.  0.
        3    1    3    3  502    0 -0.49993116922E+03 -0.72650709905E+03  0.62389634512E+03  0.10802732981E+04  0.10100000352E+00 0.  1.
       -3    1    3    3    0  502  0.49993116922E+03  0.72650709905E+03 -0.10655276899E+04  0.13831460541E+04  0.10100000352E+00 0. -1.
</event>
<event>
 5   0  0.9038897E-06  0.2355914E+04  0.7818609E-02  0.8456196E-01
       -1   -1    0    0    0  501  0.00000000000E+00  0.00000000000E+00  0.12682196441E+04  0.12682196441E+04  0.50400001928E-02 0.  1.
        1   -1    0    0  501    0  0.00000000000E+00  0.00000000000E+00 -0.10941186002E+04  0.10941186003E+04  0.50400001928E-02 0. -1.
    10030    2    1    2    0    0  0.00000000000E+00  0.00000000000E+00  0.17410104381E+03  0.23623382443E+04  0.23559140067E+04 0.  0.
        1    1    3    3  502    0  0.98876682978E+03 -0.32583392500E+03 -0.46559218617E+03  0.11404401230E+04  0.50400001928E-02 0. -1.
       -1    1    3    3    0  502 -0.98876682978E+03  0.32583392500E+03  0.63969322999E+03  0.12218981213E+04  0.50400001928E-02 0.  1.
</event>
<event>
 5   0  0.9176817E-06  0.2417584E+04  0.7818609E-02  0.8432950E-01
       -1   -1    0    0    0  501  0.00000000000E+00  0.00000000000E+00  0.10438640435E+04  0.10438640436E+04  0.50400001928E-02 0. -1.
        1   -1    0    0  501    0  0.00000000000E+00  0.00000000000E+00 -0.13997780197E+04  0.13997780197E+04  0.50400001928E-02 0.  1.
    10030    2    1    2    0    0  0.00000000000E+00  0.00000000000E+00 -0.35591397613E+03  0.24436420632E+04  0.24175838713E+04 0.  0.
        3    1    3    3  502    0 -0.78524274343E+03  0.44601994107E+03  0.63421980783E+03  0.11035283090E+04  0.10100000352E+00 0. -1.
       -3    1    3    3    0  502  0.78524274343E+03 -0.44601994107E+03 -0.99013378396E+03  0.13401137542E+04  0.10100000352E+00 0.  1.
</event>
<event>
 5   0  0.2080257E-05  0.2395422E+04  0.7818609E-02  0.8441219E-01
        2   -1    0    0  501    0  0.00000000000E+00  0.00000000000E+00  0.17014129946E+04  0.17014129946E+04  0.25500000920E-02 0.  1.
       -2   -1    0    0    0  501  0.00000000000E+00  0.00000000000E+00 -0.84312967417E+03  0.84312967417E+03  0.25500000920E-02 0. -1.
    10030    2    1    2    0    0  0.00000000000E+00  0.00000000000E+00  0.85828332042E+03  0.25445426688E+04  0.23954221204E+04 0.  0.
        1    1    3    3  502    0  0.61451855165E+03  0.80266006140E+03 -0.25319779196E+03  0.10421158028E+04  0.50400001928E-02 0. -1.
       -1    1    3    3    0  502 -0.61451855165E+03 -0.80266006140E+03  0.11114811124E+04  0.15024268660E+04  0.50400001928E-02 0.  1.
</event>
<event>
 5   0  0.9083687E-06  0.2400838E+04  0.7818609E-02  0.8439190E-01
        1   -1    0    0  501    0  0.00000000000E+00  0.00000000000E+00  0.20759748147E+04  0.20759748147E+04  0.50400001928E-02 0. -1.
       -1   -1    0    0    0  501  0.00000000000E+00  0.00000000000E+00 -0.69413467796E+03  0.69413467798E+03  0.50400001928E-02 0.  1.
    10030    2    1    2    0    0  0.00000000000E+00  0.00000000000E+00  0.13818401367E+04  0.27701094926E+04  0.24008382782E+04 0.  0.
        2    1    3    3  502    0  0.11418389199E+04  0.29078772548E+03  0.42616548807E+03  0.12529846941E+04  0.25500000920E-02 0.  1.
       -2    1    3    3    0  502 -0.11418389199E+04 -0.29078772548E+03  0.95567464862E+03  0.15171247986E+04  0.25500000920E-02 0. -1.
</event>
<event>
 5   0  0.2080257E-05  0.2395711E+04  0.7818609E-02  0.8441111E-01
        2   -1    0    0  501    0  0.00000000000E+00  0.00000000000E+00  0.84522654642E+03  0.84522654643E+03  0.25500000920E-02 0. -1.
       -2   -1    0    0    0  501  0.00000000000E+00  0.00000000000E+00 -0.16976007716E+04  0.16976007716E+04  0.25500000920E-02 0.  1.
    10030    2    1    2    0    0  0.00000000000E+00  0.00000000000E+00 -0.85237422522E+03  0.25428273181E+04  0.23957105313E+04 0.  0.
        1    1    3    3  502    0  0.10576719886E+04  0.49492067859E+03 -0.14288703825E+03  0.11764494121E+04  0.50400001928E-02 0. -1.
       -1    1    3    3    0  502 -0.10576719886E+04 -0.49492067859E+03 -0.70948718697E+03  0.13663779060E+04  0.50400001928E-02 0.  1.
</event>
<event>
 5   0  0.2048028E-05  0.2387693E+04  0.7818609E-02  0.8444126E-01
       -2   -1    0    0    0  501  0.00000000000E+00  0.00000000000E+00  0.84161223998E+03  0.84161223999E+03  0.25500000920E-02 0.  1.
        2   -1    0    0  501    0  0.00000000000E+00  0.00000000000E+00 -0.16934983753E+04  0.16934983753E+04  0.25500000920E-02 0. -1.
    10030    2    1    2    0    0  0.00000000000E+00  0.00000000000E+00 -0.85188613531E+03  0.25351106153E+04  0.23876925774E+04 0.  0.
        5    1    3    3  502    0  0.10988442262E+04 -0.44760366178E+03 -0.56615396803E+03  0.13146710908E+04  0.46999998093E+01 0.  1.
       -5    1    3    3    0  502 -0.10988442262E+04  0.44760366178E+03 -0.28573216728E+03  0.12204395245E+04  0.46999998093E+01 0. -1.
</event>
<event>
 5   0  0.2048028E-05  0.2394514E+04  0.7818609E-02  0.8441560E-01
       -2   -1    0    0    0  501  0.00000000000E+00  0.00000000000E+00  0.66430386702E+03  0.66430386703E+03  0.25500000920E-02 0. -1.
        2   -1    0    0  501    0  0.00000000000E+00  0.00000000000E+00 -0.21577834676E+04  0.21577834676E+04  0.25500000920E-02 0.  1.
    10030    2    1    2    0    0  0.00000000000E+00  0.00000000000E+00 -0.14934796005E+04  0.28220873346E+04  0.23945136472E+04 0.  0.
        5    1    3    3  502    0 -0.43152225793E+03 -0.72265855898E+03  0.25674002557E+03  0.87999112648E+03  0.46999998093E+01 0. -1.
       -5    1    3    3    0  502  0.43152225793E+03  0.72265855898E+03 -0.17502196261E+04  0.19420962081E+04  0.46999998093E+01 0.  1.
</event>
<event>
 5   0  0.8898848E-06  0.2438086E+04  0.7818609E-02  0.8425381E-01
        1   -1    0    0  501    0  0.00000000000E+00  0.00000000000E+00  0.15217936351E+04  0.15217936351E+04  0.50400001928E-02 0. -1.
       -1   -1    0    0    0  501  0.00000000000E+00  0.00000000000E+00 -0.97652291184E+03  0.97652291185E+03  0.50400001928E-02 0.  1.
    10030    2    1    2    0    0  0.00000000000E+00  0.00000000000E+00  0.54527072327E+03  0.24983165470E+04  0.24380864232E+04 0.  0.
        5    1    3    3  502    0  0.85165153575E+03  0.32175210945E+03  0.11033469824E+04  0.14304654528E+04  0.46999998093E+01 0. -1.
       -5    1    3    3    0  502 -0.85165153575E+03 -0.32175210945E+03 -0.55807625909E+03  0.10678510941E+04  0.46999998093E+01 0.  1.
</event>
<event>
 5   0  0.9038897E-06  0.2366036E+04  0.7818609E-02  0.8452330E-01
       -1   -1    0    0    0  501  0.00000000000E+00  0.00000000000E+00  0.71731306400E+03  0.71731306402E+03  0.50400001928E-02 0. -1.
        1   -1    0    0  501    0  0.00000000000E+00  0.00000000000E+00 -0.19510746032E+04  0.19510746032E+04  0.50400001928E-02 0.  1.
    10030    2    1    2    0    0  0.00000000000E+00  0.00000000000E+00 -0.12337615392E+04  0.26683876672E+04  0.23660357578E+04 0.  0.
        1    1    3    3  502    0  0.54728879484E+03 -0.96471093348E+03 -0.10809750689E+04  0.15487734856E+04  0.50400001928E-02 0.  1.
       -1    1    3    3    0  502 -0.54728879484E+03  0.96471093348E+03 -0.15278647030E+03  0.11196141816E+04  0.50400001928E-02 0. -1.
</event>
<event>
 5   0  0.9176817E-06  0.2389883E+04  0.7818609E-02  0.8443301E-01
        1   -1    0    0  501    0  0.00000000000E+00  0.00000000000E+00  0.15053006425E+04  0.15053006425E+04  0.50400001928E-02 0. -1.
       -1   -1    0    0    0  501  0.00000000000E+00  0.00000000000E+00 -0.94857138025E+03  0.94857138026E+03  0.50400001928E-02 0.  1.
    10030    2    1    2    0    0  0.00000000000E+00  0.00000000000E+00  0.55672926228E+03  0.24538720228E+04  0.23898829329E+04 0.  0.
        3    1    3    3  502    0  0.30280772182E+03  0.28627705553E+03  0.14282783722E+04  0.14878259938E+04  0.10100000352E+00 0. -1.
       -3    1    3    3    0  502 -0.30280772182E+03 -0.28627705553E+03 -0.87154910996E+03  0.96604602903E+03  0.10100000352E+00 0.  1.
</event>
<event>
 5   0  0.9176817E-06  0.2397443E+04  0.7818609E-02  0.8440461E-01
        1   -1    0    0  501    0  0.00000000000E+00  0.00000000000E+00  0.91493848678E+03  0.91493848679E+03  0.50400001928E-02 0.  1.
       -1   -1    0    0    0  501  0.00000000000E+00  0.00000000000E+00 -0.15705248099E+04  0.15705248099E+04  0.50400001928E-02 0. -1.
    10030    2    1    2    0    0  0.00000000000E+00  0.00000000000E+00 -0.65558632309E+03  0.24854632967E+04  0.23974432990E+04 0.  0.
        3    1    3    3  502    0 -0.40149059723E+03  0.77667706505E+03  0.52238296558E+03  0.10184821726E+04  0.10100000352E+00 0.  1.
       -3    1    3    3    0  502  0.40149059723E+03 -0.77667706505E+03 -0.11779692887E+04  0.14669811240E+04  0.10100000352E+00 0. -1.
</event>
<event>
 5   0  0.2080257E-05  0.2444994E+04  0.7818609E-02  0.8422848E-01
       -2   -1    0    0    0  501  0.00000000000E+00  0.00000000000E+00  0.21085717692E+04  0.21085717692E+04  0.25500000920E-02 0.  1.
        2   -1    0    0  501    0  0.00000000000E+00  0.00000000000E+00 -0.70877305038E+03  0.70877305038E+03  0.25500000920E-02 0. -1.
    10030    2    1    2    0    0  0.00000000000E+00  0.00000000000E+00  0.13997987188E+04  0.28173448196E+04  0.24449939426E+04 0.  0.
        1    1    3    3  502    0 -0.18078344237E+03  0.12033151838E+04  0.83550184889E+03  0.14760465522E+04  0.50400001928E-02 0.  1.
       -1    1    3    3    0  502  0.18078344237E+03 -0.12033151838E+04  0.56429686991E+03  0.13412982674E+04  0.50400001928E-02 0. -1.
</event>
<event>
 5   0  0.8528103E-06  0.2360481E+04  0.7818609E-02  0.8454449E-01
       -1   -1    0    0    0  501  0.00000000000E+00  0.00000000000E+00  0.71994290998E+03  0.71994291000E+03  0.50400001928E-02 0.  1.
        1   -1    0    0  501    0  0.00000000000E+00  0.00000000000E+00 -0.19348302776E+04  0.19348302776E+04  0.50400001928E-02 0. -1.
    10030    2    1    2    0    0  0.00000000000E+00  0.00000000000E+00 -0.12148873676E+04  0.26547731876E+04  0.23604807480E+04 0.  0.
        4    1    3    3  502    0 -0.75252269468E+03  0.79467004648E+03 -0.11057814696E+03  0.11000091037E+04  0.12699999809E+01 0.  1.
       -4    1    3    3    0  502  0.75252269468E+03 -0.79467004648E+03 -0.11043092206E+04  0.15547640839E+04  0.12699999809E+01 0. -1.
</event>
<event>
 5   0  0.9038897E-06  0.2407691E+04  0.7818609E-02  0.8436630E-01
        1   -1    0    0  501    0  0.00000000000E+00  0.00000000000E+00  0.22013706240E+04  0.22013706240E+04  0.50400001928E-02 0.  1.
       -1   -1    0    0    0  501  0.00000000000E+00  0.00000000000E+00 -0.65833691474E+03  0.65833691476E+03  0.50400001928E-02 0. -1.
    10030    2    1    2    0    0  0.00000000000E+00  0.00000000000E+00  0.15430337093E+04  0.28597075388E+04  0.24076906320E+04 0.  0.
        1    1    3    3  502    0  0.11120750221E+04 -0.34830958303E+03  0.41280180012E+03  0.12362992140E+04  0.50400001928E-02 0.  1.
       -1    1    3    3    0  502 -0.11120750221E+04  0.34830958303E+03  0.11302319092E+04  0.16234083248E+04  0.50400001928E-02 0. -1.
</event>
<event>
 5   0  0.2087882E-05  0.2410956E+04  0.7818609E-02  0.8435413E-01
        2   -1    0    0  501    0  0.00000000000E+00  0.00000000000E+00  0.16397488980E+04  0.16397488980E+04  0.25500000920E-02 0. -1.
       -2   -1    0    0    0  501  0.00000000000E+00  0.00000000000E+00 -0.88621961682E+03  0.88621961683E+03  0.25500000920E-02 0.  1.
    10030    2    1    2    0    0  0.00000000000E+00  0.00000000000E+00  0.75352928116E+03  0.25259685148E+04  0.24109563580E+04 0.  0.
        2    1    3    3  502    0 -0.32325337536E+03  0.68722299049E+03  0.13575909606E+04  0.15555775132E+04  0.25500000920E-02 0. -1.
       -2    1    3    3    0  502  0.32325337536E+03 -0.68722299049E+03 -0.60406167946E+03  0.97039100157E+03  0.25500000920E-02 0.  1.
</event>
<event>
 5   0  0.9176817E-06  0.2402051E+04  0.7818609E-02  0.8438736E-01
       -1   -1    0    0    0  501  0.00000000000E+00  0.00000000000E+00  0.86320352254E+03  0.86320352256E+03  0.50400001928E-02 0. -1.
        1   -1    0    0  501    0  0.00000000000E+00  0.00000000000E+00 -0.16710571042E+04  0.16710571042E+04  0.50400001928E-02 0.  1.
    10030    2    1    2    0    0  0.00000000000E+00  0.00000000000E+00 -0.80785358162E+03  0.25342606267E+04  0.24020511058E+04 0.  0.
        3    1    3    3  502    0  0.13287581282E+03  0.40929628627E+03  0.77907538638E+03  0.89002129157E+03  0.10100000352E+00 0. -1.
       -3    1    3    3    0  502 -0.13287581282E+03 -0.40929628627E+03 -0.15869289680E+04  0.16442393352E+04  0.10100000352E+00 0.  1.
</event>
<event>
 5   0  0.2122194E-05  0.2402256E+04  0.7818609E-02  0.8438660E-01
        2   -1    0    0  501    0  0.00000000000E+00  0.00000000000E+00  0.15773520655E+04  0.15773520655E+04  0.25500000920E-02 0. -1.
       -2   -1    0    0    0  501  0.00000000000E+00  0.00000000000E+00 -0.91463926531E+03  0.91463926532E+03  0.25500000920E-02 0.  1.
    10030    2    1    2    0    0  0.00000000000E+00  0.00000000000E+00  0.66271280015E+03  0.24919913308E+04  0.24022557185E+04 0.  0.
        3    1    3    3  502    0 -0.25630345143E+03  0.94977596289E+03 -0.38354757196E+03  0.10558762186E+04  0.10100000352E+00 0.  1.
       -3    1    3    3    0  502  0.25630345143E+03 -0.94977596289E+03  0.10462603721E+04  0.14361151121E+04  0.10100000352E+00 0. -1.
</event>
<event>
 5   0  0.9038897E-06  0.2375503E+04  0.7818609E-02  0.8448732E-01
        1   -1    0    0  501    0  0.00000000000E+00  0.00000000000E+00  0.82357268722E+03  0.82357268724E+03  0.50400001928E-02 0.  1.
       -1   -1    0    0    0  501  0.00000000000E+00  0.00000000000E+00 -0.17129683441E+04  0.17129683441E+04  0.50400001928E-02 0. -1.
    10030    2    1    2    0    0  0.00000000000E+00  0.00000000000E+00 -0.88939565691E+03  0.25365410314E+04  0.23755032665E+04 0.  0.
        1    1    3    3  502    0  0.11463611589E+04  0.18754648468E+03 -0.70936432549E+03  0.13610713930E+04  0.50400001928E-02 0.  1.
       -1    1    3    3    0  502 -0.11463611589E+04 -0.18754648468E+03 -0.18003133142E+03  0.11754696384E+04  0.50400001928E-02 0. -1.
</event>
<event>
 5   0  0.2087882E-05  0.2361714E+04  0.7818609E-02  0.8453978E-01
       -2   -1    0    0    0  501  0.00000000000E+00  0.00000000000E+00  0.13099602407E+04  0.13099602407E+04  0.25500000920E-02 0. -1.
        2   -1    0    0  501    0  0.00000000000E+00  0.00000000000E+00 -0.10644771558E+04  0.10644771558E+04  0.25500000920E-02 0.  1.
    10030    2    1    2    0    0  0.00000000000E+00  0.00000000000E+00  0.24548308496E+03  0.23744373965E+04  0.23617135739E+04 0.  0.
        2    1    3    3  502    0  0.63734347637E+03 -0.98646879586E+03 -0.78356016267E+00  0.11744479580E+04  0.25500000920E-02 0.  1.
       -2    1    3    3    0  502 -0.63734347637E+03  0.98646879586E+03  0.24626664512E+03  0.11999894385E+04  0.25500000920E-02 0. -1.
</event>
<event>
 5   0  0.9083687E-06  0.2384331E+04  0.7818609E-02  0.8445393E-01
       -1   -1    0    0    0  501  0.00000000000E+00  0.00000000000E+00  0.13471904970E+04  0.13471904970E+04  0.50400001928E-02 0. -1.
        1   -1    0    0  501    0  0.00000000000E+00  0.00000000000E+00 -0.10549793855E+04  0.10549793855E+04  0.50400001928E-02 0.  1.
    10030    2    1    2    0    0  0.00000000000E+00  0.00000000000E+00  0.29221111153E+03  0.24021698826E+04  0.23843306841E+04 0.  0.
        2    1    3    3  502    0 -0.20502623430E+02  0.15786697199E+03  0.13364341088E+04  0.13458820400E+04  0.25500000920E-02 0. -1.
       -2    1    3    3    0  502  0.20502623430E+02 -0.15786697199E+03 -0.10442229972E+04  0.10562878426E+04  0.25500000920E-02 0.  1.
</event>
<event>
 5   0  0.2122194E-05  0.2389110E+04  0.7818609E-02  0.8443592E-01
       -2   -1    0    0    0  501  0.00000000000E+00  0.00000000000E+00  0.84800779340E+03  0.84800779340E+03  0.25500000920E-02 0. -1.
        2   -1    0    0  501    0  0.00000000000E+00  0.00000000000E+00 -0.16827226017E+04  0.16827226017E+04  0.25500000920E-02 0.  1.
    10030    2    1    2    0    0  0.00000000000E+00  0.00000000000E+00 -0.83471480833E+03  0.25307303951E+04  0.23891101945E+04 0.  0.
        3    1    3    3  502    0 -0.97762386275E+03 -0.61641449275E+03 -0.73733392194E+03  0.13709035584E+04  0.10100000352E+00 0.  1.
       -3    1    3    3    0  502  0.97762386275E+03  0.61641449275E+03 -0.97380886396E+02  0.11598268367E+04  0.10100000352E+00 0. -1.
</event>
<event>
 5   0  0.2048028E-05  0.2412561E+04  0.7818609E-02  0.8434816E-01
        2   -1    0    0  501    0  0.00000000000E+00  0.00000000000E+00  0.29786909076E+04  0.29786909076E+04  0.25500000920E-02 0.  1.
       -2   -1    0    0    0  501  0.00000000000E+00  0.00000000000E+00 -0.48850741285E+03  0.48850741286E+03  0.25500000920E-02 0. -1.
    10030    2    1    2    0    0  0.00000000000E+00  0.00000000000E+00  0.24901834947E+04  0.34671983204E+04  0.24125609538E+04 0.  0.
        5    1    3    3  502    0 -0.93298078467E+03 -0.54139481242E+03  0.20210552217E+04  0.22909054513E+04  0.46999998093E+01 0.  1.
       -5    1    3    3    0  502  0.93298078467E+03  0.54139481242E+03  0.46912827299E+03  0.11762928691E+04  0.46999998093E+01 0. -1.
</event>
<event>
 5   0  0.9083687E-06  0.2402246E+04  0.7818609E-02  0.8438663E-01
       -1   -1    0    0    0  501  0.00000000000E+00  0.00000000000E+00  0.88814960932E+03  0.88814960934E+03  0.50400001928E-02 0.  1.
        1   -1    0    0  501    0  0.00000000000E+00  0.00000000000E+00 -0.16243844814E+04  0.16243844814E+04  0.50400001928E-02 0. -1.
    10030    2    1    2    0    0  0.00000000000E+00  0.00000000000E+00 -0.73623487212E+03  0.25125340908E+04  0.24022459846E+04 0.  0.
        2    1    3    3  502    0  0.88137557632E+03  0.81060351189E+03 -0.27002752894E+03  0.12275242671E+04  0.25500000920E-02 0.  1.
       -2    1    3    3    0  502 -0.88137557632E+03 -0.81060351189E+03 -0.46620734318E+03  0.12850098236E+04  0.25500000920E-02 0. -1.
</event>
<event>
 5   0  0.2122194E-05  0.2294917E+04  0.7818609E-02  0.8479928E-01
       -2   -1    0    0    0  501  0.00000000000E+00  0.00000000000E+00  0.75289503583E+03  0.75289503584E+03  0.25500000920E-02 0. -1.
        2   -1    0    0  501    0  0.00000000000E+00  0.00000000000E+00 -0.17487977015E+04  0.17487977015E+04  0.25500000920E-02 0.  1.
    10030    2    1    2    0    0  0.00000000000E+00  0.00000000000E+00 -0.99590266562E+03  0.25016927373E+04  0.22949170862E+04 0.  0.
        3    1    3    3  502    0  0.67676509092E+03  0.16185285886E+03 -0.14925480660E+04  0.16467868944E+04  0.10100000352E+00 0.  1.
       -3    1    3    3    0  502 -0.67676509092E+03 -0.16185285886E+03  0.49664540038E+03  0.85490584284E+03  0.10100000352E+00 0. -1.
</event>
<event>
 5   0  0.2080257E-05  0.2415464E+04  0.7818609E-02  0.8433737E-01
        2   -1    0    0  501    0  0.00000000000E+00  0.00000000000E+00  0.22921082143E+04  0.22921082143E+04  0.25500000920E-02 0. -1.
       -2   -1    0    0    0  501  0.00000000000E+00  0.00000000000E+00 -0.63636474134E+03  0.63636474134E+03  0.25500000920E-02 0.  1.
    10030    2    1    2    0    0  0.00000000000E+00  0.00000000000E+00  0.16557434730E+04  0.29284729556E+04  0.24154642212E+04 0.  0.
        1    1    3    3  502    0 -0.88303528668E+02  0.20730802680E+03 -0.61065413990E+03  0.65090138251E+03  0.50400001928E-02 0.  1.
       -1    1    3    3    0  502  0.88303528668E+02 -0.20730802680E+03  0.22663976129E+04  0.22775715731E+04  0.50400001928E-02 0. -1.
</event>
<event>
 5   0  0.8898848E-06  0.2422636E+04  0.7818609E-02  0.8431077E-01
        1   -1    0    0  501    0  0.00000000000E+00  0.00000000000E+00  0.20057402115E+04  0.20057402116E+04  0.50400001928E-02 0. -1.
       -1   -1    0    0    0  501  0.00000000000E+00  0.00000000000E+00 -0.73154619720E+03  0.73154619722E+03  0.50400001928E-02 0.  1.
    10030    2    1    2    0    0  0.00000000000E+00  0.00000000000E+00  0.12741940143E+04  0.27372864088E+04  0.24226362701E+04 0.  0.
        5    1    3    3  502    0 -0.10641668787E+04 -0.57738422933E+03  0.59413424583E+03  0.13486442400E+04  0.46999998093E+01 0.  1.
       -5    1    3    3    0  502  0.10641668787E+04  0.57738422933E+03  0.68005976852E+03  0.13886421687E+04  0.46999998093E+01 0. -1.
</event>
<event>
 5   0  0.2122194E-05  0.2412619E+04  0.7818609E-02  0.8434794E-01
       -2   -1    0    0    0  501  0.00000000000E+00  0.00000000000E+00  0.84837796228E+03  0.84837796228E+03  0.25500000920E-02 0. -1.
        2   -1    0    0  501    0  0.00000000000E+00  0.00000000000E+00 -0.17152533291E+04  0.17152533291E+04  0.25500000920E-02 0.  1.
    10030    2    1    2    0    0  0.00000000000E+00  0.00000000000E+00 -0.86687536685E+03  0.25636312914E+04  0.24126194264E+04 0.  0.
        3    1    3    3  502    0  0.52639260443E+03  0.24218526535E+03 -0.15576988246E+04  0.16619772908E+04  0.10100000352E+00 0.  1.
       -3    1    3    3    0  502 -0.52639260443E+03 -0.24218526535E+03  0.69082345778E+03  0.90165400059E+03  0.10100000352E+00 0. -1.
</event>
<event>
 5   0  0.8528103E-06  0.2337015E+04  0.7818609E-02  0.8463468E-01
        1   -1    0    0  501    0  0.00000000000E+00  0.00000000000E+00  0.66264546490E+03  0.66264546491E+03  0.50400001928E-02 0.  1.
       -1   -1    0    0    0  501  0.00000000000E+00  0.00000000000E+00 -0.20605427476E+04  0.20605427476E+04  0.50400001928E-02 0. -1.
    10030    2    1    2    0    0  0.00000000000E+00  0.00000000000E+00 -0.13978972827E+04  0.27231882125E+04  0.23370145973E+04 0.  0.
        4    1    3    3  502    0  0.71704152364E+03 -0.27782476005E+03 -0.17241450283E+04  0.18878593262E+04  0.12699999809E+01 0. -1.
       -4    1    3    3    0  502 -0.71704152364E+03  0.27782476005E+03  0.32624774561E+03  0.83532888633E+03  0.12699999809E+01 0.  1.
</event>
<event>
 5   0  0.9038897E-06  0.2398429E+04  0.7818609E-02  0.8440092E-01
       -1   -1    0    0    0  501  0.00000000000E+00  0.00000000000E+00  0.12072939903E+04  0.12072939903E+04  0.50400001928E-02 0.  1.
        1   -1    0    0  501    0  0.00000000000E+00  0.00000000000E+00 -0.11911890318E+04  0.11911890318E+04  0.50400001928E-02 0. -1.
    10030    2    1    2    0    0  0.00000000000E+00  0.00000000000E+00  0.16104958437E+02  0.23984830221E+04  0.23984289520E+04 0.  0.
        1    1    3    3  502    0 -0.75734597263E+03 -0.92797255254E+03  0.66443682219E+02  0.11996335872E+04  0.50400001928E-02 0. -1.
       -1    1    3    3    0  502  0.75734597263E+03  0.92797255254E+03 -0.50338723782E+02  0.11988494349E+04  0.50400001928E-02 0.  1.
</event>
<event>
 5   0  0.9176817E-06  0.2393553E+04  0.7818609E-02  0.8441921E-01
        1   -1    0    0  501    0  0.00000000000E+00  0.00000000000E+00  0.10923863635E+04  0.10923863635E+04  0.50400001928E-02 0.  1.
       -1   -1    0    0    0  501  0.00000000000E+00  0.00000000000E+00 -0.13111421619E+04  0.13111421619E+04  0.50400001928E-02 0. -1.
    10030    2    1    2    0    0  0.00000000000E+00  0.00000000000E+00 -0.21875579844E+03  0.24035285254E+04  0.23935528557E+04 0.  0.
        3    1    3    3  502    0  0.89203573890E+02 -0.11765748184E+04  0.91426088710E+02  0.11834882005E+04  0.10100000352E+00 0. -1.
       -3    1    3    3    0  502 -0.89203573890E+02  0.11765748184E+04 -0.31018188715E+03  0.12200403248E+04  0.10100000352E+00 0.  1.
</event>
<event>
 5   0  0.2025353E-05  0.2327495E+04  0.7818609E-02  0.8467159E-01
        2   -1    0    0  501    0  0.00000000000E+00  0.00000000000E+00  0.17994470627E+04  0.17994470627E+04  0.25500000920E-02 0.  1.
       -2   -1    0    0    0  501  0.00000000000E+00  0.00000000000E+00 -0.75262442132E+03  0.75262442133E+03  0.25500000920E-02 0. -1.
    10030    2    1    2    0    0  0.00000000000E+00  0.00000000000E+00  0.10468226414E+04  0.25520714840E+04  0.23274946224E+04 0.  0.
        4    1    3    3  502    0 -0.38603969230E+03  0.39155058982E+03 -0.60120750147E+03  0.81473344177E+03  0.12699999809E+01 0. -1.
       -4    1    3    3    0  502  0.38603969230E+03 -0.39155058982E+03  0.16480301429E+04  0.17373380423E+04  0.12699999809E+01 0.  1.
</event>
<event>
 5   0  0.2025353E-05  0.2401431E+04  0.7818609E-02  0.8438968E-01
       -2   -1    0    0    0  501  0.00000000000E+00  0.00000000000E+00  0.12509886662E+04  0.12509886662E+04  0.25500000920E-02 0. -1.
        2   -1    0    0  501    0  0.00000000000E+00  0.00000000000E+00 -0.11524628737E+04  0.11524628737E+04  0.25500000920E-02 0.  1.
    10030    2    1    2    0    0  0.00000000000E+00  0.00000000000E+00  0.98525792484E+02  0.24034515399E+04  0.24014312343E+04 0.  0.
        4    1    3    3  502    0  0.66161172315E+03  0.98909308196E+03  0.20965121341E+03  0.12083006419E+04  0.12699999809E+01 0.  1.
       -4    1    3    3    0  502 -0.66161172315E+03 -0.98909308196E+03 -0.11112542092E+03  0.11951508980E+04  0.12699999809E+01 0. -1.
</event>
<event>
 5   0  0.7233625E-06  0.2375325E+04  0.7818609E-02  0.8448799E-01
       -4   -1    0    0    0  501  0.00000000000E+00  0.00000000000E+00  0.10194793715E+04  0.10194801625E+04  0.12699999809E+01 0. -1.
        4   -1    0    0  501    0  0.00000000000E+00  0.00000000000E+00 -0.13835896938E+04  0.13835902767E+04  0.12699999809E+01 0.  1.
    10030    2    1    2    0    0  0.00000000000E+00  0.00000000000E+00 -0.36411032234E+03  0.24030704392E+04  0.23753254954E+04 0.  0.
        3    1    3    3  502    0  0.61276191633E+03  0.69230702162E+03  0.57215695522E+03  0.10872579132E+04  0.10100000352E+00 0. -1.
       -3    1    3    3    0  502 -0.61276191633E+03 -0.69230702162E+03 -0.93626727756E+03  0.13158125260E+04  0.10100000352E+00 0.  1.
</event>
<event>
 5   0  0.9176817E-06  0.2384997E+04  0.7818609E-02  0.8445142E-01
       -1   -1    0    0    0  501  0.00000000000E+00  0.00000000000E+00  0.15361581018E+04  0.15361581018E+04  0.50400001928E-02 0. -1.
        1   -1    0    0  501    0  0.00000000000E+00  0.00000000000E+00 -0.92571990285E+03  0.92571990286E+03  0.50400001928E-02 0.  1.
    10030    2    1    2    0    0  0.00000000000E+00  0.00000000000E+00  0.61043819897E+03  0.24618780047E+04  0.23849965441E+04 0.  0.
        3    1    3    3  502    0  0.35202097215E+03 -0.12033068417E+03 -0.86428767837E+03  0.94095241089E+03  0.10100000352E+00 0.  1.
       -3    1    3    3    0  502 -0.35202097215E+03  0.12033068417E+03  0.14747258773E+04  0.15209255938E+04  0.10100000352E+00 0. -1.
</event>
<event>
 5   0  0.8898848E-06  0.2429882E+04  0.7818609E-02  0.8428400E-01
        1   -1    0    0  501    0  0.00000000000E+00  0.00000000000E+00  0.25809594560E+04  0.25809594560E+04  0.50400001928E-02 0.  1.
       -1   -1    0    0    0  501  0.00000000000E+00  0.00000000000E+00 -0.57191180573E+03  0.57191180575E+03  0.50400001928E-02 0. -1.
    10030    2    1    2    0    0  0.00000000000E+00  0.00000000000E+00  0.20090476503E+04  0.31528712618E+04  0.24298816293E+04 0.  0.
        5    1    3    3  502    0  0.37934453378E+03 -0.11537889576E+04  0.96499971090E+03  0.15512503879E+04  0.46999998093E+01 0.  1.
       -5    1    3    3    0  502 -0.37934453378E+03  0.11537889576E+04  0.10440479394E+04  0.16016208739E+04  0.46999998093E+01 0. -1.
</event>
<event>
 5   0  0.2087882E-05  0.2405433E+04  0.7818609E-02  0.8437472E-01
       -2   -1    0    0    0  501  0.00000000000E+00  0.00000000000E+00  0.13829336642E+04  0.13829336642E+04  0.25500000920E-02 0.  1.
        2   -1    0    0  501    0  0.00000000000E+00  0.00000000000E+00 -0.10459841760E+04  0.10459841760E+04  0.25500000920E-02 0. -1.
    10030    2    1    2    0    0  0.00000000000E+00  0.00000000000E+00  0.33694948820E+03  0.24289178402E+04  0.24054327920E+04 0.  0.
        2    1    3    3  502    0  0.86874009724E+03 -0.59176131968E+03 -0.42172817956E+03  0.11325835393E+04  0.25500000920E-02 0. -1.
       -2    1    3    3    0  502 -0.86874009724E+03  0.59176131968E+03  0.75867766777E+03  0.12963343009E+04  0.25500000920E-02 0.  1.
</event>
<event>
 5   0  0.2122194E-05  0.2459783E+04  0.7818609E-02  0.8417455E-01
        2   -1    0    0  501    0  0.00000000000E+00  0.00000000000E+00  0.10481952529E+04  0.10481952529E+04  0.25500000920E-02 0.  1.
       -2   -1    0    0    0  501  0.00000000000E+00  0.00000000000E+00 -0.14430833191E+04  0.14430833191E+04  0.25500000920E-02 0. -1.
    10030    2    1    2    0    0  0.00000000000E+00  0.00000000000E+00 -0.39488806624E+03  0.24912785720E+04  0.24597829861E+04 0.  0.
        3    1    3    3  502    0 -0.11335075543E+04  0.21073493858E+03  0.23627331504E+03  0.11768915326E+04  0.10100000352E+00 0.  1.
       -3    1    3    3    0  502  0.11335075543E+04 -0.21073493858E+03 -0.63116138127E+03  0.13143870394E+04  0.10100000352E+00 0. -1.
</event>
<event>
 5   0  0.2080257E-05  0.2188428E+04  0.7818609E-02  0.8523260E-01
       -2   -1    0    0    0  501  0.00000000000E+00  0.00000000000E+00  0.42076875372E+03  0.42076875373E+03  0.25500000920E-02 0.  1.
        2   -1    0    0  501    0  0.00000000000E+00  0.00000000000E+00 -0.28455164444E+04  0.28455164444E+04  0.25500000920E-02 0. -1.
    10030    2    1    2    0    0  0.00000000000E+00  0.00000000000E+00 -0.24247476907E+04  0.32662851981E+04  0.21884281190E+04 0.  0.
        1    1    3    3  502    0 -0.60796936124E+02  0.35239183993E+03 -0.27558418050E+04  0.27789459028E+04  0.50400001928E-02 0. -1.
       -1    1    3    3    0  502  0.60796936124E+02 -0.35239183993E+03  0.33109411429E+03  0.48733929539E+03  0.50400001928E-02 0.  1.
</event>
<event>
 5   0  0.2087882E-05  0.2379557E+04  0.7818609E-02  0.8447197E-01
        2   -1    0    0  501    0  0.00000000000E+00  0.00000000000E+00  0.11351975176E+04  0.11351975176E+04  0.25500000920E-02 0.  1.
       -2   -1    0    0    0  501  0.00000000000E+00  0.00000000000E+00 -0.12469840653E+04  0.12469840653E+04  0.25500000920E-02 0. -1.
    10030    2    1    2    0    0  0.00000000000E+00  0.00000000000E+00 -0.11178654777E+03  0.23821815829E+04  0.23795572827E+04 0.  0.
        2    1    3    3  502    0  0.81642765048E+03 -0.31587439889E+03  0.75075119414E+03  0.11532380933E+04  0.25500000920E-02 0.  1.
       -2    1    3    3    0  502 -0.81642765048E+03  0.31587439889E+03 -0.86253774191E+03  0.12289434896E+04  0.25500000920E-02 0. -1.
</event>
<event>
 5   0  0.2122194E-05  0.2453799E+04  0.7818609E-02  0.8419632E-01
        2   -1    0    0  501    0  0.00000000000E+00  0.00000000000E+00  0.16754522525E+04  0.16754522525E+04  0.25500000920E-02 0. -1.
       -2   -1    0    0    0  501  0.00000000000E+00  0.00000000000E+00 -0.89843379584E+03  0.89843379585E+03  0.25500000920E-02 0.  1.
    10030    2    1    2    0    0  0.00000000000E+00  0.00000000000E+00  0.77701845662E+03  0.25738860483E+04  0.24537994433E+04 0.  0.
        3    1    3    3  502    0  0.28879573305E+03  0.87082499830E+03  0.12429560489E+04  0.15448879904E+04  0.10100000352E+00 0.  1.
       -3    1    3    3    0  502 -0.28879573305E+03 -0.87082499830E+03 -0.46593759230E+03  0.10289980579E+04  0.10100000352E+00 0. -1.
</event>
<event>
 5   0  0.9176817E-06  0.2402925E+04  0.7818609E-02  0.8438409E-01
       -1   -1    0    0    0  501  0.00000000000E+00  0.00000000000E+00  0.70044367760E+03  0.70044367761E+03  0.50400001928E-02 0. -1.
        1   -1    0    0  501    0  0.00000000000E+00  0.00000000000E+00 -0.20608538809E+04  0.20608538809E+04  0.50400001928E-02 0.  1.
    10030    2    1    2    0    0  0.00000000000E+00  0.00000000000E+00 -0.13604102033E+04  0.27612975585E+04  0.24029249438E+04 0.  0.
        3    1    3    3  502    0  0.69683025946E+03 -0.78221987200E+03 -0.13562196782E+04  0.17137013055E+04  0.10100000352E+00 0.  1.
       -3    1    3    3    0  502 -0.69683025946E+03  0.78221987200E+03 -0.41905250786E+01  0.10475962530E+04  0.10100000352E+00 0. -1.
</event>
<event>
 5   0  0.2048028E-05  0.2392141E+04  0.7818609E-02  0.8442452E-01
        2   -1    0    0  501    0  0.00000000000E+00  0.00000000000E+00  0.70915033484E+03  0.70915033484E+03  0.25500000920E-02 0. -1.
       -2   -1    0    0    0  501  0.00000000000E+00  0.00000000000E+00 -0.20173220505E+04  0.20173220505E+04  0.25500000920E-02 0.  1.
    10030    2    1    2    0    0  0.00000000000E+00  0.00000000000E+00 -0.13081717157E+04  0.27264723854E+04  0.23921409721E+04 0.  0.
        5    1    3    3  502    0  0.33364190370E+03  0.13495540606E+03 -0.19541309891E+04  0.19870027414E+04  0.46999998093E+01 0.  1.
       -5    1    3    3    0  502 -0.33364190370E+03 -0.13495540606E+03  0.64595927342E+03  0.73946964403E+03  0.46999998093E+01 0. -1.
</event>
<event>
 5   0  0.8898848E-06  0.2403341E+04  0.7818609E-02  0.8438254E-01
        1   -1    0    0  501    0  0.00000000000E+00  0.00000000000E+00  0.11786282528E+04  0.11786282528E+04  0.50400001928E-02 0. -1.
       -1   -1    0    0    0  501  0.00000000000E+00  0.00000000000E+00 -0.12251629202E+04  0.12251629202E+04  0.50400001928E-02 0.  1.
    10030    2    1    2    0    0  0.00000000000E+00  0.00000000000E+00 -0.46534667408E+02  0.24037911730E+04  0.24033407016E+04 0.  0.
        5    1    3    3  502    0 -0.11680666682E+02  0.55150154821E+03  0.10444996945E+04  0.11812248294E+04  0.46999998093E+01 0. -1.
       -5    1    3    3    0  502  0.11680666682E+02 -0.55150154821E+03 -0.10910343619E+04  0.12225663436E+04  0.46999998093E+01 0.  1.
</event>
<event>
 5   0  0.9176817E-06  0.2389361E+04  0.7818609E-02  0.8443498E-01
        1   -1    0    0  501    0  0.00000000000E+00  0.00000000000E+00  0.10889304116E+04  0.10889304116E+04  0.50400001928E-02 0.  1.
       -1   -1    0    0    0  501  0.00000000000E+00  0.00000000000E+00 -0.13106999556E+04  0.13106999556E+04  0.50400001928E-02 0. -1.
    10030    2    1    2    0    0  0.00000000000E+00  0.00000000000E+00 -0.22176954396E+03  0.23996303673E+04  0.23893606192E+04 0.  0.
        3    1    3    3  502    0  0.14172706212E+03  0.70410666782E+03 -0.10696651355E+04  0.12884239489E+04  0.10100000352E+00 0. -1.
       -3    1    3    3    0  502 -0.14172706212E+03 -0.70410666782E+03  0.84789559154E+03  0.11112064183E+04  0.10100000352E+00 0.  1.
</event>
<event>
 5   0  0.2122194E-05  0.2352830E+04  0.7818609E-02  0.8457378E-01
        2   -1    0    0  501    0  0.00000000000E+00  0.00000000000E+00  0.13346502915E+04  0.13346502915E+04  0.25500000920E-02 0.  1.
       -2   -1    0    0    0  501  0.00000000000E+00  0.00000000000E+00 -0.10369396801E+04  0.10369396801E+04  0.25500000920E-02 0. -1.
    10030    2    1    2    0    0  0.00000000000E+00  0.00000000000E+00  0.29771061145E+03  0.23715899716E+04  0.23528296550E+04 0.  0.
        3    1    3    3  502    0 -0.68488939316E+03 -0.82366904650E+03  0.63899133419E+03  0.12473227788E+04  0.10100000352E+00 0.  1.
       -3    1    3    3    0  502  0.68488939316E+03  0.82366904650E+03 -0.34128072274E+03  0.11242671929E+04  0.10100000352E+00 0. -1.
</event>
<event>
 5   0  0.9038897E-06  0.2392643E+04  0.7818609E-02  0.8442263E-01
        1   -1    0    0  501    0  0.00000000000E+00  0.00000000000E+00  0.84622504464E+03  0.84622504466E+03  0.50400001928E-02 0.  1.
       -1   -1    0    0    0  501  0.00000000000E+00  0.00000000000E+00 -0.16912580211E+04  0.16912580212E+04  0.50400001928E-02 0. -1.
    10030    2    1    2    0    0  0.00000000000E+00  0.00000000000E+00 -0.84503297651E+03  0.25374830658E+04  0.23926428020E+04 0.  0.
        1    1    3    3  502    0 -0.39268930701E+03  0.80340177881E+03  0.42027620113E+03  0.98807458995E+03  0.50400001928E-02 0.  1.
       -1    1    3    3    0  502  0.39268930701E+03 -0.80340177881E+03 -0.12653091776E+04  0.15494084759E+04  0.50400001928E-02 0. -1.
</event>
<event>
 5   0  0.9176817E-06  0.2449164E+04  0.7818609E-02  0.8421323E-01
       -1   -1    0    0    0  501  0.00000000000E+00  0.00000000000E+00  0.10490412027E+04  0.10490412027E+04  0.50400001928E-02 0.  1.
        1   -1    0    0  501    0  0.00000000000E+00  0.00000000000E+00 -0.14294969949E+04  0.14294969949E+04  0.50400001928E-02 0. -1.
    10030    2    1    2    0    0  0.00000000000E+00  0.00000000000E+00 -0.38045579218E+03  0.24785381976E+04  0.24491641405E+04 0.  0.
        3    1    3    3  502    0  0.72908639047E+02 -0.88351451565E+03  0.66470459103E+03  0.11080369004E+04  0.10100000352E+00 0.  1.
       -3    1    3    3    0  502 -0.72908639047E+02  0.88351451565E+03 -0.10451603832E+04  0.13705012973E+04  0.10100000352E+00 0. -1.
</event>
<event>
 5   0  0.9083687E-06  0.2431952E+04  0.7818609E-02  0.8427637E-01
       -1   -1    0    0    0  501  0.00000000000E+00  0.00000000000E+00  0.11814232074E+04  0.11814232074E+04  0.50400001928E-02 0.  1.
        1   -1    0    0  501    0  0.00000000000E+00  0.00000000000E+00 -0.12515396489E+04  0.12515396489E+04  0.50400001928E-02 0. -1.
    10030    2    1    2    0    0  0.00000000000E+00  0.00000000000E+00 -0.70116441485E+02  0.24329628563E+04  0.24319522908E+04 0.  0.
        2    1    3    3  502    0  0.33895834963E+03 -0.98167880693E+03  0.59766956573E+03  0.11982466159E+04  0.25500000920E-02 0.  1.
       -2    1    3    3    0  502 -0.33895834963E+03  0.98167880693E+03 -0.66778600722E+03  0.12347162404E+04  0.25500000920E-02 0. -1.
</event>
<event>
 5   0  0.8898848E-06  0.2432632E+04  0.7818609E-02  0.8427387E-01
       -1   -1    0    0    0  501  0.00000000000E+00  0.00000000000E+00  0.18468276214E+04  0.18468276214E+04  0.50400001928E-02 0.  1.
        1   -1    0    0  501    0  0.00000000000E+00  0.00000000000E+00 -0.80106290767E+03  0.80106290769E+03  0.50400001928E-02 0. -1.
    10030    2    1    2    0    0  0.00000000000E+00  0.00000000000E+00  0.10457647137E+04  0.26478905291E+04  0.24326324049E+04 0.  0.
        5    1    3    3  502    0  0.10273597427E+04 -0.44467233682E+03  0.10405741327E+04  0.15284037895E+04  0.46999998093E+01 0.  1.
       -5    1    3    3    0  502 -0.10273597427E+04  0.44467233682E+03  0.51905810287E+01  0.11194867396E+04  0.46999998093E+01 0. -1.
</event>
<event>
 5   0  0.2025353E-05  0.2443336E+04  0.7818609E-02  0.8423455E-01
       -2   -1    0    0    0  501  0.00000000000E+00  0.00000000000E+00  0.12660196221E+04  0.12660196221E+04  0.25500000920E-02 0. -1.
        2   -1    0    0  501    0  0.00000000000E+00  0.00000000000E+00 -0.11788698392E+04  0.11788698392E+04  0.25500000920E-02 0.  1.
    10030    2    1    2    0    0  0.00000000000E+00  0.00000000000E+00  0.87149782868E+02  0.24448894613E+04  0.24433357103E+04 0.  0.
        4    1    3    3  502    0 -0.34752765089E+03  0.11180443197E+03 -0.11230116882E+04  0.11808609418E+04  0.12699999809E+01 0.  1.
       -4    1    3    3    0  502  0.34752765089E+03 -0.11180443197E+03  0.12101614711E+04  0.12640285195E+04  0.12699999809E+01 0. -1.
</event>
<event>
 5   0  0.2080257E-05  0.2389118E+04  0.7818609E-02  0.8443589E-01
        2   -1    0    0  501    0  0.00000000000E+00  0.00000000000E+00  0.28310787060E+04  0.28310787060E+04  0.25500000920E-02 0. -1.
       -2   -1    0    0    0  501  0.00000000000E+00  0.00000000000E+00 -0.50403800967E+03  0.50403800968E+03  0.25500000920E-02 0.  1.
    10030    2    1    2    0    0  0.00000000000E+00  0.00000000000E+00  0.23270406963E+04  0.33351167157E+04  0.23891180600E+04 0.  0.
        1    1    3    3  502    0 -0.11198721916E+04 -0.40535526650E+03  0.10344814092E+04  0.15775228694E+04  0.50400001928E-02 0. -1.
       -1    1    3    3    0  502  0.11198721916E+04  0.40535526650E+03  0.12925592871E+04  0.17575938462E+04  0.50400001928E-02 0.  1.
</event>
<event>
 5   0  0.8528103E-06  0.2247722E+04  0.7818609E-02  0.8498823E-01
       -1   -1    0    0    0  501  0.00000000000E+00  0.00000000000E+00  0.59025341892E+03  0.59025341894E+03  0.50400001928E-02 0.  1.
        1   -1    0    0  501    0  0.00000000000E+00  0.00000000000E+00 -0.21398671927E+04  0.21398671927E+04  0.50400001928E-02 0. -1.
    10030    2    1    2    0    0  0.00000000000E+00  0.00000000000E+00 -0.15496137737E+04  0.27301206116E+04  0.22477223374E+04 0.  0.
        4    1    3    3  502    0  0.41782789915E+03 -0.55739018209E+03 -0.18460121052E+04  0.19730753341E+04  0.12699999809E+01 0. -1.
       -4    1    3    3    0  502 -0.41782789915E+03  0.55739018209E+03  0.29639833149E+03  0.75704527752E+03  0.12699999809E+01 0.  1.
</event>
<event>
 5   0  0.2087882E-05  0.2389784E+04  0.7818609E-02  0.8443338E-01
       -2   -1    0    0    0  501  0.00000000000E+00  0.00000000000E+00  0.10820546028E+04  0.10820546028E+04  0.25500000920E-02 0. -1.
        2   -1    0    0  501    0  0.00000000000E+00  0.00000000000E+00 -0.13194961506E+04  0.13194961506E+04  0.25500000920E-02 0.  1.
    10030    2    1    2    0    0  0.00000000000E+00  0.00000000000E+00 -0.23744154786E+03  0.24015507534E+04  0.23897839928E+04 0.  0.
        2    1    3    3  502    0 -0.10150421992E+03 -0.44630517795E+03 -0.12279105820E+04  0.13104410769E+04  0.25500000920E-02 0.  1.
       -2    1    3    3    0  502  0.10150421992E+03  0.44630517795E+03  0.99046903416E+03  0.10911096765E+04  0.25500000920E-02 0. -1.
</event>
<event>
 5   0  0.8898848E-06  0.2237924E+04  0.7818609E-02  0.8502807E-01
        1   -1    0    0  501    0  0.00000000000E+00  0.00000000000E+00  0.12386214191E+04  0.12386214191E+04  0.50400001928E-02 0.  1.
       -1   -1    0    0    0  501  0.00000000000E+00  0.00000000000E+00 -0.10108624569E+04  0.10108624569E+04  0.50400001928E-02 0. -1.
    10030    2    1    2    0    0  0.00000000000E+00  0.00000000000E+00  0.22775896220E+03  0.22494838760E+04  0.22379239405E+04 0.  0.
        5    1    3    3  502    0  0.38840336075E+03  0.49789209099E+03  0.10423934879E+04  0.12187534527E+04  0.46999998093E+01 0.  1.
       -5    1    3    3    0  502 -0.38840336075E+03 -0.49789209099E+03 -0.81463452573E+03  0.10307304233E+04  0.46999998093E+01 0. -1.
</event>
<event>
 5   0  0.2087882E-05  0.2275026E+04  0.7818609E-02  0.8487834E-01
        2   -1    0    0  501    0  0.00000000000E+00  0.00000000000E+00  0.20012590501E+04  0.20012590501E+04  0.25500000920E-02 0. -1.
       -2   -1    0    0    0  501  0.00000000000E+00  0.00000000000E+00 -0.64656068864E+03  0.64656068864E+03  0.25500000920E-02 0.  1.
    10030    2    1    2    0    0  0.00000000000E+00  0.00000000000E+00  0.13546983614E+04  0.26478197387E+04  0.22750256522E+04 0.  0.
        2    1    3    3  502    0 -0.65984664149E+03 -0.21018378473E+03 -0.37294388583E+03  0.78655066946E+03  0.25500000920E-02 0.  1.
       -2    1    3    3    0  502  0.65984664149E+03  0.21018378473E+03  0.17276422473E+04  0.18612690693E+04  0.25500000920E-02 0. -1.
</event>
<event>
 5   0  0.8528103E-06  0.2395899E+04  0.7818609E-02  0.8441041E-01
       -1   -1    0    0    0  501  0.00000000000E+00  0.00000000000E+00  0.87702056114E+03  0.87702056115E+03  0.50400001928E-02 0.  1.
        1   -1    0    0  501    0  0.00000000000E+00  0.00000000000E+00 -0.16363158186E+04  0.16363158186E+04  0.50400001928E-02 0. -1.
    10030    2    1    2    0    0  0.00000000000E+00  0.00000000000E+00 -0.75929525743E+03  0.25133363797E+04  0.23958986768E+04 0.  0.
        4    1    3    3  502    0 -0.87629933195E+03  0.80913645238E+03 -0.49683116826E+03  0.12920700989E+04  0.12699999809E+01 0. -1.
       -4    1    3    3    0  502  0.87629933195E+03 -0.80913645238E+03 -0.26246408916E+03  0.12212662809E+04  0.12699999809E+01 0.  1.
</event>
<event>
 5   0  0.9083687E-06  0.2403697E+04  0.7818609E-02  0.8438121E-01
       -1   -1    0    0    0  501  0.00000000000E+00  0.00000000000E+00  0.93166069554E+03  0.93166069556E+03  0.50400001928E-02 0. -1.
        1   -1    0    0  501    0  0.00000000000E+00  0.00000000000E+00 -0.15503919543E+04  0.15503919543E+04  0.50400001928E-02 0.  1.
    10030    2    1    2    0    0  0.00000000000E+00  0.00000000000E+00 -0.61873125873E+03  0.24820526498E+04  0.24036965254E+04 0.  0.
        2    1    3    3  502    0 -0.66103686237E+03  0.89948988205E+03 -0.76929216612E+03  0.13556777708E+04  0.25500000920E-02 0.  1.
       -2    1    3    3    0  502  0.66103686237E+03 -0.89948988205E+03  0.15056090739E+03  0.11263748791E+04  0.25500000920E-02 0. -1.
</event>
<event>
 5   0  0.9083687E-06  0.2414913E+04  0.7818609E-02  0.8433941E-01
       -1   -1    0    0    0  501  0.00000000000E+00  0.00000000000E+00  0.75816031870E+03  0.75816031872E+03  0.50400001928E-02 0.  1.
        1   -1    0    0  501    0  0.00000000000E+00  0.00000000000E+00 -0.19230116956E+04  0.19230116956E+04  0.50400001928E-02 0. -1.
    10030    2    1    2    0    0  0.00000000000E+00  0.00000000000E+00 -0.11648513769E+04  0.26811720143E+04  0.24149129674E+04 0.  0.
        2    1    3    3  502    0  0.54116291370E+03  0.32346261820E+03  0.56090412084E+03  0.84385946538E+03  0.25500000920E-02 0.  1.
       -2    1    3    3    0  502 -0.54116291370E+03 -0.32346261820E+03 -0.17257554977E+04  0.18373125489E+04  0.25500000920E-02 0. -1.
</event>
<event>
 5   0  0.2087882E-05  0.2394505E+04  0.7818609E-02  0.8441564E-01
       -2   -1    0    0    0  501  0.00000000000E+00  0.00000000000E+00  0.20249911147E+04  0.20249911147E+04  0.25500000920E-02 0.  1.
        2   -1    0    0  501    0  0.00000000000E+00  0.00000000000E+00 -0.70786160538E+03  0.70786160538E+03  0.25500000920E-02 0. -1.
    10030    2    1    2    0    0  0.00000000000E+00  0.00000000000E+00  0.13171295093E+04  0.27328527201E+04  0.23945049270E+04 0.  0.
        2    1    3    3  502    0 -0.41307940164E+03  0.93408411671E+03 -0.54420751985E+02  0.10227948706E+04  0.25500000920E-02 0. -1.
       -2    1    3    3    0  502  0.41307940164E+03 -0.93408411671E+03  0.13715502613E+04  0.17100578495E+04  0.25500000920E-02 0.  1.
</event>
<event>
 5   0  0.8898848E-06  0.2391479E+04  0.7818609E-02  0.8442700E-01
        1   -1    0    0  501    0  0.00000000000E+00  0.00000000000E+00  0.12307030055E+04  0.12307030055E+04  0.50400001928E-02 0.  1.
       -1   -1    0    0    0  501  0.00000000000E+00  0.00000000000E+00 -0.11617696924E+04  0.11617696924E+04  0.50400001928E-02 0. -1.
    10030    2    1    2    0    0  0.00000000000E+00  0.00000000000E+00  0.68933313134E+02  0.23924726979E+04  0.23914794184E+04 0.  0.
        5    1    3    3  502    0 -0.97979337157E+02 -0.48759600701E+03 -0.10533770666E+04  0.11648927637E+04  0.46999998093E+01 0. -1.
       -5    1    3    3    0  502  0.97979337157E+02  0.48759600701E+03  0.11223103797E+04  0.12275799342E+04  0.46999998093E+01 0.  1.
</event>
<event>
 5   0  0.2048028E-05  0.2433638E+04  0.7818609E-02  0.8427016E-01
       -2   -1    0    0    0  501  0.00000000000E+00  0.00000000000E+00  0.16057194660E+04  0.16057194660E+04  0.25500000920E-02 0. -1.
        2   -1    0    0  501    0  0.00000000000E+00  0.00000000000E+00 -0.92210894498E+03  0.92210894498E+03  0.25500000920E-02 0.  1.
    10030    2    1    2    0    0  0.00000000000E+00  0.00000000000E+00  0.68361052099E+03  0.25278284110E+04  0.24336378389E+04 0.  0.
        5    1    3    3  502    0  0.99702682566E+03 -0.55155930779E+02 -0.38046469137E+03  0.10685879183E+04  0.46999998093E+01 0. -1.
       -5    1    3    3    0  502 -0.99702682566E+03  0.55155930779E+02  0.10640752124E+04  0.14592404926E+04  0.46999998093E+01 0.  1.
</event>
<event>
 5   0  0.2048028E-05  0.2396386E+04  0.7818609E-02  0.8440858E-01
       -2   -1    0    0    0  501  0.00000000000E+00  0.00000000000E+00  0.67806050329E+03  0.67806050329E+03  0.25500000920E-02 0. -1.
        2   -1    0    0  501    0  0.00000000000E+00  0.00000000000E+00 -0.21173137226E+04  0.21173137226E+04  0.25500000920E-02 0.  1.
    10030    2    1    2    0    0  0.00000000000E+00  0.00000000000E+00 -0.14392532193E+04  0.27953742259E+04  0.23963862864E+04 0.  0.
        5    1    3    3  502    0 -0.14201306484E+03 -0.68784430216E+03 -0.18519972709E+04  0.19807103463E+04  0.46999998093E+01 0.  1.
       -5    1    3    3    0  502  0.14201306484E+03  0.68784430216E+03  0.41274405157E+03  0.81466387959E+03  0.46999998093E+01 0. -1.
</event>
<event>
 5   0  0.2025353E-05  0.2404608E+04  0.7818609E-02  0.8437781E-01
       -2   -1    0    0    0  501  0.00000000000E+00  0.00000000000E+00  0.69895340395E+03  0.69895340395E+03  0.25500000920E-02 0.  1.
        2   -1    0    0  501    0  0.00000000000E+00  0.00000000000E+00 -0.20681411961E+04  0.20681411961E+04  0.25500000920E-02 0. -1.
    10030    2    1    2    0    0  0.00000000000E+00  0.00000000000E+00 -0.13691877921E+04  0.27670946000E+04  0.24046075179E+04 0.  0.
        4    1    3    3  502    0  0.62361397210E+03 -0.87468578822E+03 -0.13059578948E+04  0.16910048049E+04  0.12699999809E+01 0. -1.
       -4    1    3    3    0  502 -0.62361397210E+03  0.87468578822E+03 -0.63229897296E+02  0.10760897951E+04  0.12699999809E+01 0.  1.
</event>
<event>
 5   0  0.8528103E-06  0.2407041E+04  0.7818609E-02  0.8436872E-01
        1   -1    0    0  501    0  0.00000000000E+00  0.00000000000E+00  0.92664328042E+03  0.92664328043E+03  0.50400001928E-02 0.  1.
       -1   -1    0    0    0  501  0.00000000000E+00  0.00000000000E+00 -0.15631277598E+04  0.15631277598E+04  0.50400001928E-02 0. -1.
    10030    2    1    2    0    0  0.00000000000E+00  0.00000000000E+00 -0.63648447936E+03  0.24897710402E+04  0.24070412004E+04 0.  0.
        4    1    3    3  502    0 -0.79791990290E+03  0.79272237184E+03  0.12469918301E+03  0.11316520797E+04  0.12699999809E+01 0.  1.
       -4    1    3    3    0  502  0.79791990290E+03 -0.79272237184E+03 -0.76118366236E+03  0.13581189606E+04  0.12699999809E+01 0. -1.
</event>
<event>
 5   0  0.9083687E-06  0.2398812E+04  0.7818609E-02  0.8439949E-01
        1   -1    0    0  501    0  0.00000000000E+00  0.00000000000E+00  0.14958081796E+04  0.14958081796E+04  0.50400001928E-02 0.  1.
       -1   -1    0    0    0  501  0.00000000000E+00  0.00000000000E+00 -0.96173721174E+03  0.96173721176E+03  0.50400001928E-02 0. -1.
    10030    2    1    2    0    0  0.00000000000E+00  0.00000000000E+00  0.53407096789E+03  0.24575453914E+04  0.23988116958E+04 0.  0.
        2    1    3    3  502    0  0.54133330041E+03  0.56396487314E+03 -0.66489424023E+03  0.10262467885E+04  0.25500000920E-02 0. -1.
       -2    1    3    3    0  502 -0.54133330041E+03 -0.56396487314E+03  0.11989652081E+04  0.14312986029E+04  0.25500000920E-02 0.  1.
</event>
<event>
 5   0  0.2087882E-05  0.2403463E+04  0.7818609E-02  0.8438208E-01
        2   -1    0    0  501    0  0.00000000000E+00  0.00000000000E+00  0.15638111188E+04  0.15638111188E+04  0.25500000920E-02 0. -1.
       -2   -1    0    0    0  501  0.00000000000E+00  0.00000000000E+00 -0.92348675955E+03  0.92348675955E+03  0.25500000920E-02 0.  1.
    10030    2    1    2    0    0  0.00000000000E+00  0.00000000000E+00  0.64032435926E+03  0.24872978784E+04  0.24034632202E+04 0.  0.
        2    1    3    3  502    0 -0.36047767785E+03 -0.95424275132E+03  0.97764587111E+03  0.14129100587E+04  0.25500000920E-02 0. -1.
       -2    1    3    3    0  502  0.36047767785E+03  0.95424275132E+03 -0.33732151185E+03  0.10743878197E+04  0.25500000920E-02 0.  1.
</event>
<event>
 5   0  0.9083687E-06  0.2400269E+04  0.7818609E-02  0.8439403E-01
        1   -1    0    0  501    0  0.00000000000E+00  0.00000000000E+00  0.12710294137E+04  0.12710294137E+04  0.50400001928E-02 0. -1.
       -1   -1    0    0    0  501  0.00000000000E+00  0.00000000000E+00 -0.11331935595E+04  0.11331935595E+04  0.50400001928E-02 0.  1.
    10030    2    1    2    0    0  0.00000000000E+00  0.00000000000E+00  0.13783585418E+03  0.24042229731E+04  0.24002686062E+04 0.  0.
        2    1    3    3  502    0  0.75347252807E+03  0.19875262123E+03 -0.84532829795E+03  0.11496970846E+04  0.25500000920E-02 0.  1.
       -2    1    3    3    0  502 -0.75347252807E+03 -0.19875262123E+03  0.98316415213E+03  0.12545258886E+04  0.25500000920E-02 0. -1.
</event>
<event>
 5   0  0.2122194E-05  0.2291369E+04  0.7818609E-02  0.8481332E-01
       -2   -1    0    0    0  501  0.00000000000E+00  0.00000000000E+00  0.54784961153E+03  0.54784961154E+03  0.25500000920E-02 0.  1.
        2   -1    0    0  501    0  0.00000000000E+00  0.00000000000E+00 -0.23959003170E+04  0.23959003170E+04  0.25500000920E-02 0. -1.
    10030    2    1    2    0    0  0.00000000000E+00  0.00000000000E+00 -0.18480507054E+04  0.29437499285E+04  0.22913690737E+04 0.  0.
        3    1    3    3  502    0 -0.65331459735E+03 -0.35865665414E+03  0.19385038093E+03  0.77008605951E+03  0.10100000352E+00 0.  1.
       -3    1    3    3    0  502  0.65331459735E+03  0.35865665414E+03 -0.20419010864E+04  0.21736638690E+04  0.10100000352E+00 0. -1.
</event>
<event>
 5   0  0.2048028E-05  0.2398500E+04  0.7818609E-02  0.8440065E-01
        2   -1    0    0  501    0  0.00000000000E+00  0.00000000000E+00  0.12185729943E+04  0.12185729943E+04  0.25500000920E-02 0. -1.
       -2   -1    0    0    0  501  0.00000000000E+00  0.00000000000E+00 -0.11802331780E+04  0.11802331780E+04  0.25500000920E-02 0.  1.
    10030    2    1    2    0    0  0.00000000000E+00  0.00000000000E+00  0.38339816256E+02  0.23988061723E+04  0.23984997625E+04 0.  0.
        5    1    3    3  502    0 -0.43355897510E+03  0.74848586296E+03  0.84992258859E+03  0.12126809014E+04  0.46999998093E+01 0. -1.
       -5    1    3    3    0  502  0.43355897510E+03 -0.74848586296E+03 -0.81158277233E+03  0.11861252709E+04  0.46999998093E+01 0.  1.
</event>
<event>
 5   0  0.8898848E-06  0.2375707E+04  0.7818609E-02  0.8448655E-01
       -1   -1    0    0    0  501  0.00000000000E+00  0.00000000000E+00  0.53817261004E+03  0.53817261006E+03  0.50400001928E-02 0.  1.
        1   -1    0    0  501    0  0.00000000000E+00  0.00000000000E+00 -0.26218268449E+04  0.26218268449E+04  0.50400001928E-02 0. -1.
    10030    2    1    2    0    0  0.00000000000E+00  0.00000000000E+00 -0.20836542349E+04  0.31599994550E+04  0.23757065444E+04 0.  0.
        5    1    3    3  502    0 -0.48851259278E+03  0.10229669953E+03 -0.24755720212E+04  0.25253887009E+04  0.46999998093E+01 0. -1.
       -5    1    3    3    0  502  0.48851259278E+03 -0.10229669953E+03  0.39191778634E+03  0.63461075415E+03  0.46999998093E+01 0.  1.
</event>
<event>
 5   0  0.9176817E-06  0.2401083E+04  0.7818609E-02  0.8439098E-01
        1   -1    0    0  501    0  0.00000000000E+00  0.00000000000E+00  0.16926259721E+04  0.16926259721E+04  0.50400001928E-02 0. -1.
       -1   -1    0    0    0  501  0.00000000000E+00  0.00000000000E+00 -0.85151706591E+03  0.85151706592E+03  0.50400001928E-02 0.  1.
    10030    2    1    2    0    0  0.00000000000E+00  0.00000000000E+00  0.84110890616E+03  0.25441430380E+04  0.24010830069E+04 0.  0.
        3    1    3    3  502    0  0.15008441786E+03 -0.88931541100E+03 -0.41905448502E+03  0.99449178194E+03  0.10100000352E+00 0.  1.
       -3    1    3    3    0  502 -0.15008441786E+03  0.88931541100E+03  0.12601633912E+04  0.15496512561E+04  0.10100000352E+00 0. -1.
</event>
<event>
 5   0  0.2122194E-05  0.2294482E+04  0.7818609E-02  0.8480100E-01
        2   -1    0    0  501    0  0.00000000000E+00  0.00000000000E+00  0.23358637495E+04  0.23358637495E+04  0.25500000920E-02 0.  1.
       -2   -1    0    0    0  501  0.00000000000E+00  0.00000000000E+00 -0.56345829130E+03  0.56345829131E+03  0.25500000920E-02 0. -1.
    10030    2    1    2    0    0  0.00000000000E+00  0.00000000000E+00  0.17724054582E+04  0.28993220408E+04  0.22944818997E+04 0.  0.
        3    1    3    3  502    0  0.48511404076E+03  0.34151323461E+03 -0.35457568126E+03  0.69115182550E+03  0.10100000352E+00 0. -1.
       -3    1    3    3    0  502 -0.48511404076E+03 -0.34151323461E+03  0.21269811395E+04  0.22081702153E+04  0.10100000352E+00 0.  1.
</event>
<event>
 5   0  0.2025353E-05  0.2416841E+04  0.7818609E-02  0.8433225E-01
       -2   -1    0    0    0  501  0.00000000000E+00  0.00000000000E+00  0.98183624599E+03  0.98183624599E+03  0.25500000920E-02 0.  1.
        2   -1    0    0  501    0  0.00000000000E+00  0.00000000000E+00 -0.14872953343E+04  0.14872953343E+04  0.25500000920E-02 0. -1.
    10030    2    1    2    0    0  0.00000000000E+00  0.00000000000E+00 -0.50545908830E+03  0.24691315803E+04  0.24168413003E+04 0.  0.
        4    1    3    3  502    0  0.86775017790E+03  0.56455013008E+03  0.38411238207E+03  0.11041970637E+04  0.12699999809E+01 0.  1.
       -4    1    3    3    0  502 -0.86775017790E+03 -0.56455013008E+03 -0.88957147037E+03  0.13649345165E+04  0.12699999809E+01 0. -1.
</event>
<event>
 5   0  0.2080257E-05  0.2374695E+04  0.7818609E-02  0.8449039E-01
        2   -1    0    0  501    0  0.00000000000E+00  0.00000000000E+00  0.22274701144E+04  0.22274701144E+04  0.25500000920E-02 0. -1.
       -2   -1    0    0    0  501  0.00000000000E+00  0.00000000000E+00 -0.63291261989E+03  0.63291261989E+03  0.25500000920E-02 0.  1.
    10030    2    1    2    0    0  0.00000000000E+00  0.00000000000E+00  0.15945574945E+04  0.28603827343E+04  0.23746948821E+04 0.  0.
        1    1    3    3  502    0  0.63560394573E+03  0.72259868057E+02 -0.40759698773E+03  0.75851774455E+03  0.50400001928E-02 0.  1.
       -1    1    3    3    0  502 -0.63560394573E+03 -0.72259868057E+02  0.20021544822E+04  0.21018649897E+04  0.50400001928E-02 0. -1.
</event>
<event>
 5   0  0.2087882E-05  0.2431831E+04  0.7818609E-02  0.8427682E-01
        2   -1    0    0  501    0  0.00000000000E+00  0.00000000000E+00  0.17626069344E+04  0.17626069344E+04  0.25500000920E-02 0.  1.
       -2   -1    0    0    0  501  0.00000000000E+00  0.00000000000E+00 -0.83878645105E+03  0.83878645106E+03  0.25500000920E-02 0. -1.
    10030    2    1    2    0    0  0.00000000000E+00  0.00000000000E+00  0.92382048336E+03  0.26013933855E+04  0.24318312566E+04 0.  0.
        2    1    3    3  502    0 -0.11498649622E+04 -0.39518510298E+03  0.47206521761E+03  0.13043029811E+04  0.25500000920E-02 0.  1.
       -2    1    3    3    0  502  0.11498649622E+04  0.39518510298E+03  0.45175526575E+03  0.12970904043E+04  0.25500000920E-02 0. -1.
</event>
<event>
 5   0  0.9038897E-06  0.2402284E+04  0.7818609E-02  0.8438649E-01
       -1   -1    0    0    0  501  0.00000000000E+00  0.00000000000E+00  0.74240142059E+03  0.74240142060E+03  0.50400001928E-02 0. -1.
        1   -1    0    0  501    0  0.00000000000E+00  0.00000000000E+00 -0.19433450970E+04  0.19433450970E+04  0.50400001928E-02 0.  1.
    10030    2    1    2    0    0  0.00000000000E+00  0.00000000000E+00 -0.12009436764E+04  0.26857465176E+04  0.24022840471E+04 0.  0.
        1    1    3    3  502    0  0.71020470274E+02 -0.21916528315E+03  0.71746833894E+03  0.75355036059E+03  0.50400001928E-02 0. -1.
       -1    1    3    3    0  502 -0.71020470274E+02  0.21916528315E+03 -0.19184120153E+04  0.19321961570E+04  0.50400001928E-02 0.  1.
</event>
<event>
 5   0  0.2080257E-05  0.2398606E+04  0.7818609E-02  0.8440026E-01
        2   -1    0    0  501    0  0.00000000000E+00  0.00000000000E+00  0.14299392165E+04  0.14299392165E+04  0.25500000920E-02 0. -1.
       -2   -1    0    0    0  501  0.00000000000E+00  0.00000000000E+00 -0.10058659931E+04  0.10058659931E+04  0.25500000920E-02 0.  1.
    10030    2    1    2    0    0  0.00000000000E+00  0.00000000000E+00  0.42407322338E+03  0.24358052096E+04  0.23986056200E+04 0.  0.
        1    1    3    3  502    0  0.21013529265E+03  0.99019514494E+03 -0.44112108836E+03  0.11041879735E+04  0.50400001928E-02 0.  1.
       -1    1    3    3    0  502 -0.21013529265E+03 -0.99019514494E+03  0.86519431174E+03  0.13316172361E+04  0.50400001928E-02 0. -1.
</event>
<event>
 5   0  0.2025353E-05  0.2402724E+04  0.7818609E-02  0.8438484E-01
       -2   -1    0    0    0  501  0.00000000000E+00  0.00000000000E+00  0.13484606953E+04  0.13484606953E+04  0.25500000920E-02 0. -1.
        2   -1    0    0  501    0  0.00000000000E+00  0.00000000000E+00 -0.10703100562E+04  0.10703100562E+04  0.25500000920E-02 0.  1.
    10030    2    1    2    0    0  0.00000000000E+00  0.00000000000E+00  0.27815063907E+03  0.24187707515E+04  0.24027243226E+04 0.  0.
        4    1    3    3  502    0  0.57408442399E+03 -0.10319481725E+04  0.36141107791E+03  0.12349532528E+04  0.12699999809E+01 0.  1.
       -4    1    3    3    0  502 -0.57408442399E+03  0.10319481725E+04 -0.83260438840E+02  0.11838174987E+04  0.12699999809E+01 0. -1.
</event>
<event>
 5   0  0.2122194E-05  0.2406841E+04  0.7818609E-02  0.8436947E-01
       -2   -1    0    0    0  501  0.00000000000E+00  0.00000000000E+00  0.10280150179E+04  0.10280150179E+04  0.25500000920E-02 0.  1.
        2   -1    0    0  501    0  0.00000000000E+00  0.00000000000E+00 -0.14087550103E+04  0.14087550103E+04  0.25500000920E-02 0. -1.
    10030    2    1    2    0    0  0.00000000000E+00  0.00000000000E+00 -0.38073999233E+03  0.24367700282E+04  0.24068413385E+04 0.  0.
        3    1    3    3  502    0  0.57144086296E+03  0.97461017116E+03 -0.61002594926E+03  0.12839553398E+04  0.10100000352E+00 0. -1.
       -3    1    3    3    0  502 -0.57144086296E+03 -0.97461017116E+03  0.22928595693E+03  0.11528146884E+04  0.10100000352E+00 0.  1.
</event>
<event>
 5   0  0.8898848E-06  0.2404268E+04  0.7818609E-02  0.8437908E-01
       -1   -1    0    0    0  501  0.00000000000E+00  0.00000000000E+00  0.79401321627E+03  0.79401321629E+03  0.50400001928E-02 0.  1.
        1   -1    0    0  501    0  0.00000000000E+00  0.00000000000E+00 -0.18200273943E+04  0.18200273943E+04  0.50400001928E-02 0. -1.
    10030    2    1    2    0    0  0.00000000000E+00  0.00000000000E+00 -0.10260141780E+04  0.26140406106E+04  0.24042677098E+04 0.  0.
        5    1    3    3  502    0 -0.34538522871E+03  0.10274129873E+04 -0.10782050103E+04  0.15288611896E+04  0.46999998093E+01 0. -1.
       -5    1    3    3    0  502  0.34538522871E+03 -0.10274129873E+04  0.52190832307E+02  0.10851794210E+04  0.46999998093E+01 0.  1.
</event>
<event>
 5   0  0.9083687E-06  0.2410308E+04  0.7818609E-02  0.8435654E-01
        1   -1    0    0  501    0  0.00000000000E+00  0.00000000000E+00  0.12485741704E+04  0.12485741704E+04  0.50400001928E-02 0.  1.
       -1   -1    0    0    0  501  0.00000000000E+00  0.00000000000E+00 -0.11632441573E+04  0.11632441574E+04  0.50400001928E-02 0. -1.
    10030    2    1    2    0    0  0.00000000000E+00  0.00000000000E+00  0.85330013020E+02  0.24118183277E+04  0.24103083692E+04 0.  0.
        2    1    3    3  502    0  0.89771821122E+03  0.78467942756E+03  0.21820813735E+03  0.12121198711E+04  0.25500000920E-02 0.  1.
       -2    1    3    3    0  502 -0.89771821122E+03 -0.78467942756E+03 -0.13287812433E+03  0.11996984566E+04  0.25500000920E-02 0. -1.
</event>
<event>
 5   0  0.2080257E-05  0.2420418E+04  0.7818609E-02  0.8431899E-01
        2   -1    0    0  501    0  0.00000000000E+00  0.00000000000E+00  0.15778058475E+04  0.15778058475E+04  0.25500000920E-02 0.  1.
       -2   -1    0    0    0  501  0.00000000000E+00  0.00000000000E+00 -0.92825503763E+03  0.92825503763E+03  0.25500000920E-02 0. -1.
    10030    2    1    2    0    0  0.00000000000E+00  0.00000000000E+00  0.64955080989E+03  0.25060608852E+04  0.24204183327E+04 0.  0.
        1    1    3    3  502    0 -0.22110682443E+03  0.84969661002E+02  0.15535700939E+04  0.15715241353E+04  0.50400001928E-02 0.  1.
       -1    1    3    3    0  502  0.22110682443E+03 -0.84969661002E+02 -0.90401928397E+03  0.93453674990E+03  0.50400001928E-02 0. -1.
</event>
<event>
 5   0  0.2025353E-05  0.2400417E+04  0.7818609E-02  0.8439347E-01
       -2   -1    0    0    0  501  0.00000000000E+00  0.00000000000E+00  0.46649935017E+03  0.46649935017E+03  0.25500000920E-02 0.  1.
        2   -1    0    0  501    0  0.00000000000E+00  0.00000000000E+00 -0.30878936531E+04  0.30878936531E+04  0.25500000920E-02 0. -1.
    10030    2    1    2    0    0  0.00000000000E+00  0.00000000000E+00 -0.26213943030E+04  0.35543930033E+04  0.24004169493E+04 0.  0.
        4    1    3    3  502    0  0.48592837293E+03  0.50257346079E+03  0.13391031370E+03  0.71178652146E+03  0.12699999809E+01 0.  1.
       -4    1    3    3    0  502 -0.48592837293E+03 -0.50257346079E+03 -0.27553046167E+04  0.28426064819E+04  0.12699999809E+01 0. -1.
</event>
<event>
 5   0  0.2122194E-05  0.2397111E+04  0.7818609E-02  0.8440586E-01
       -2   -1    0    0    0  501  0.00000000000E+00  0.00000000000E+00  0.96014959593E+03  0.96014959593E+03  0.25500000920E-02 0.  1.
        2   -1    0    0  501    0  0.00000000000E+00  0.00000000000E+00 -0.14961579487E+04  0.14961579487E+04  0.25500000920E-02 0. -1.
    10030    2    1    2    0    0  0.00000000000E+00  0.00000000000E+00 -0.53600835276E+03  0.24563075446E+04  0.23971111363E+04 0.  0.
        3    1    3    3  502    0  0.73164626896E+03  0.62783004662E+03 -0.99766940878E+03  0.13873792163E+04  0.10100000352E+00 0. -1.
       -3    1    3    3    0  502 -0.73164626896E+03 -0.62783004662E+03  0.46166105602E+03  0.10689283284E+04  0.10100000352E+00 0.  1.
</event>
<event>
 5   0  0.9038897E-06  0.2416195E+04  0.7818609E-02  0.8433465E-01
        1   -1    0    0  501    0  0.00000000000E+00  0.00000000000E+00  0.11387260032E+04  0.11387260032E+04  0.50400001928E-02 0. -1.
       -1   -1    0    0    0  501  0.00000000000E+00  0.00000000000E+00 -0.12816949878E+04  0.12816949878E+04  0.50400001928E-02 0.  1.
    10030    2    1    2    0    0  0.00000000000E+00  0.00000000000E+00 -0.14296898457E+03  0.24204209910E+04  0.24161948687E+04 0.  0.
        1    1    3    3  502    0  0.38671470259E+03 -0.55868612803E+03 -0.10721415532E+04  0.12693171238E+04  0.50400001928E-02 0.  1.
       -1    1    3    3    0  502 -0.38671470259E+03  0.55868612803E+03  0.92917256859E+03  0.11511038672E+04  0.50400001928E-02 0. -1.
</event>
<event>
 5   0  0.2087882E-05  0.2403231E+04  0.7818609E-02  0.8438295E-01
       -2   -1    0    0    0  501  0.00000000000E+00  0.00000000000E+00  0.10617770247E+04  0.10617770247E+04  0.25500000920E-02 0. -1.
        2   -1    0    0  501    0  0.00000000000E+00  0.00000000000E+00 -0.13598710322E+04  0.13598710322E+04  0.25500000920E-02 0.  1.
    10030    2    1    2    0    0  0.00000000000E+00  0.00000000000E+00 -0.29809400748E+03  0.24216480568E+04  0.24032310072E+04 0.  0.
        2    1    3    3  502    0  0.11698893749E+04 -0.86525562093E+02 -0.41133387638E+03  0.12431103653E+04  0.25500000920E-02 0. -1.
       -2    1    3    3    0  502 -0.11698893749E+04  0.86525562093E+02  0.11323986890E+03  0.11785376915E+04  0.25500000920E-02 0.  1.
</event>
<event>
 5   0  0.9038897E-06  0.2509262E+04  0.7818609E-02  0.8399693E-01
       -1   -1    0    0    0  501  0.00000000000E+00  0.00000000000E+00  0.11315280864E+04  0.11315280864E+04  0.50400001928E-02 0.  1.
        1   -1    0    0  501    0  0.00000000000E+00  0.00000000000E+00 -0.13911265320E+04  0.13911265320E+04  0.50400001928E-02 0. -1.
    10030    2    1    2    0    0  0.00000000000E+00  0.00000000000E+00 -0.25959844564E+03  0.25226546184E+04  0.25092618378E+04 0.  0.
        1    1    3    3  502    0  0.95501581688E+03  0.70062450059E+03 -0.54573297920E+03  0.13041297427E+04  0.50400001928E-02 0. -1.
       -1    1    3    3    0  502 -0.95501581688E+03 -0.70062450059E+03  0.28613453355E+03  0.12185248757E+04  0.50400001928E-02 0.  1.
</event>
<event>
 5   0  0.9083687E-06  0.2392566E+04  0.7818609E-02  0.8442292E-01
        1   -1    0    0  501    0  0.00000000000E+00  0.00000000000E+00  0.11076490116E+04  0.11076490116E+04  0.50400001928E-02 0. -1.
       -1   -1    0    0    0  501  0.00000000000E+00  0.00000000000E+00 -0.12920091364E+04  0.12920091364E+04  0.50400001928E-02 0.  1.
    10030    2    1    2    0    0  0.00000000000E+00  0.00000000000E+00 -0.18436012484E+03  0.23996581480E+04  0.23925656881E+04 0.  0.
        2    1    3    3  502    0 -0.44784603517E+02  0.54193221021E+03 -0.11608885910E+04  0.12819354515E+04  0.25500000920E-02 0.  1.
       -2    1    3    3    0  502  0.44784603517E+02 -0.54193221021E+03  0.97652846611E+03  0.11177226965E+04  0.25500000920E-02 0. -1.
</event>
<event>
 5   0  0.2048028E-05  0.2260622E+04  0.7818609E-02  0.8493611E-01
       -2   -1    0    0    0  501  0.00000000000E+00  0.00000000000E+00  0.11877975376E+04  0.11877975376E+04  0.25500000920E-02 0.  1.
        2   -1    0    0  501    0  0.00000000000E+00  0.00000000000E+00 -0.10756068818E+04  0.10756068818E+04  0.25500000920E-02 0. -1.
    10030    2    1    2    0    0  0.00000000000E+00  0.00000000000E+00  0.11219065578E+03  0.22634044194E+04  0.22606222202E+04 0.  0.
        5    1    3    3  502    0 -0.35754653746E+02  0.20031595588E+02  0.11870435805E+04  0.11877601660E+04  0.46999998093E+01 0.  1.
       -5    1    3    3    0  502  0.35754653746E+02 -0.20031595588E+02 -0.10748529247E+04  0.10756442534E+04  0.46999998093E+01 0. -1.
</event>
<event>
 5   0  0.9038897E-06  0.2265167E+04  0.7818609E-02  0.8491783E-01
       -1   -1    0    0    0  501  0.00000000000E+00  0.00000000000E+00  0.13126938346E+04  0.13126938346E+04  0.50400001928E-02 0. -1.
        1   -1    0    0  501    0  0.00000000000E+00  0.00000000000E+00 -0.97718573688E+03  0.97718573689E+03  0.50400001928E-02 0.  1.
    10030    2    1    2    0    0  0.00000000000E+00  0.00000000000E+00  0.33550809775E+03  0.22898795715E+04  0.22651672716E+04 0.  0.
        1    1    3    3  502    0  0.30160225626E+03 -0.45544284978E+03  0.11707240133E+04  0.12918927299E+04  0.50400001928E-02 0. -1.
       -1    1    3    3    0  502 -0.30160225626E+03  0.45544284978E+03 -0.83521591553E+03  0.99798684158E+03  0.50400001928E-02 0.  1.
</event>
<event>
 5   0  0.2025353E-05  0.2397660E+04  0.7818609E-02  0.8440380E-01
       -2   -1    0    0    0  501  0.00000000000E+00  0.00000000000E+00  0.79306160152E+03  0.79306160153E+03  0.25500000920E-02 0. -1.
        2   -1    0    0  501    0  0.00000000000E+00  0.00000000000E+00 -0.18122086003E+04  0.18122086003E+04  0.25500000920E-02 0.  1.
    10030    2    1    2    0    0  0.00000000000E+00  0.00000000000E+00 -0.10191469988E+04  0.26052702018E+04  0.23976597380E+04 0.  0.
        4    1    3    3  502    0 -0.79860788142E+02 -0.11533186829E+03 -0.18032587685E+04  0.18087075453E+04  0.12699999809E+01 0.  1.
       -4    1    3    3    0  502  0.79860788142E+02  0.11533186829E+03  0.78411176977E+03  0.79656265649E+03  0.12699999809E+01 0. -1.
</event>
<event>
 5   0  0.7233625E-06  0.2376492E+04  0.7818609E-02  0.8448357E-01
        3   -1    0    0  501    0  0.00000000000E+00  0.00000000000E+00  0.12736771565E+04  0.12736771605E+04  0.10100000352E+00 0.  1.
       -3   -1    0    0    0  501  0.00000000000E+00  0.00000000000E+00 -0.11085450697E+04  0.11085450743E+04  0.10100000352E+00 0. -1.
    10030    2    1    2    0    0  0.00000000000E+00  0.00000000000E+00  0.16513208683E+03  0.23822222348E+04  0.23764919882E+04 0.  0.
        2    1    3    3  502    0 -0.19423345614E+03  0.43283673433E+03 -0.10094892225E+04  0.11154114777E+04  0.25500000920E-02 0. -1.
       -2    1    3    3    0  502  0.19423345614E+03 -0.43283673433E+03  0.11746213094E+04  0.12668107572E+04  0.25500000920E-02 0.  1.
</event>
<event>
 5   0  0.2122194E-05  0.2407795E+04  0.7818609E-02  0.8436591E-01
        2   -1    0    0  501    0  0.00000000000E+00  0.00000000000E+00  0.13036306623E+04  0.13036306623E+04  0.25500000920E-02 0. -1.
       -2   -1    0    0    0  501  0.00000000000E+00  0.00000000000E+00 -0.11117947813E+04  0.11117947813E+04  0.25500000920E-02 0.  1.
    10030    2    1    2    0    0  0.00000000000E+00  0.00000000000E+00  0.19183588100E+03  0.24154254436E+04  0.24077954789E+04 0.  0.
        3    1    3    3  502    0 -0.19869115925E+03 -0.75582610134E+03  0.10145810090E+04  0.12806740047E+04  0.10100000352E+00 0. -1.
       -3    1    3    3    0  502  0.19869115925E+03  0.75582610134E+03 -0.82274512804E+03  0.11347514389E+04  0.10100000352E+00 0.  1.
</event>
<event>
 5   0  0.2122194E-05  0.2408406E+04  0.7818609E-02  0.8436363E-01
        2   -1    0    0  501    0  0.00000000000E+00  0.00000000000E+00  0.26733082724E+04  0.26733082724E+04  0.25500000920E-02 0. -1.
       -2   -1    0    0    0  501  0.00000000000E+00  0.00000000000E+00 -0.54243811277E+03  0.54243811278E+03  0.25500000920E-02 0.  1.
    10030    2    1    2    0    0  0.00000000000E+00  0.00000000000E+00  0.21308701597E+04  0.32157463852E+04  0.24084055258E+04 0.  0.
        3    1    3    3  502    0  0.55629684724E+03 -0.62836108254E+03  0.22185258508E+04  0.23719529492E+04  0.10100000352E+00 0. -1.
       -3    1    3    3    0  502 -0.55629684724E+03  0.62836108254E+03 -0.87655691128E+02  0.84379343603E+03  0.10100000352E+00 0.  1.
</event>
<event>
 5   0  0.9176817E-06  0.2277899E+04  0.7818609E-02  0.8486687E-01
       -1   -1    0    0    0  501  0.00000000000E+00  0.00000000000E+00  0.11140783359E+04  0.11140783359E+04  0.50400001928E-02 0. -1.
        1   -1    0    0  501    0  0.00000000000E+00  0.00000000000E+00 -0.11643757036E+04  0.11643757036E+04  0.50400001928E-02 0.  1.
    10030    2    1    2    0    0  0.00000000000E+00  0.00000000000E+00 -0.50297367697E+02  0.22784540395E+04  0.22778988092E+04 0.  0.
        3    1    3    3  502    0  0.34931073990E+03  0.80812493226E+03  0.69760742912E+03  0.11232720216E+04  0.10100000352E+00 0. -1.
       -3    1    3    3    0  502 -0.34931073990E+03 -0.80812493226E+03 -0.74790479682E+03  0.11551820179E+04  0.10100000352E+00 0.  1.
</event>
<event>
 5   0  0.2087882E-05  0.2353134E+04  0.7818609E-02  0.8457261E-01
       -2   -1    0    0    0  501  0.00000000000E+00  0.00000000000E+00  0.13710048211E+04  0.13710048211E+04  0.25500000920E-02 0.  1.
        2   -1    0    0  501    0  0.00000000000E+00  0.00000000000E+00 -0.10097048296E+04  0.10097048296E+04  0.25500000920E-02 0. -1.
    10030    2    1    2    0    0  0.00000000000E+00  0.00000000000E+00  0.36129999147E+03  0.23807096508E+04  0.23531342413E+04 0.  0.
        2    1    3    3  502    0  0.35723545298E+03  0.93696940479E+03 -0.44201438909E+03  0.10958583643E+04  0.25500000920E-02 0. -1.
       -2    1    3    3    0  502 -0.35723545298E+03 -0.93696940479E+03  0.80331438055E+03  0.12848512865E+04  0.25500000920E-02 0.  1.
</event>
<event>
 5   0  0.2025353E-05  0.2396899E+04  0.7818609E-02  0.8440665E-01
        2   -1    0    0  501    0  0.00000000000E+00  0.00000000000E+00  0.19132909535E+04  0.19132909535E+04  0.25500000920E-02 0. -1.
       -2   -1    0    0    0  501  0.00000000000E+00  0.00000000000E+00 -0.75068624177E+03  0.75068624177E+03  0.25500000920E-02 0.  1.
    10030    2    1    2    0    0  0.00000000000E+00  0.00000000000E+00  0.11626047117E+04  0.26639771953E+04  0.23968989927E+04 0.  0.
        4    1    3    3  502    0 -0.40340693739E+03  0.53816409602E+02  0.18341350959E+04  0.18787459982E+04  0.12699999809E+01 0. -1.
       -4    1    3    3    0  502  0.40340693739E+03 -0.53816409602E+02 -0.67153038414E+03  0.78523119704E+03  0.12699999809E+01 0.  1.
</event>
<event>
 5   0  0.2025353E-05  0.2396718E+04  0.7818609E-02  0.8440733E-01
       -2   -1    0    0    0  501  0.00000000000E+00  0.00000000000E+00  0.87051710004E+03  0.87051710005E+03  0.25500000920E-02 0.  1.
        2   -1    0    0  501    0  0.00000000000E+00  0.00000000000E+00 -0.16496674677E+04  0.16496674677E+04  0.25500000920E-02 0. -1.
    10030    2    1    2    0    0  0.00000000000E+00  0.00000000000E+00 -0.77915036763E+03  0.25201845677E+04  0.23967175386E+04 0.  0.
        4    1    3    3  502    0 -0.16632648422E+02 -0.24785636815E+03 -0.16222956158E+04  0.16412050762E+04  0.12699999809E+01 0. -1.
       -4    1    3    3    0  502  0.16632648422E+02  0.24785636815E+03  0.84314524813E+03  0.87897949155E+03  0.12699999809E+01 0.  1.
</event>
<event>
 5   0  0.8528103E-06  0.2401054E+04  0.7818609E-02  0.8439109E-01
        1   -1    0    0  501    0  0.00000000000E+00  0.00000000000E+00  0.13015552701E+04  0.13015552701E+04  0.50400001928E-02 0. -1.
       -1   -1    0    0    0  501  0.00000000000E+00  0.00000000000E+00 -0.11073403067E+04  0.11073403068E+04  0.50400001928E-02 0.  1.
    10030    2    1    2    0    0  0.00000000000E+00  0.00000000000E+00  0.19421496331E+03  0.24088955768E+04  0.24010536121E+04 0.  0.
        4    1    3    3  502    0  0.44136400044E+02  0.10740934526E+04  0.63330436506E+03  0.12476781630E+04  0.12699999809E+01 0. -1.
       -4    1    3    3    0  502 -0.44136400044E+02 -0.10740934526E+04 -0.43908940174E+03  0.11612174139E+04  0.12699999809E+01 0.  1.
</event>
<event>
 5   0  0.9176817E-06  0.2455954E+04  0.7818609E-02  0.8418847E-01
       -1   -1    0    0    0  501  0.00000000000E+00  0.00000000000E+00  0.89028307580E+03  0.89028307582E+03  0.50400001928E-02 0. -1.
        1   -1    0    0  501    0  0.00000000000E+00  0.00000000000E+00 -0.16937617438E+04  0.16937617438E+04  0.50400001928E-02 0.  1.
    10030    2    1    2    0    0  0.00000000000E+00  0.00000000000E+00 -0.80347866795E+03  0.25840448196E+04  0.24559539205E+04 0.  0.
        3    1    3    3  502    0 -0.37774419987E+03 -0.54638248410E+03 -0.14884190658E+04  0.16299128275E+04  0.10100000352E+00 0.  1.
       -3    1    3    3    0  502  0.37774419987E+03  0.54638248410E+03  0.68494039789E+03  0.95413199209E+03  0.10100000352E+00 0. -1.
</event>
<event>
 5   0  0.9038897E-06  0.2410989E+04  0.7818609E-02  0.8435401E-01
       -1   -1    0    0    0  501  0.00000000000E+00  0.00000000000E+00  0.82525420016E+03  0.82525420017E+03  0.50400001928E-02 0.  1.
        1   -1    0    0  501    0  0.00000000000E+00  0.00000000000E+00 -0.17609319677E+04  0.17609319677E+04  0.50400001928E-02 0. -1.
    10030    2    1    2    0    0  0.00000000000E+00  0.00000000000E+00 -0.93567776758E+03  0.25861861679E+04  0.24109885961E+04 0.  0.
        1    1    3    3  502    0  0.51716679406E+03  0.97045517855E+03 -0.99766627218E+03  0.14847837341E+04  0.50400001928E-02 0. -1.
       -1    1    3    3    0  502 -0.51716679406E+03 -0.97045517855E+03  0.61988504598E+02  0.11014024338E+04  0.50400001928E-02 0.  1.
</event>
<event>
 5   0  0.8528103E-06  0.2438769E+04  0.7818609E-02  0.8425130E-01
       -1   -1    0    0    0  501  0.00000000000E+00  0.00000000000E+00  0.12091877731E+04  0.12091877731E+04  0.50400001928E-02 0.  1.
        1   -1    0    0  501    0  0.00000000000E+00  0.00000000000E+00 -0.12296674104E+04  0.12296674104E+04  0.50400001928E-02 0. -1.
    10030    2    1    2    0    0  0.00000000000E+00  0.00000000000E+00 -0.20479637271E+02  0.24388551835E+04  0.24387691958E+04 0.  0.
        4    1    3    3  502    0 -0.25712993745E+03 -0.43723802970E+02  0.11809653130E+04  0.12094247637E+04  0.12699999809E+01 0.  1.
       -4    1    3    3    0  502  0.25712993745E+03  0.43723802970E+02 -0.12014449503E+04  0.12294304198E+04  0.12699999809E+01 0. -1.
</event>
<event>
 5   0  0.9038897E-06  0.2391490E+04  0.7818609E-02  0.8442697E-01
        1   -1    0    0  501    0  0.00000000000E+00  0.00000000000E+00  0.11094004674E+04  0.11094004674E+04  0.50400001928E-02 0. -1.
       -1   -1    0    0    0  501  0.00000000000E+00  0.00000000000E+00 -0.12888094576E+04  0.12888094576E+04  0.50400001928E-02 0.  1.
    10030    2    1    2    0    0  0.00000000000E+00  0.00000000000E+00 -0.17940899017E+03  0.23982099250E+04  0.23914897572E+04 0.  0.
        1    1    3    3  502    0 -0.91544807566E+03 -0.44499834892E+03  0.53954350323E+03  0.11520312069E+04  0.50400001928E-02 0. -1.
       -1    1    3    3    0  502  0.91544807566E+03  0.44499834892E+03 -0.71895249340E+03  0.12461787181E+04  0.50400001928E-02 0.  1.
</event>
<event>
 5   0  0.2087882E-05  0.2626313E+04  0.7818609E-02  0.8359318E-01
        2   -1    0    0  501    0  0.00000000000E+00  0.00000000000E+00  0.13654134469E+04  0.13654134469E+04  0.25500000920E-02 0.  1.
       -2   -1    0    0    0  501  0.00000000000E+00  0.00000000000E+00 -0.12628994355E+04  0.12628994355E+04  0.25500000920E-02 0. -1.
    10030    2    1    2    0    0  0.00000000000E+00  0.00000000000E+00  0.10251401142E+03  0.26283128824E+04  0.26263129069E+04 0.  0.
        2    1    3    3  502    0  0.52714726204E+03  0.88842778994E+03  0.86254795269E+03  0.13457998159E+04  0.25500000920E-02 0.  1.
       -2    1    3    3    0  502 -0.52714726204E+03 -0.88842778994E+03 -0.76003394127E+03  0.12825130665E+04  0.25500000920E-02 0. -1.
</event>
<event>
 5   0  0.8528103E-06  0.2290213E+04  0.7818609E-02  0.8481790E-01
       -1   -1    0    0    0  501  0.00000000000E+00  0.00000000000E+00  0.95466334935E+03  0.95466334936E+03  0.50400001928E-02 0.  1.
        1   -1    0    0  501    0  0.00000000000E+00  0.00000000000E+00 -0.13735401309E+04  0.13735401309E+04  0.50400001928E-02 0. -1.
    10030    2    1    2    0    0  0.00000000000E+00  0.00000000000E+00 -0.41887678153E+03  0.23282034802E+04  0.22902125856E+04 0.  0.
        4    1    3    3  502    0 -0.13605469990E+03 -0.43237930727E+03  0.85957766406E+03  0.97177061089E+03  0.12699999809E+01 0.  1.
       -4    1    3    3    0  502  0.13605469990E+03  0.43237930727E+03 -0.12784544456E+04  0.13564328694E+04  0.12699999809E+01 0. -1.
</event>
<event>
 5   0  0.2087882E-05  0.2390154E+04  0.7818609E-02  0.8443199E-01
       -2   -1    0    0    0  501  0.00000000000E+00  0.00000000000E+00  0.99271579480E+03  0.99271579480E+03  0.25500000920E-02 0.  1.
        2   -1    0    0  501    0  0.00000000000E+00  0.00000000000E+00 -0.14386892969E+04  0.14386892969E+04  0.25500000920E-02 0. -1.
    10030    2    1    2    0    0  0.00000000000E+00  0.00000000000E+00 -0.44597350213E+03  0.24314050917E+04  0.23901544627E+04 0.  0.
        2    1    3    3  502    0 -0.16622694754E+03 -0.22026397663E+03 -0.14058366928E+04  0.14326634023E+04  0.25500000920E-02 0. -1.
       -2    1    3    3    0  502  0.16622694754E+03  0.22026397663E+03  0.95986319064E+03  0.99874168945E+03  0.25500000920E-02 0.  1.
</event>
<event>
 5   0  0.9038897E-06  0.2405657E+04  0.7818609E-02  0.8437389E-01
        1   -1    0    0  501    0  0.00000000000E+00  0.00000000000E+00  0.10897979297E+04  0.10897979297E+04  0.50400001928E-02 0. -1.
       -1   -1    0    0    0  501  0.00000000000E+00  0.00000000000E+00 -0.13275822408E+04  0.13275822408E+04  0.50400001928E-02 0.  1.
    10030    2    1    2    0    0  0.00000000000E+00  0.00000000000E+00 -0.23778431111E+03  0.24173801705E+04  0.24056569810E+04 0.  0.
        1    1    3    3  502    0 -0.10388059330E+04 -0.55011066350E+03 -0.37519760058E+03  0.12339014337E+04  0.50400001928E-02 0.  1.
       -1    1    3    3    0  502  0.10388059330E+04  0.55011066350E+03  0.13741328947E+03  0.11834787369E+04  0.50400001928E-02 0. -1.
</event>
<event>
 5   0  0.9176817E-06  0.2406346E+04  0.7818609E-02  0.8437132E-01
       -1   -1    0    0    0  501  0.00000000000E+00  0.00000000000E+00  0.78820499805E+03  0.78820499807E+03  0.50400001928E-02 0.  1.
        1   -1    0    0  501    0  0.00000000000E+00  0.00000000000E+00 -0.18366097514E+04  0.18366097514E+04  0.50400001928E-02 0. -1.
    10030    2    1    2    0    0  0.00000000000E+00  0.00000000000E+00 -0.10484047534E+04  0.26248147495E+04  0.24063457653E+04 0.  0.
        3    1    3    3  502    0  0.10047896815E+04  0.39699507244E+03 -0.11018237416E+04  0.15431211745E+04  0.10100000352E+00 0. -1.
       -3    1    3    3    0  502 -0.10047896815E+04 -0.39699507244E+03  0.53418988218E+02  0.10816935750E+04  0.10100000352E+00 0.  1.
</event>
<event>
 5   0  0.2087882E-05  0.2406125E+04  0.7818609E-02  0.8437214E-01
        2   -1    0    0  501    0  0.00000000000E+00  0.00000000000E+00  0.13874187475E+04  0.13874187475E+04  0.25500000920E-02 0.  1.
       -2   -1    0    0    0  501  0.00000000000E+00  0.00000000000E+00 -0.10432026194E+04  0.10432026194E+04  0.25500000920E-02 0. -1.
    10030    2    1    2    0    0  0.00000000000E+00  0.00000000000E+00  0.34421612815E+03  0.24306213669E+04  0.24061245783E+04 0.  0.
        2    1    3    3  502    0  0.51820885424E+03  0.37246086530E+03  0.12023398522E+04  0.13612085193E+04  0.25500000920E-02 0.  1.
       -2    1    3    3    0  502 -0.51820885424E+03 -0.37246086530E+03 -0.85812372408E+03  0.10694128476E+04  0.25500000920E-02 0. -1.
</event>
<event>
 5   0  0.2080257E-05  0.2432993E+04  0.7818609E-02  0.8427254E-01
       -2   -1    0    0    0  501  0.00000000000E+00  0.00000000000E+00  0.16117727547E+04  0.16117727547E+04  0.25500000920E-02 0. -1.
        2   -1    0    0  501    0  0.00000000000E+00  0.00000000000E+00 -0.91815936952E+03  0.91815936953E+03  0.25500000920E-02 0.  1.
    10030    2    1    2    0    0  0.00000000000E+00  0.00000000000E+00  0.69361338521E+03  0.25299321243E+04  0.24329934289E+04 0.  0.
        1    1    3    3  502    0  0.15705540560E+03 -0.60539948612E+03 -0.73816876513E+03  0.96750610544E+03  0.50400001928E-02 0.  1.
       -1    1    3    3    0  502 -0.15705540560E+03  0.60539948612E+03  0.14317821503E+04  0.15624260188E+04  0.50400001928E-02 0. -1.
</event>
<event>
 5   0  0.2048028E-05  0.2384702E+04  0.7818609E-02  0.8445253E-01
        2   -1    0    0  501    0  0.00000000000E+00  0.00000000000E+00  0.10414303340E+04  0.10414303340E+04  0.25500000920E-02 0. -1.
       -2   -1    0    0    0  501  0.00000000000E+00  0.00000000000E+00 -0.13651426717E+04  0.13651426717E+04  0.25500000920E-02 0.  1.
    10030    2    1    2    0    0  0.00000000000E+00  0.00000000000E+00 -0.32371233761E+03  0.24065730057E+04  0.23847020682E+04 0.  0.
        5    1    3    3  502    0 -0.25581456051E+03 -0.16809512567E+03 -0.13248060009E+04  0.13597169156E+04  0.46999998093E+01 0.  1.
       -5    1    3    3    0  502  0.25581456051E+03  0.16809512567E+03  0.10010936633E+04  0.10468560901E+04  0.46999998093E+01 0. -1.
</event>
<event>
 5   0  0.8528103E-06  0.2360142E+04  0.7818609E-02  0.8454578E-01
       -1   -1    0    0    0  501  0.00000000000E+00  0.00000000000E+00  0.54439282042E+03  0.54439282045E+03  0.50400001928E-02 0.  1.
        1   -1    0    0  501    0  0.00000000000E+00  0.00000000000E+00 -0.25580205386E+04  0.25580205386E+04  0.50400001928E-02 0. -1.
    10030    2    1    2    0    0  0.00000000000E+00  0.00000000000E+00 -0.20136277182E+04  0.31024133591E+04  0.23601423820E+04 0.  0.
        4    1    3    3  502    0 -0.73848515091E+03  0.57281869280E+03 -0.59747028264E+02  0.93651102141E+03  0.12699999809E+01 0.  1.
       -4    1    3    3    0  502  0.73848515091E+03 -0.57281869280E+03 -0.19538806899E+04  0.21659023377E+04  0.12699999809E+01 0. -1.
</event>
<event>
 5   0  0.9038897E-06  0.2394994E+04  0.7818609E-02  0.8441380E-01
       -1   -1    0    0    0  501  0.00000000000E+00  0.00000000000E+00  0.14567914581E+04  0.14567914581E+04  0.50400001928E-02 0.  1.
        1   -1    0    0  501    0  0.00000000000E+00  0.00000000000E+00 -0.98435423980E+03  0.98435423981E+03  0.50400001928E-02 0. -1.
    10030    2    1    2    0    0  0.00000000000E+00  0.00000000000E+00  0.47243721828E+03  0.24411456979E+04  0.23949938190E+04 0.  0.
        1    1    3    3  502    0 -0.11486045318E+04 -0.13655193038E+03  0.55212666719E+03  0.12817108320E+04  0.50400001928E-02 0.  1.
       -1    1    3    3    0  502  0.11486045318E+04  0.13655193038E+03 -0.79689448908E+02  0.11594348660E+04  0.50400001928E-02 0. -1.
</event>
<event>
 5   0  0.9176817E-06  0.2378887E+04  0.7818609E-02  0.8447450E-01
        1   -1    0    0  501    0  0.00000000000E+00  0.00000000000E+00  0.17078827215E+04  0.17078827215E+04  0.50400001928E-02 0. -1.
       -1   -1    0    0    0  501  0.00000000000E+00  0.00000000000E+00 -0.82838003374E+03  0.82838003376E+03  0.50400001928E-02 0.  1.
    10030    2    1    2    0    0  0.00000000000E+00  0.00000000000E+00  0.87950268777E+03  0.25362627553E+04  0.23788870898E+04 0.  0.
        3    1    3    3  502    0  0.51694162964E+03 -0.36378309202E+03 -0.63448088146E+03  0.89561866084E+03  0.10100000352E+00 0.  1.
       -3    1    3    3    0  502 -0.51694162964E+03  0.36378309202E+03  0.15139835692E+04  0.16406440944E+04  0.10100000352E+00 0. -1.
</event>
<event>
 5   0  0.2122194E-05  0.2402189E+04  0.7818609E-02  0.8438684E-01
       -2   -1    0    0    0  501  0.00000000000E+00  0.00000000000E+00  0.87487966419E+03  0.87487966420E+03  0.25500000920E-02 0.  1.
        2   -1    0    0  501    0  0.00000000000E+00  0.00000000000E+00 -0.16489444544E+04  0.16489444544E+04  0.25500000920E-02 0. -1.
    10030    2    1    2    0    0  0.00000000000E+00  0.00000000000E+00 -0.77406479021E+03  0.25238241186E+04  0.24021889772E+04 0.  0.
        3    1    3    3  502    0  0.41772364915E+03  0.11119932955E+04 -0.20025019978E+03  0.12046253729E+04  0.10100000352E+00 0.  1.
       -3    1    3    3    0  502 -0.41772364915E+03 -0.11119932955E+04 -0.57381459042E+03  0.13191987457E+04  0.10100000352E+00 0. -1.
</event>
<event>
 5   0  0.2087882E-05  0.2377519E+04  0.7818609E-02  0.8447968E-01
       -2   -1    0    0    0  501  0.00000000000E+00  0.00000000000E+00  0.10428093481E+04  0.10428093481E+04  0.25500000920E-02 0.  1.
        2   -1    0    0  501    0  0.00000000000E+00  0.00000000000E+00 -0.13551364966E+04  0.13551364967E+04  0.25500000920E-02 0. -1.
    10030    2    1    2    0    0  0.00000000000E+00  0.00000000000E+00 -0.31232714855E+03  0.23979458447E+04  0.23775188804E+04 0.  0.
        2    1    3    3  502    0 -0.71575867464E+03 -0.56969394651E+03 -0.92182176609E+03  0.12986982103E+04  0.25500000920E-02 0. -1.
       -2    1    3    3    0  502  0.71575867464E+03  0.56969394651E+03  0.60949461754E+03  0.10992476344E+04  0.25500000920E-02 0.  1.
</event>
<event>
 5   0  0.9083687E-06  0.2400346E+04  0.7818609E-02  0.8439374E-01
       -1   -1    0    0    0  501  0.00000000000E+00  0.00000000000E+00  0.21613710724E+04  0.21613710724E+04  0.50400001928E-02 0.  1.
        1   -1    0    0  501    0  0.00000000000E+00  0.00000000000E+00 -0.66643574502E+03  0.66643574504E+03  0.50400001928E-02 0. -1.
    10030    2    1    2    0    0  0.00000000000E+00  0.00000000000E+00  0.14949353273E+04  0.28278068174E+04  0.24003457592E+04 0.  0.
        2    1    3    3  502    0  0.94968257064E+03 -0.72178210519E+03  0.59140589177E+03  0.13314005112E+04  0.25500000920E-02 0. -1.
       -2    1    3    3    0  502 -0.94968257064E+03  0.72178210519E+03  0.90352943557E+03  0.14964063062E+04  0.25500000920E-02 0.  1.
</event>
<event>
 5   0  0.9083687E-06  0.2414009E+04  0.7818609E-02  0.8434277E-01
       -1   -1    0    0    0  501  0.00000000000E+00  0.00000000000E+00  0.13551446330E+04  0.13551446330E+04  0.50400001928E-02 0. -1.
        1   -1    0    0  501    0  0.00000000000E+00  0.00000000000E+00 -0.10750589491E+04  0.10750589492E+04  0.50400001928E-02 0.  1.
    10030    2    1    2    0    0  0.00000000000E+00  0.00000000000E+00  0.28008568384E+03  0.24302035822E+04  0.24140094160E+04 0.  0.
        2    1    3    3  502    0  0.28924139292E+03  0.42799870499E+02  0.13189529600E+04  0.13509734724E+04  0.25500000920E-02 0. -1.
       -2    1    3    3    0  502 -0.28924139292E+03 -0.42799870499E+02 -0.10388672762E+04  0.10792301098E+04  0.25500000920E-02 0.  1.
</event>
<event>
 5   0  0.2025353E-05  0.2376312E+04  0.7818609E-02  0.8448425E-01
       -2   -1    0    0    0  501  0.00000000000E+00  0.00000000000E+00  0.72503435984E+03  0.72503435984E+03  0.25500000920E-02 0.  1.
        2   -1    0    0  501    0  0.00000000000E+00  0.00000000000E+00 -0.19471010067E+04  0.19471010067E+04  0.25500000920E-02 0. -1.
    10030    2    1    2    0    0  0.00000000000E+00  0.00000000000E+00 -0.12220666469E+04  0.26721353666E+04  0.23763123801E+04 0.  0.
        4    1    3    3  502    0  0.29612505625E+01  0.21475036205E+03  0.70302492438E+03  0.73510009128E+03  0.12699999809E+01 0.  1.
       -4    1    3    3    0  502 -0.29612505625E+01 -0.21475036205E+03 -0.19250915713E+04  0.19370352753E+04  0.12699999809E+01 0. -1.
</event>
<event>
 5   0  0.9176817E-06  0.2401732E+04  0.7818609E-02  0.8438856E-01
       -1   -1    0    0    0  501  0.00000000000E+00  0.00000000000E+00  0.96684682109E+03  0.96684682110E+03  0.50400001928E-02 0. -1.
        1   -1    0    0  501    0  0.00000000000E+00  0.00000000000E+00 -0.14915274613E+04  0.14915274613E+04  0.50400001928E-02 0.  1.
    10030    2    1    2    0    0  0.00000000000E+00  0.00000000000E+00 -0.52468064020E+03  0.24583742824E+04  0.24017315292E+04 0.  0.
        3    1    3    3  502    0  0.61554504065E+03  0.24588102492E+03 -0.12873183405E+04  0.14479439545E+04  0.10100000352E+00 0.  1.
       -3    1    3    3    0  502 -0.61554504065E+03 -0.24588102492E+03  0.76263770026E+03  0.10104303279E+04  0.10100000352E+00 0. -1.
</event>
<event>
 5   0  0.2080257E-05  0.2400993E+04  0.7818609E-02  0.8439132E-01
        2   -1    0    0  501    0  0.00000000000E+00  0.00000000000E+00  0.12653629269E+04  0.12653629269E+04  0.25500000920E-02 0.  1.
       -2   -1    0    0    0  501  0.00000000000E+00  0.00000000000E+00 -0.11389556627E+04  0.11389556627E+04  0.25500000920E-02 0. -1.
    10030    2    1    2    0    0  0.00000000000E+00  0.00000000000E+00  0.12640726416E+03  0.24043185896E+04  0.24009933535E+04 0.  0.
        1    1    3    3  502    0 -0.36295271325E+02 -0.11790779808E+04  0.28633511674E+03  0.12138904525E+04  0.50400001928E-02 0.  1.
       -1    1    3    3    0  502  0.36295271325E+02  0.11790779808E+04 -0.15992785258E+03  0.11904281371E+04  0.50400001928E-02 0. -1.
</event>
<event>
 5   0  0.9083687E-06  0.2395517E+04  0.7818609E-02  0.8441184E-01
        1   -1    0    0  501    0  0.00000000000E+00  0.00000000000E+00  0.10926752474E+04  0.10926752474E+04  0.50400001928E-02 0. -1.
       -1   -1    0    0    0  501  0.00000000000E+00  0.00000000000E+00 -0.13129475626E+04  0.13129475626E+04  0.50400001928E-02 0.  1.
    10030    2    1    2    0    0  0.00000000000E+00  0.00000000000E+00 -0.22027231522E+03  0.24056228100E+04  0.23955168986E+04 0.  0.
        2    1    3    3  502    0  0.42241914372E+03 -0.11013609788E+04 -0.31883822695E+03  0.12219213369E+04  0.25500000920E-02 0.  1.
       -2    1    3    3    0  502 -0.42241914372E+03  0.11013609788E+04  0.98565911735E+02  0.11837014731E+04  0.25500000920E-02 0. -1.
</event>
<event>
 5   0  0.8528103E-06  0.2399904E+04  0.7818609E-02  0.8439539E-01
        1   -1    0    0  501    0  0.00000000000E+00  0.00000000000E+00  0.12218811120E+04  0.12218811120E+04  0.50400001928E-02 0.  1.
       -1   -1    0    0    0  501  0.00000000000E+00  0.00000000000E+00 -0.11784167488E+04  0.11784167488E+04  0.50400001928E-02 0. -1.
    10030    2    1    2    0    0  0.00000000000E+00  0.00000000000E+00  0.43464363240E+02  0.24002978608E+04  0.23999043043E+04 0.  0.
        4    1    3    3  502    0  0.93432332420E+03  0.65277303491E+03  0.39704142980E+03  0.12069449942E+04  0.12699999809E+01 0. -1.
       -4    1    3    3    0  502 -0.93432332420E+03 -0.65277303491E+03 -0.35357706656E+03  0.11933528666E+04  0.12699999809E+01 0.  1.
</event>
<event>
 5   0  0.2025353E-05  0.2390115E+04  0.7818609E-02  0.8443214E-01
        2   -1    0    0  501    0  0.00000000000E+00  0.00000000000E+00  0.23602649873E+04  0.23602649873E+04  0.25500000920E-02 0. -1.
       -2   -1    0    0    0  501  0.00000000000E+00  0.00000000000E+00 -0.60508561773E+03  0.60508561774E+03  0.25500000920E-02 0.  1.
    10030    2    1    2    0    0  0.00000000000E+00  0.00000000000E+00  0.17551793696E+04  0.29653506051E+04  0.23901149745E+04 0.  0.
        4    1    3    3  502    0 -0.10236882449E+03  0.75425216313E+03  0.20206157276E+04  0.21592279253E+04  0.12699999809E+01 0. -1.
       -4    1    3    3    0  502  0.10236882449E+03 -0.75425216313E+03 -0.26543635800E+03  0.80612267979E+03  0.12699999809E+01 0.  1.
</event>
<event>
 5   0  0.2087882E-05  0.2400031E+04  0.7818609E-02  0.8439492E-01
       -2   -1    0    0    0  501  0.00000000000E+00  0.00000000000E+00  0.85187224799E+03  0.85187224799E+03  0.25500000920E-02 0. -1.
        2   -1    0    0  501    0  0.00000000000E+00  0.00000000000E+00 -0.16904373446E+04  0.16904373446E+04  0.25500000920E-02 0.  1.
    10030    2    1    2    0    0  0.00000000000E+00  0.00000000000E+00 -0.83856509661E+03  0.25423095926E+04  0.24000305505E+04 0.  0.
        2    1    3    3  502    0  0.64306717707E+03 -0.91444594300E+03  0.42799946978E+02  0.11187397429E+04  0.25500000920E-02 0. -1.
       -2    1    3    3    0  502 -0.64306717707E+03  0.91444594300E+03 -0.88136504359E+03  0.14235698497E+04  0.25500000920E-02 0.  1.
</event>
<event>
 5   0  0.8898848E-06  0.2409195E+04  0.7818609E-02  0.8436069E-01
       -1   -1    0    0    0  501  0.00000000000E+00  0.00000000000E+00  0.81003633724E+03  0.81003633725E+03  0.50400001928E-02 0. -1.
        1   -1    0    0  501    0  0.00000000000E+00  0.00000000000E+00 -0.17913464470E+04  0.17913464470E+04  0.50400001928E-02 0.  1.
    10030    2    1    2    0    0  0.00000000000E+00  0.00000000000E+00 -0.98131010975E+03  0.26013827842E+04  0.24091954795E+04 0.  0.
        5    1    3    3  502    0  0.95219763500E+03  0.13710029460E+03  0.29212914506E+03  0.10054045724E+04  0.46999998093E+01 0. -1.
       -5    1    3    3    0  502 -0.95219763500E+03 -0.13710029460E+03 -0.12734392548E+04  0.15959782118E+04  0.46999998093E+01 0.  1.
</event>
<event>
 5   0  0.2048028E-05  0.2403319E+04  0.7818609E-02  0.8438262E-01
       -2   -1    0    0    0  501  0.00000000000E+00  0.00000000000E+00  0.95645631994E+03  0.95645631994E+03  0.25500000920E-02 0.  1.
        2   -1    0    0  501    0  0.00000000000E+00  0.00000000000E+00 -0.15097249246E+04  0.15097249246E+04  0.25500000920E-02 0. -1.
    10030    2    1    2    0    0  0.00000000000E+00  0.00000000000E+00 -0.55326860462E+03  0.24661812445E+04  0.24033193258E+04 0.  0.
        5    1    3    3  502    0  0.11459521439E+04 -0.27656921976E+03 -0.37588323477E+02  0.11794625138E+04  0.46999998093E+01 0.  1.
       -5    1    3    3    0  502 -0.11459521439E+04  0.27656921976E+03 -0.51568028114E+03  0.12867187307E+04  0.46999998093E+01 0. -1.
</event>
<event>
 5   0  0.2087882E-05  0.2488551E+04  0.7818609E-02  0.8407076E-01
        2   -1    0    0  501    0  0.00000000000E+00  0.00000000000E+00  0.19499262221E+04  0.19499262221E+04  0.25500000920E-02 0. -1.
       -2   -1    0    0    0  501  0.00000000000E+00  0.00000000000E+00 -0.79398957913E+03  0.79398957914E+03  0.25500000920E-02 0.  1.
    10030    2    1    2    0    0  0.00000000000E+00  0.00000000000E+00  0.11559366430E+04  0.27439158012E+04  0.24885506629E+04 0.  0.
        2    1    3    3  502    0  0.98859826142E+03  0.18336975046E+03 -0.23023500760E+03  0.10314839536E+04  0.25500000920E-02 0.  1.
       -2    1    3    3    0  502 -0.98859826142E+03 -0.18336975046E+03  0.13861716506E+04  0.17124318476E+04  0.25500000920E-02 0. -1.
</event>
<event>
 5   0  0.2048028E-05  0.2391034E+04  0.7818609E-02  0.8442868E-01
       -2   -1    0    0    0  501  0.00000000000E+00  0.00000000000E+00  0.16574990085E+04  0.16574990085E+04  0.25500000920E-02 0.  1.
        2   -1    0    0  501    0  0.00000000000E+00  0.00000000000E+00 -0.86229953637E+03  0.86229953637E+03  0.25500000920E-02 0. -1.
    10030    2    1    2    0    0  0.00000000000E+00  0.00000000000E+00  0.79519947211E+03  0.25197985449E+04  0.23910337735E+04 0.  0.
        5    1    3    3  502    0 -0.89633674965E+03  0.64904827643E+03  0.87423424350E+03  0.14103158641E+04  0.46999998093E+01 0.  1.
       -5    1    3    3    0  502  0.89633674965E+03 -0.64904827643E+03 -0.79034771389E+02  0.11094826808E+04  0.46999998093E+01 0. -1.
</event>
<event>
 5   0  0.9176817E-06  0.2405214E+04  0.7818609E-02  0.8437554E-01
       -1   -1    0    0    0  501  0.00000000000E+00  0.00000000000E+00  0.13568912002E+04  0.13568912002E+04  0.50400001928E-02 0. -1.
        1   -1    0    0  501    0  0.00000000000E+00  0.00000000000E+00 -0.10658656403E+04  0.10658656403E+04  0.50400001928E-02 0.  1.
    10030    2    1    2    0    0  0.00000000000E+00  0.00000000000E+00  0.29102555990E+03  0.24227568404E+04  0.24052140926E+04 0.  0.
        3    1    3    3  502    0  0.11998073519E+04 -0.22886476621E+02  0.66184168247E+02  0.12018493361E+04  0.10100000352E+00 0. -1.
       -3    1    3    3    0  502 -0.11998073519E+04  0.22886476621E+02  0.22484139166E+03  0.12209075043E+04  0.10100000352E+00 0.  1.
</event>
<event>
 5   0  0.2080257E-05  0.2402363E+04  0.7818609E-02  0.8438619E-01
       -2   -1    0    0    0  501  0.00000000000E+00  0.00000000000E+00  0.11559081041E+04  0.11559081041E+04  0.25500000920E-02 0. -1.
        2   -1    0    0  501    0  0.00000000000E+00  0.00000000000E+00 -0.12482283505E+04  0.12482283505E+04  0.25500000920E-02 0.  1.
    10030    2    1    2    0    0  0.00000000000E+00  0.00000000000E+00 -0.92320246365E+02  0.24041364546E+04  0.24023632249E+04 0.  0.
        1    1    3    3  502    0 -0.81971424440E+03  0.16458760320E+03 -0.90924482360E+03  0.12352111847E+04  0.50400001928E-02 0.  1.
       -1    1    3    3    0  502  0.81971424440E+03 -0.16458760320E+03  0.81692457723E+03  0.11689252699E+04  0.50400001928E-02 0. -1.
</event>
<event>
 5   0  0.9176817E-06  0.2206905E+04  0.7818609E-02  0.8515559E-01
       -1   -1    0    0    0  501  0.00000000000E+00  0.00000000000E+00  0.15935621794E+04  0.15935621794E+04  0.50400001928E-02 0. -1.
        1   -1    0    0  501    0  0.00000000000E+00  0.00000000000E+00 -0.76407927888E+03  0.76407927889E+03  0.50400001928E-02 0.  1.
    10030    2    1    2    0    0  0.00000000000E+00  0.00000000000E+00  0.82948290050E+03  0.23576414583E+04  0.22069053817E+04 0.  0.
        3    1    3    3  502    0  0.38972719572E+02  0.70421099366E+03 -0.49185354714E+03  0.85985575447E+03  0.10100000352E+00 0.  1.
       -3    1    3    3    0  502 -0.38972719572E+02 -0.70421099366E+03  0.13213364476E+04  0.14977857038E+04  0.10100000352E+00 0. -1.
</event>
<event>
 5   0  0.2087882E-05  0.2393863E+04  0.7818609E-02  0.8441805E-01
       -2   -1    0    0    0  501  0.00000000000E+00  0.00000000000E+00  0.12409597863E+04  0.12409597863E+04  0.25500000920E-02 0.  1.
        2   -1    0    0  501    0  0.00000000000E+00  0.00000000000E+00 -0.11544649935E+04  0.11544649935E+04  0.25500000920E-02 0. -1.
    10030    2    1    2    0    0  0.00000000000E+00  0.00000000000E+00  0.86494792821E+02  0.23954247798E+04  0.23938626791E+04 0.  0.
        2    1    3    3  502    0 -0.50089731827E+03 -0.10811203700E+04  0.15701086968E+03  0.12018201991E+04  0.25500000920E-02 0. -1.
       -2    1    3    3    0  502  0.50089731827E+03  0.10811203700E+04 -0.70516076860E+02  0.11936045806E+04  0.25500000920E-02 0.  1.
</event>
<event>
 5   0  0.2122194E-05  0.2402626E+04  0.7818609E-02  0.8438521E-01
       -2   -1    0    0    0  501  0.00000000000E+00  0.00000000000E+00  0.16318475473E+04  0.16318475473E+04  0.25500000920E-02 0.  1.
        2   -1    0    0  501    0  0.00000000000E+00  0.00000000000E+00 -0.88436764303E+03  0.88436764303E+03  0.25500000920E-02 0. -1.
    10030    2    1    2    0    0  0.00000000000E+00  0.00000000000E+00  0.74747990424E+03  0.25162151903E+04  0.24026262041E+04 0.  0.
        3    1    3    3  502    0 -0.37749876960E+03 -0.24967122274E+03 -0.79166439035E+03  0.91190655095E+03  0.10100000352E+00 0. -1.
       -3    1    3    3    0  502  0.37749876960E+03  0.24967122274E+03  0.15391442946E+04  0.16043086393E+04  0.10100000352E+00 0.  1.
</event>
<event>
 5   0  0.2080257E-05  0.2407377E+04  0.7818609E-02  0.8436747E-01
        2   -1    0    0  501    0  0.00000000000E+00  0.00000000000E+00  0.13686607867E+04  0.13686607867E+04  0.25500000920E-02 0. -1.
       -2   -1    0    0    0  501  0.00000000000E+00  0.00000000000E+00 -0.10586016751E+04  0.10586016751E+04  0.25500000920E-02 0.  1.
    10030    2    1    2    0    0  0.00000000000E+00  0.00000000000E+00  0.31005911158E+03  0.24272624618E+04  0.24073774955E+04 0.  0.
        1    1    3    3  502    0 -0.50991855819E+03 -0.10789361602E+04  0.31363891118E+03  0.12338920295E+04  0.50400001928E-02 0.  1.
       -1    1    3    3    0  502  0.50991855819E+03  0.10789361602E+04 -0.35797996068E+01  0.11933704323E+04  0.50400001928E-02 0. -1.
</event>
<event>
 5   0  0.2048028E-05  0.2392176E+04  0.7818609E-02  0.8442439E-01
       -2   -1    0    0    0  501  0.00000000000E+00  0.00000000000E+00  0.62818640169E+03  0.62818640169E+03  0.25500000920E-02 0.  1.
        2   -1    0    0  501    0  0.00000000000E+00  0.00000000000E+00 -0.22773915205E+04  0.22773915205E+04  0.25500000920E-02 0. -1.
    10030    2    1    2    0    0  0.00000000000E+00  0.00000000000E+00 -0.16492051188E+04  0.29055779222E+04  0.23921759003E+04 0.  0.
        5    1    3    3  502    0  0.41009828896E+03  0.10576005753E+04 -0.12853648428E+04  0.17143174889E+04  0.46999998093E+01 0. -1.
       -5    1    3    3    0  502 -0.41009828896E+03 -0.10576005753E+04 -0.36384027602E+03  0.11912604333E+04  0.46999998093E+01 0.  1.
</event>
<event>
 5   0  0.8528103E-06  0.2415707E+04  0.7818609E-02  0.8433646E-01
        1   -1    0    0  501    0  0.00000000000E+00  0.00000000000E+00  0.21774766723E+04  0.21774766723E+04  0.50400001928E-02 0.  1.
       -1   -1    0    0    0  501  0.00000000000E+00  0.00000000000E+00 -0.67000053870E+03  0.67000053872E+03  0.50400001928E-02 0. -1.
    10030    2    1    2    0    0  0.00000000000E+00  0.00000000000E+00  0.15074761336E+04  0.28474772110E+04  0.24157073858E+04 0.  0.
        4    1    3    3  502    0  0.18642168830E+03  0.11902705360E+04  0.85521836933E+03  0.14774630510E+04  0.12699999809E+01 0. -1.
       -4    1    3    3    0  502 -0.18642168830E+03 -0.11902705360E+04  0.65225776426E+03  0.13700141601E+04  0.12699999809E+01 0.  1.
</event>
<event>
 5   0  0.8898848E-06  0.2382329E+04  0.7818609E-02  0.8446149E-01
        1   -1    0    0  501    0  0.00000000000E+00  0.00000000000E+00  0.10425364861E+04  0.10425364861E+04  0.50400001928E-02 0. -1.
       -1   -1    0    0    0  501  0.00000000000E+00  0.00000000000E+00 -0.13609810641E+04  0.13609810641E+04  0.50400001928E-02 0.  1.
    10030    2    1    2    0    0  0.00000000000E+00  0.00000000000E+00 -0.31844457796E+03  0.24035175502E+04  0.23823286224E+04 0.  0.
        5    1    3    3  502    0  0.37462510959E+03 -0.96820066183E+03  0.43000460643E+03  0.11236914816E+04  0.46999998093E+01 0. -1.
       -5    1    3    3    0  502 -0.37462510959E+03  0.96820066183E+03 -0.74844918439E+03  0.12798260686E+04  0.46999998093E+01 0.  1.
</event>
<event>
 5   0  0.2025353E-05  0.2395760E+04  0.7818609E-02  0.8441093E-01
       -2   -1    0    0    0  501  0.00000000000E+00  0.00000000000E+00  0.86777680729E+03  0.86777680730E+03  0.25500000920E-02 0. -1.
        2   -1    0    0  501    0  0.00000000000E+00  0.00000000000E+00 -0.16535545961E+04  0.16535545961E+04  0.25500000920E-02 0.  1.
    10030    2    1    2    0    0  0.00000000000E+00  0.00000000000E+00 -0.78577778880E+03  0.25213314034E+04  0.23957598612E+04 0.  0.
        4    1    3    3  502    0  0.30431270061E+02  0.84759010259E+03  0.49736861499E+03  0.98321523396E+03  0.12699999809E+01 0. -1.
       -4    1    3    3    0  502 -0.30431270061E+02 -0.84759010259E+03 -0.12831464038E+04  0.15381161694E+04  0.12699999809E+01 0.  1.
</event>
<event>
 5   0  0.8528103E-06  0.2150123E+04  0.7818609E-02  0.8539480E-01
       -1   -1    0    0    0  501  0.00000000000E+00  0.00000000000E+00  0.80337380399E+03  0.80337380401E+03  0.50400001928E-02 0.  1.
        1   -1    0    0  501    0  0.00000000000E+00  0.00000000000E+00 -0.14386289861E+04  0.14386289861E+04  0.50400001928E-02 0. -1.
    10030    2    1    2    0    0  0.00000000000E+00  0.00000000000E+00 -0.63525518209E+03  0.22420027901E+04  0.21501226394E+04 0.  0.
        4    1    3    3  502    0 -0.80831172109E+03 -0.68294273165E+03 -0.51540790697E+03  0.11770410089E+04  0.12699999809E+01 0. -1.
       -4    1    3    3    0  502  0.80831172109E+03  0.68294273165E+03 -0.11984727512E+03  0.10649617812E+04  0.12699999809E+01 0.  1.
</event>
<event>
 5   0  0.9038897E-06  0.2390607E+04  0.7818609E-02  0.8443028E-01
       -1   -1    0    0    0  501  0.00000000000E+00  0.00000000000E+00  0.22028230106E+04  0.22028230106E+04  0.50400001928E-02 0.  1.
        1   -1    0    0  501    0  0.00000000000E+00  0.00000000000E+00 -0.64860001492E+03  0.64860001494E+03  0.50400001928E-02 0. -1.
    10030    2    1    2    0    0  0.00000000000E+00  0.00000000000E+00  0.15542229957E+04  0.28514230255E+04  0.23906074856E+04 0.  0.
        1    1    3    3  502    0 -0.69841006440E+02  0.66625950628E+03  0.19578673566E+04  0.20693052172E+04  0.50400001928E-02 0.  1.
       -1    1    3    3    0  502  0.69841006440E+02 -0.66625950628E+03 -0.40364436097E+03  0.78211780830E+03  0.50400001928E-02 0. -1.
</event>
<event>
 5   0  0.2080257E-05  0.2377021E+04  0.7818609E-02  0.8448157E-01
       -2   -1    0    0    0  501  0.00000000000E+00  0.00000000000E+00  0.68844540785E+03  0.68844540785E+03  0.25500000920E-02 0. -1.
        2   -1    0    0  501    0  0.00000000000E+00  0.00000000000E+00 -0.20518073092E+04  0.20518073092E+04  0.25500000920E-02 0.  1.
    10030    2    1    2    0    0  0.00000000000E+00  0.00000000000E+00 -0.13633619014E+04  0.27402527171E+04  0.23770210936E+04 0.  0.
        1    1    3    3  502    0 -0.12771644622E+03  0.89960530734E+03 -0.15648836731E+04  0.18095474876E+04  0.50400001928E-02 0.  1.
       -1    1    3    3    0  502  0.12771644622E+03 -0.89960530734E+03  0.20152177172E+03  0.93070522946E+03  0.50400001928E-02 0. -1.
</event>
<event>
 5   0  0.8898848E-06  0.2411187E+04  0.7818609E-02  0.8435327E-01
        1   -1    0    0  501    0  0.00000000000E+00  0.00000000000E+00  0.11714457398E+04  0.11714457398E+04  0.50400001928E-02 0. -1.
       -1   -1    0    0    0  501  0.00000000000E+00  0.00000000000E+00 -0.12407366060E+04  0.12407366061E+04  0.50400001928E-02 0.  1.
    10030    2    1    2    0    0  0.00000000000E+00  0.00000000000E+00 -0.69290866275E+02  0.24121823458E+04  0.24111869370E+04 0.  0.
        5    1    3    3  502    0 -0.89837934933E+02 -0.17091217518E+03 -0.12251584295E+04  0.12402891169E+04  0.46999998093E+01 0.  1.
       -5    1    3    3    0  502  0.89837934933E+02  0.17091217518E+03  0.11558675632E+04  0.11718932289E+04  0.46999998093E+01 0. -1.
</event>
<event>
 5   0  0.2025353E-05  0.2106982E+04  0.7818609E-02  0.8558174E-01
       -2   -1    0    0    0  501  0.00000000000E+00  0.00000000000E+00  0.87600312865E+03  0.87600312866E+03  0.25500000920E-02 0.  1.
        2   -1    0    0  501    0  0.00000000000E+00  0.00000000000E+00 -0.12669397471E+04  0.12669397471E+04  0.25500000920E-02 0. -1.
    10030    2    1    2    0    0  0.00000000000E+00  0.00000000000E+00 -0.39093661846E+03  0.21429428758E+04  0.21069819005E+04 0.  0.
        4    1    3    3  502    0 -0.29409081106E+03  0.99536914876E+03 -0.11853330649E+02  0.10379745959E+04  0.12699999809E+01 0. -1.
       -4    1    3    3    0  502  0.29409081106E+03 -0.99536914876E+03 -0.37908328781E+03  0.11049682798E+04  0.12699999809E+01 0.  1.
</event>
<event>
 5   0  0.2080257E-05  0.2225924E+04  0.7818609E-02  0.8507715E-01
        2   -1    0    0  501    0  0.00000000000E+00  0.00000000000E+00  0.12862235254E+04  0.12862235254E+04  0.25500000920E-02 0. -1.
       -2   -1    0    0    0  501  0.00000000000E+00  0.00000000000E+00 -0.96303976993E+03  0.96303976994E+03  0.25500000920E-02 0.  1.
    10030    2    1    2    0    0  0.00000000000E+00  0.00000000000E+00  0.32318375548E+03  0.22492632954E+04  0.22259239951E+04 0.  0.
        1    1    3    3  502    0 -0.31490092385E+03 -0.96689963733E+03 -0.29550824252E+03  0.10589535504E+04  0.50400001928E-02 0.  1.
       -1    1    3    3    0  502  0.31490092385E+03  0.96689963733E+03  0.61869199800E+03  0.11903097449E+04  0.50400001928E-02 0. -1.
</event>
<event>
 5   0  0.2122194E-05  0.2392222E+04  0.7818609E-02  0.8442421E-01
        2   -1    0    0  501    0  0.00000000000E+00  0.00000000000E+00  0.19463055820E+04  0.19463055820E+04  0.25500000920E-02 0. -1.
       -2   -1    0    0    0  501  0.00000000000E+00  0.00000000000E+00 -0.73507572103E+03  0.73507572103E+03  0.25500000920E-02 0.  1.
    10030    2    1    2    0    0  0.00000000000E+00  0.00000000000E+00  0.12112298610E+04  0.26813813031E+04  0.23922223802E+04 0.  0.
        3    1    3    3  502    0 -0.11481277218E+04 -0.32930288470E+03  0.67689685780E+03  0.13728900253E+04  0.10100000352E+00 0.  1.
       -3    1    3    3    0  502  0.11481277218E+04  0.32930288470E+03  0.53433300321E+03  0.13084912777E+04  0.10100000352E+00 0. -1.
</event>
<event>
 5   0  0.2087882E-05  0.2406040E+04  0.7818609E-02  0.8437246E-01
        2   -1    0    0  501    0  0.00000000000E+00  0.00000000000E+00  0.18071954263E+04  0.18071954263E+04  0.25500000920E-02 0.  1.
       -2   -1    0    0    0  501  0.00000000000E+00  0.00000000000E+00 -0.80083023226E+03  0.80083023227E+03  0.25500000920E-02 0. -1.
    10030    2    1    2    0    0  0.00000000000E+00  0.00000000000E+00  0.10063651940E+04  0.26080256586E+04  0.24060396780E+04 0.  0.
        2    1    3    3  502    0 -0.20356714141E+00  0.77326437025E+03  0.15021342513E+04  0.16894807299E+04  0.25500000920E-02 0.  1.
       -2    1    3    3    0  502  0.20356714141E+00 -0.77326437025E+03 -0.49576905730E+03  0.91854492864E+03  0.25500000920E-02 0. -1.
</event>
<event>
 5   0  0.2080257E-05  0.2370579E+04  0.7818609E-02  0.8450601E-01
       -2   -1    0    0    0  501  0.00000000000E+00  0.00000000000E+00  0.76399258564E+03  0.76399258564E+03  0.25500000920E-02 0.  1.
        2   -1    0    0  501    0  0.00000000000E+00  0.00000000000E+00 -0.18389067390E+04  0.18389067390E+04  0.25500000920E-02 0. -1.
    10030    2    1    2    0    0  0.00000000000E+00  0.00000000000E+00 -0.10749141533E+04  0.26028993246E+04  0.23705789287E+04 0.  0.
        1    1    3    3  502    0 -0.87156517572E+03 -0.75212697785E+03 -0.22769165695E+03  0.11735264535E+04  0.50400001928E-02 0. -1.
       -1    1    3    3    0  502  0.87156517572E+03  0.75212697785E+03 -0.84722249638E+03  0.14293728711E+04  0.50400001928E-02 0.  1.
</event>
<event>
 5   0  0.2122194E-05  0.2388686E+04  0.7818609E-02  0.8443752E-01
       -2   -1    0    0    0  501  0.00000000000E+00  0.00000000000E+00  0.80710503738E+03  0.80710503739E+03  0.25500000920E-02 0. -1.
        2   -1    0    0  501    0  0.00000000000E+00  0.00000000000E+00 -0.17673723987E+04  0.17673723987E+04  0.25500000920E-02 0.  1.
    10030    2    1    2    0    0  0.00000000000E+00  0.00000000000E+00 -0.96026736133E+03  0.25744774361E+04  0.23886859701E+04 0.  0.
        3    1    3    3  502    0 -0.10859040553E+04 -0.42188757489E+03 -0.76381386133E+03  0.13930500236E+04  0.10100000352E+00 0.  1.
       -3    1    3    3    0  502  0.10859040553E+04  0.42188757489E+03 -0.19645350000E+03  0.11814274125E+04  0.10100000352E+00 0. -1.
</event>
<event>
 5   0  0.2087882E-05  0.2412859E+04  0.7818609E-02  0.8434705E-01
        2   -1    0    0  501    0  0.00000000000E+00  0.00000000000E+00  0.13714811885E+04  0.13714811885E+04  0.25500000920E-02 0.  1.
       -2   -1    0    0    0  501  0.00000000000E+00  0.00000000000E+00 -0.10612413563E+04  0.10612413563E+04  0.25500000920E-02 0. -1.
    10030    2    1    2    0    0  0.00000000000E+00  0.00000000000E+00  0.31023983222E+03  0.24327225449E+04  0.24128593467E+04 0.  0.
        2    1    3    3  502    0 -0.18906560199E+03  0.11718037468E+04 -0.62533892319E+02  0.11886043541E+04  0.25500000920E-02 0. -1.
       -2    1    3    3    0  502  0.18906560199E+03 -0.11718037468E+04  0.37277372453E+03  0.12441181908E+04  0.25500000920E-02 0.  1.
</event>
<event>
 5   0  0.9176817E-06  0.2376619E+04  0.7818609E-02  0.8448309E-01
       -1   -1    0    0    0  501  0.00000000000E+00  0.00000000000E+00  0.89146978409E+03  0.89146978411E+03  0.50400001928E-02 0. -1.
        1   -1    0    0  501    0  0.00000000000E+00  0.00000000000E+00 -0.15839898238E+04  0.15839898238E+04  0.50400001928E-02 0.  1.
    10030    2    1    2    0    0  0.00000000000E+00  0.00000000000E+00 -0.69252003970E+03  0.24754596079E+04  0.23766186621E+04 0.  0.
        3    1    3    3  502    0  0.31764645434E+03 -0.68644249960E+03  0.60835860726E+03  0.97067130402E+03  0.10100000352E+00 0. -1.
       -3    1    3    3    0  502 -0.31764645434E+03  0.68644249960E+03 -0.13008786470E+04  0.15047883039E+04  0.10100000352E+00 0.  1.
</event>
<event>
 5   0  0.9038897E-06  0.2403186E+04  0.7818609E-02  0.8438312E-01
        1   -1    0    0  501    0  0.00000000000E+00  0.00000000000E+00  0.10728488742E+04  0.10728488742E+04  0.50400001928E-02 0.  1.
       -1   -1    0    0    0  501  0.00000000000E+00  0.00000000000E+00 -0.13457868044E+04  0.13457868044E+04  0.50400001928E-02 0. -1.
    10030    2    1    2    0    0  0.00000000000E+00  0.00000000000E+00 -0.27293793024E+03  0.24186356786E+04  0.24031861002E+04 0.  0.
        1    1    3    3  502    0 -0.91246216506E+03  0.12016060790E+02 -0.92321970012E+03  0.12981009988E+04  0.50400001928E-02 0. -1.
       -1    1    3    3    0  502  0.91246216506E+03 -0.12016060790E+02  0.65028176988E+03  0.11205346798E+04  0.50400001928E-02 0.  1.
</event>
<event>
 5   0  0.2087882E-05  0.2414259E+04  0.7818609E-02  0.8434184E-01
        2   -1    0    0  501    0  0.00000000000E+00  0.00000000000E+00  0.26031163588E+04  0.26031163588E+04  0.25500000920E-02 0. -1.
       -2   -1    0    0    0  501  0.00000000000E+00  0.00000000000E+00 -0.55977576094E+03  0.55977576095E+03  0.25500000920E-02 0.  1.
    10030    2    1    2    0    0  0.00000000000E+00  0.00000000000E+00  0.20433405979E+04  0.31628921198E+04  0.24142588433E+04 0.  0.
        2    1    3    3  502    0 -0.91241353655E+03 -0.42307446880E+03  0.18962667741E+04  0.21464664327E+04  0.25500000920E-02 0.  1.
       -2    1    3    3    0  502  0.91241353655E+03  0.42307446880E+03  0.14707382377E+03  0.10164256871E+04  0.25500000920E-02 0. -1.
</event>
<event>
 5   0  0.2048028E-05  0.2402346E+04  0.7818609E-02  0.8438626E-01
       -2   -1    0    0    0  501  0.00000000000E+00  0.00000000000E+00  0.15691307968E+04  0.15691307968E+04  0.25500000920E-02 0.  1.
        2   -1    0    0  501    0  0.00000000000E+00  0.00000000000E+00 -0.91950035889E+03  0.91950035889E+03  0.25500000920E-02 0. -1.
    10030    2    1    2    0    0  0.00000000000E+00  0.00000000000E+00  0.64963043793E+03  0.24886311557E+04  0.24023457959E+04 0.  0.
        5    1    3    3  502    0  0.82671250188E+03  0.70955437983E+03 -0.19919223702E+03  0.11075290588E+04  0.46999998093E+01 0. -1.
       -5    1    3    3    0  502 -0.82671250188E+03 -0.70955437983E+03  0.84882267495E+03  0.13811020970E+04  0.46999998093E+01 0.  1.
</event>
<event>
 5   0  0.2048028E-05  0.2398192E+04  0.7818609E-02  0.8440181E-01
        2   -1    0    0  501    0  0.00000000000E+00  0.00000000000E+00  0.19270507557E+04  0.19270507557E+04  0.25500000920E-02 0. -1.
       -2   -1    0    0    0  501  0.00000000000E+00  0.00000000000E+00 -0.74613029323E+03  0.74613029323E+03  0.25500000920E-02 0.  1.
    10030    2    1    2    0    0  0.00000000000E+00  0.00000000000E+00  0.11809204625E+04  0.26731810489E+04  0.23981917733E+04 0.  0.
        5    1    3    3  502    0  0.87863364765E+01  0.10657649085E+03  0.19217145687E+04  0.19246934098E+04  0.46999998093E+01 0. -1.
       -5    1    3    3    0  502 -0.87863364765E+01 -0.10657649085E+03 -0.74079410624E+03  0.74848763914E+03  0.46999998093E+01 0.  1.
</event>
<event>
 5   0  0.8528103E-06  0.2370630E+04  0.7818609E-02  0.8450582E-01
        1   -1    0    0  501    0  0.00000000000E+00  0.00000000000E+00  0.12213354666E+04  0.12213354666E+04  0.50400001928E-02 0. -1.
       -1   -1    0    0    0  501  0.00000000000E+00  0.00000000000E+00 -0.11503564349E+04  0.11503564349E+04  0.50400001928E-02 0.  1.
    10030    2    1    2    0    0  0.00000000000E+00  0.00000000000E+00  0.70979031731E+02  0.23716919015E+04  0.23706295477E+04 0.  0.
        4    1    3    3  502    0 -0.85004749048E+03  0.75330731717E+03  0.37463530878E+03  0.11959957682E+04  0.12699999809E+01 0. -1.
       -4    1    3    3    0  502  0.85004749048E+03 -0.75330731717E+03 -0.30365627705E+03  0.11756961332E+04  0.12699999809E+01 0.  1.
</event>
<event>
 5   0  0.8898848E-06  0.2389198E+04  0.7818609E-02  0.8443559E-01
        1   -1    0    0  501    0  0.00000000000E+00  0.00000000000E+00  0.91601015179E+03  0.91601015180E+03  0.50400001928E-02 0.  1.
       -1   -1    0    0    0  501  0.00000000000E+00  0.00000000000E+00 -0.15579161820E+04  0.15579161820E+04  0.50400001928E-02 0. -1.
    10030    2    1    2    0    0  0.00000000000E+00  0.00000000000E+00 -0.64190603019E+03  0.24739263338E+04  0.23891982240E+04 0.  0.
        5    1    3    3  502    0  0.11032876123E+04 -0.27320744622E+03 -0.70163050794E+03  0.13357369965E+04  0.46999998093E+01 0. -1.
       -5    1    3    3    0  502 -0.11032876123E+04  0.27320744622E+03  0.59724477751E+02  0.11381893373E+04  0.46999998093E+01 0.  1.
</event>
<event>
 5   0  0.2080257E-05  0.2405702E+04  0.7818609E-02  0.8437372E-01
        2   -1    0    0  501    0  0.00000000000E+00  0.00000000000E+00  0.15525669358E+04  0.15525669358E+04  0.25500000920E-02 0. -1.
       -2   -1    0    0    0  501  0.00000000000E+00  0.00000000000E+00 -0.93190891988E+03  0.93190891988E+03  0.25500000920E-02 0.  1.
    10030    2    1    2    0    0  0.00000000000E+00  0.00000000000E+00  0.62065801587E+03  0.24844758556E+04  0.24057023724E+04 0.  0.
        1    1    3    3  502    0 -0.75489898897E+03 -0.17152581257E+03 -0.64044530768E+03  0.10047207473E+04  0.50400001928E-02 0.  1.
       -1    1    3    3    0  502  0.75489898897E+03  0.17152581257E+03  0.12611033235E+04  0.14797551083E+04  0.50400001928E-02 0. -1.
</event>
<event>
 5   0  0.2025353E-05  0.2407901E+04  0.7818609E-02  0.8436552E-01
        2   -1    0    0  501    0  0.00000000000E+00  0.00000000000E+00  0.73290966092E+03  0.73290966093E+03  0.25500000920E-02 0.  1.
       -2   -1    0    0    0  501  0.00000000000E+00  0.00000000000E+00 -0.19777286655E+04  0.19777286655E+04  0.25500000920E-02 0. -1.
    10030    2    1    2    0    0  0.00000000000E+00  0.00000000000E+00 -0.12448190045E+04  0.27106383264E+04  0.24079007003E+04 0.  0.
        4    1    3    3  502    0  0.95334582559E+03 -0.26565123831E+03  0.14939586938E+03  0.10008794045E+04  0.12699999809E+01 0.  1.
       -4    1    3    3    0  502 -0.95334582559E+03  0.26565123831E+03 -0.13942148739E+04  0.17097589219E+04  0.12699999809E+01 0. -1.
</event>
<event>
 5   0  0.2087882E-05  0.2414532E+04  0.7818609E-02  0.8434083E-01
       -2   -1    0    0    0  501  0.00000000000E+00  0.00000000000E+00  0.17535696914E+04  0.17535696914E+04  0.25500000920E-02 0.  1.
        2   -1    0    0  501    0  0.00000000000E+00  0.00000000000E+00 -0.83115652209E+03  0.83115652210E+03  0.25500000920E-02 0. -1.
    10030    2    1    2    0    0  0.00000000000E+00  0.00000000000E+00  0.92241316930E+03  0.25847262135E+04  0.24145317442E+04 0.  0.
        2    1    3    3  502    0  0.54381389803E+01 -0.56559528816E+02 -0.82972434269E+03  0.83166762503E+03  0.25500000920E-02 0. -1.
       -2    1    3    3    0  502 -0.54381389803E+01  0.56559528816E+02  0.17521375120E+04  0.17530585885E+04  0.25500000920E-02 0.  1.
</event>
<event>
 5   0  0.2087882E-05  0.2403765E+04  0.7818609E-02  0.8438096E-01
        2   -1    0    0  501    0  0.00000000000E+00  0.00000000000E+00  0.13160663851E+04  0.13160663851E+04  0.25500000920E-02 0.  1.
       -2   -1    0    0    0  501  0.00000000000E+00  0.00000000000E+00 -0.10976050077E+04  0.10976050077E+04  0.25500000920E-02 0. -1.
    10030    2    1    2    0    0  0.00000000000E+00  0.00000000000E+00  0.21846137742E+03  0.24136713928E+04  0.24037645931E+04 0.  0.
        2    1    3    3  502    0  0.19198073870E+03  0.91389685435E+03 -0.65049645067E+03  0.11380727994E+04  0.25500000920E-02 0. -1.
       -2    1    3    3    0  502 -0.19198073870E+03 -0.91389685435E+03  0.86895782810E+03  0.12755985934E+04  0.25500000920E-02 0.  1.
</event>
<event>
 5   0  0.7233625E-06  0.2389842E+04  0.7818609E-02  0.8443316E-01
       -4   -1    0    0    0  501  0.00000000000E+00  0.00000000000E+00  0.11086550815E+04  0.11086558089E+04  0.12699999809E+01 0. -1.
        4   -1    0    0  501    0  0.00000000000E+00  0.00000000000E+00 -0.12878975889E+04  0.12878982150E+04  0.12699999809E+01 0.  1.
    10030    2    1    2    0    0  0.00000000000E+00  0.00000000000E+00 -0.17924250738E+03  0.23965540239E+04  0.23898416921E+04 0.  0.
        5    1    3    3  502    0 -0.37593221108E+03  0.42163012447E+03  0.96629237234E+03  0.11193033673E+04  0.46999998093E+01 0. -1.
       -5    1    3    3    0  502  0.37593221108E+03 -0.42163012447E+03 -0.11455348797E+04  0.12772506566E+04  0.46999998093E+01 0.  1.
</event>
<event>
 5   0  0.9176817E-06  0.2398196E+04  0.7818609E-02  0.8440179E-01
        1   -1    0    0  501    0  0.00000000000E+00  0.00000000000E+00  0.96896990635E+03  0.96896990636E+03  0.50400001928E-02 0. -1.
       -1   -1    0    0    0  501  0.00000000000E+00  0.00000000000E+00 -0.14838812567E+04  0.14838812567E+04  0.50400001928E-02 0.  1.
    10030    2    1    2    0    0  0.00000000000E+00  0.00000000000E+00 -0.51491135031E+03  0.24528511630E+04  0.23981962241E+04 0.  0.
        3    1    3    3  502    0 -0.11998879229E+03 -0.10645984831E+04 -0.80831050813E+03  0.13420630120E+04  0.10100000352E+00 0.  1.
       -3    1    3    3    0  502  0.11998879229E+03  0.10645984831E+04  0.29339915782E+03  0.11107881510E+04  0.10100000352E+00 0. -1.
</event>
<event>
 5   0  0.2048028E-05  0.2371628E+04  0.7818609E-02  0.8450202E-01
        2   -1    0    0  501    0  0.00000000000E+00  0.00000000000E+00  0.17065337378E+04  0.17065337378E+04  0.25500000920E-02 0.  1.
       -2   -1    0    0    0  501  0.00000000000E+00  0.00000000000E+00 -0.82398334314E+03  0.82398334314E+03  0.25500000920E-02 0. -1.
    10030    2    1    2    0    0  0.00000000000E+00  0.00000000000E+00  0.88255039466E+03  0.25305170809E+04  0.23716284485E+04 0.  0.
        5    1    3    3  502    0  0.64680144558E+03  0.28003068501E+03 -0.57621796210E+03  0.91039470802E+03  0.46999998093E+01 0. -1.
       -5    1    3    3    0  502 -0.64680144558E+03 -0.28003068501E+03  0.14587683568E+04  0.16201223729E+04  0.46999998093E+01 0.  1.
</event>
<event>
 5   0  0.2080257E-05  0.2405818E+04  0.7818609E-02  0.8437329E-01
       -2   -1    0    0    0  501  0.00000000000E+00  0.00000000000E+00  0.90493682642E+03  0.90493682643E+03  0.25500000920E-02 0.  1.
        2   -1    0    0  501    0  0.00000000000E+00  0.00000000000E+00 -0.15989960209E+04  0.15989960209E+04  0.25500000920E-02 0. -1.
    10030    2    1    2    0    0  0.00000000000E+00  0.00000000000E+00 -0.69405919444E+03  0.25039328473E+04  0.24058182679E+04 0.  0.
        1    1    3    3  502    0  0.32293249802E+03  0.11454630853E+04 -0.16490964232E+03  0.12014850262E+04  0.50400001928E-02 0.  1.
       -1    1    3    3    0  502 -0.32293249802E+03 -0.11454630853E+04 -0.52914955213E+03  0.13024478211E+04  0.50400001928E-02 0. -1.
</event>
<event>
 5   0  0.8528103E-06  0.2335012E+04  0.7818609E-02  0.8464243E-01
        1   -1    0    0  501    0  0.00000000000E+00  0.00000000000E+00  0.18543379409E+04  0.18543379409E+04  0.50400001928E-02 0.  1.
       -1   -1    0    0    0  501  0.00000000000E+00  0.00000000000E+00 -0.73507133296E+03  0.73507133297E+03  0.50400001928E-02 0. -1.
    10030    2    1    2    0    0  0.00000000000E+00  0.00000000000E+00  0.11192666080E+04  0.25894092739E+04  0.23350123443E+04 0.  0.
        4    1    3    3  502    0  0.16104945865E+02 -0.73669137140E+03 -0.44462107354E+03  0.86061783499E+03  0.12699999809E+01 0. -1.
       -4    1    3    3    0  502 -0.16104945865E+02  0.73669137140E+03  0.15638876815E+04  0.17287914389E+04  0.12699999809E+01 0.  1.
</event>
<event>
 5   0  0.9176817E-06  0.2394067E+04  0.7818609E-02  0.8441728E-01
        1   -1    0    0  501    0  0.00000000000E+00  0.00000000000E+00  0.93190353761E+03  0.93190353763E+03  0.50400001928E-02 0. -1.
       -1   -1    0    0    0  501  0.00000000000E+00  0.00000000000E+00 -0.15375945402E+04  0.15375945402E+04  0.50400001928E-02 0.  1.
    10030    2    1    2    0    0  0.00000000000E+00  0.00000000000E+00 -0.60569100257E+03  0.24694980778E+04  0.23940674940E+04 0.  0.
        3    1    3    3  502    0  0.46537188676E+03  0.20140333424E+03  0.81564116015E+03  0.96041907955E+03  0.10100000352E+00 0. -1.
       -3    1    3    3    0  502 -0.46537188676E+03 -0.20140333424E+03 -0.14213321627E+04  0.15090789983E+04  0.10100000352E+00 0.  1.
</event>
<event>
 5   0  0.2048028E-05  0.2360406E+04  0.7818609E-02  0.8454477E-01
       -2   -1    0    0    0  501  0.00000000000E+00  0.00000000000E+00  0.70448486687E+03  0.70448486687E+03  0.25500000920E-02 0.  1.
        2   -1    0    0  501    0  0.00000000000E+00  0.00000000000E+00 -0.19771598247E+04  0.19771598247E+04  0.25500000920E-02 0. -1.
    10030    2    1    2    0    0  0.00000000000E+00  0.00000000000E+00 -0.12726749578E+04  0.26816446916E+04  0.23604060463E+04 0.  0.
        5    1    3    3  502    0  0.11582491826E+03  0.11079033463E+04 -0.19341811649E+03  0.11306183681E+04  0.46999998093E+01 0.  1.
       -5    1    3    3    0  502 -0.11582491826E+03 -0.11079033463E+04 -0.10792568414E+04  0.15510263235E+04  0.46999998093E+01 0. -1.
</event>
<event>
 5   0  0.2048028E-05  0.2402386E+04  0.7818609E-02  0.8438611E-01
       -2   -1    0    0    0  501  0.00000000000E+00  0.00000000000E+00  0.14318535638E+04  0.14318535638E+04  0.25500000920E-02 0.  1.
        2   -1    0    0  501    0  0.00000000000E+00  0.00000000000E+00 -0.10076898547E+04  0.10076898547E+04  0.25500000920E-02 0. -1.
    10030    2    1    2    0    0  0.00000000000E+00  0.00000000000E+00  0.42416370908E+03  0.24395434186E+04  0.24023857390E+04 0.  0.
        5    1    3    3  502    0 -0.10041917930E+04 -0.45455012857E+02 -0.45564070641E+03  0.11036747069E+04  0.46999998093E+01 0. -1.
       -5    1    3    3    0  502  0.10041917930E+04  0.45455012857E+02  0.87980441549E+03  0.13358687117E+04  0.46999998093E+01 0.  1.
</event>
<event>
 5   0  0.2087882E-05  0.2398908E+04  0.7818609E-02  0.8439912E-01
        2   -1    0    0  501    0  0.00000000000E+00  0.00000000000E+00  0.10812898880E+04  0.10812898880E+04  0.25500000920E-02 0.  1.
       -2   -1    0    0    0  501  0.00000000000E+00  0.00000000000E+00 -0.13305315115E+04  0.13305315115E+04  0.25500000920E-02 0. -1.
    10030    2    1    2    0    0  0.00000000000E+00  0.00000000000E+00 -0.24924162349E+03  0.24118213995E+04  0.23989083092E+04 0.  0.
        2    1    3    3  502    0  0.70123084225E+03  0.44872952537E+03  0.74351285110E+03  0.11161963272E+04  0.25500000920E-02 0.  1.
       -2    1    3    3    0  502 -0.70123084225E+03 -0.44872952537E+03 -0.99275447459E+03  0.12956250723E+04  0.25500000920E-02 0. -1.
</event>
<event>
 5   0  0.2025353E-05  0.2410783E+04  0.7818609E-02  0.8435477E-01
       -2   -1    0    0    0  501  0.00000000000E+00  0.00000000000E+00  0.13575687594E+04  0.13575687594E+04  0.25500000920E-02 0.  1.
        2   -1    0    0  501    0  0.00000000000E+00  0.00000000000E+00 -0.10702730476E+04  0.10702730476E+04  0.25500000920E-02 0. -1.
    10030    2    1    2    0    0  0.00000000000E+00  0.00000000000E+00  0.28729571181E+03  0.24278418070E+04  0.24107834855E+04 0.  0.
        4    1    3    3  502    0  0.11063331030E+04 -0.47124718731E+03  0.59867896680E+02  0.12040069038E+04  0.12699999809E+01 0. -1.
       -4    1    3    3    0  502 -0.11063331030E+04  0.47124718731E+03  0.22742781513E+03  0.12238349032E+04  0.12699999809E+01 0.  1.
</event>
<event>
 5   0  0.9038897E-06  0.2386933E+04  0.7818609E-02  0.8444412E-01
       -1   -1    0    0    0  501  0.00000000000E+00  0.00000000000E+00  0.12188110901E+04  0.12188110901E+04  0.50400001928E-02 0. -1.
        1   -1    0    0  501    0  0.00000000000E+00  0.00000000000E+00 -0.11686487993E+04  0.11686487993E+04  0.50400001928E-02 0.  1.
    10030    2    1    2    0    0  0.00000000000E+00  0.00000000000E+00  0.50162290830E+02  0.23874598894E+04  0.23869328579E+04 0.  0.
        1    1    3    3  502    0  0.39160118816E+03  0.28437820190E+03  0.11162572472E+04  0.12166563584E+04  0.50400001928E-02 0. -1.
       -1    1    3    3    0  502 -0.39160118816E+03 -0.28437820190E+03 -0.10660949564E+04  0.11708035311E+04  0.50400001928E-02 0.  1.
</event>
<event>
 5   0  0.9038897E-06  0.2395442E+04  0.7818609E-02  0.8441212E-01
       -1   -1    0    0    0  501  0.00000000000E+00  0.00000000000E+00  0.84593836073E+03  0.84593836074E+03  0.50400001928E-02 0. -1.
        1   -1    0    0  501    0  0.00000000000E+00  0.00000000000E+00 -0.16957914562E+04  0.16957914563E+04  0.50400001928E-02 0.  1.
    10030    2    1    2    0    0  0.00000000000E+00  0.00000000000E+00 -0.84985309552E+03  0.25417298170E+04  0.23954415415E+04 0.  0.
        1    1    3    3  502    0  0.99257482427E+03 -0.38089225400E+03  0.16034857738E+03  0.10751722454E+04  0.50400001928E-02 0.  1.
       -1    1    3    3    0  502 -0.99257482427E+03  0.38089225400E+03 -0.10102016729E+04  0.14665575716E+04  0.50400001928E-02 0. -1.
</event>
<event>
 5   0  0.9176817E-06  0.2396231E+04  0.7818609E-02  0.8440916E-01
        1   -1    0    0  501    0  0.00000000000E+00  0.00000000000E+00  0.95898301286E+03  0.95898301287E+03  0.50400001928E-02 0. -1.
       -1   -1    0    0    0  501  0.00000000000E+00  0.00000000000E+00 -0.14968785142E+04  0.14968785142E+04  0.50400001928E-02 0.  1.
    10030    2    1    2    0    0  0.00000000000E+00  0.00000000000E+00 -0.53789550134E+03  0.24558615271E+04  0.23962312638E+04 0.  0.
        3    1    3    3  502    0  0.65493319744E+03  0.30345666025E+02 -0.12967100449E+04  0.14530365801E+04  0.10100000352E+00 0.  1.
       -3    1    3    3    0  502 -0.65493319744E+03 -0.30345666025E+02  0.75881454352E+03  0.10028249469E+04  0.10100000352E+00 0. -1.
</event>
<event>
 5   0  0.2080257E-05  0.2384409E+04  0.7818609E-02  0.8445364E-01
        2   -1    0    0  501    0  0.00000000000E+00  0.00000000000E+00  0.15060148841E+04  0.15060148841E+04  0.25500000920E-02 0.  1.
       -2   -1    0    0    0  501  0.00000000000E+00  0.00000000000E+00 -0.94378318383E+03  0.94378318383E+03  0.25500000920E-02 0. -1.
    10030    2    1    2    0    0  0.00000000000E+00  0.00000000000E+00  0.56223170026E+03  0.24497980679E+04  0.23844089601E+04 0.  0.
        1    1    3    3  502    0  0.30647924862E+03 -0.95369735552E+03  0.94528251566E+03  0.13773261089E+04  0.50400001928E-02 0.  1.
       -1    1    3    3    0  502 -0.30647924862E+03  0.95369735552E+03 -0.38305081539E+03  0.10724719591E+04  0.50400001928E-02 0. -1.
</event>
<event>
 5   0  0.7233625E-06  0.2402433E+04  0.7818609E-02  0.8438593E-01
       -3   -1    0    0    0  501  0.00000000000E+00  0.00000000000E+00  0.10129464324E+04  0.10129464374E+04  0.10100000352E+00 0.  1.
        3   -1    0    0  501    0  0.00000000000E+00  0.00000000000E+00 -0.14244796493E+04  0.14244796528E+04  0.10100000352E+00 0. -1.
    10030    2    1    2    0    0  0.00000000000E+00  0.00000000000E+00 -0.41153321689E+03  0.24374260903E+04  0.24024334240E+04 0.  0.
        5    1    3    3  502    0  0.81761847717E+03  0.78212875819E+03 -0.61497011002E+03  0.12878026614E+04  0.46999998093E+01 0. -1.
       -5    1    3    3    0  502 -0.81761847717E+03 -0.78212875819E+03  0.20343689313E+03  0.11496234288E+04  0.46999998093E+01 0.  1.
</event>
<event>
 5   0  0.2025353E-05  0.2177277E+04  0.7818609E-02  0.8527946E-01
        2   -1    0    0  501    0  0.00000000000E+00  0.00000000000E+00  0.12990748509E+04  0.12990748509E+04  0.25500000920E-02 0.  1.
       -2   -1    0    0    0  501  0.00000000000E+00  0.00000000000E+00 -0.91229020148E+03  0.91229020148E+03  0.25500000920E-02 0. -1.
    10030    2    1    2    0    0  0.00000000000E+00  0.00000000000E+00  0.38678464941E+03  0.22113650524E+04  0.21772765166E+04 0.  0.
        4    1    3    3  502    0 -0.90048076886E+03 -0.30970735337E+03  0.72923885884E+03  0.11994061806E+04  0.12699999809E+01 0.  1.
       -4    1    3    3    0  502  0.90048076886E+03  0.30970735337E+03 -0.34245420943E+03  0.10119588718E+04  0.12699999809E+01 0. -1.
</event>
<event>
 5   0  0.8528103E-06  0.2426069E+04  0.7818609E-02  0.8429808E-01
       -1   -1    0    0    0  501  0.00000000000E+00  0.00000000000E+00  0.10905759766E+04  0.10905759766E+04  0.50400001928E-02 0.  1.
        1   -1    0    0  501    0  0.00000000000E+00  0.00000000000E+00 -0.13492438493E+04  0.13492438493E+04  0.50400001928E-02 0. -1.
    10030    2    1    2    0    0  0.00000000000E+00  0.00000000000E+00 -0.25866787266E+03  0.24398198259E+04  0.24260691900E+04 0.  0.
        4    1    3    3  502    0 -0.77220354094E+03 -0.93470633212E+03 -0.16798456394E+03  0.12240076236E+04  0.12699999809E+01 0.  1.
       -4    1    3    3    0  502  0.77220354094E+03  0.93470633212E+03 -0.90683308723E+02  0.12158122023E+04  0.12699999809E+01 0. -1.
</event>
<event>
 5   0  0.8898848E-06  0.2395660E+04  0.7818609E-02  0.8441130E-01
       -1   -1    0    0    0  501  0.00000000000E+00  0.00000000000E+00  0.18258648243E+04  0.18258648243E+04  0.50400001928E-02 0.  1.
        1   -1    0    0  501    0  0.00000000000E+00  0.00000000000E+00 -0.78581733694E+03  0.78581733695E+03  0.50400001928E-02 0. -1.
    10030    2    1    2    0    0  0.00000000000E+00  0.00000000000E+00  0.10400474873E+04  0.26116821612E+04  0.23956596034E+04 0.  0.
        5    1    3    3  502    0 -0.63795956374E+03  0.36154429932E+03  0.15525658344E+04  0.17170292501E+04  0.46999998093E+01 0.  1.
       -5    1    3    3    0  502  0.63795956374E+03 -0.36154429932E+03 -0.51251834710E+03  0.89465291116E+03  0.46999998093E+01 0. -1.
</event>
<event>
 5   0  0.2080257E-05  0.2414706E+04  0.7818609E-02  0.8434018E-01
        2   -1    0    0  501    0  0.00000000000E+00  0.00000000000E+00  0.10573305506E+04  0.10573305506E+04  0.25500000920E-02 0. -1.
       -2   -1    0    0    0  501  0.00000000000E+00  0.00000000000E+00 -0.13786622908E+04  0.13786622908E+04  0.25500000920E-02 0.  1.
    10030    2    1    2    0    0  0.00000000000E+00  0.00000000000E+00 -0.32133174020E+03  0.24359928413E+04  0.24147064078E+04 0.  0.
        1    1    3    3  502    0 -0.36123223171E+03  0.11505403916E+04 -0.10124124418E+03  0.12101577201E+04  0.50400001928E-02 0.  1.
       -1    1    3    3    0  502  0.36123223171E+03 -0.11505403916E+04 -0.22009049601E+03  0.12258351212E+04  0.50400001928E-02 0. -1.
</event>
<event>
 5   0  0.9176817E-06  0.2397100E+04  0.7818609E-02  0.8440590E-01
       -1   -1    0    0    0  501  0.00000000000E+00  0.00000000000E+00  0.53211971428E+03  0.53211971430E+03  0.50400001928E-02 0. -1.
        1   -1    0    0  501    0  0.00000000000E+00  0.00000000000E+00 -0.26996218239E+04  0.26996218239E+04  0.50400001928E-02 0.  1.
    10030    2    1    2    0    0  0.00000000000E+00  0.00000000000E+00 -0.21675021096E+04  0.32317415382E+04  0.23970999092E+04 0.  0.
        3    1    3    3  502    0 -0.53867555987E+03 -0.20417452276E+03 -0.25007367477E+04  0.25662312612E+04  0.10100000352E+00 0.  1.
       -3    1    3    3    0  502  0.53867555987E+03  0.20417452276E+03  0.33323463809E+03  0.66551027698E+03  0.10100000352E+00 0. -1.
</event>
<event>
 5   0  0.2087882E-05  0.2407562E+04  0.7818609E-02  0.8436678E-01
        2   -1    0    0  501    0  0.00000000000E+00  0.00000000000E+00  0.69621524320E+03  0.69621524321E+03  0.25500000920E-02 0. -1.
       -2   -1    0    0    0  501  0.00000000000E+00  0.00000000000E+00 -0.20813807071E+04  0.20813807071E+04  0.25500000920E-02 0.  1.
    10030    2    1    2    0    0  0.00000000000E+00  0.00000000000E+00 -0.13851654639E+04  0.27775959503E+04  0.24075622320E+04 0.  0.
        2    1    3    3  502    0  0.13715637510E+03 -0.30945866720E+03  0.64018006520E+03  0.72415954998E+03  0.25500000920E-02 0. -1.
       -2    1    3    3    0  502 -0.13715637510E+03  0.30945866720E+03 -0.20253455291E+04  0.20534364003E+04  0.25500000920E-02 0.  1.
</event>
<event>
 5   0  0.2087882E-05  0.2390928E+04  0.7818609E-02  0.8442908E-01
        2   -1    0    0  501    0  0.00000000000E+00  0.00000000000E+00  0.21299668295E+04  0.21299668295E+04  0.25500000920E-02 0. -1.
       -2   -1    0    0    0  501  0.00000000000E+00  0.00000000000E+00 -0.67096545286E+03  0.67096545287E+03  0.25500000920E-02 0.  1.
    10030    2    1    2    0    0  0.00000000000E+00  0.00000000000E+00  0.14590013766E+04  0.28009322823E+04  0.23909279858E+04 0.  0.
        2    1    3    3  502    0 -0.22271206967E+03 -0.67218461018E+03  0.18578412645E+04  0.19882170355E+04  0.25500000920E-02 0. -1.
       -2    1    3    3    0  502  0.22271206967E+03  0.67218461018E+03 -0.39883988795E+03  0.81271524679E+03  0.25500000920E-02 0.  1.
</event>
<event>
 5   0  0.2025353E-05  0.2414874E+04  0.7818609E-02  0.8433956E-01
        2   -1    0    0  501    0  0.00000000000E+00  0.00000000000E+00  0.14697805024E+04  0.14697805024E+04  0.25500000920E-02 0. -1.
       -2   -1    0    0    0  501  0.00000000000E+00  0.00000000000E+00 -0.99191997408E+03  0.99191997408E+03  0.25500000920E-02 0.  1.
    10030    2    1    2    0    0  0.00000000000E+00  0.00000000000E+00  0.47786052827E+03  0.24617004764E+04  0.24148744380E+04 0.  0.
        4    1    3    3  502    0  0.12732858769E+03 -0.82916045352E+03 -0.64634665048E+03  0.10590019983E+04  0.12699999809E+01 0.  1.
       -4    1    3    3    0  502 -0.12732858769E+03  0.82916045352E+03  0.11242071787E+04  0.14026984781E+04  0.12699999809E+01 0. -1.
</event>
<event>
 5   0  0.2122194E-05  0.2412689E+04  0.7818609E-02  0.8434768E-01
       -2   -1    0    0    0  501  0.00000000000E+00  0.00000000000E+00  0.16390157112E+04  0.16390157112E+04  0.25500000920E-02 0. -1.
        2   -1    0    0  501    0  0.00000000000E+00  0.00000000000E+00 -0.88789067902E+03  0.88789067902E+03  0.25500000920E-02 0.  1.
    10030    2    1    2    0    0  0.00000000000E+00  0.00000000000E+00  0.75112503223E+03  0.25269063903E+04  0.24126887680E+04 0.  0.
        3    1    3    3  502    0 -0.82655641484E+02 -0.10826154894E+04 -0.17504227555E+03  0.10997854615E+04  0.10100000352E+00 0.  1.
       -3    1    3    3    0  502  0.82655641484E+02  0.10826154894E+04  0.92616730778E+03  0.14271209287E+04  0.10100000352E+00 0. -1.
</event>
<event>
 5   0  0.2080257E-05  0.2309331E+04  0.7818609E-02  0.8474251E-01
       -2   -1    0    0    0  501  0.00000000000E+00  0.00000000000E+00  0.13171396724E+04  0.13171396724E+04  0.25500000920E-02 0. -1.
        2   -1    0    0  501    0  0.00000000000E+00  0.00000000000E+00 -0.10122329449E+04  0.10122329449E+04  0.25500000920E-02 0.  1.
    10030    2    1    2    0    0  0.00000000000E+00  0.00000000000E+00  0.30490672748E+03  0.23293726173E+04  0.23093307857E+04 0.  0.
        1    1    3    3  502    0 -0.10766539996E+04 -0.40920820316E+03  0.23450415348E+03  0.11754264700E+04  0.50400001928E-02 0.  1.
       -1    1    3    3    0  502  0.10766539996E+04  0.40920820316E+03  0.70402574003E+02  0.11539461473E+04  0.50400001928E-02 0. -1.
</event>
<event>
 5   0  0.2048028E-05  0.2402285E+04  0.7818609E-02  0.8438649E-01
       -2   -1    0    0    0  501  0.00000000000E+00  0.00000000000E+00  0.84544733863E+03  0.84544733863E+03  0.25500000920E-02 0. -1.
        2   -1    0    0  501    0  0.00000000000E+00  0.00000000000E+00 -0.17064853232E+04  0.17064853232E+04  0.25500000920E-02 0.  1.
    10030    2    1    2    0    0  0.00000000000E+00  0.00000000000E+00 -0.86103798456E+03  0.25519326618E+04  0.24022851412E+04 0.  0.
        5    1    3    3  502    0 -0.63590803760E+02  0.95012312341E+03 -0.12082048801E+04  0.15383623962E+04  0.46999998093E+01 0.  1.
       -5    1    3    3    0  502  0.63590803760E+02 -0.95012312341E+03  0.34716689549E+03  0.10135702656E+04  0.46999998093E+01 0. -1.
</event>
<event>
 5   0  0.8528103E-06  0.2399841E+04  0.7818609E-02  0.8439563E-01
        1   -1    0    0  501    0  0.00000000000E+00  0.00000000000E+00  0.21950515817E+04  0.21950515817E+04  0.50400001928E-02 0.  1.
       -1   -1    0    0    0  501  0.00000000000E+00  0.00000000000E+00 -0.65593413109E+03  0.65593413111E+03  0.50400001928E-02 0. -1.
    10030    2    1    2    0    0  0.00000000000E+00  0.00000000000E+00  0.15391174506E+04  0.28509857128E+04  0.23998410380E+04 0.  0.
        4    1    3    3  502    0  0.97687197266E+03 -0.15150981575E+03 -0.38425663643E+02  0.98929885260E+03  0.12699999809E+01 0. -1.
       -4    1    3    3    0  502 -0.97687197266E+03  0.15150981575E+03  0.15775431142E+04  0.18616868602E+04  0.12699999809E+01 0.  1.
</event>
<event>
 5   0  0.8898848E-06  0.2401973E+04  0.7818609E-02  0.8438765E-01
        1   -1    0    0  501    0  0.00000000000E+00  0.00000000000E+00  0.15444561889E+04  0.15444561889E+04  0.50400001928E-02 0. -1.
       -1   -1    0    0    0  501  0.00000000000E+00  0.00000000000E+00 -0.93390042477E+03  0.93390042479E+03  0.50400001928E-02 0.  1.
    10030    2    1    2    0    0  0.00000000000E+00  0.00000000000E+00  0.61055576411E+03  0.24783566137E+04  0.24019727649E+04 0.  0.
        5    1    3    3  502    0  0.49724380379E+03  0.64114994703E+03  0.12188855118E+04  0.14642501958E+04  0.46999998093E+01 0. -1.
       -5    1    3    3    0  502 -0.49724380379E+03 -0.64114994703E+03 -0.60832974766E+03  0.10141064179E+04  0.46999998093E+01 0.  1.
</event>
<event>
 5   0  0.2025353E-05  0.2372655E+04  0.7818609E-02  0.8449813E-01
        2   -1    0    0  501    0  0.00000000000E+00  0.00000000000E+00  0.11015018247E+04  0.11015018247E+04  0.25500000920E-02 0.  1.
       -2   -1    0    0    0  501  0.00000000000E+00  0.00000000000E+00 -0.12776852150E+04  0.12776852150E+04  0.25500000920E-02 0. -1.
    10030    2    1    2    0    0  0.00000000000E+00  0.00000000000E+00 -0.17618339025E+03  0.23791870397E+04  0.23726547121E+04 0.  0.
        4    1    3    3  502    0 -0.60190691621E+03  0.16746862810E+03 -0.10993489082E+04  0.12644790674E+04  0.12699999809E+01 0. -1.
       -4    1    3    3    0  502  0.60190691621E+03 -0.16746862810E+03  0.92316551791E+03  0.11147079723E+04  0.12699999809E+01 0.  1.
</event>
<event>
 5   0  0.2087882E-05  0.2394466E+04  0.7818609E-02  0.8441578E-01
       -2   -1    0    0    0  501  0.00000000000E+00  0.00000000000E+00  0.16204626936E+04  0.16204626936E+04  0.25500000920E-02 0. -1.
        2   -1    0    0  501    0  0.00000000000E+00  0.00000000000E+00 -0.88454174951E+03  0.88454174951E+03  0.25500000920E-02 0.  1.
    10030    2    1    2    0    0  0.00000000000E+00  0.00000000000E+00  0.73592094405E+03  0.25050044431E+04  0.23944660415E+04 0.  0.
        2    1    3    3  502    0  0.16539605738E+03 -0.11836752508E+04  0.44137071694E+03  0.12740687049E+04  0.25500000920E-02 0. -1.
       -2    1    3    3    0  502 -0.16539605738E+03  0.11836752508E+04  0.29455022711E+03  0.12309357381E+04  0.25500000920E-02 0.  1.
</event>
<event>
 5   0  0.8898848E-06  0.2403703E+04  0.7818609E-02  0.8438119E-01
       -1   -1    0    0    0  501  0.00000000000E+00  0.00000000000E+00  0.65862392627E+03  0.65862392629E+03  0.50400001928E-02 0. -1.
        1   -1    0    0  501    0  0.00000000000E+00  0.00000000000E+00 -0.21931282909E+04  0.21931282909E+04  0.50400001928E-02 0.  1.
    10030    2    1    2    0    0  0.00000000000E+00  0.00000000000E+00 -0.15345043646E+04  0.28517522171E+04  0.24037027818E+04 0.  0.
        5    1    3    3  502    0 -0.40905548971E+02  0.11962521498E+04 -0.63874693477E+03  0.13567284940E+04  0.46999998093E+01 0. -1.
       -5    1    3    3    0  502  0.40905548971E+02 -0.11962521498E+04 -0.89575742981E+03  0.14950237232E+04  0.46999998093E+01 0.  1.
</event>
<event>
 5   0  0.9083687E-06  0.2391679E+04  0.7818609E-02  0.8442626E-01
       -1   -1    0    0    0  501  0.00000000000E+00  0.00000000000E+00  0.11613022486E+04  0.11613022486E+04  0.50400001928E-02 0.  1.
        1   -1    0    0  501    0  0.00000000000E+00  0.00000000000E+00 -0.12314035726E+04  0.12314035726E+04  0.50400001928E-02 0. -1.
    10030    2    1    2    0    0  0.00000000000E+00  0.00000000000E+00 -0.70101324041E+02  0.23927058212E+04  0.23916786890E+04 0.  0.
        2    1    3    3  502    0  0.57004699311E+03 -0.95611002443E+03 -0.47219573555E+03  0.12091603557E+04  0.25500000920E-02 0. -1.
       -2    1    3    3    0  502 -0.57004699311E+03  0.95611002443E+03  0.40209441151E+03  0.11835454655E+04  0.25500000920E-02 0.  1.
</event>
<event>
 5   0  0.2048028E-05  0.2374039E+04  0.7818609E-02  0.8449287E-01
        2   -1    0    0  501    0  0.00000000000E+00  0.00000000000E+00  0.16341389777E+04  0.16341389777E+04  0.25500000920E-02 0. -1.
       -2   -1    0    0    0  501  0.00000000000E+00  0.00000000000E+00 -0.86223744917E+03  0.86223744917E+03  0.25500000920E-02 0.  1.
    10030    2    1    2    0    0  0.00000000000E+00  0.00000000000E+00  0.77190152849E+03  0.24963764268E+04  0.23740394468E+04 0.  0.
        5    1    3    3  502    0  0.11133530521E+04 -0.26032952753E+03  0.50666875525E+02  0.11445154887E+04  0.46999998093E+01 0. -1.
       -5    1    3    3    0  502 -0.11133530521E+04  0.26032952753E+03  0.72123465297E+03  0.13518609382E+04  0.46999998093E+01 0.  1.
</event>
<event>
 5   0  0.9083687E-06  0.2394824E+04  0.7818609E-02  0.8441444E-01
        1   -1    0    0  501    0  0.00000000000E+00  0.00000000000E+00  0.13102687280E+04  0.13102687280E+04  0.50400001928E-02 0.  1.
       -1   -1    0    0    0  501  0.00000000000E+00  0.00000000000E+00 -0.10942759517E+04  0.10942759517E+04  0.50400001928E-02 0. -1.
    10030    2    1    2    0    0  0.00000000000E+00  0.00000000000E+00  0.21599277631E+03  0.24045446797E+04  0.23948240514E+04 0.  0.
        2    1    3    3  502    0 -0.36768697466E+03  0.32474807151E+03  0.12047398167E+04  0.13007893938E+04  0.25500000920E-02 0.  1.
       -2    1    3    3    0  502  0.36768697466E+03 -0.32474807151E+03 -0.98874704035E+03  0.11037552859E+04  0.25500000920E-02 0. -1.
</event>
<event>
 5   0  0.9176817E-06  0.2411524E+04  0.7818609E-02  0.8435202E-01
        1   -1    0    0  501    0  0.00000000000E+00  0.00000000000E+00  0.13378872310E+04  0.13378872310E+04  0.50400001928E-02 0.  1.
       -1   -1    0    0    0  501  0.00000000000E+00  0.00000000000E+00 -0.10866850775E+04  0.10866850775E+04  0.50400001928E-02 0. -1.
    10030    2    1    2    0    0  0.00000000000E+00  0.00000000000E+00  0.25120215355E+03  0.24245723085E+04  0.24115240736E+04 0.  0.
        3    1    3    3  502    0  0.86310704653E+03  0.39035843933E+03 -0.62444385461E+03  0.11345764067E+04  0.10100000352E+00 0. -1.
       -3    1    3    3    0  502 -0.86310704653E+03 -0.39035843933E+03  0.87564600816E+03  0.12899959018E+04  0.10100000352E+00 0.  1.
</event>
<event>
 5   0  0.9038897E-06  0.2389240E+04  0.7818609E-02  0.8443543E-01
       -1   -1    0    0    0  501  0.00000000000E+00  0.00000000000E+00  0.14615859698E+04  0.14615859698E+04  0.50400001928E-02 0.  1.
        1   -1    0    0  501    0  0.00000000000E+00  0.00000000000E+00 -0.97641634872E+03  0.97641634874E+03  0.50400001928E-02 0. -1.
    10030    2    1    2    0    0  0.00000000000E+00  0.00000000000E+00  0.48516962107E+03  0.24380023185E+04  0.23892395744E+04 0.  0.
        1    1    3    3  502    0 -0.98379584682E+03  0.64164016858E+03  0.46511842398E+03  0.12632860019E+04  0.50400001928E-02 0.  1.
       -1    1    3    3    0  502  0.98379584682E+03 -0.64164016858E+03  0.20051197092E+02  0.11747163167E+04  0.50400001928E-02 0. -1.
</event>
<event>
 5   0  0.2080257E-05  0.2385680E+04  0.7818609E-02  0.8444884E-01
       -2   -1    0    0    0  501  0.00000000000E+00  0.00000000000E+00  0.99926052998E+03  0.99926052999E+03  0.25500000920E-02 0. -1.
        2   -1    0    0  501    0  0.00000000000E+00  0.00000000000E+00 -0.14239204604E+04  0.14239204604E+04  0.25500000920E-02 0.  1.
    10030    2    1    2    0    0  0.00000000000E+00  0.00000000000E+00 -0.42465993044E+03  0.24231809904E+04  0.23856802082E+04 0.  0.
        1    1    3    3  502    0  0.54506950536E+03  0.69693191374E+03 -0.10249386840E+04  0.13539993220E+04  0.50400001928E-02 0.  1.
       -1    1    3    3    0  502 -0.54506950536E+03 -0.69693191374E+03  0.60027875354E+03  0.10691816684E+04  0.50400001928E-02 0. -1.
</event>
<event>
 5   0  0.2122194E-05  0.2395034E+04  0.7818609E-02  0.8441365E-01
        2   -1    0    0  501    0  0.00000000000E+00  0.00000000000E+00  0.17271558664E+04  0.17271558664E+04  0.25500000920E-02 0. -1.
       -2   -1    0    0    0  501  0.00000000000E+00  0.00000000000E+00 -0.83029381510E+03  0.83029381510E+03  0.25500000920E-02 0.  1.
    10030    2    1    2    0    0  0.00000000000E+00  0.00000000000E+00  0.89686205132E+03  0.25574496815E+04  0.23950338900E+04 0.  0.
        3    1    3    3  502    0 -0.58020946688E+02  0.92095305549E+02 -0.82500049553E+03  0.83215010869E+03  0.10100000352E+00 0.  1.
       -3    1    3    3    0  502  0.58020946688E+02 -0.92095305549E+02  0.17218625469E+04  0.17252995728E+04  0.10100000352E+00 0. -1.
</event>
<event>
 5   0  0.2048028E-05  0.2424842E+04  0.7818609E-02  0.8430261E-01
        2   -1    0    0  501    0  0.00000000000E+00  0.00000000000E+00  0.16398034396E+04  0.16398034396E+04  0.25500000920E-02 0. -1.
       -2   -1    0    0    0  501  0.00000000000E+00  0.00000000000E+00 -0.89642746868E+03  0.89642746869E+03  0.25500000920E-02 0.  1.
    10030    2    1    2    0    0  0.00000000000E+00  0.00000000000E+00  0.74337597096E+03  0.25362309083E+04  0.24248421363E+04 0.  0.
        5    1    3    3  502    0 -0.57626616650E+03 -0.81812391575E+03  0.10876262285E+04  0.14779588422E+04  0.46999998093E+01 0. -1.
       -5    1    3    3    0  502  0.57626616650E+03  0.81812391575E+03 -0.34425025758E+03  0.10582720662E+04  0.46999998093E+01 0.  1.
</event>
<event>
 5   0  0.2025353E-05  0.2312429E+04  0.7818609E-02  0.8473036E-01
       -2   -1    0    0    0  501  0.00000000000E+00  0.00000000000E+00  0.98195462366E+03  0.98195462366E+03  0.25500000920E-02 0. -1.
        2   -1    0    0  501    0  0.00000000000E+00  0.00000000000E+00 -0.13613992799E+04  0.13613992799E+04  0.25500000920E-02 0.  1.
    10030    2    1    2    0    0  0.00000000000E+00  0.00000000000E+00 -0.37944465623E+03  0.23433539036E+04  0.23124293006E+04 0.  0.
        4    1    3    3  502    0  0.89225537930E+03 -0.72979912772E+03 -0.28094998669E+03  0.11864488765E+04  0.12699999809E+01 0. -1.
       -4    1    3    3    0  502 -0.89225537930E+03  0.72979912772E+03 -0.98494669547E+02  0.11569050270E+04  0.12699999809E+01 0.  1.
</event>
<event>
 5   0  0.2080257E-05  0.2411711E+04  0.7818609E-02  0.8435132E-01
       -2   -1    0    0    0  501  0.00000000000E+00  0.00000000000E+00  0.10608507387E+04  0.10608507387E+04  0.25500000920E-02 0. -1.
        2   -1    0    0  501    0  0.00000000000E+00  0.00000000000E+00 -0.13706807507E+04  0.13706807507E+04  0.25500000920E-02 0.  1.
    10030    2    1    2    0    0  0.00000000000E+00  0.00000000000E+00 -0.30983001205E+03  0.24315314894E+04  0.24117111658E+04 0.  0.
        1    1    3    3  502    0 -0.64330800261E+03 -0.28177975959E+03 -0.11431966848E+04  0.13416943316E+04  0.50400001928E-02 0.  1.
       -1    1    3    3    0  502  0.64330800261E+03  0.28177975959E+03  0.83336667279E+03  0.10898371578E+04  0.50400001928E-02 0. -1.
</event>
<event>
 5   0  0.9083687E-06  0.2418362E+04  0.7818609E-02  0.8432661E-01
        1   -1    0    0  501    0  0.00000000000E+00  0.00000000000E+00  0.12941276292E+04  0.12941276292E+04  0.50400001928E-02 0. -1.
       -1   -1    0    0    0  501  0.00000000000E+00  0.00000000000E+00 -0.11298102980E+04  0.11298102980E+04  0.50400001928E-02 0.  1.
    10030    2    1    2    0    0  0.00000000000E+00  0.00000000000E+00  0.16431733119E+03  0.24239379272E+04  0.24183620262E+04 0.  0.
        2    1    3    3  502    0  0.82945776724E+03 -0.79477102525E+03  0.46046439456E+03  0.12376140872E+04  0.25500000920E-02 0.  1.
       -2    1    3    3    0  502 -0.82945776724E+03  0.79477102525E+03 -0.29614706337E+03  0.11863238400E+04  0.25500000920E-02 0. -1.
</event>
<event>
 5   0  0.9176817E-06  0.2408936E+04  0.7818609E-02  0.8436166E-01
       -1   -1    0    0    0  501  0.00000000000E+00  0.00000000000E+00  0.10592552816E+04  0.10592552816E+04  0.50400001928E-02 0.  1.
        1   -1    0    0  501    0  0.00000000000E+00  0.00000000000E+00 -0.13695878563E+04  0.13695878563E+04  0.50400001928E-02 0. -1.
    10030    2    1    2    0    0  0.00000000000E+00  0.00000000000E+00 -0.31033257468E+03  0.24288431379E+04  0.24089360061E+04 0.  0.
        3    1    3    3  502    0 -0.75645966196E+03 -0.36716262154E+03  0.71434281298E+03  0.11033246465E+04  0.10100000352E+00 0.  1.
       -3    1    3    3    0  502  0.75645966196E+03  0.36716262154E+03 -0.10246753877E+04  0.13255184914E+04  0.10100000352E+00 0. -1.
</event>
<event>
 5   0  0.2122194E-05  0.2391496E+04  0.7818609E-02  0.8442694E-01
       -2   -1    0    0    0  501  0.00000000000E+00  0.00000000000E+00  0.84413434228E+03  0.84413434229E+03  0.25500000920E-02 0. -1.
        2   -1    0    0  501    0  0.00000000000E+00  0.00000000000E+00 -0.16938223876E+04  0.16938223876E+04  0.25500000920E-02 0.  1.
    10030    2    1    2    0    0  0.00000000000E+00  0.00000000000E+00 -0.84968804530E+03  0.25379567299E+04  0.23914963074E+04 0.  0.
        3    1    3    3  502    0 -0.48046092317E+03 -0.40488933147E+03 -0.15045167614E+04  0.16304443459E+04  0.10100000352E+00 0.  1.
       -3    1    3    3    0  502  0.48046092317E+03  0.40488933147E+03  0.65482871612E+03  0.90751238398E+03  0.10100000352E+00 0. -1.
</event>
<event>
 5   0  0.2122194E-05  0.2388297E+04  0.7818609E-02  0.8443898E-01
       -2   -1    0    0    0  501  0.00000000000E+00  0.00000000000E+00  0.16053453016E+04  0.16053453016E+04  0.25500000920E-02 0. -1.
        2   -1    0    0  501    0  0.00000000000E+00  0.00000000000E+00 -0.88827687044E+03  0.88827687044E+03  0.25500000920E-02 0.  1.
    10030    2    1    2    0    0  0.00000000000E+00  0.00000000000E+00  0.71706843119E+03  0.24936221721E+04  0.23882973856E+04 0.  0.
        3    1    3    3  502    0 -0.82219034310E+03  0.13728120891E+03 -0.53424669511E+03  0.99008213399E+03  0.10100000352E+00 0.  1.
       -3    1    3    3    0  502  0.82219034310E+03 -0.13728120891E+03  0.12513151263E+04  0.15035400381E+04  0.10100000352E+00 0. -1.
</event>
<event>
 5   0  0.9083687E-06  0.2400687E+04  0.7818609E-02  0.8439246E-01
       -1   -1    0    0    0  501  0.00000000000E+00  0.00000000000E+00  0.14218470645E+04  0.14218470645E+04  0.50400001928E-02 0. -1.
        1   -1    0    0  501    0  0.00000000000E+00  0.00000000000E+00 -0.10133470470E+04  0.10133470470E+04  0.50400001928E-02 0.  1.
    10030    2    1    2    0    0  0.00000000000E+00  0.00000000000E+00  0.40850001749E+03  0.24351941115E+04  0.24006870051E+04 0.  0.
        2    1    3    3  502    0 -0.47241277018E+03 -0.11032775731E+04  0.18323274790E+03  0.12140714430E+04  0.25500000920E-02 0. -1.
       -2    1    3    3    0  502  0.47241277018E+03  0.11032775731E+04  0.22526726960E+03  0.12211226685E+04  0.25500000920E-02 0.  1.
</event>
<event>
 5   0  0.9038897E-06  0.2377726E+04  0.7818609E-02  0.8447890E-01
        1   -1    0    0  501    0  0.00000000000E+00  0.00000000000E+00  0.17113843976E+04  0.17113843976E+04  0.50400001928E-02 0.  1.
       -1   -1    0    0    0  501  0.00000000000E+00  0.00000000000E+00 -0.82587846997E+03  0.82587846999E+03  0.50400001928E-02 0. -1.
    10030    2    1    2    0    0  0.00000000000E+00  0.00000000000E+00  0.88550592765E+03  0.25372628676E+04  0.23777262482E+04 0.  0.
        1    1    3    3  502    0 -0.62126891112E+02  0.62923170166E+03 -0.63157679864E+03  0.89368984417E+03  0.50400001928E-02 0. -1.
       -1    1    3    3    0  502  0.62126891112E+02 -0.62923170166E+03  0.15170827263E+04  0.16435730234E+04  0.50400001928E-02 0.  1.
</event>
<event>
 5   0  0.2048028E-05  0.2392893E+04  0.7818609E-02  0.8442169E-01
        2   -1    0    0  501    0  0.00000000000E+00  0.00000000000E+00  0.14325712492E+04  0.14325712492E+04  0.25500000920E-02 0.  1.
       -2   -1    0    0    0  501  0.00000000000E+00  0.00000000000E+00 -0.99924161191E+03  0.99924161192E+03  0.25500000920E-02 0. -1.
    10030    2    1    2    0    0  0.00000000000E+00  0.00000000000E+00  0.43332963725E+03  0.24318128611E+04  0.23928934821E+04 0.  0.
        5    1    3    3  502    0  0.65866102519E+03 -0.52518308175E+03  0.10800777763E+04  0.13697597265E+04  0.46999998093E+01 0.  1.
       -5    1    3    3    0  502 -0.65866102519E+03  0.52518308175E+03 -0.64674813901E+03  0.10620531346E+04  0.46999998093E+01 0. -1.
</event>
<event>
 5   0  0.8528103E-06  0.2391902E+04  0.7818609E-02  0.8442542E-01
        1   -1    0    0  501    0  0.00000000000E+00  0.00000000000E+00  0.15835003914E+04  0.15835003914E+04  0.50400001928E-02 0.  1.
       -1   -1    0    0    0  501  0.00000000000E+00  0.00000000000E+00 -0.90325135172E+03  0.90325135174E+03  0.50400001928E-02 0. -1.
    10030    2    1    2    0    0  0.00000000000E+00  0.00000000000E+00  0.68024903967E+03  0.24867517431E+04  0.23919020624E+04 0.  0.
        4    1    3    3  502    0 -0.18481328771E+03 -0.53983920093E+03 -0.75260871436E+03  0.94445953011E+03  0.12699999809E+01 0. -1.
       -4    1    3    3    0  502  0.18481328771E+03  0.53983920093E+03  0.14328577540E+04  0.15422922130E+04  0.12699999809E+01 0.  1.
</event>
<event>
 5   0  0.9038897E-06  0.2405968E+04  0.7818609E-02  0.8437273E-01
       -1   -1    0    0    0  501  0.00000000000E+00  0.00000000000E+00  0.11018541544E+04  0.11018541545E+04  0.50400001928E-02 0.  1.
        1   -1    0    0  501    0  0.00000000000E+00  0.00000000000E+00 -0.13133957134E+04  0.13133957134E+04  0.50400001928E-02 0. -1.
    10030    2    1    2    0    0  0.00000000000E+00  0.00000000000E+00 -0.21154155900E+03  0.24152498679E+04  0.24059680158E+04 0.  0.
        1    1    3    3  502    0 -0.91831197153E+03  0.70745101068E+03 -0.42854926742E+03  0.12358957416E+04  0.50400001928E-02 0.  1.
       -1    1    3    3    0  502  0.91831197153E+03 -0.70745101068E+03  0.21700770842E+03  0.11793541263E+04  0.50400001928E-02 0. -1.
</event>
<event>
 5   0  0.2025353E-05  0.2391049E+04  0.7818609E-02  0.8442862E-01
        2   -1    0    0  501    0  0.00000000000E+00  0.00000000000E+00  0.15899417872E+04  0.15899417872E+04  0.25500000920E-02 0.  1.
       -2   -1    0    0    0  501  0.00000000000E+00  0.00000000000E+00 -0.89895074363E+03  0.89895074364E+03  0.25500000920E-02 0. -1.
    10030    2    1    2    0    0  0.00000000000E+00  0.00000000000E+00  0.69099104357E+03  0.24888925308E+04  0.23910494365E+04 0.  0.
        4    1    3    3  502    0 -0.76110360836E+03  0.89757390528E+03  0.56473257177E+03  0.13053130309E+04  0.12699999809E+01 0.  1.
       -4    1    3    3    0  502  0.76110360836E+03 -0.89757390528E+03  0.12625847181E+03  0.11835794999E+04  0.12699999809E+01 0. -1.
</event>
<event>
 5   0  0.9038897E-06  0.2409877E+04  0.7818609E-02  0.8435815E-01
        1   -1    0    0  501    0  0.00000000000E+00  0.00000000000E+00  0.27044224912E+04  0.27044224912E+04  0.50400001928E-02 0.  1.
       -1   -1    0    0    0  501  0.00000000000E+00  0.00000000000E+00 -0.53685260067E+03  0.53685260069E+03  0.50400001928E-02 0. -1.
    10030    2    1    2    0    0  0.00000000000E+00  0.00000000000E+00  0.21675698905E+04  0.32412750918E+04  0.24098765510E+04 0.  0.
        1    1    3    3  502    0  0.38414691386E+03 -0.27670578293E+03 -0.40651789687E+03  0.62401261384E+03  0.50400001928E-02 0. -1.
       -1    1    3    3    0  502 -0.38414691386E+03  0.27670578293E+03  0.25740877874E+04  0.26172624780E+04  0.50400001928E-02 0.  1.
</event>
<event>
 5   0  0.9038897E-06  0.2393055E+04  0.7818609E-02  0.8442108E-01
        1   -1    0    0  501    0  0.00000000000E+00  0.00000000000E+00  0.17322996689E+04  0.17322996689E+04  0.50400001928E-02 0. -1.
       -1   -1    0    0    0  501  0.00000000000E+00  0.00000000000E+00 -0.82646077900E+03  0.82646077901E+03  0.50400001928E-02 0.  1.
    10030    2    1    2    0    0  0.00000000000E+00  0.00000000000E+00  0.90583888985E+03  0.25587604479E+04  0.23930547288E+04 0.  0.
        1    1    3    3  502    0  0.49847344463E+03  0.34122326103E+03  0.15572831347E+04  0.16703412377E+04  0.50400001928E-02 0. -1.
       -1    1    3    3    0  502 -0.49847344463E+03 -0.34122326103E+03 -0.65144424481E+03  0.88841921016E+03  0.50400001928E-02 0.  1.
</event>
<event>
 5   0  0.9038897E-06  0.2388023E+04  0.7818609E-02  0.8444001E-01
        1   -1    0    0  501    0  0.00000000000E+00  0.00000000000E+00  0.12602346318E+04  0.12602346318E+04  0.50400001928E-02 0.  1.
       -1   -1    0    0    0  501  0.00000000000E+00  0.00000000000E+00 -0.11312682697E+04  0.11312682698E+04  0.50400001928E-02 0. -1.
    10030    2    1    2    0    0  0.00000000000E+00  0.00000000000E+00  0.12896636209E+03  0.23915029016E+04  0.23880229911E+04 0.  0.
        1    1    3    3  502    0  0.84001445184E+02 -0.11371438597E+04  0.41927483220E+03  0.12148842683E+04  0.50400001928E-02 0.  1.
       -1    1    3    3    0  502 -0.84001445184E+02  0.11371438597E+04 -0.29030847011E+03  0.11766186333E+04  0.50400001928E-02 0. -1.
</event>
<event>
 5   0  0.8898848E-06  0.2398166E+04  0.7818609E-02  0.8440191E-01
       -1   -1    0    0    0  501  0.00000000000E+00  0.00000000000E+00  0.57575610546E+03  0.57575610549E+03  0.50400001928E-02 0. -1.
        1   -1    0    0  501    0  0.00000000000E+00  0.00000000000E+00 -0.24972378485E+04  0.24972378485E+04  0.50400001928E-02 0.  1.
    10030    2    1    2    0    0  0.00000000000E+00  0.00000000000E+00 -0.19214817430E+04  0.30729939540E+04  0.23981659143E+04 0.  0.
        5    1    3    3  502    0 -0.29859427715E+03 -0.18188340919E+03  0.50897753820E+03  0.61751140984E+03  0.46999998093E+01 0. -1.
       -5    1    3    3    0  502  0.29859427715E+03  0.18188340919E+03 -0.24304592812E+04  0.24554825442E+04  0.46999998093E+01 0.  1.
</event>
<event>
 5   0  0.8898848E-06  0.2398730E+04  0.7818609E-02  0.8439979E-01
        1   -1    0    0  501    0  0.00000000000E+00  0.00000000000E+00  0.19002925755E+04  0.19002925755E+04  0.50400001928E-02 0. -1.
       -1   -1    0    0    0  501  0.00000000000E+00  0.00000000000E+00 -0.75697640324E+03  0.75697640325E+03  0.50400001928E-02 0.  1.
    10030    2    1    2    0    0  0.00000000000E+00  0.00000000000E+00  0.11433161722E+04  0.26572689787E+04  0.23987301965E+04 0.  0.
        5    1    3    3  502    0 -0.11373461020E+04 -0.20915749519E+03  0.21933560582E+03  0.11770442692E+04  0.46999998093E+01 0.  1.
       -5    1    3    3    0  502  0.11373461020E+04  0.20915749519E+03  0.92398056640E+03  0.14802247095E+04  0.46999998093E+01 0. -1.
</event>
<event>
 5   0  0.9083687E-06  0.2335387E+04  0.7818609E-02  0.8464098E-01
        1   -1    0    0  501    0  0.00000000000E+00  0.00000000000E+00  0.20354750644E+04  0.20354750644E+04  0.50400001928E-02 0.  1.
       -1   -1    0    0    0  501  0.00000000000E+00  0.00000000000E+00 -0.66987205410E+03  0.66987205412E+03  0.50400001928E-02 0. -1.
    10030    2    1    2    0    0  0.00000000000E+00  0.00000000000E+00  0.13656030103E+04  0.27053471185E+04  0.23353867881E+04 0.  0.
        2    1    3    3  502    0 -0.62586017943E+03  0.24098057852E+03  0.17901246297E+04  0.19116272632E+04  0.25500000920E-02 0.  1.
       -2    1    3    3    0  502  0.62586017943E+03 -0.24098057852E+03 -0.42452161941E+03  0.79371985535E+03  0.25500000920E-02 0. -1.
</event>
<event>
 5   0  0.9083687E-06  0.2399870E+04  0.7818609E-02  0.8439552E-01
        1   -1    0    0  501    0  0.00000000000E+00  0.00000000000E+00  0.16738973869E+04  0.16738973869E+04  0.50400001928E-02 0. -1.
       -1   -1    0    0    0  501  0.00000000000E+00  0.00000000000E+00 -0.86017430637E+03  0.86017430638E+03  0.50400001928E-02 0.  1.
    10030    2    1    2    0    0  0.00000000000E+00  0.00000000000E+00  0.81372308055E+03  0.25340716933E+04  0.23998695996E+04 0.  0.
        2    1    3    3  502    0  0.90280796958E+03  0.47547825947E+03 -0.25987661203E+03  0.10529376328E+04  0.25500000920E-02 0.  1.
       -2    1    3    3    0  502 -0.90280796958E+03 -0.47547825947E+03  0.10735996926E+04  0.14811340605E+04  0.25500000920E-02 0. -1.
</event>
<event>
 5   0  0.9083687E-06  0.2430703E+04  0.7818609E-02  0.8428098E-01
        1   -1    0    0  501    0  0.00000000000E+00  0.00000000000E+00  0.26058327941E+04  0.26058327941E+04  0.50400001928E-02 0.  1.
       -1   -1    0    0    0  501  0.00000000000E+00  0.00000000000E+00 -0.56683555187E+03  0.56683555189E+03  0.50400001928E-02 0. -1.
    10030    2    1    2    0    0  0.00000000000E+00  0.00000000000E+00  0.20389972422E+04  0.31726683460E+04  0.24307025075E+04 0.  0.
        2    1    3    3  502    0 -0.74738073107E+03 -0.49715780911E+03 -0.49956230631E+02  0.89902139536E+03  0.25500000920E-02 0. -1.
       -2    1    3    3    0  502  0.74738073107E+03  0.49715780911E+03  0.20889534728E+04  0.22736469506E+04  0.25500000920E-02 0.  1.
</event>
<event>
 5   0  0.2048028E-05  0.2407690E+04  0.7818609E-02  0.8436630E-01
        2   -1    0    0  501    0  0.00000000000E+00  0.00000000000E+00  0.16501231553E+04  0.16501231553E+04  0.25500000920E-02 0.  1.
       -2   -1    0    0    0  501  0.00000000000E+00  0.00000000000E+00 -0.87826369233E+03  0.87826369233E+03  0.25500000920E-02 0. -1.
    10030    2    1    2    0    0  0.00000000000E+00  0.00000000000E+00  0.77185946302E+03  0.25283868477E+04  0.24076903914E+04 0.  0.
        5    1    3    3  502    0  0.74967699603E+03 -0.38867857839E+03 -0.51506339464E+03  0.98914054925E+03  0.46999998093E+01 0. -1.
       -5    1    3    3    0  502 -0.74967699603E+03  0.38867857839E+03  0.12869228577E+04  0.15392462984E+04  0.46999998093E+01 0.  1.
</event>
<event>
 5   0  0.9038897E-06  0.2402102E+04  0.7818609E-02  0.8438717E-01
        1   -1    0    0  501    0  0.00000000000E+00  0.00000000000E+00  0.11586792159E+04  0.11586792160E+04  0.50400001928E-02 0. -1.
       -1   -1    0    0    0  501  0.00000000000E+00  0.00000000000E+00 -0.12449721831E+04  0.12449721831E+04  0.50400001928E-02 0.  1.
    10030    2    1    2    0    0  0.00000000000E+00  0.00000000000E+00 -0.86292967158E+02  0.24036513991E+04  0.24021019071E+04 0.  0.
        1    1    3    3  502    0 -0.43941058628E+03  0.48452287554E+03 -0.10511091745E+04  0.12380123493E+04  0.50400001928E-02 0.  1.
       -1    1    3    3    0  502  0.43941058628E+03 -0.48452287554E+03  0.96481620737E+03  0.11656390497E+04  0.50400001928E-02 0. -1.
</event>
<event>
 5   0  0.7233625E-06  0.2401830E+04  0.7818609E-02  0.8438819E-01
       -3   -1    0    0    0  501  0.00000000000E+00  0.00000000000E+00  0.23528459204E+04  0.23528459226E+04  0.10100000352E+00 0. -1.
        3   -1    0    0  501    0  0.00000000000E+00  0.00000000000E+00 -0.61295869126E+03  0.61295869958E+03  0.10100000352E+00 0.  1.
    10030    2    1    2    0    0  0.00000000000E+00  0.00000000000E+00  0.17398872292E+04  0.29658046222E+04  0.24018304450E+04 0.  0.
        4    1    3    3  502    0 -0.11928660087E+04 -0.23715163276E+02  0.70106764817E+03  0.13838313423E+04  0.12699999809E+01 0. -1.
       -4    1    3    3    0  502  0.11928660087E+04  0.23715163276E+02  0.10388195810E+04  0.15819732799E+04  0.12699999809E+01 0.  1.
</event>
<event>
 5   0  0.2122194E-05  0.2426073E+04  0.7818609E-02  0.8429806E-01
       -2   -1    0    0    0  501  0.00000000000E+00  0.00000000000E+00  0.84675741547E+03  0.84675741548E+03  0.25500000920E-02 0.  1.
        2   -1    0    0  501    0  0.00000000000E+00  0.00000000000E+00 -0.17377555687E+04  0.17377555687E+04  0.25500000920E-02 0. -1.
    10030    2    1    2    0    0  0.00000000000E+00  0.00000000000E+00 -0.89099815324E+03  0.25845129842E+04  0.24260728877E+04 0.  0.
        3    1    3    3  502    0 -0.78856994218E+03 -0.26075354414E+03 -0.13873309492E+04  0.16169484028E+04  0.10100000352E+00 0. -1.
       -3    1    3    3    0  502  0.78856994218E+03  0.26075354414E+03  0.49633279601E+03  0.96756458136E+03  0.10100000352E+00 0.  1.
</event>
<event>
 5   0  0.8528103E-06  0.2412962E+04  0.7818609E-02  0.8434667E-01
        1   -1    0    0  501    0  0.00000000000E+00  0.00000000000E+00  0.14608132326E+04  0.14608132326E+04  0.50400001928E-02 0. -1.
       -1   -1    0    0    0  501  0.00000000000E+00  0.00000000000E+00 -0.99642909096E+03  0.99642909097E+03  0.50400001928E-02 0.  1.
    10030    2    1    2    0    0  0.00000000000E+00  0.00000000000E+00  0.46438414160E+03  0.24572423235E+04  0.24129623299E+04 0.  0.
        4    1    3    3  502    0 -0.89287215322E+03 -0.48462621857E+03 -0.43052822612E+03  0.11033763728E+04  0.12699999809E+01 0.  1.
       -4    1    3    3    0  502  0.89287215322E+03  0.48462621857E+03  0.89491236772E+03  0.13538659507E+04  0.12699999809E+01 0. -1.
</event>
<event>
 5   0  0.2025353E-05  0.2419653E+04  0.7818609E-02  0.8432182E-01
        2   -1    0    0  501    0  0.00000000000E+00  0.00000000000E+00  0.67679658731E+03  0.67679658731E+03  0.25500000920E-02 0.  1.
       -2   -1    0    0    0  501  0.00000000000E+00  0.00000000000E+00 -0.21626594680E+04  0.21626594680E+04  0.25500000920E-02 0. -1.
    10030    2    1    2    0    0  0.00000000000E+00  0.00000000000E+00 -0.14858628807E+04  0.28394560554E+04  0.24196533202E+04 0.  0.
        4    1    3    3  502    0  0.72644937608E+03 -0.37199448413E+03  0.30508115878E+03  0.87131206728E+03  0.12699999809E+01 0.  1.
       -4    1    3    3    0  502 -0.72644937608E+03  0.37199448413E+03 -0.17909440395E+04  0.19681439881E+04  0.12699999809E+01 0. -1.
</event>
<event>
 5   0  0.2080257E-05  0.2402895E+04  0.7818609E-02  0.8438421E-01
       -2   -1    0    0    0  501  0.00000000000E+00  0.00000000000E+00  0.55799796283E+03  0.55799796284E+03  0.25500000920E-02 0.  1.
        2   -1    0    0  501    0  0.00000000000E+00  0.00000000000E+00 -0.25868839528E+04  0.25868839528E+04  0.25500000920E-02 0. -1.
    10030    2    1    2    0    0  0.00000000000E+00  0.00000000000E+00 -0.20288859899E+04  0.31448819156E+04  0.24028949005E+04 0.  0.
        1    1    3    3  502    0 -0.23779496081E+03  0.11679588929E+04 -0.12120725152E+04  0.16999394698E+04  0.50400001928E-02 0. -1.
       -1    1    3    3    0  502  0.23779496081E+03 -0.11679588929E+04 -0.81681347471E+03  0.14449424457E+04  0.50400001928E-02 0.  1.
</event>
<event>
 5   0  0.9176817E-06  0.2400954E+04  0.7818609E-02  0.8439147E-01
        1   -1    0    0  501    0  0.00000000000E+00  0.00000000000E+00  0.14046289785E+04  0.14046289785E+04  0.50400001928E-02 0. -1.
       -1   -1    0    0    0  501  0.00000000000E+00  0.00000000000E+00 -0.10259968953E+04  0.10259968953E+04  0.50400001928E-02 0.  1.
    10030    2    1    2    0    0  0.00000000000E+00  0.00000000000E+00  0.37863208320E+03  0.24306258738E+04  0.24009539529E+04 0.  0.
        3    1    3    3  502    0 -0.32669775366E+03  0.33987778203E+03  0.13069966709E+04  0.13894202520E+04  0.10100000352E+00 0. -1.
       -3    1    3    3    0  502  0.32669775366E+03 -0.33987778203E+03 -0.92836458765E+03  0.10412056217E+04  0.10100000352E+00 0.  1.
</event>
<event>
 5   0  0.2122194E-05  0.2369094E+04  0.7818609E-02  0.8451166E-01
       -2   -1    0    0    0  501  0.00000000000E+00  0.00000000000E+00  0.52439678224E+03  0.52439678224E+03  0.25500000920E-02 0. -1.
        2   -1    0    0  501    0  0.00000000000E+00  0.00000000000E+00 -0.26757433067E+04  0.26757433067E+04  0.25500000920E-02 0.  1.
    10030    2    1    2    0    0  0.00000000000E+00  0.00000000000E+00 -0.21513465245E+04  0.32001400889E+04  0.23690936496E+04 0.  0.
        3    1    3    3  502    0 -0.99938705553E+03 -0.36962845104E+03 -0.17746338872E+04  0.20699577586E+04  0.10100000352E+00 0.  1.
       -3    1    3    3    0  502  0.99938705553E+03  0.36962845104E+03 -0.37671263729E+03  0.11301823304E+04  0.10100000352E+00 0. -1.
</event>
<event>
 5   0  0.8528103E-06  0.2408914E+04  0.7818609E-02  0.8436174E-01
       -1   -1    0    0    0  501  0.00000000000E+00  0.00000000000E+00  0.14073074245E+04  0.14073074246E+04  0.50400001928E-02 0.  1.
        1   -1    0    0  501    0  0.00000000000E+00  0.00000000000E+00 -0.10308453504E+04  0.10308453504E+04  0.50400001928E-02 0. -1.
    10030    2    1    2    0    0  0.00000000000E+00  0.00000000000E+00  0.37646207417E+03  0.24381527749E+04  0.24089137097E+04 0.  0.
        4    1    3    3  502    0  0.78684791307E+03  0.25797683566E+03  0.10735092189E+04  0.13557674365E+04  0.12699999809E+01 0.  1.
       -4    1    3    3    0  502 -0.78684791307E+03 -0.25797683566E+03 -0.69704714469E+03  0.10823853384E+04  0.12699999809E+01 0. -1.
</event>
<event>
 5   0  0.2087882E-05  0.2400792E+04  0.7818609E-02  0.8439207E-01
        2   -1    0    0  501    0  0.00000000000E+00  0.00000000000E+00  0.14016858949E+04  0.14016858949E+04  0.25500000920E-02 0.  1.
       -2   -1    0    0    0  501  0.00000000000E+00  0.00000000000E+00 -0.10280121337E+04  0.10280121337E+04  0.25500000920E-02 0. -1.
    10030    2    1    2    0    0  0.00000000000E+00  0.00000000000E+00  0.37367376119E+03  0.24296980286E+04  0.24007916258E+04 0.  0.
        2    1    3    3  502    0 -0.90641519782E+03  0.74311590799E+03  0.44907125220E+03  0.12551791717E+04  0.25500000920E-02 0.  1.
       -2    1    3    3    0  502  0.90641519782E+03 -0.74311590799E+03 -0.75397491015E+02  0.11745188569E+04  0.25500000920E-02 0. -1.
</event>
<event>
 5   0  0.8528103E-06  0.2417612E+04  0.7818609E-02  0.8432939E-01
        1   -1    0    0  501    0  0.00000000000E+00  0.00000000000E+00  0.17759762180E+04  0.17759762180E+04  0.50400001928E-02 0.  1.
       -1   -1    0    0    0  501  0.00000000000E+00  0.00000000000E+00 -0.82276546086E+03  0.82276546087E+03  0.50400001928E-02 0. -1.
    10030    2    1    2    0    0  0.00000000000E+00  0.00000000000E+00  0.95321075717E+03  0.25987416789E+04  0.24176119552E+04 0.  0.
        4    1    3    3  502    0  0.97746863814E+03 -0.48917138101E+03  0.10314944072E+04  0.15029024930E+04  0.12699999809E+01 0.  1.
       -4    1    3    3    0  502 -0.97746863814E+03  0.48917138101E+03 -0.78283650037E+02  0.10958391859E+04  0.12699999809E+01 0. -1.
</event>
<event>
 5   0  0.8528103E-06  0.2412648E+04  0.7818609E-02  0.8434784E-01
        1   -1    0    0  501    0  0.00000000000E+00  0.00000000000E+00  0.12597470130E+04  0.12597470130E+04  0.50400001928E-02 0. -1.
       -1   -1    0    0    0  501  0.00000000000E+00  0.00000000000E+00 -0.11551661500E+04  0.11551661500E+04  0.50400001928E-02 0.  1.
    10030    2    1    2    0    0  0.00000000000E+00  0.00000000000E+00  0.10458086300E+03  0.24149131629E+04  0.24126475971E+04 0.  0.
        4    1    3    3  502    0  0.22617279731E+03  0.10518988855E+04  0.59830253366E+03  0.12311023248E+04  0.12699999809E+01 0. -1.
       -4    1    3    3    0  502 -0.22617279731E+03 -0.10518988855E+04 -0.49372167066E+03  0.11838108381E+04  0.12699999809E+01 0.  1.
</event>
<event>
 5   0  0.9083687E-06  0.2394473E+04  0.7818609E-02  0.8441575E-01
       -1   -1    0    0    0  501  0.00000000000E+00  0.00000000000E+00  0.13020516718E+04  0.13020516718E+04  0.50400001928E-02 0.  1.
        1   -1    0    0  501    0  0.00000000000E+00  0.00000000000E+00 -0.11008594006E+04  0.11008594006E+04  0.50400001928E-02 0. -1.
    10030    2    1    2    0    0  0.00000000000E+00  0.00000000000E+00  0.20119227126E+03  0.24029110724E+04  0.23944734895E+04 0.  0.
        2    1    3    3  502    0 -0.79633868716E+03 -0.72036423028E+03  0.63189150839E+03  0.12459401299E+04  0.25500000920E-02 0.  1.
       -2    1    3    3    0  502  0.79633868716E+03  0.72036423028E+03 -0.43069923713E+03  0.11569709425E+04  0.25500000920E-02 0. -1.
</event>
<event>
 5   0  0.2087882E-05  0.2449124E+04  0.7818609E-02  0.8421338E-01
       -2   -1    0    0    0  501  0.00000000000E+00  0.00000000000E+00  0.10397054912E+04  0.10397054912E+04  0.25500000920E-02 0. -1.
        2   -1    0    0  501    0  0.00000000000E+00  0.00000000000E+00 -0.14422852030E+04  0.14422852030E+04  0.25500000920E-02 0.  1.
    10030    2    1    2    0    0  0.00000000000E+00  0.00000000000E+00 -0.40257971178E+03  0.24819906942E+04  0.24491237988E+04 0.  0.
        2    1    3    3  502    0  0.41153914180E+03 -0.11448894721E+04 -0.34249920160E+03  0.12638995497E+04  0.25500000920E-02 0. -1.
       -2    1    3    3    0  502 -0.41153914180E+03  0.11448894721E+04 -0.60080510183E+02  0.12180911445E+04  0.25500000920E-02 0.  1.
</event>
<event>
 5   0  0.2080257E-05  0.2403669E+04  0.7818609E-02  0.8438131E-01
        2   -1    0    0  501    0  0.00000000000E+00  0.00000000000E+00  0.13314733062E+04  0.13314733062E+04  0.25500000920E-02 0.  1.
       -2   -1    0    0    0  501  0.00000000000E+00  0.00000000000E+00 -0.10848179348E+04  0.10848179348E+04  0.25500000920E-02 0. -1.
    10030    2    1    2    0    0  0.00000000000E+00  0.00000000000E+00  0.24665537142E+03  0.24162912410E+04  0.24036689641E+04 0.  0.
        1    1    3    3  502    0 -0.13501392189E+03  0.60356115993E+03  0.11592201000E+04  0.13138896731E+04  0.50400001928E-02 0.  1.
       -1    1    3    3    0  502  0.13501392189E+03 -0.60356115993E+03 -0.91256472858E+03  0.11024015678E+04  0.50400001928E-02 0. -1.
</event>
<event>
 5   0  0.2048028E-05  0.2296039E+04  0.7818609E-02  0.8479484E-01
       -2   -1    0    0    0  501  0.00000000000E+00  0.00000000000E+00  0.11911206235E+04  0.11911206235E+04  0.25500000920E-02 0.  1.
        2   -1    0    0  501    0  0.00000000000E+00  0.00000000000E+00 -0.11064783151E+04  0.11064783151E+04  0.25500000920E-02 0. -1.
    10030    2    1    2    0    0  0.00000000000E+00  0.00000000000E+00  0.84642308391E+02  0.22975989386E+04  0.22960393207E+04 0.  0.
        5    1    3    3  502    0  0.10965143875E+04 -0.25786707060E+03 -0.17938706025E+03  0.11406318580E+04  0.46999998093E+01 0. -1.
       -5    1    3    3    0  502 -0.10965143875E+04  0.25786707060E+03  0.26402936864E+03  0.11569670806E+04  0.46999998093E+01 0.  1.
</event>
<event>
 5   0  0.2080257E-05  0.2389588E+04  0.7818609E-02  0.8443412E-01
        2   -1    0    0  501    0  0.00000000000E+00  0.00000000000E+00  0.26950592609E+04  0.26950592609E+04  0.25500000920E-02 0.  1.
       -2   -1    0    0    0  501  0.00000000000E+00  0.00000000000E+00 -0.52968499755E+03  0.52968499756E+03  0.25500000920E-02 0. -1.
    10030    2    1    2    0    0  0.00000000000E+00  0.00000000000E+00  0.21653742634E+04  0.32247442585E+04  0.23895877954E+04 0.  0.
        1    1    3    3  502    0 -0.11666931991E+04  0.21869744359E+03  0.89898248645E+03  0.14890168245E+04  0.50400001928E-02 0.  1.
       -1    1    3    3    0  502  0.11666931991E+04 -0.21869744359E+03  0.12663917769E+04  0.17357274340E+04  0.50400001928E-02 0. -1.
</event>
<event>
 5   0  0.9038897E-06  0.2404688E+04  0.7818609E-02  0.8437750E-01
       -1   -1    0    0    0  501  0.00000000000E+00  0.00000000000E+00  0.14016093871E+04  0.14016093871E+04  0.50400001928E-02 0.  1.
        1   -1    0    0  501    0  0.00000000000E+00  0.00000000000E+00 -0.10314083793E+04  0.10314083793E+04  0.50400001928E-02 0. -1.
    10030    2    1    2    0    0  0.00000000000E+00  0.00000000000E+00  0.37020100787E+03  0.24330177664E+04  0.24046884758E+04 0.  0.
        1    1    3    3  502    0  0.53794881410E+03 -0.34180994412E+03 -0.84642419772E+03  0.10595550420E+04  0.50400001928E-02 0. -1.
       -1    1    3    3    0  502 -0.53794881410E+03  0.34180994412E+03  0.12166252056E+04  0.13734627244E+04  0.50400001928E-02 0.  1.
</event>
<event>
 5   0  0.2048028E-05  0.2383137E+04  0.7818609E-02  0.8445844E-01
       -2   -1    0    0    0  501  0.00000000000E+00  0.00000000000E+00  0.15547047109E+04  0.15547047109E+04  0.25500000920E-02 0.  1.
        2   -1    0    0  501    0  0.00000000000E+00  0.00000000000E+00 -0.91325076322E+03  0.91325076323E+03  0.25500000920E-02 0. -1.
    10030    2    1    2    0    0  0.00000000000E+00  0.00000000000E+00  0.64145394765E+03  0.24679554741E+04  0.23831368100E+04 0.  0.
        5    1    3    3  502    0 -0.90097645297E+03 -0.35810460154E+03  0.10380678388E+04  0.14204240220E+04  0.46999998093E+01 0.  1.
       -5    1    3    3    0  502  0.90097645297E+03  0.35810460154E+03 -0.39661389112E+03  0.10475314521E+04  0.46999998093E+01 0. -1.
</event>
<event>
 5   0  0.7233625E-06  0.2406044E+04  0.7818609E-02  0.8437244E-01
       -3   -1    0    0    0  501  0.00000000000E+00  0.00000000000E+00  0.93298200389E+03  0.93298200936E+03  0.10100000352E+00 0. -1.
        3   -1    0    0  501    0  0.00000000000E+00  0.00000000000E+00 -0.15512211051E+04  0.15512211083E+04  0.10100000352E+00 0.  1.
    10030    2    1    2    0    0  0.00000000000E+00  0.00000000000E+00 -0.61823910117E+03  0.24842031177E+04  0.24060435457E+04 0.  0.
        3    1    3    3  502    0  0.39848662577E+03 -0.37096337306E+03  0.79850890648E+03  0.96644808397E+03  0.10100000352E+00 0. -1.
       -3    1    3    3    0  502 -0.39848662577E+03  0.37096337306E+03 -0.14167480076E+04  0.15177550337E+04  0.10100000352E+00 0.  1.
</event>
<event>
 5   0  0.2025353E-05  0.2401925E+04  0.7818609E-02  0.8438783E-01
        2   -1    0    0  501    0  0.00000000000E+00  0.00000000000E+00  0.21322238925E+04  0.21322238925E+04  0.25500000920E-02 0. -1.
       -2   -1    0    0    0  501  0.00000000000E+00  0.00000000000E+00 -0.67643516483E+03  0.67643516484E+03  0.25500000920E-02 0.  1.
    10030    2    1    2    0    0  0.00000000000E+00  0.00000000000E+00  0.14557887277E+04  0.28086590574E+04  0.24019252446E+04 0.  0.
        4    1    3    3  502    0 -0.32439200414E+03  0.11055280799E+04  0.33154773422E+03  0.11988944994E+04  0.12699999809E+01 0.  1.
       -4    1    3    3    0  502  0.32439200414E+03 -0.11055280799E+04  0.11242409935E+04  0.16097645580E+04  0.12699999809E+01 0. -1.
</event>
<event>
 5   0  0.2025353E-05  0.2391930E+04  0.7818609E-02  0.8442531E-01
       -2   -1    0    0    0  501  0.00000000000E+00  0.00000000000E+00  0.34435235624E+04  0.34435235624E+04  0.25500000920E-02 0.  1.
        2   -1    0    0  501    0  0.00000000000E+00  0.00000000000E+00 -0.41536892018E+03  0.41536892018E+03  0.25500000920E-02 0. -1.
    10030    2    1    2    0    0  0.00000000000E+00  0.00000000000E+00  0.30281546422E+04  0.38588924825E+04  0.23919303198E+04 0.  0.
        4    1    3    3  502    0  0.60565393506E+03  0.10175496759E+04  0.12436057979E+04  0.17172015099E+04  0.12699999809E+01 0.  1.
       -4    1    3    3    0  502 -0.60565393506E+03 -0.10175496759E+04  0.17845488443E+04  0.21416909727E+04  0.12699999809E+01 0. -1.
</event>
<event>
 5   0  0.9083687E-06  0.2417562E+04  0.7818609E-02  0.8432958E-01
       -1   -1    0    0    0  501  0.00000000000E+00  0.00000000000E+00  0.79703826626E+03  0.79703826627E+03  0.50400001928E-02 0.  1.
        1   -1    0    0  501    0  0.00000000000E+00  0.00000000000E+00 -0.18332256214E+04  0.18332256214E+04  0.50400001928E-02 0. -1.
    10030    2    1    2    0    0  0.00000000000E+00  0.00000000000E+00 -0.10361873552E+04  0.26302638877E+04  0.24175615574E+04 0.  0.
        2    1    3    3  502    0 -0.66838886522E+03 -0.78233743204E+03  0.17202966796E+03  0.10432591909E+04  0.25500000920E-02 0.  1.
       -2    1    3    3    0  502  0.66838886522E+03  0.78233743204E+03 -0.12082170231E+04  0.15870046968E+04  0.25500000920E-02 0. -1.
</event>
<event>
 5   0  0.9038897E-06  0.2365840E+04  0.7818609E-02  0.8452404E-01
        1   -1    0    0  501    0  0.00000000000E+00  0.00000000000E+00  0.16921883903E+04  0.16921883903E+04  0.50400001928E-02 0.  1.
       -1   -1    0    0    0  501  0.00000000000E+00  0.00000000000E+00 -0.82691740017E+03  0.82691740018E+03  0.50400001928E-02 0. -1.
    10030    2    1    2    0    0  0.00000000000E+00  0.00000000000E+00  0.86527099012E+03  0.25191057905E+04  0.23658402519E+04 0.  0.
        1    1    3    3  502    0  0.23331168964E+03  0.11440884826E+04  0.23081149032E+03  0.11902297024E+04  0.50400001928E-02 0. -1.
       -1    1    3    3    0  502 -0.23331168964E+03 -0.11440884826E+04  0.63445949980E+03  0.13288760880E+04  0.50400001928E-02 0.  1.
</event>
<event>
 5   0  0.8898848E-06  0.2375236E+04  0.7818609E-02  0.8448833E-01
        1   -1    0    0  501    0  0.00000000000E+00  0.00000000000E+00  0.19046013630E+04  0.19046013630E+04  0.50400001928E-02 0. -1.
       -1   -1    0    0    0  501  0.00000000000E+00  0.00000000000E+00 -0.74054175604E+03  0.74054175606E+03  0.50400001928E-02 0.  1.
    10030    2    1    2    0    0  0.00000000000E+00  0.00000000000E+00  0.11640596070E+04  0.26451431191E+04  0.23752362728E+04 0.  0.
        5    1    3    3  502    0  0.80252678228E+03 -0.43071189817E+03  0.14307712128E+04  0.16960808734E+04  0.46999998093E+01 0. -1.
       -5    1    3    3    0  502 -0.80252678228E+03  0.43071189817E+03 -0.26671160588E+03  0.94906224570E+03  0.46999998093E+01 0.  1.
</event>
<event>
 5   0  0.2025353E-05  0.2406107E+04  0.7818609E-02  0.8437221E-01
       -2   -1    0    0    0  501  0.00000000000E+00  0.00000000000E+00  0.17396887970E+04  0.17396887970E+04  0.25500000920E-02 0.  1.
        2   -1    0    0  501    0  0.00000000000E+00  0.00000000000E+00 -0.83195228077E+03  0.83195228077E+03  0.25500000920E-02 0. -1.
    10030    2    1    2    0    0  0.00000000000E+00  0.00000000000E+00  0.90773651624E+03  0.25716410778E+04  0.24061072815E+04 0.  0.
        4    1    3    3  502    0  0.95943118809E+03  0.56981122083E+03  0.93440341703E+03  0.14554395868E+04  0.12699999809E+01 0. -1.
       -4    1    3    3    0  502 -0.95943118809E+03 -0.56981122083E+03 -0.26666900790E+02  0.11162014910E+04  0.12699999809E+01 0.  1.
</event>
<event>
 5   0  0.2048028E-05  0.2439728E+04  0.7818609E-02  0.8424778E-01
        2   -1    0    0  501    0  0.00000000000E+00  0.00000000000E+00  0.16268810804E+04  0.16268810804E+04  0.25500000920E-02 0.  1.
       -2   -1    0    0    0  501  0.00000000000E+00  0.00000000000E+00 -0.91467546398E+03  0.91467546399E+03  0.25500000920E-02 0. -1.
    10030    2    1    2    0    0  0.00000000000E+00  0.00000000000E+00  0.71220561641E+03  0.25415565444E+04  0.24397280234E+04 0.  0.
        5    1    3    3  502    0 -0.33600145437E+03 -0.12558190843E+03 -0.85848392187E+03  0.93042169319E+03  0.46999998093E+01 0. -1.
       -5    1    3    3    0  502  0.33600145437E+03  0.12558190843E+03  0.15706895383E+04  0.16111348512E+04  0.46999998093E+01 0.  1.
</event>
<event>
 5   0  0.2080257E-05  0.2393220E+04  0.7818609E-02  0.8442046E-01
       -2   -1    0    0    0  501  0.00000000000E+00  0.00000000000E+00  0.58770234464E+03  0.58770234465E+03  0.25500000920E-02 0. -1.
        2   -1    0    0  501    0  0.00000000000E+00  0.00000000000E+00 -0.24363963705E+04  0.24363963705E+04  0.25500000920E-02 0.  1.
    10030    2    1    2    0    0  0.00000000000E+00  0.00000000000E+00 -0.18486940259E+04  0.30240987152E+04  0.23932203070E+04 0.  0.
        1    1    3    3  502    0 -0.69541504473E+03 -0.68348167284E+03 -0.18008289262E+04  0.20478608603E+04  0.50400001928E-02 0.  1.
       -1    1    3    3    0  502  0.69541504473E+03  0.68348167284E+03 -0.47865099679E+02  0.97623785490E+03  0.50400001928E-02 0. -1.
</event>
<event>
 5   0  0.2080257E-05  0.2397443E+04  0.7818609E-02  0.8440461E-01
        2   -1    0    0  501    0  0.00000000000E+00  0.00000000000E+00  0.26825951759E+04  0.26825951759E+04  0.25500000920E-02 0.  1.
       -2   -1    0    0    0  501  0.00000000000E+00  0.00000000000E+00 -0.53565041259E+03  0.53565041259E+03  0.25500000920E-02 0. -1.
    10030    2    1    2    0    0  0.00000000000E+00  0.00000000000E+00  0.21469447633E+04  0.32182455885E+04  0.23974429818E+04 0.  0.
        1    1    3    3  502    0  0.61229828602E+03 -0.10305277981E+04  0.10815799757E+04  0.16145315041E+04  0.50400001928E-02 0. -1.
       -1    1    3    3    0  502 -0.61229828602E+03  0.10305277981E+04  0.10653647876E+04  0.16037140844E+04  0.50400001928E-02 0.  1.
</event>
<event>
 5   0  0.8898848E-06  0.2354942E+04  0.7818609E-02  0.8456568E-01
       -1   -1    0    0    0  501  0.00000000000E+00  0.00000000000E+00  0.81636303857E+03  0.81636303858E+03  0.50400001928E-02 0.  1.
        1   -1    0    0  501    0  0.00000000000E+00  0.00000000000E+00 -0.16983105990E+04  0.16983105991E+04  0.50400001928E-02 0. -1.
    10030    2    1    2    0    0  0.00000000000E+00  0.00000000000E+00 -0.88194756048E+03  0.25146736376E+04  0.23549420384E+04 0.  0.
        5    1    3    3  502    0 -0.97718055738E+03  0.39355343630E+03 -0.10026248069E+04  0.14543193399E+04  0.46999998093E+01 0. -1.
       -5    1    3    3    0  502  0.97718055738E+03 -0.39355343630E+03  0.12067724643E+03  0.10603542977E+04  0.46999998093E+01 0.  1.
</event>
<event>
 5   0  0.8898848E-06  0.2398360E+04  0.7818609E-02  0.8440118E-01
        1   -1    0    0  501    0  0.00000000000E+00  0.00000000000E+00  0.11400701880E+04  0.11400701880E+04  0.50400001928E-02 0.  1.
       -1   -1    0    0    0  501  0.00000000000E+00  0.00000000000E+00 -0.12613548098E+04  0.12613548098E+04  0.50400001928E-02 0. -1.
    10030    2    1    2    0    0  0.00000000000E+00  0.00000000000E+00 -0.12128462180E+03  0.24014249978E+04  0.23983602858E+04 0.  0.
        5    1    3    3  502    0  0.51671557072E+03 -0.45346118764E+03  0.92315527489E+03  0.11510255346E+04  0.46999998093E+01 0.  1.
       -5    1    3    3    0  502 -0.51671557072E+03  0.45346118764E+03 -0.10444398967E+04  0.12503994632E+04  0.46999998093E+01 0. -1.
</event>
<event>
 5   0  0.2025353E-05  0.2402158E+04  0.7818609E-02  0.8438696E-01
       -2   -1    0    0    0  501  0.00000000000E+00  0.00000000000E+00  0.94818411439E+03  0.94818411439E+03  0.25500000920E-02 0.  1.
        2   -1    0    0  501    0  0.00000000000E+00  0.00000000000E+00 -0.15214241724E+04  0.15214241724E+04  0.25500000920E-02 0. -1.
    10030    2    1    2    0    0  0.00000000000E+00  0.00000000000E+00 -0.57324005803E+03  0.24696082868E+04  0.24021575565E+04 0.  0.
        4    1    3    3  502    0 -0.84820159465E+03 -0.96660517773E+02  0.58196967938E+03  0.10331890057E+04  0.12699999809E+01 0.  1.
       -4    1    3    3    0  502  0.84820159465E+03  0.96660517773E+02 -0.11552097374E+04  0.14364192811E+04  0.12699999809E+01 0. -1.
</event>
<event>
 5   0  0.8528103E-06  0.2409586E+04  0.7818609E-02  0.8435923E-01
        1   -1    0    0  501    0  0.00000000000E+00  0.00000000000E+00  0.68944109288E+03  0.68944109290E+03  0.50400001928E-02 0. -1.
       -1   -1    0    0    0  501  0.00000000000E+00  0.00000000000E+00 -0.21053668957E+04  0.21053668957E+04  0.50400001928E-02 0.  1.
    10030    2    1    2    0    0  0.00000000000E+00  0.00000000000E+00 -0.14159258028E+04  0.27948079886E+04  0.24095862330E+04 0.  0.
        4    1    3    3  502    0  0.10002214093E+04 -0.66421915582E+03 -0.59258705459E+03  0.13389514497E+04  0.12699999809E+01 0. -1.
       -4    1    3    3    0  502 -0.10002214093E+04  0.66421915582E+03 -0.82333874824E+03  0.14558565389E+04  0.12699999809E+01 0.  1.
</event>
<event>
 5   0  0.2025353E-05  0.2386749E+04  0.7818609E-02  0.8444481E-01
        2   -1    0    0  501    0  0.00000000000E+00  0.00000000000E+00  0.24831723907E+04  0.24831723907E+04  0.25500000920E-02 0. -1.
       -2   -1    0    0    0  501  0.00000000000E+00  0.00000000000E+00 -0.57351768780E+03  0.57351768781E+03  0.25500000920E-02 0.  1.
    10030    2    1    2    0    0  0.00000000000E+00  0.00000000000E+00  0.19096547029E+04  0.30566900785E+04  0.23867494950E+04 0.  0.
        4    1    3    3  502    0 -0.27738692395E+03 -0.39411747600E+03  0.23529939941E+04  0.24018439665E+04  0.12699999809E+01 0. -1.
       -4    1    3    3    0  502  0.27738692395E+03  0.39411747600E+03 -0.44333929114E+03  0.65484611203E+03  0.12699999809E+01 0.  1.
</event>
<event>
 5   0  0.9176817E-06  0.2398409E+04  0.7818609E-02  0.8440099E-01
       -1   -1    0    0    0  501  0.00000000000E+00  0.00000000000E+00  0.84630220289E+03  0.84630220290E+03  0.50400001928E-02 0.  1.
        1   -1    0    0  501    0  0.00000000000E+00  0.00000000000E+00 -0.16992647700E+04  0.16992647700E+04  0.50400001928E-02 0. -1.
    10030    2    1    2    0    0  0.00000000000E+00  0.00000000000E+00 -0.85296256710E+03  0.25455669729E+04  0.23984090712E+04 0.  0.
        3    1    3    3  502    0 -0.94075802867E+03 -0.53872045475E+03 -0.97062303165E+03  0.14551132178E+04  0.10100000352E+00 0. -1.
       -3    1    3    3    0  502  0.94075802867E+03  0.53872045475E+03  0.11766046455E+03  0.10904537551E+04  0.10100000352E+00 0.  1.
</event>
<event>
 5   0  0.8528103E-06  0.2399110E+04  0.7818609E-02  0.8439837E-01
       -1   -1    0    0    0  501  0.00000000000E+00  0.00000000000E+00  0.11687359290E+04  0.11687359290E+04  0.50400001928E-02 0.  1.
        1   -1    0    0  501    0  0.00000000000E+00  0.00000000000E+00 -0.12311871263E+04  0.12311871263E+04  0.50400001928E-02 0. -1.
    10030    2    1    2    0    0  0.00000000000E+00  0.00000000000E+00 -0.62451197319E+02  0.23999230554E+04  0.23991103600E+04 0.  0.
        4    1    3    3  502    0 -0.77966800632E+03  0.44776791931E+03  0.76311688254E+03  0.11792910154E+04  0.12699999809E+01 0.  1.
       -4    1    3    3    0  502  0.77966800632E+03 -0.44776791931E+03 -0.82556807986E+03  0.12206320400E+04  0.12699999809E+01 0. -1.
</event>
<event>
 5   0  0.9083687E-06  0.2375073E+04  0.7818609E-02  0.8448895E-01
        1   -1    0    0  501    0  0.00000000000E+00  0.00000000000E+00  0.18241494374E+04  0.18241494374E+04  0.50400001928E-02 0. -1.
       -1   -1    0    0    0  501  0.00000000000E+00  0.00000000000E+00 -0.77309593366E+03  0.77309593368E+03  0.50400001928E-02 0.  1.
    10030    2    1    2    0    0  0.00000000000E+00  0.00000000000E+00  0.10510535037E+04  0.25972453711E+04  0.23750726410E+04 0.  0.
        2    1    3    3  502    0  0.11344292636E+04 -0.44749177908E+00  0.14151922441E+03  0.11432224828E+04  0.25500000920E-02 0.  1.
       -2    1    3    3    0  502 -0.11344292636E+04  0.44749177908E+00  0.90953427931E+03  0.14540228883E+04  0.25500000920E-02 0. -1.
</event>
<event>
 5   0  0.2080257E-05  0.2399682E+04  0.7818609E-02  0.8439622E-01
        2   -1    0    0  501    0  0.00000000000E+00  0.00000000000E+00  0.10718063273E+04  0.10718063273E+04  0.25500000920E-02 0. -1.
       -2   -1    0    0    0  501  0.00000000000E+00  0.00000000000E+00 -0.13431708472E+04  0.13431708472E+04  0.25500000920E-02 0.  1.
    10030    2    1    2    0    0  0.00000000000E+00  0.00000000000E+00 -0.27136451990E+03  0.24149771745E+04  0.23996824896E+04 0.  0.
        1    1    3    3  502    0 -0.11713639230E+04  0.23056020623E+02  0.12479941635E+03  0.11782189586E+04  0.50400001928E-02 0. -1.
       -1    1    3    3    0  502  0.11713639230E+04 -0.23056020623E+02 -0.39616393626E+03  0.12367582159E+04  0.50400001928E-02 0.  1.
</event>
<event>
 5   0  0.9038897E-06  0.2394885E+04  0.7818609E-02  0.8441421E-01
       -1   -1    0    0    0  501  0.00000000000E+00  0.00000000000E+00  0.13240649600E+04  0.13240649600E+04  0.50400001928E-02 0. -1.
        1   -1    0    0  501    0  0.00000000000E+00  0.00000000000E+00 -0.10829294663E+04  0.10829294663E+04  0.50400001928E-02 0.  1.
    10030    2    1    2    0    0  0.00000000000E+00  0.00000000000E+00  0.24113549378E+03  0.24069944263E+04  0.23948853505E+04 0.  0.
        1    1    3    3  502    0 -0.68863481085E+03 -0.23542794994E+03  0.10762830706E+04  0.12992418829E+04  0.50400001928E-02 0. -1.
       -1    1    3    3    0  502  0.68863481085E+03  0.23542794994E+03 -0.83514757680E+03  0.11077525434E+04  0.50400001928E-02 0.  1.
</event>
<event>
 5   0  0.2080257E-05  0.2404612E+04  0.7818609E-02  0.8437779E-01
       -2   -1    0    0    0  501  0.00000000000E+00  0.00000000000E+00  0.95088238037E+03  0.95088238037E+03  0.25500000920E-02 0. -1.
        2   -1    0    0  501    0  0.00000000000E+00  0.00000000000E+00 -0.15202081793E+04  0.15202081793E+04  0.25500000920E-02 0.  1.
    10030    2    1    2    0    0  0.00000000000E+00  0.00000000000E+00 -0.56932579894E+03  0.24710905597E+04  0.24046115463E+04 0.  0.
        1    1    3    3  502    0  0.97707679548E+03  0.69141222150E+03 -0.40096981765E+03  0.12623417600E+04  0.50400001928E-02 0.  1.
       -1    1    3    3    0  502 -0.97707679548E+03 -0.69141222150E+03 -0.16835598129E+03  0.12087487997E+04  0.50400001928E-02 0. -1.
</event>
<event>
 5   0  0.2087882E-05  0.2408084E+04  0.7818609E-02  0.8436483E-01
        2   -1    0    0  501    0  0.00000000000E+00  0.00000000000E+00  0.15628326137E+04  0.15628326137E+04  0.25500000920E-02 0. -1.
       -2   -1    0    0    0  501  0.00000000000E+00  0.00000000000E+00 -0.92762135577E+03  0.92762135577E+03  0.25500000920E-02 0.  1.
    10030    2    1    2    0    0  0.00000000000E+00  0.00000000000E+00  0.63521125797E+03  0.24904539695E+04  0.24080838092E+04 0.  0.
        2    1    3    3  502    0  0.48919975493E+03 -0.14707971644E+03 -0.80999545912E+03  0.95762283129E+03  0.25500000920E-02 0.  1.
       -2    1    3    3    0  502 -0.48919975493E+03  0.14707971644E+03  0.14452067171E+04  0.15328311382E+04  0.25500000920E-02 0. -1.
</event>
<event>
 5   0  0.2025353E-05  0.2399724E+04  0.7818609E-02  0.8439607E-01
       -2   -1    0    0    0  501  0.00000000000E+00  0.00000000000E+00  0.17918184296E+04  0.17918184296E+04  0.25500000920E-02 0. -1.
        2   -1    0    0  501    0  0.00000000000E+00  0.00000000000E+00 -0.80346795673E+03  0.80346795673E+03  0.25500000920E-02 0.  1.
    10030    2    1    2    0    0  0.00000000000E+00  0.00000000000E+00  0.98835047287E+03  0.25952863863E+04  0.23997238945E+04 0.  0.
        4    1    3    3  502    0  0.29389337561E+03 -0.64179917723E+03 -0.55514547432E+03  0.89803541727E+03  0.12699999809E+01 0.  1.
       -4    1    3    3    0  502 -0.29389337561E+03  0.64179917723E+03  0.15434959472E+04  0.16972509691E+04  0.12699999809E+01 0. -1.
</event>
<event>
 5   0  0.8528103E-06  0.2401708E+04  0.7818609E-02  0.8438865E-01
        1   -1    0    0  501    0  0.00000000000E+00  0.00000000000E+00  0.23125941036E+04  0.23125941036E+04  0.50400001928E-02 0.  1.
       -1   -1    0    0    0  501  0.00000000000E+00  0.00000000000E+00 -0.62356373226E+03  0.62356373228E+03  0.50400001928E-02 0. -1.
    10030    2    1    2    0    0  0.00000000000E+00  0.00000000000E+00  0.16890303714E+04  0.29361578359E+04  0.24017075680E+04 0.  0.
        4    1    3    3  502    0  0.30012462477E+03  0.69112768767E+03  0.19876395097E+04  0.21256633563E+04  0.12699999809E+01 0.  1.
       -4    1    3    3    0  502 -0.30012462477E+03 -0.69112768767E+03 -0.29860913831E+03  0.81049447959E+03  0.12699999809E+01 0. -1.
</event>
<event>
 5   0  0.9038897E-06  0.2415745E+04  0.7818609E-02  0.8433632E-01
        1   -1    0    0  501    0  0.00000000000E+00  0.00000000000E+00  0.21284049014E+04  0.21284049014E+04  0.50400001928E-02 0.  1.
       -1   -1    0    0    0  501  0.00000000000E+00  0.00000000000E+00 -0.68546912250E+03  0.68546912252E+03  0.50400001928E-02 0. -1.
    10030    2    1    2    0    0  0.00000000000E+00  0.00000000000E+00  0.14429357789E+04  0.28138740240E+04  0.24157448873E+04 0.  0.
        1    1    3    3  502    0 -0.56384262371E+03 -0.53429949228E+03  0.17988733431E+04  0.19594233224E+04  0.50400001928E-02 0.  1.
       -1    1    3    3    0  502  0.56384262371E+03  0.53429949228E+03 -0.35593756419E+03  0.85445070155E+03  0.50400001928E-02 0. -1.
</event>
<event>
 5   0  0.2025353E-05  0.2315008E+04  0.7818609E-02  0.8472027E-01
       -2   -1    0    0    0  501  0.00000000000E+00  0.00000000000E+00  0.96950992872E+03  0.96950992872E+03  0.25500000920E-02 0.  1.
        2   -1    0    0  501    0  0.00000000000E+00  0.00000000000E+00 -0.13819512951E+04  0.13819512951E+04  0.25500000920E-02 0. -1.
    10030    2    1    2    0    0  0.00000000000E+00  0.00000000000E+00 -0.41244136638E+03  0.23514612238E+04  0.23150079927E+04 0.  0.
        4    1    3    3  502    0 -0.77657281174E+03 -0.35597384348E+03  0.58712295448E+03  0.10365798019E+04  0.12699999809E+01 0.  1.
       -4    1    3    3    0  502  0.77657281174E+03  0.35597384348E+03 -0.99956432086E+03  0.13148814219E+04  0.12699999809E+01 0. -1.
</event>
<event>
 5   0  0.2122194E-05  0.2399934E+04  0.7818609E-02  0.8439528E-01
       -2   -1    0    0    0  501  0.00000000000E+00  0.00000000000E+00  0.13173071941E+04  0.13173071941E+04  0.25500000920E-02 0. -1.
        2   -1    0    0  501    0  0.00000000000E+00  0.00000000000E+00 -0.10930786177E+04  0.10930786177E+04  0.25500000920E-02 0.  1.
    10030    2    1    2    0    0  0.00000000000E+00  0.00000000000E+00  0.22422857643E+03  0.24103858117E+04  0.23999336047E+04 0.  0.
        3    1    3    3  502    0 -0.26213108655E+03 -0.10241332177E+03  0.12836932901E+04  0.13141802267E+04  0.10100000352E+00 0. -1.
       -3    1    3    3    0  502  0.26213108655E+03  0.10241332177E+03 -0.10594647137E+04  0.10962055851E+04  0.10100000352E+00 0.  1.
</event>
<event>
 5   0  0.9083687E-06  0.2372943E+04  0.7818609E-02  0.8449703E-01
       -1   -1    0    0    0  501  0.00000000000E+00  0.00000000000E+00  0.85716298085E+03  0.85716298086E+03  0.50400001928E-02 0. -1.
        1   -1    0    0  501    0  0.00000000000E+00  0.00000000000E+00 -0.16422950760E+04  0.16422950761E+04  0.50400001928E-02 0.  1.
    10030    2    1    2    0    0  0.00000000000E+00  0.00000000000E+00 -0.78513209520E+03  0.24994580569E+04  0.23729429347E+04 0.  0.
        2    1    3    3  502    0  0.15732987616E+03  0.25408187309E+03 -0.16020019510E+04  0.16296381621E+04  0.25500000920E-02 0.  1.
       -2    1    3    3    0  502 -0.15732987616E+03 -0.25408187309E+03  0.81686985581E+03  0.86981989486E+03  0.25500000920E-02 0. -1.
</event>
<event>
 5   0  0.9176817E-06  0.2398040E+04  0.7818609E-02  0.8440238E-01
       -1   -1    0    0    0  501  0.00000000000E+00  0.00000000000E+00  0.48365724838E+03  0.48365724841E+03  0.50400001928E-02 0. -1.
        1   -1    0    0  501    0  0.00000000000E+00  0.00000000000E+00 -0.29724539925E+04  0.29724539925E+04  0.50400001928E-02 0.  1.
    10030    2    1    2    0    0  0.00000000000E+00  0.00000000000E+00 -0.24887967442E+04  0.34561112410E+04  0.23980399655E+04 0.  0.
        3    1    3    3  502    0  0.94595953647E+03  0.40218600372E+03 -0.35473516331E+03  0.10873960054E+04  0.10100000352E+00 0. -1.
       -3    1    3    3    0  502 -0.94595953647E+03 -0.40218600372E+03 -0.21340615808E+04  0.23687152356E+04  0.10100000352E+00 0.  1.
</event>
<event>
 5   0  0.2087882E-05  0.2408826E+04  0.7818609E-02  0.8436207E-01
       -2   -1    0    0    0  501  0.00000000000E+00  0.00000000000E+00  0.76777612257E+03  0.76777612258E+03  0.25500000920E-02 0.  1.
        2   -1    0    0  501    0  0.00000000000E+00  0.00000000000E+00 -0.18893659981E+04  0.18893659981E+04  0.25500000920E-02 0. -1.
    10030    2    1    2    0    0  0.00000000000E+00  0.00000000000E+00 -0.11215898755E+04  0.26571421207E+04  0.24088255231E+04 0.  0.
        2    1    3    3  502    0 -0.11491758482E+04 -0.23683096566E+03 -0.86069658789E+03  0.14551606966E+04  0.25500000920E-02 0. -1.
       -2    1    3    3    0  502  0.11491758482E+04  0.23683096566E+03 -0.26089328765E+03  0.12019814241E+04  0.25500000920E-02 0.  1.
</event>
<event>
 5   0  0.2025353E-05  0.2410125E+04  0.7818609E-02  0.8435723E-01
       -2   -1    0    0    0  501  0.00000000000E+00  0.00000000000E+00  0.96861534059E+03  0.96861534060E+03  0.25500000920E-02 0. -1.
        2   -1    0    0  501    0  0.00000000000E+00  0.00000000000E+00 -0.14992284963E+04  0.14992284963E+04  0.25500000920E-02 0.  1.
    10030    2    1    2    0    0  0.00000000000E+00  0.00000000000E+00 -0.53061315570E+03  0.24678438369E+04  0.24101250761E+04 0.  0.
        4    1    3    3  502    0 -0.47560431006E+03 -0.63874612559E+03  0.66077429404E+03  0.10348045000E+04  0.12699999809E+01 0. -1.
       -4    1    3    3    0  502  0.47560431006E+03  0.63874612559E+03 -0.11913874497E+04  0.14330393369E+04  0.12699999809E+01 0.  1.
</event>
<event>
 5   0  0.9038897E-06  0.2399998E+04  0.7818609E-02  0.8439504E-01
       -1   -1    0    0    0  501  0.00000000000E+00  0.00000000000E+00  0.12476890775E+04  0.12476890775E+04  0.50400001928E-02 0. -1.
        1   -1    0    0  501    0  0.00000000000E+00  0.00000000000E+00 -0.11541313425E+04  0.11541313425E+04  0.50400001928E-02 0.  1.
    10030    2    1    2    0    0  0.00000000000E+00  0.00000000000E+00  0.93557735019E+02  0.24018204200E+04  0.23999975584E+04 0.  0.
        1    1    3    3  502    0 -0.21305483333E+02 -0.98634499540E+03  0.73042779572E+03  0.12275402797E+04  0.50400001928E-02 0. -1.
       -1    1    3    3    0  502  0.21305483333E+02  0.98634499540E+03 -0.63687006070E+03  0.11742801403E+04  0.50400001928E-02 0.  1.
</event>
<event>
 5   0  0.9038897E-06  0.2318011E+04  0.7818609E-02  0.8470853E-01
        1   -1    0    0  501    0  0.00000000000E+00  0.00000000000E+00  0.17121138742E+04  0.17121138742E+04  0.50400001928E-02 0.  1.
       -1   -1    0    0    0  501  0.00000000000E+00  0.00000000000E+00 -0.78458196832E+03  0.78458196834E+03  0.50400001928E-02 0. -1.
    10030    2    1    2    0    0  0.00000000000E+00  0.00000000000E+00  0.92753190591E+03  0.24966958426E+04  0.23180109348E+04 0.  0.
        1    1    3    3  502    0  0.49035573065E+03  0.49939420727E+03  0.14588030899E+04  0.16180079641E+04  0.50400001928E-02 0.  1.
       -1    1    3    3    0  502 -0.49035573065E+03 -0.49939420727E+03 -0.53127118397E+03  0.87868787847E+03  0.50400001928E-02 0. -1.
</event>
<event>
 5   0  0.2122194E-05  0.2408855E+04  0.7818609E-02  0.8436196E-01
        2   -1    0    0  501    0  0.00000000000E+00  0.00000000000E+00  0.17540629395E+04  0.17540629395E+04  0.25500000920E-02 0. -1.
       -2   -1    0    0    0  501  0.00000000000E+00  0.00000000000E+00 -0.82702034591E+03  0.82702034591E+03  0.25500000920E-02 0.  1.
    10030    2    1    2    0    0  0.00000000000E+00  0.00000000000E+00  0.92704259363E+03  0.25810832855E+04  0.24088551131E+04 0.  0.
        3    1    3    3  502    0 -0.53208644968E+03  0.96037716831E+03  0.99410802689E+03  0.14811114322E+04  0.10100000352E+00 0. -1.
       -3    1    3    3    0  502  0.53208644968E+03 -0.96037716831E+03 -0.67065433265E+02  0.10999718532E+04  0.10100000352E+00 0.  1.
</event>
<event>
 5   0  0.8528103E-06  0.2409916E+04  0.7818609E-02  0.8435801E-01
       -1   -1    0    0    0  501  0.00000000000E+00  0.00000000000E+00  0.11965670523E+04  0.11965670523E+04  0.50400001928E-02 0.  1.
        1   -1    0    0  501    0  0.00000000000E+00  0.00000000000E+00 -0.12134073205E+04  0.12134073205E+04  0.50400001928E-02 0. -1.
    10030    2    1    2    0    0  0.00000000000E+00  0.00000000000E+00 -0.16840268235E+02  0.24099743728E+04  0.24099155344E+04 0.  0.
        4    1    3    3  502    0 -0.17206886359E+03 -0.69766552759E+03 -0.97569590177E+03  0.12117462556E+04  0.12699999809E+01 0. -1.
       -4    1    3    3    0  502  0.17206886359E+03  0.69766552759E+03  0.95885563354E+03  0.11982281173E+04  0.12699999809E+01 0.  1.
</event>
<event>
 5   0  0.9038897E-06  0.2517724E+04  0.7818609E-02  0.8396698E-01
        1   -1    0    0  501    0  0.00000000000E+00  0.00000000000E+00  0.15780192980E+04  0.15780192980E+04  0.50400001928E-02 0.  1.
       -1   -1    0    0    0  501  0.00000000000E+00  0.00000000000E+00 -0.10042550642E+04  0.10042550642E+04  0.50400001928E-02 0. -1.
    10030    2    1    2    0    0  0.00000000000E+00  0.00000000000E+00  0.57376423374E+03  0.25822743622E+04  0.25177242672E+04 0.  0.
        1    1    3    3  502    0  0.87697546779E+03 -0.33927023092E+03 -0.57156155944E+03  0.11003966907E+04  0.50400001928E-02 0. -1.
       -1    1    3    3    0  502 -0.87697546779E+03  0.33927023092E+03  0.11453257932E+04  0.14818776715E+04  0.50400001928E-02 0.  1.
</event>
<event>
 5   0  0.9038897E-06  0.2390526E+04  0.7818609E-02  0.8443059E-01
       -1   -1    0    0    0  501  0.00000000000E+00  0.00000000000E+00  0.81150589635E+03  0.81150589636E+03  0.50400001928E-02 0.  1.
        1   -1    0    0  501    0  0.00000000000E+00  0.00000000000E+00 -0.17604963393E+04  0.17604963393E+04  0.50400001928E-02 0. -1.
    10030    2    1    2    0    0  0.00000000000E+00  0.00000000000E+00 -0.94899044295E+03  0.25720022357E+04  0.23905255990E+04 0.  0.
        1    1    3    3  502    0 -0.71795903505E+03 -0.34948376211E+03  0.48243365249E+03  0.93292352584E+03  0.50400001928E-02 0.  1.
       -1    1    3    3    0  502  0.71795903505E+03  0.34948376211E+03 -0.14314240954E+04  0.16390787098E+04  0.50400001928E-02 0. -1.
</event>
<event>
 5   0  0.9176817E-06  0.2389374E+04  0.7818609E-02  0.8443493E-01
       -1   -1    0    0    0  501  0.00000000000E+00  0.00000000000E+00  0.11959448977E+04  0.11959448977E+04  0.50400001928E-02 0. -1.
        1   -1    0    0  501    0  0.00000000000E+00  0.00000000000E+00 -0.11934303491E+04  0.11934303491E+04  0.50400001928E-02 0.  1.
    10030    2    1    2    0    0  0.00000000000E+00  0.00000000000E+00  0.25145486058E+01  0.23893752467E+04  0.23893739236E+04 0.  0.
        3    1    3    3  502    0  0.58026151075E+03  0.74007813900E+03  0.73804656239E+03  0.11954630112E+04  0.10100000352E+00 0. -1.
       -3    1    3    3    0  502 -0.58026151075E+03 -0.74007813900E+03 -0.73553201378E+03  0.11939122355E+04  0.10100000352E+00 0.  1.
</event>
<event>
 5   0  0.2048028E-05  0.2420963E+04  0.7818609E-02  0.8431697E-01
       -2   -1    0    0    0  501  0.00000000000E+00  0.00000000000E+00  0.16980360161E+04  0.16980360161E+04  0.25500000920E-02 0.  1.
        2   -1    0    0  501    0  0.00000000000E+00  0.00000000000E+00 -0.86291779593E+03  0.86291779593E+03  0.25500000920E-02 0. -1.
    10030    2    1    2    0    0  0.00000000000E+00  0.00000000000E+00  0.83511822019E+03  0.25609538121E+04  0.24209630286E+04 0.  0.
        5    1    3    3  502    0 -0.47094036993E+03 -0.10492004346E+03 -0.75679292960E+03  0.89752474943E+03  0.46999998093E+01 0. -1.
       -5    1    3    3    0  502  0.47094036993E+03  0.10492004346E+03  0.15919111498E+04  0.16634290626E+04  0.46999998093E+01 0.  1.
</event>
<event>
 5   0  0.8528103E-06  0.2407895E+04  0.7818609E-02  0.8436554E-01
        1   -1    0    0  501    0  0.00000000000E+00  0.00000000000E+00  0.77542748704E+03  0.77542748706E+03  0.50400001928E-02 0. -1.
       -1   -1    0    0    0  501  0.00000000000E+00  0.00000000000E+00 -0.18692783410E+04  0.18692783410E+04  0.50400001928E-02 0.  1.
    10030    2    1    2    0    0  0.00000000000E+00  0.00000000000E+00 -0.10938508540E+04  0.26447058281E+04  0.24078951859E+04 0.  0.
        4    1    3    3  502    0  0.11570762857E+04 -0.13461393905E+03 -0.88105017823E+03  0.14605469773E+04  0.12699999809E+01 0.  1.
       -4    1    3    3    0  502 -0.11570762857E+04  0.13461393905E+03 -0.21280067577E+03  0.11841588508E+04  0.12699999809E+01 0. -1.
</event>
<event>
 5   0  0.9038897E-06  0.2550066E+04  0.7818609E-02  0.8385363E-01
       -1   -1    0    0    0  501  0.00000000000E+00  0.00000000000E+00  0.66348754147E+03  0.66348754149E+03  0.50400001928E-02 0. -1.
        1   -1    0    0  501    0  0.00000000000E+00  0.00000000000E+00 -0.24502478475E+04  0.24502478475E+04  0.50400001928E-02 0.  1.
    10030    2    1    2    0    0  0.00000000000E+00  0.00000000000E+00 -0.17867603060E+04  0.31137353890E+04  0.25500658191E+04 0.  0.
        1    1    3    3  502    0  0.84210931635E+03 -0.16955199950E+03  0.25713156868E+03  0.89666751076E+03  0.50400001928E-02 0. -1.
       -1    1    3    3    0  502 -0.84210931635E+03  0.16955199950E+03 -0.20438918747E+04  0.22170678782E+04  0.50400001928E-02 0.  1.
</event>
<event>
 5   0  0.9038897E-06  0.2397240E+04  0.7818609E-02  0.8440538E-01
        1   -1    0    0  501    0  0.00000000000E+00  0.00000000000E+00  0.18348073333E+04  0.18348073333E+04  0.50400001928E-02 0. -1.
       -1   -1    0    0    0  501  0.00000000000E+00  0.00000000000E+00 -0.78301939282E+03  0.78301939283E+03  0.50400001928E-02 0.  1.
    10030    2    1    2    0    0  0.00000000000E+00  0.00000000000E+00  0.10517879405E+04  0.26178267262E+04  0.23972398496E+04 0.  0.
        1    1    3    3  502    0 -0.60809807813E+03  0.85919004154E+03 -0.10018418373E+03  0.10573682759E+04  0.50400001928E-02 0.  1.
       -1    1    3    3    0  502  0.60809807813E+03 -0.85919004154E+03  0.11519721242E+04  0.15604584503E+04  0.50400001928E-02 0. -1.
</event>
<event>
 5   0  0.2048028E-05  0.2382720E+04  0.7818609E-02  0.8446001E-01
       -2   -1    0    0    0  501  0.00000000000E+00  0.00000000000E+00  0.73941964568E+03  0.73941964568E+03  0.25500000920E-02 0. -1.
        2   -1    0    0  501    0  0.00000000000E+00  0.00000000000E+00 -0.19195302624E+04  0.19195302624E+04  0.25500000920E-02 0.  1.
    10030    2    1    2    0    0  0.00000000000E+00  0.00000000000E+00 -0.11801106167E+04  0.26589499081E+04  0.23827197792E+04 0.  0.
        5    1    3    3  502    0 -0.98349745292E+02  0.90959154187E+03 -0.14415965322E+04  0.17074109339E+04  0.46999998093E+01 0.  1.
       -5    1    3    3    0  502  0.98349745292E+02 -0.90959154187E+03  0.26148591549E+03  0.95153897421E+03  0.46999998093E+01 0. -1.
</event>
<event>
 5   0  0.2025353E-05  0.2246006E+04  0.7818609E-02  0.8499520E-01
       -2   -1    0    0    0  501  0.00000000000E+00  0.00000000000E+00  0.51925152270E+03  0.51925152270E+03  0.25500000920E-02 0. -1.
        2   -1    0    0  501    0  0.00000000000E+00  0.00000000000E+00 -0.24287577381E+04  0.24287577381E+04  0.25500000920E-02 0.  1.
    10030    2    1    2    0    0  0.00000000000E+00  0.00000000000E+00 -0.19095062154E+04  0.29480092608E+04  0.22460063702E+04 0.  0.
        4    1    3    3  502    0  0.47529292215E+03  0.10089555727E+04 -0.11270924241E+04  0.15856335185E+04  0.12699999809E+01 0.  1.
       -4    1    3    3    0  502 -0.47529292215E+03 -0.10089555727E+04 -0.78241379134E+03  0.13623757424E+04  0.12699999809E+01 0. -1.
</event>
<event>
 5   0  0.8898848E-06  0.2365176E+04  0.7818609E-02  0.8452657E-01
       -1   -1    0    0    0  501  0.00000000000E+00  0.00000000000E+00  0.10724160323E+04  0.10724160324E+04  0.50400001928E-02 0.  1.
        1   -1    0    0  501    0  0.00000000000E+00  0.00000000000E+00 -0.13040781660E+04  0.13040781660E+04  0.50400001928E-02 0. -1.
    10030    2    1    2    0    0  0.00000000000E+00  0.00000000000E+00 -0.23166213368E+03  0.23764941984E+04  0.23651759619E+04 0.  0.
        5    1    3    3  502    0 -0.10957319907E+04  0.43837357567E+03 -0.19163914584E+03  0.11956369179E+04  0.46999998093E+01 0. -1.
       -5    1    3    3    0  502  0.10957319907E+04 -0.43837357567E+03 -0.40022987841E+02  0.11808572805E+04  0.46999998093E+01 0.  1.
</event>
<event>
 5   0  0.2025353E-05  0.2405550E+04  0.7818609E-02  0.8437429E-01
        2   -1    0    0  501    0  0.00000000000E+00  0.00000000000E+00  0.12994868160E+04  0.12994868160E+04  0.25500000920E-02 0.  1.
       -2   -1    0    0    0  501  0.00000000000E+00  0.00000000000E+00 -0.11132603406E+04  0.11132603406E+04  0.25500000920E-02 0. -1.
    10030    2    1    2    0    0  0.00000000000E+00  0.00000000000E+00  0.18622647537E+03  0.24127471566E+04  0.24055495301E+04 0.  0.
        4    1    3    3  502    0  0.70633729113E+03  0.19153584964E+03 -0.86424109734E+03  0.11324807450E+04  0.12699999809E+01 0. -1.
       -4    1    3    3    0  502 -0.70633729113E+03 -0.19153584964E+03  0.10504675727E+04  0.12802664116E+04  0.12699999809E+01 0.  1.
</event>
<event>
 5   0  0.9176817E-06  0.2277697E+04  0.7818609E-02  0.8486767E-01
       -1   -1    0    0    0  501  0.00000000000E+00  0.00000000000E+00  0.18837001499E+04  0.18837001499E+04  0.50400001928E-02 0. -1.
        1   -1    0    0  501    0  0.00000000000E+00  0.00000000000E+00 -0.68852537989E+03  0.68852537991E+03  0.50400001928E-02 0.  1.
    10030    2    1    2    0    0  0.00000000000E+00  0.00000000000E+00  0.11951747700E+04  0.25722255298E+04  0.22776965218E+04 0.  0.
        3    1    3    3  502    0 -0.76475324273E+03  0.48696914217E+03 -0.18072673351E+03  0.92447208184E+03  0.10100000352E+00 0.  1.
       -3    1    3    3    0  502  0.76475324273E+03 -0.48696914217E+03  0.13759015035E+04  0.16477534479E+04  0.10100000352E+00 0. -1.
</event>
<event>
 5   0  0.2087882E-05  0.2354249E+04  0.7818609E-02  0.8456833E-01
       -2   -1    0    0    0  501  0.00000000000E+00  0.00000000000E+00  0.16994324196E+04  0.16994324196E+04  0.25500000920E-02 0.  1.
        2   -1    0    0  501    0  0.00000000000E+00  0.00000000000E+00 -0.81534422912E+03  0.81534422913E+03  0.25500000920E-02 0. -1.
    10030    2    1    2    0    0  0.00000000000E+00  0.00000000000E+00  0.88408819052E+03  0.25147766488E+04  0.23542492784E+04 0.  0.
        2    1    3    3  502    0 -0.24317932850E+00  0.11679953080E+04  0.28574790792E+03  0.12024412524E+04  0.25500000920E-02 0. -1.
       -2    1    3    3    0  502  0.24317932850E+00 -0.11679953080E+04  0.59834028261E+03  0.13123353963E+04  0.25500000920E-02 0.  1.
</event>
<event>
 5   0  0.2080257E-05  0.2352547E+04  0.7818609E-02  0.8457486E-01
       -2   -1    0    0    0  501  0.00000000000E+00  0.00000000000E+00  0.45065820307E+03  0.45065820308E+03  0.25500000920E-02 0.  1.
        2   -1    0    0  501    0  0.00000000000E+00  0.00000000000E+00 -0.30702178573E+04  0.30702178573E+04  0.25500000920E-02 0. -1.
    10030    2    1    2    0    0  0.00000000000E+00  0.00000000000E+00 -0.26195596543E+04  0.35208760604E+04  0.23525465884E+04 0.  0.
        1    1    3    3  502    0 -0.38769365396E+03 -0.10751479819E+04 -0.17260706795E+04  0.20701617191E+04  0.50400001928E-02 0. -1.
       -1    1    3    3    0  502  0.38769365396E+03  0.10751479819E+04 -0.89348897471E+03  0.14507143413E+04  0.50400001928E-02 0.  1.
</event>
<event>
 5   0  0.8528103E-06  0.2375499E+04  0.7818609E-02  0.8448734E-01
       -1   -1    0    0    0  501  0.00000000000E+00  0.00000000000E+00  0.20103780084E+04  0.20103780084E+04  0.50400001928E-02 0. -1.
        1   -1    0    0  501    0  0.00000000000E+00  0.00000000000E+00 -0.70173309521E+03  0.70173309523E+03  0.50400001928E-02 0.  1.
    10030    2    1    2    0    0  0.00000000000E+00  0.00000000000E+00  0.13086449132E+04  0.27121111036E+04  0.23754989222E+04 0.  0.
        4    1    3    3  502    0 -0.31879218437E+03  0.90061638061E+03 -0.15137347064E+03  0.96729202538E+03  0.12699999809E+01 0.  1.
       -4    1    3    3    0  502  0.31879218437E+03 -0.90061638061E+03  0.14600183838E+04  0.17448190782E+04  0.12699999809E+01 0. -1.
</event>
<event>
 5   0  0.2080257E-05  0.2375725E+04  0.7818609E-02  0.8448648E-01
       -2   -1    0    0    0  501  0.00000000000E+00  0.00000000000E+00  0.14061188463E+04  0.14061188463E+04  0.25500000920E-02 0. -1.
        2   -1    0    0  501    0  0.00000000000E+00  0.00000000000E+00 -0.10034839875E+04  0.10034839875E+04  0.25500000920E-02 0.  1.
    10030    2    1    2    0    0  0.00000000000E+00  0.00000000000E+00  0.40263485881E+03  0.24096028339E+04  0.23757253603E+04 0.  0.
        1    1    3    3  502    0  0.39305607146E+02  0.67983084554E+03  0.11884912980E+04  0.13697541658E+04  0.50400001928E-02 0. -1.
       -1    1    3    3    0  502 -0.39305607146E+02 -0.67983084554E+03 -0.78585643923E+03  0.10398486680E+04  0.50400001928E-02 0.  1.
</event>
<event>
 5   0  0.9083687E-06  0.2365628E+04  0.7818609E-02  0.8452485E-01
        1   -1    0    0  501    0  0.00000000000E+00  0.00000000000E+00  0.21501488716E+04  0.21501488716E+04  0.50400001928E-02 0. -1.
       -1   -1    0    0    0  501  0.00000000000E+00  0.00000000000E+00 -0.65067528620E+03  0.65067528622E+03  0.50400001928E-02 0.  1.
    10030    2    1    2    0    0  0.00000000000E+00  0.00000000000E+00  0.14994735854E+04  0.28008241578E+04  0.23656278088E+04 0.  0.
        2    1    3    3  502    0 -0.13051185215E+03  0.10882690326E+04  0.12761506045E+04  0.16822375564E+04  0.25500000920E-02 0. -1.
       -2    1    3    3    0  502  0.13051185215E+03 -0.10882690326E+04  0.22332298089E+03  0.11185866014E+04  0.25500000920E-02 0.  1.
</event>
<event>
 5   0  0.2025353E-05  0.2390915E+04  0.7818609E-02  0.8442913E-01
        2   -1    0    0  501    0  0.00000000000E+00  0.00000000000E+00  0.14401599830E+04  0.14401599830E+04  0.25500000920E-02 0. -1.
       -2   -1    0    0    0  501  0.00000000000E+00  0.00000000000E+00 -0.99233328767E+03  0.99233328767E+03  0.25500000920E-02 0.  1.
    10030    2    1    2    0    0  0.00000000000E+00  0.00000000000E+00  0.44782669529E+03  0.24324932706E+04  0.23909150471E+04 0.  0.
        4    1    3    3  502    0  0.10581098835E+04  0.48761964583E+03 -0.48602204385E+02  0.11660759974E+04  0.12699999809E+01 0.  1.
       -4    1    3    3    0  502 -0.10581098835E+04 -0.48761964583E+03  0.49642889968E+03  0.12664172732E+04  0.12699999809E+01 0. -1.
</event>
<event>
 5   0  0.2122194E-05  0.2376762E+04  0.7818609E-02  0.8448255E-01
       -2   -1    0    0    0  501  0.00000000000E+00  0.00000000000E+00  0.86895045058E+03  0.86895045058E+03  0.25500000920E-02 0.  1.
        2   -1    0    0  501    0  0.00000000000E+00  0.00000000000E+00 -0.16252359198E+04  0.16252359198E+04  0.25500000920E-02 0. -1.
    10030    2    1    2    0    0  0.00000000000E+00  0.00000000000E+00 -0.75628546919E+03  0.24941863704E+04  0.23767620704E+04 0.  0.
        3    1    3    3  502    0  0.83324773607E+03 -0.15573902939E+03 -0.12521737861E+04  0.15121162772E+04  0.10100000352E+00 0. -1.
       -3    1    3    3    0  502 -0.83324773607E+03  0.15573902939E+03  0.49588831687E+03  0.98207009320E+03  0.10100000352E+00 0.  1.
</event>
<event>
 5   0  0.9083687E-06  0.2398281E+04  0.7818609E-02  0.8440147E-01
        1   -1    0    0  501    0  0.00000000000E+00  0.00000000000E+00  0.61308487045E+03  0.61308487047E+03  0.50400001928E-02 0.  1.
       -1   -1    0    0    0  501  0.00000000000E+00  0.00000000000E+00 -0.23454146206E+04  0.23454146207E+04  0.50400001928E-02 0. -1.
    10030    2    1    2    0    0  0.00000000000E+00  0.00000000000E+00 -0.17323297502E+04  0.29584994911E+04  0.23982812336E+04 0.  0.
        2    1    3    3  502    0  0.99328617129E+03  0.10519308475E+03 -0.47655525367E+02  0.99997702586E+03  0.25500000920E-02 0.  1.
       -2    1    3    3    0  502 -0.99328617129E+03 -0.10519308475E+03 -0.16846742248E+04  0.19585224653E+04  0.25500000920E-02 0. -1.
</event>
<event>
 5   0  0.8528103E-06  0.2406041E+04  0.7818609E-02  0.8437245E-01
        1   -1    0    0  501    0  0.00000000000E+00  0.00000000000E+00  0.16429329712E+04  0.16429329712E+04  0.50400001928E-02 0. -1.
       -1   -1    0    0    0  501  0.00000000000E+00  0.00000000000E+00 -0.88089895352E+03  0.88089895353E+03  0.50400001928E-02 0.  1.
    10030    2    1    2    0    0  0.00000000000E+00  0.00000000000E+00  0.76203401771E+03  0.25238319248E+04  0.24060406772E+04 0.  0.
        4    1    3    3  502    0  0.11671260804E+04 -0.27568448849E+03  0.28111197335E+03  0.12317511028E+04  0.12699999809E+01 0. -1.
       -4    1    3    3    0  502 -0.11671260804E+04  0.27568448849E+03  0.48092204436E+03  0.12920808220E+04  0.12699999809E+01 0.  1.
</event>
<event>
 5   0  0.9176817E-06  0.2253936E+04  0.7818609E-02  0.8496308E-01
       -1   -1    0    0    0  501  0.00000000000E+00  0.00000000000E+00  0.12406034943E+04  0.12406034943E+04  0.50400001928E-02 0.  1.
        1   -1    0    0  501    0  0.00000000000E+00  0.00000000000E+00 -0.10237415989E+04  0.10237415990E+04  0.50400001928E-02 0. -1.
    10030    2    1    2    0    0  0.00000000000E+00  0.00000000000E+00  0.21686189536E+03  0.22643450933E+04  0.22539364720E+04 0.  0.
        3    1    3    3  502    0 -0.39532105339E+03 -0.89806628445E+03  0.66529714150E+03  0.11855049908E+04  0.10100000352E+00 0.  1.
       -3    1    3    3    0  502  0.39532105339E+03  0.89806628445E+03 -0.44843524614E+03  0.10788401025E+04  0.10100000352E+00 0. -1.
</event>
<event>
 5   0  0.9176817E-06  0.2426658E+04  0.7818609E-02  0.8429590E-01
       -1   -1    0    0    0  501  0.00000000000E+00  0.00000000000E+00  0.20966411858E+04  0.20966411858E+04  0.50400001928E-02 0.  1.
        1   -1    0    0  501    0  0.00000000000E+00  0.00000000000E+00 -0.70215516555E+03  0.70215516557E+03  0.50400001928E-02 0. -1.
    10030    2    1    2    0    0  0.00000000000E+00  0.00000000000E+00  0.13944860202E+04  0.27987963514E+04  0.24266581456E+04 0.  0.
        3    1    3    3  502    0 -0.46965255660E+03  0.46487856491E+03 -0.47639438729E+03  0.81463932293E+03  0.10100000352E+00 0. -1.
       -3    1    3    3    0  502  0.46965255660E+03 -0.46487856491E+03  0.18708804075E+04  0.19841570284E+04  0.10100000352E+00 0.  1.
</event>
<event>
 5   0  0.2080257E-05  0.2394817E+04  0.7818609E-02  0.8441447E-01
       -2   -1    0    0    0  501  0.00000000000E+00  0.00000000000E+00  0.81355882344E+03  0.81355882344E+03  0.25500000920E-02 0. -1.
        2   -1    0    0  501    0  0.00000000000E+00  0.00000000000E+00 -0.17623645249E+04  0.17623645249E+04  0.25500000920E-02 0.  1.
    10030    2    1    2    0    0  0.00000000000E+00  0.00000000000E+00 -0.94880570151E+03  0.25759233484E+04  0.23948170781E+04 0.  0.
        1    1    3    3  502    0  0.50388259972E+02  0.10795468389E+04  0.80171801840E+02  0.10836917790E+04  0.50400001928E-02 0. -1.
       -1    1    3    3    0  502 -0.50388259972E+02 -0.10795468389E+04 -0.10289775033E+04  0.14922315693E+04  0.50400001928E-02 0.  1.
</event>
<event>
 5   0  0.2048028E-05  0.2389444E+04  0.7818609E-02  0.8443466E-01
       -2   -1    0    0    0  501  0.00000000000E+00  0.00000000000E+00  0.18319766882E+04  0.18319766882E+04  0.25500000920E-02 0.  1.
        2   -1    0    0  501    0  0.00000000000E+00  0.00000000000E+00 -0.77913717062E+03  0.77913717062E+03  0.25500000920E-02 0. -1.
    10030    2    1    2    0    0  0.00000000000E+00  0.00000000000E+00  0.10528395176E+04  0.26111138588E+04  0.23894443986E+04 0.  0.
        5    1    3    3  502    0 -0.88848947396E+03  0.71542902292E+03  0.13839118133E+03  0.11490980990E+04  0.46999998093E+01 0. -1.
       -5    1    3    3    0  502  0.88848947396E+03 -0.71542902292E+03  0.91444833626E+03  0.14620157598E+04  0.46999998093E+01 0.  1.
</event>
<event>
 5   0  0.2087882E-05  0.2397894E+04  0.7818609E-02  0.8440292E-01
        2   -1    0    0  501    0  0.00000000000E+00  0.00000000000E+00  0.17757028962E+04  0.17757028962E+04  0.25500000920E-02 0. -1.
       -2   -1    0    0    0  501  0.00000000000E+00  0.00000000000E+00 -0.80952396489E+03  0.80952396490E+03  0.25500000920E-02 0.  1.
    10030    2    1    2    0    0  0.00000000000E+00  0.00000000000E+00  0.96617893130E+03  0.25852268611E+04  0.23978941169E+04 0.  0.
        2    1    3    3  502    0 -0.40970029998E+03  0.10049951862E+04 -0.66229599964E+02  0.10873159707E+04  0.25500000920E-02 0.  1.
       -2    1    3    3    0  502  0.40970029998E+03 -0.10049951862E+04  0.10324085313E+04  0.14979108904E+04  0.25500000920E-02 0. -1.
</event>
<event>
 5   0  0.9038897E-06  0.2442872E+04  0.7818609E-02  0.8423625E-01
        1   -1    0    0  501    0  0.00000000000E+00  0.00000000000E+00  0.18467638856E+04  0.18467638856E+04  0.50400001928E-02 0. -1.
       -1   -1    0    0    0  501  0.00000000000E+00  0.00000000000E+00 -0.80784897618E+03  0.80784897619E+03  0.50400001928E-02 0.  1.
    10030    2    1    2    0    0  0.00000000000E+00  0.00000000000E+00  0.10389149094E+04  0.26546128618E+04  0.24428723374E+04 0.  0.
        1    1    3    3  502    0 -0.98462335172E+03 -0.30476807021E+03  0.12316575430E+04  0.16060345652E+04  0.50400001928E-02 0. -1.
       -1    1    3    3    0  502  0.98462335172E+03  0.30476807021E+03 -0.19274263353E+03  0.10485782966E+04  0.50400001928E-02 0.  1.
</event>
<event>
 5   0  0.2087882E-05  0.2460903E+04  0.7818609E-02  0.8417048E-01
       -2   -1    0    0    0  501  0.00000000000E+00  0.00000000000E+00  0.99304983554E+03  0.99304983554E+03  0.25500000920E-02 0. -1.
        2   -1    0    0  501    0  0.00000000000E+00  0.00000000000E+00 -0.15246076532E+04  0.15246076532E+04  0.25500000920E-02 0.  1.
    10030    2    1    2    0    0  0.00000000000E+00  0.00000000000E+00 -0.53155781768E+03  0.25176574888E+04  0.24609033945E+04 0.  0.
        2    1    3    3  502    0 -0.51940961746E+03 -0.53450980793E+03 -0.12674004217E+04  0.14703030009E+04  0.25500000920E-02 0.  1.
       -2    1    3    3    0  502  0.51940961746E+03  0.53450980793E+03  0.73584260398E+03  0.10473544879E+04  0.25500000920E-02 0. -1.
</event>
<event>
 5   0  0.9038897E-06  0.2370491E+04  0.7818609E-02  0.8450635E-01
        1   -1    0    0  501    0  0.00000000000E+00  0.00000000000E+00  0.12576908020E+04  0.12576908020E+04  0.50400001928E-02 0. -1.
       -1   -1    0    0    0  501  0.00000000000E+00  0.00000000000E+00 -0.11169733854E+04  0.11169733854E+04  0.50400001928E-02 0.  1.
    10030    2    1    2    0    0  0.00000000000E+00  0.00000000000E+00  0.14071741661E+03  0.23746641874E+04  0.23704912174E+04 0.  0.
        1    1    3    3  502    0  0.93503689610E+03 -0.80650420613E+02 -0.65480003307E+03  0.11443607695E+04  0.50400001928E-02 0.  1.
       -1    1    3    3    0  502 -0.93503689610E+03  0.80650420613E+02  0.79551744968E+03  0.12303034179E+04  0.50400001928E-02 0. -1.
</event>
<event>
 5   0  0.8898848E-06  0.2332640E+04  0.7818609E-02  0.8465162E-01
        1   -1    0    0  501    0  0.00000000000E+00  0.00000000000E+00  0.13978780759E+04  0.13978780759E+04  0.50400001928E-02 0. -1.
       -1   -1    0    0    0  501  0.00000000000E+00  0.00000000000E+00 -0.97311941219E+03  0.97311941220E+03  0.50400001928E-02 0.  1.
    10030    2    1    2    0    0  0.00000000000E+00  0.00000000000E+00  0.42475866370E+03  0.23709974881E+04  0.23326399564E+04 0.  0.
        5    1    3    3  502    0  0.10631180290E+04 -0.22688337787E+03  0.64192059347E+03  0.12624500581E+04  0.46999998093E+01 0. -1.
       -5    1    3    3    0  502 -0.10631180290E+04  0.22688337787E+03 -0.21716192978E+03  0.11085474300E+04  0.46999998093E+01 0.  1.
</event>
<event>
 5   0  0.2025353E-05  0.2399283E+04  0.7818609E-02  0.8439772E-01
       -2   -1    0    0    0  501  0.00000000000E+00  0.00000000000E+00  0.70050386482E+03  0.70050386482E+03  0.25500000920E-02 0.  1.
        2   -1    0    0  501    0  0.00000000000E+00  0.00000000000E+00 -0.20544349460E+04  0.20544349460E+04  0.25500000920E-02 0. -1.
    10030    2    1    2    0    0  0.00000000000E+00  0.00000000000E+00 -0.13539310812E+04  0.27549388109E+04  0.23992829093E+04 0.  0.
        4    1    3    3  502    0  0.10609372325E+03  0.11278802657E+04 -0.22378636380E+03  0.11547518008E+04  0.12699999809E+01 0.  1.
       -4    1    3    3    0  502 -0.10609372325E+03 -0.11278802657E+04 -0.11301447174E+04  0.16001870101E+04  0.12699999809E+01 0. -1.
</event>
<event>
 5   0  0.9038897E-06  0.2372222E+04  0.7818609E-02  0.8449977E-01
       -1   -1    0    0    0  501  0.00000000000E+00  0.00000000000E+00  0.53753646773E+03  0.53753646775E+03  0.50400001928E-02 0. -1.
        1   -1    0    0  501    0  0.00000000000E+00  0.00000000000E+00 -0.26172354359E+04  0.26172354359E+04  0.50400001928E-02 0.  1.
    10030    2    1    2    0    0  0.00000000000E+00  0.00000000000E+00 -0.20796989682E+04  0.31547719037E+04  0.23722221578E+04 0.  0.
        1    1    3    3  502    0  0.10471228436E+04  0.39607677732E+03 -0.51878672465E+03  0.12338892693E+04  0.50400001928E-02 0. -1.
       -1    1    3    3    0  502 -0.10471228436E+04 -0.39607677732E+03 -0.15609122435E+04  0.19208826344E+04  0.50400001928E-02 0.  1.
</event>
<event>
 5   0  0.7233625E-06  0.2354810E+04  0.7818609E-02  0.8456618E-01
        3   -1    0    0  501    0  0.00000000000E+00  0.00000000000E+00  0.14751825742E+04  0.14751825776E+04  0.10100000352E+00 0.  1.
       -3   -1    0    0    0  501  0.00000000000E+00  0.00000000000E+00 -0.93973629976E+03  0.93973630519E+03  0.10100000352E+00 0. -1.
    10030    2    1    2    0    0  0.00000000000E+00  0.00000000000E+00  0.53544627443E+03  0.24149188828E+04  0.23548100768E+04 0.  0.
        4    1    3    3  502    0  0.16429283579E+03 -0.29300301751E+02 -0.92754502799E+03  0.94243940677E+03  0.12699999809E+01 0. -1.
       -4    1    3    3    0  502 -0.16429283579E+03  0.29300301751E+02  0.14629913024E+04  0.14724794761E+04  0.12699999809E+01 0.  1.
</event>
<event>
 5   0  0.9038897E-06  0.2409161E+04  0.7818609E-02  0.8436082E-01
       -1   -1    0    0    0  501  0.00000000000E+00  0.00000000000E+00  0.98777163057E+03  0.98777163058E+03  0.50400001928E-02 0.  1.
        1   -1    0    0  501    0  0.00000000000E+00  0.00000000000E+00 -0.14689770369E+04  0.14689770369E+04  0.50400001928E-02 0. -1.
    10030    2    1    2    0    0  0.00000000000E+00  0.00000000000E+00 -0.48120540634E+03  0.24567486675E+04  0.24091607195E+04 0.  0.
        1    1    3    3  502    0  0.30783713014E+03  0.11537247882E+04 -0.78820718997E+02  0.11966859619E+04  0.50400001928E-02 0.  1.
       -1    1    3    3    0  502 -0.30783713014E+03 -0.11537247882E+04 -0.40238468734E+03  0.12600627056E+04  0.50400001928E-02 0. -1.
</event>
<event>
 5   0  0.9083687E-06  0.2391193E+04  0.7818609E-02  0.8442808E-01
        1   -1    0    0  501    0  0.00000000000E+00  0.00000000000E+00  0.10636413701E+04  0.10636413701E+04  0.50400001928E-02 0.  1.
       -1   -1    0    0    0  501  0.00000000000E+00  0.00000000000E+00 -0.13439222851E+04  0.13439222851E+04  0.50400001928E-02 0. -1.
    10030    2    1    2    0    0  0.00000000000E+00  0.00000000000E+00 -0.28028091495E+03  0.24075636552E+04  0.23911932926E+04 0.  0.
        2    1    3    3  502    0 -0.40238299338E+03 -0.63282916028E+03 -0.10776793731E+04  0.13129271308E+04  0.25500000920E-02 0. -1.
       -2    1    3    3    0  502  0.40238299338E+03  0.63282916028E+03  0.79739845820E+03  0.10946365244E+04  0.25500000920E-02 0.  1.
</event>
<event>
 5   0  0.8528103E-06  0.2417036E+04  0.7818609E-02  0.8433153E-01
        1   -1    0    0  501    0  0.00000000000E+00  0.00000000000E+00  0.11355592549E+04  0.11355592549E+04  0.50400001928E-02 0.  1.
       -1   -1    0    0    0  501  0.00000000000E+00  0.00000000000E+00 -0.12861639697E+04  0.12861639697E+04  0.50400001928E-02 0. -1.
    10030    2    1    2    0    0  0.00000000000E+00  0.00000000000E+00 -0.15060471479E+03  0.24217232246E+04  0.24170357044E+04 0.  0.
        4    1    3    3  502    0 -0.32371978002E+03  0.46537601539E+03  0.99407464731E+03  0.11443580510E+04  0.12699999809E+01 0.  1.
       -4    1    3    3    0  502  0.32371978002E+03 -0.46537601539E+03 -0.11446793621E+04  0.12773651735E+04  0.12699999809E+01 0. -1.
</event>
<event>
 5   0  0.8898848E-06  0.2419362E+04  0.7818609E-02  0.8432290E-01
       -1   -1    0    0    0  501  0.00000000000E+00  0.00000000000E+00  0.12786481732E+04  0.12786481732E+04  0.50400001928E-02 0.  1.
        1   -1    0    0  501    0  0.00000000000E+00  0.00000000000E+00 -0.11444332899E+04  0.11444332899E+04  0.50400001928E-02 0. -1.
    10030    2    1    2    0    0  0.00000000000E+00  0.00000000000E+00  0.13421488329E+03  0.24230814631E+04  0.24193615153E+04 0.  0.
        5    1    3    3  502    0 -0.84065936479E+03  0.86190661344E+03  0.18439543496E+03  0.12180373329E+04  0.46999998093E+01 0. -1.
       -5    1    3    3    0  502  0.84065936479E+03 -0.86190661344E+03 -0.50180551668E+02  0.12050441302E+04  0.46999998093E+01 0.  1.
</event>
<event>
 5   0  0.2080257E-05  0.2398445E+04  0.7818609E-02  0.8440086E-01
       -2   -1    0    0    0  501  0.00000000000E+00  0.00000000000E+00  0.10881397576E+04  0.10881397576E+04  0.25500000920E-02 0. -1.
        2   -1    0    0  501    0  0.00000000000E+00  0.00000000000E+00 -0.13216451492E+04  0.13216451492E+04  0.25500000920E-02 0.  1.
    10030    2    1    2    0    0  0.00000000000E+00  0.00000000000E+00 -0.23350539158E+03  0.24097849068E+04  0.23984450232E+04 0.  0.
        1    1    3    3  502    0 -0.13803937457E+03  0.93958127952E+03 -0.85251741695E+03  0.12761872104E+04  0.50400001928E-02 0. -1.
       -1    1    3    3    0  502  0.13803937457E+03 -0.93958127952E+03  0.61901202537E+03  0.11335976964E+04  0.50400001928E-02 0.  1.
</event>
<event>
 5   0  0.9083687E-06  0.2386828E+04  0.7818609E-02  0.8444451E-01
       -1   -1    0    0    0  501  0.00000000000E+00  0.00000000000E+00  0.88383949389E+03  0.88383949391E+03  0.50400001928E-02 0.  1.
        1   -1    0    0  501    0  0.00000000000E+00  0.00000000000E+00 -0.16114205818E+04  0.16114205818E+04  0.50400001928E-02 0. -1.
    10030    2    1    2    0    0  0.00000000000E+00  0.00000000000E+00 -0.72758108788E+03  0.24952600757E+04  0.23868281475E+04 0.  0.
        2    1    3    3  502    0 -0.63948198562E+03  0.30037791291E+03  0.64171086116E+03  0.95444063714E+03  0.25500000920E-02 0.  1.
       -2    1    3    3    0  502  0.63948198562E+03 -0.30037791291E+03 -0.13692919490E+04  0.15408194385E+04  0.25500000920E-02 0. -1.
</event>
<event>
 5   0  0.2122194E-05  0.2425119E+04  0.7818609E-02  0.8430159E-01
       -2   -1    0    0    0  501  0.00000000000E+00  0.00000000000E+00  0.55379616605E+03  0.55379616606E+03  0.25500000920E-02 0.  1.
        2   -1    0    0  501    0  0.00000000000E+00  0.00000000000E+00 -0.26549492258E+04  0.26549492258E+04  0.25500000920E-02 0. -1.
    10030    2    1    2    0    0  0.00000000000E+00  0.00000000000E+00 -0.21011530598E+04  0.32087453919E+04  0.24251191330E+04 0.  0.
        3    1    3    3  502    0 -0.31963089111E+03 -0.90858563716E+03 -0.75933353374E+02  0.96615612142E+03  0.10100000352E+00 0.  1.
       -3    1    3    3    0  502  0.31963089111E+03  0.90858563716E+03 -0.20252197064E+04  0.22425892705E+04  0.10100000352E+00 0. -1.
</event>
<event>
 5   0  0.8528103E-06  0.2413095E+04  0.7818609E-02  0.8434617E-01
       -1   -1    0    0    0  501  0.00000000000E+00  0.00000000000E+00  0.46271837994E+03  0.46271837997E+03  0.50400001928E-02 0.  1.
        1   -1    0    0  501    0  0.00000000000E+00  0.00000000000E+00 -0.31460960350E+04  0.31460960350E+04  0.50400001928E-02 0. -1.
    10030    2    1    2    0    0  0.00000000000E+00  0.00000000000E+00 -0.26833776550E+04  0.36088144150E+04  0.24130946608E+04 0.  0.
        4    1    3    3  502    0  0.28433406679E+03 -0.60777520426E+03  0.15794482213E+03  0.68933644919E+03  0.12699999809E+01 0.  1.
       -4    1    3    3    0  502 -0.28433406679E+03  0.60777520426E+03 -0.28413224772E+04  0.29194779658E+04  0.12699999809E+01 0. -1.
</event>
<event>
 5   0  0.2080257E-05  0.2396783E+04  0.7818609E-02  0.8440709E-01
       -2   -1    0    0    0  501  0.00000000000E+00  0.00000000000E+00  0.81646501026E+03  0.81646501027E+03  0.25500000920E-02 0. -1.
        2   -1    0    0  501    0  0.00000000000E+00  0.00000000000E+00 -0.17589760874E+04  0.17589760874E+04  0.25500000920E-02 0.  1.
    10030    2    1    2    0    0  0.00000000000E+00  0.00000000000E+00 -0.94251107715E+03  0.25754410977E+04  0.23967832019E+04 0.  0.
        1    1    3    3  502    0  0.29158351681E+03  0.27085152795E+03 -0.16858957988E+04  0.17322315497E+04  0.50400001928E-02 0.  1.
       -1    1    3    3    0  502 -0.29158351681E+03 -0.27085152795E+03  0.74338472161E+03  0.84320954799E+03  0.50400001928E-02 0. -1.
</event>
<event>
 5   0  0.9176817E-06  0.2357955E+04  0.7818609E-02  0.8455415E-01
        1   -1    0    0  501    0  0.00000000000E+00  0.00000000000E+00  0.15039655364E+04  0.15039655364E+04  0.50400001928E-02 0.  1.
       -1   -1    0    0    0  501  0.00000000000E+00  0.00000000000E+00 -0.92421494653E+03  0.92421494655E+03  0.50400001928E-02 0. -1.
    10030    2    1    2    0    0  0.00000000000E+00  0.00000000000E+00  0.57975058988E+03  0.24281804830E+04  0.23579545609E+04 0.  0.
        3    1    3    3  502    0 -0.24646459625E+02 -0.73909763861E+03  0.12354347686E+04  0.14398513274E+04  0.10100000352E+00 0.  1.
       -3    1    3    3    0  502  0.24646459625E+02  0.73909763861E+03 -0.65568417870E+03  0.98832915558E+03  0.10100000352E+00 0. -1.
</event>
<event>
 5   0  0.2025353E-05  0.2404116E+04  0.7818609E-02  0.8437964E-01
       -2   -1    0    0    0  501  0.00000000000E+00  0.00000000000E+00  0.22374908011E+04  0.22374908011E+04  0.25500000920E-02 0.  1.
        2   -1    0    0  501    0  0.00000000000E+00  0.00000000000E+00 -0.64578725539E+03  0.64578725540E+03  0.25500000920E-02 0. -1.
    10030    2    1    2    0    0  0.00000000000E+00  0.00000000000E+00  0.15917035457E+04  0.28832780565E+04  0.24041156739E+04 0.  0.
        4    1    3    3  502    0  0.66583500281E+03  0.55932728886E+03 -0.19947238823E+03  0.89217381356E+03  0.12699999809E+01 0. -1.
       -4    1    3    3    0  502 -0.66583500281E+03 -0.55932728886E+03  0.17911759339E+04  0.19911042429E+04  0.12699999809E+01 0.  1.
</event>
<event>
 5   0  0.2025353E-05  0.2381112E+04  0.7818609E-02  0.8446609E-01
        2   -1    0    0  501    0  0.00000000000E+00  0.00000000000E+00  0.22724852739E+04  0.22724852739E+04  0.25500000920E-02 0.  1.
       -2   -1    0    0    0  501  0.00000000000E+00  0.00000000000E+00 -0.62373298916E+03  0.62373298916E+03  0.25500000920E-02 0. -1.
    10030    2    1    2    0    0  0.00000000000E+00  0.00000000000E+00  0.16487522848E+04  0.28962182631E+04  0.23811123726E+04 0.  0.
        4    1    3    3  502    0  0.65503102217E+03  0.81179238399E+03  0.15224159135E+04  0.18454875620E+04  0.12699999809E+01 0.  1.
       -4    1    3    3    0  502 -0.65503102217E+03 -0.81179238399E+03  0.12633637126E+03  0.10507307011E+04  0.12699999809E+01 0. -1.
</event>
<event>
 5   0  0.2048028E-05  0.2412138E+04  0.7818609E-02  0.8434973E-01
        2   -1    0    0  501    0  0.00000000000E+00  0.00000000000E+00  0.24217553756E+04  0.24217553756E+04  0.25500000920E-02 0. -1.
       -2   -1    0    0    0  501  0.00000000000E+00  0.00000000000E+00 -0.60063987353E+03  0.60063987354E+03  0.25500000920E-02 0.  1.
    10030    2    1    2    0    0  0.00000000000E+00  0.00000000000E+00  0.18211155021E+04  0.30223952491E+04  0.24121383398E+04 0.  0.
        5    1    3    3  502    0  0.12936344322E+03 -0.55301649775E+03 -0.42258246179E+03  0.70792667293E+03  0.46999998093E+01 0.  1.
       -5    1    3    3    0  502 -0.12936344322E+03  0.55301649775E+03  0.22436979639E+04  0.23144685762E+04  0.46999998093E+01 0. -1.
</event>
<event>
 5   0  0.2087882E-05  0.2401607E+04  0.7818609E-02  0.8438902E-01
        2   -1    0    0  501    0  0.00000000000E+00  0.00000000000E+00  0.17881621702E+04  0.17881621702E+04  0.25500000920E-02 0.  1.
       -2   -1    0    0    0  501  0.00000000000E+00  0.00000000000E+00 -0.80637513992E+03  0.80637513993E+03  0.25500000920E-02 0. -1.
    10030    2    1    2    0    0  0.00000000000E+00  0.00000000000E+00  0.98178703030E+03  0.25945373102E+04  0.24016073952E+04 0.  0.
        2    1    3    3  502    0  0.82836446051E+03  0.45817534308E+03 -0.30725096606E+03  0.99524644214E+03  0.25500000920E-02 0. -1.
       -2    1    3    3    0  502 -0.82836446051E+03 -0.45817534308E+03  0.12890379964E+04  0.15992908680E+04  0.25500000920E-02 0.  1.
</event>
<event>
 5   0  0.2122194E-05  0.2400854E+04  0.7818609E-02  0.8439184E-01
       -2   -1    0    0    0  501  0.00000000000E+00  0.00000000000E+00  0.69877656057E+03  0.69877656058E+03  0.25500000920E-02 0.  1.
        2   -1    0    0  501    0  0.00000000000E+00  0.00000000000E+00 -0.20622122184E+04  0.20622122184E+04  0.25500000920E-02 0. -1.
    10030    2    1    2    0    0  0.00000000000E+00  0.00000000000E+00 -0.13634356578E+04  0.27609887790E+04  0.24008544822E+04 0.  0.
        3    1    3    3  502    0  0.46197438826E+03  0.10877259179E+04 -0.43924028064E+03  0.12607537596E+04  0.10100000352E+00 0.  1.
       -3    1    3    3    0  502 -0.46197438826E+03 -0.10877259179E+04 -0.92419537718E+03  0.15002350194E+04  0.10100000352E+00 0. -1.
</event>
<event>
 5   0  0.2122194E-05  0.2400274E+04  0.7818609E-02  0.8439401E-01
        2   -1    0    0  501    0  0.00000000000E+00  0.00000000000E+00  0.14825371053E+04  0.14825371053E+04  0.25500000920E-02 0.  1.
       -2   -1    0    0    0  501  0.00000000000E+00  0.00000000000E+00 -0.97153007845E+03  0.97153007845E+03  0.25500000920E-02 0. -1.
    10030    2    1    2    0    0  0.00000000000E+00  0.00000000000E+00  0.51100702684E+03  0.24540671837E+04  0.24002744761E+04 0.  0.
        3    1    3    3  502    0 -0.22003001789E+03 -0.98909710500E+03 -0.40202929501E+03  0.10901164416E+04  0.10100000352E+00 0.  1.
       -3    1    3    3    0  502  0.22003001789E+03  0.98909710500E+03  0.91303632185E+03  0.13639507422E+04  0.10100000352E+00 0. -1.
</event>
<event>
 5   0  0.2087882E-05  0.2358364E+04  0.7818609E-02  0.8455258E-01
        2   -1    0    0  501    0  0.00000000000E+00  0.00000000000E+00  0.16734996169E+04  0.16734996169E+04  0.25500000920E-02 0. -1.
       -2   -1    0    0    0  501  0.00000000000E+00  0.00000000000E+00 -0.83087585621E+03  0.83087585622E+03  0.25500000920E-02 0.  1.
    10030    2    1    2    0    0  0.00000000000E+00  0.00000000000E+00  0.84262376068E+03  0.25043754731E+04  0.23583642018E+04 0.  0.
        2    1    3    3  502    0  0.28135554680E+03 -0.10756215587E+04  0.41172466858E+01  0.11118181654E+04  0.25500000920E-02 0. -1.
       -2    1    3    3    0  502 -0.28135554680E+03  0.10756215587E+04  0.83850651399E+03  0.13925573077E+04  0.25500000920E-02 0.  1.
</event>
<event>
 5   0  0.7233625E-06  0.2386717E+04  0.7818609E-02  0.8444493E-01
       -3   -1    0    0    0  501  0.00000000000E+00  0.00000000000E+00  0.17011844297E+04  0.17011844327E+04  0.10100000352E+00 0. -1.
        3   -1    0    0  501    0  0.00000000000E+00  0.00000000000E+00 -0.83712527005E+03  0.83712527614E+03  0.10100000352E+00 0.  1.
    10030    2    1    2    0    0  0.00000000000E+00  0.00000000000E+00  0.86405915964E+03  0.25383097088E+04  0.23867169808E+04 0.  0.
        3    1    3    3  502    0 -0.76737771447E+03 -0.83565814123E+03  0.82554656196E+03  0.14031109086E+04  0.10100000352E+00 0. -1.
       -3    1    3    3    0  502  0.76737771447E+03  0.83565814123E+03  0.38512597687E+02  0.11351988002E+04  0.10100000352E+00 0.  1.
</event>
<event>
 5   0  0.2048028E-05  0.2412368E+04  0.7818609E-02  0.8434888E-01
        2   -1    0    0  501    0  0.00000000000E+00  0.00000000000E+00  0.21707361625E+04  0.21707361625E+04  0.25500000920E-02 0. -1.
       -2   -1    0    0    0  501  0.00000000000E+00  0.00000000000E+00 -0.67022430706E+03  0.67022430706E+03  0.25500000920E-02 0.  1.
    10030    2    1    2    0    0  0.00000000000E+00  0.00000000000E+00  0.15005118554E+04  0.28409604695E+04  0.24123682474E+04 0.  0.
        5    1    3    3  502    0  0.76915934601E+03 -0.51376904384E+03  0.16619335730E+04  0.19020015829E+04  0.46999998093E+01 0. -1.
       -5    1    3    3    0  502 -0.76915934601E+03  0.51376904384E+03 -0.16142171763E+03  0.93895888668E+03  0.46999998093E+01 0.  1.
</event>
<event>
 5   0  0.2122194E-05  0.2390064E+04  0.7818609E-02  0.8443233E-01
       -2   -1    0    0    0  501  0.00000000000E+00  0.00000000000E+00  0.12171712711E+04  0.12171712711E+04  0.25500000920E-02 0.  1.
        2   -1    0    0  501    0  0.00000000000E+00  0.00000000000E+00 -0.11732951942E+04  0.11732951942E+04  0.25500000920E-02 0. -1.
    10030    2    1    2    0    0  0.00000000000E+00  0.00000000000E+00  0.43876076835E+02  0.23904664653E+04  0.23900637673E+04 0.  0.
        3    1    3    3  502    0  0.65639565375E+03 -0.90526589379E+03 -0.39972474058E+03  0.11874937773E+04  0.10100000352E+00 0. -1.
       -3    1    3    3    0  502 -0.65639565375E+03  0.90526589379E+03  0.44360081741E+03  0.12029726880E+04  0.10100000352E+00 0.  1.
</event>
<event>
 5   0  0.8528103E-06  0.2382624E+04  0.7818609E-02  0.8446038E-01
        1   -1    0    0  501    0  0.00000000000E+00  0.00000000000E+00  0.13740022724E+04  0.13740022724E+04  0.50400001928E-02 0. -1.
       -1   -1    0    0    0  501  0.00000000000E+00  0.00000000000E+00 -0.10329129251E+04  0.10329129251E+04  0.50400001928E-02 0.  1.
    10030    2    1    2    0    0  0.00000000000E+00  0.00000000000E+00  0.34108934737E+03  0.24069151975E+04  0.23826243567E+04 0.  0.
        4    1    3    3  502    0 -0.46142158948E+03 -0.39946410881E+03 -0.86298978693E+03  0.10569931138E+04  0.12699999809E+01 0.  1.
       -4    1    3    3    0  502  0.46142158948E+03  0.39946410881E+03  0.12040791343E+04  0.13499220837E+04  0.12699999809E+01 0. -1.
</event>
<event>
 5   0  0.2080257E-05  0.2405385E+04  0.7818609E-02  0.8437490E-01
       -2   -1    0    0    0  501  0.00000000000E+00  0.00000000000E+00  0.20737979716E+04  0.20737979716E+04  0.25500000920E-02 0.  1.
        2   -1    0    0  501    0  0.00000000000E+00  0.00000000000E+00 -0.69749749743E+03  0.69749749744E+03  0.25500000920E-02 0. -1.
    10030    2    1    2    0    0  0.00000000000E+00  0.00000000000E+00  0.13763004742E+04  0.27712954690E+04  0.24053847055E+04 0.  0.
        1    1    3    3  502    0 -0.20192146617E+03  0.10219833938E+04  0.13806189349E+04  0.17295464663E+04  0.50400001928E-02 0.  1.
       -1    1    3    3    0  502  0.20192146617E+03 -0.10219833938E+04 -0.43184607097E+01  0.10417490028E+04  0.50400001928E-02 0. -1.
</event>
<event>
 5   0  0.2087882E-05  0.2384093E+04  0.7818609E-02  0.8445483E-01
       -2   -1    0    0    0  501  0.00000000000E+00  0.00000000000E+00  0.12917320643E+04  0.12917320643E+04  0.25500000920E-02 0.  1.
        2   -1    0    0  501    0  0.00000000000E+00  0.00000000000E+00 -0.11000536223E+04  0.11000536223E+04  0.25500000920E-02 0. -1.
    10030    2    1    2    0    0  0.00000000000E+00  0.00000000000E+00  0.19167844197E+03  0.23917856866E+04  0.23840927300E+04 0.  0.
        2    1    3    3  502    0 -0.29583971465E+03 -0.72236846323E+02  0.12520489462E+04  0.12885518470E+04  0.25500000920E-02 0.  1.
       -2    1    3    3    0  502  0.29583971465E+03  0.72236846323E+02 -0.10603705042E+04  0.11032338396E+04  0.25500000920E-02 0. -1.
</event>
<event>
 5   0  0.9083687E-06  0.2413553E+04  0.7818609E-02  0.8434447E-01
        1   -1    0    0  501    0  0.00000000000E+00  0.00000000000E+00  0.23497575835E+04  0.23497575835E+04  0.50400001928E-02 0.  1.
       -1   -1    0    0    0  501  0.00000000000E+00  0.00000000000E+00 -0.61976994715E+03  0.61976994717E+03  0.50400001928E-02 0. -1.
    10030    2    1    2    0    0  0.00000000000E+00  0.00000000000E+00  0.17299876363E+04  0.29695275307E+04  0.24135526788E+04 0.  0.
        2    1    3    3  502    0  0.89009130987E+03 -0.54086946562E+03  0.16149121429E+04  0.19216512556E+04  0.25500000920E-02 0.  1.
       -2    1    3    3    0  502 -0.89009130987E+03  0.54086946562E+03  0.11507549345E+03  0.10478762751E+04  0.25500000920E-02 0. -1.
</event>
<event>
 5   0  0.2048028E-05  0.2388637E+04  0.7818609E-02  0.8443770E-01
       -2   -1    0    0    0  501  0.00000000000E+00  0.00000000000E+00  0.88628178912E+03  0.88628178912E+03  0.25500000920E-02 0. -1.
        2   -1    0    0  501    0  0.00000000000E+00  0.00000000000E+00 -0.16094162509E+04  0.16094162509E+04  0.25500000920E-02 0.  1.
    10030    2    1    2    0    0  0.00000000000E+00  0.00000000000E+00 -0.72313446177E+03  0.24956980400E+04  0.23886366942E+04 0.  0.
        5    1    3    3  502    0 -0.19588452675E+03  0.40725444461E+02  0.86863804477E+03  0.89139410614E+03  0.46999998093E+01 0. -1.
       -5    1    3    3    0  502  0.19588452675E+03 -0.40725444461E+02 -0.15917725065E+04  0.16043039339E+04  0.46999998093E+01 0.  1.
</event>
<event>
 5   0  0.9176817E-06  0.2391371E+04  0.7818609E-02  0.8442741E-01
       -1   -1    0    0    0  501  0.00000000000E+00  0.00000000000E+00  0.61334496730E+03  0.61334496732E+03  0.50400001928E-02 0. -1.
        1   -1    0    0  501    0  0.00000000000E+00  0.00000000000E+00 -0.23309299804E+04  0.23309299804E+04  0.50400001928E-02 0.  1.
    10030    2    1    2    0    0  0.00000000000E+00  0.00000000000E+00 -0.17175850131E+04  0.29442749477E+04  0.23913712992E+04 0.  0.
        3    1    3    3  502    0  0.61955385934E+03 -0.92648609295E+03 -0.13918367980E+04  0.17830965054E+04  0.10100000352E+00 0.  1.
       -3    1    3    3    0  502 -0.61955385934E+03  0.92648609295E+03 -0.32574821506E+03  0.11611784423E+04  0.10100000352E+00 0. -1.
</event>
<event>
 5   0  0.9176817E-06  0.2400994E+04  0.7818609E-02  0.8439132E-01
        1   -1    0    0  501    0  0.00000000000E+00  0.00000000000E+00  0.18907236688E+04  0.18907236688E+04  0.50400001928E-02 0. -1.
       -1   -1    0    0    0  501  0.00000000000E+00  0.00000000000E+00 -0.76224403068E+03  0.76224403070E+03  0.50400001928E-02 0.  1.
    10030    2    1    2    0    0  0.00000000000E+00  0.00000000000E+00  0.11284796381E+04  0.26529676995E+04  0.24009938194E+04 0.  0.
        3    1    3    3  502    0  0.37200748741E+03  0.42546888575E+03 -0.60605333724E+03  0.82868208694E+03  0.10100000352E+00 0.  1.
       -3    1    3    3    0  502 -0.37200748741E+03 -0.42546888575E+03  0.17345329753E+04  0.18242856126E+04  0.10100000352E+00 0. -1.
</event>
<event>
 5   0  0.8528103E-06  0.2387331E+04  0.7818609E-02  0.8444262E-01
       -1   -1    0    0    0  501  0.00000000000E+00  0.00000000000E+00  0.19747166174E+04  0.19747166174E+04  0.50400001928E-02 0. -1.
        1   -1    0    0  501    0  0.00000000000E+00  0.00000000000E+00 -0.72154011353E+03  0.72154011355E+03  0.50400001928E-02 0.  1.
    10030    2    1    2    0    0  0.00000000000E+00  0.00000000000E+00  0.12531765039E+04  0.26962567310E+04  0.23873309384E+04 0.  0.
        4    1    3    3  502    0 -0.11447421545E+04  0.33819115345E+03  0.63254125997E+03  0.13508952273E+04  0.12699999809E+01 0. -1.
       -4    1    3    3    0  502  0.11447421545E+04 -0.33819115345E+03  0.62063524392E+03  0.13453615037E+04  0.12699999809E+01 0.  1.
</event>
<event>
 5   0  0.2025353E-05  0.2359320E+04  0.7818609E-02  0.8454893E-01
        2   -1    0    0  501    0  0.00000000000E+00  0.00000000000E+00  0.17499344573E+04  0.17499344573E+04  0.25500000920E-02 0. -1.
       -2   -1    0    0    0  501  0.00000000000E+00  0.00000000000E+00 -0.79522814454E+03  0.79522814454E+03  0.25500000920E-02 0.  1.
    10030    2    1    2    0    0  0.00000000000E+00  0.00000000000E+00  0.95470631273E+03  0.25451626018E+04  0.23593195049E+04 0.  0.
        4    1    3    3  502    0 -0.17202443311E+03  0.71512177508E+03  0.14722830392E+04  0.16457856845E+04  0.12699999809E+01 0. -1.
       -4    1    3    3    0  502  0.17202443311E+03 -0.71512177508E+03 -0.51757672646E+03  0.89937691735E+03  0.12699999809E+01 0.  1.
</event>
<event>
 5   0  0.2087882E-05  0.2373434E+04  0.7818609E-02  0.8449517E-01
        2   -1    0    0  501    0  0.00000000000E+00  0.00000000000E+00  0.14755870618E+04  0.14755870618E+04  0.25500000920E-02 0.  1.
       -2   -1    0    0    0  501  0.00000000000E+00  0.00000000000E+00 -0.95439772562E+03  0.95439772562E+03  0.25500000920E-02 0. -1.
    10030    2    1    2    0    0  0.00000000000E+00  0.00000000000E+00  0.52118933617E+03  0.24299847874E+04  0.23734337452E+04 0.  0.
        2    1    3    3  502    0  0.64736123666E+03 -0.65318412055E+03  0.10285130474E+04  0.13796974867E+04  0.25500000920E-02 0.  1.
       -2    1    3    3    0  502 -0.64736123666E+03  0.65318412055E+03 -0.50732371124E+03  0.10502873007E+04  0.25500000920E-02 0. -1.
</event>
<event>
 5   0  0.2025353E-05  0.2408128E+04  0.7818609E-02  0.8436467E-01
        2   -1    0    0  501    0  0.00000000000E+00  0.00000000000E+00  0.72544213759E+03  0.72544213759E+03  0.25500000920E-02 0. -1.
       -2   -1    0    0    0  501  0.00000000000E+00  0.00000000000E+00 -0.19984640050E+04  0.19984640051E+04  0.25500000920E-02 0.  1.
    10030    2    1    2    0    0  0.00000000000E+00  0.00000000000E+00 -0.12730218675E+04  0.27239061426E+04  0.24081279033E+04 0.  0.
        4    1    3    3  502    0  0.10060128975E+04 -0.47815566877E+03 -0.11537152980E+04  0.16036693535E+04  0.12699999809E+01 0. -1.
       -4    1    3    3    0  502 -0.10060128975E+04  0.47815566877E+03 -0.11930656945E+03  0.11202367892E+04  0.12699999809E+01 0.  1.
</event>
<event>
 5   0  0.2080257E-05  0.2400188E+04  0.7818609E-02  0.8439433E-01
       -2   -1    0    0    0  501  0.00000000000E+00  0.00000000000E+00  0.14624535123E+04  0.14624535123E+04  0.25500000920E-02 0.  1.
        2   -1    0    0  501    0  0.00000000000E+00  0.00000000000E+00 -0.98480058559E+03  0.98480058559E+03  0.25500000920E-02 0. -1.
    10030    2    1    2    0    0  0.00000000000E+00  0.00000000000E+00  0.47765292667E+03  0.24472540979E+04  0.24001875554E+04 0.  0.
        1    1    3    3  502    0 -0.10008436989E+04  0.59271118223E+03  0.53996606162E+03  0.12824032138E+04  0.50400001928E-02 0. -1.
       -1    1    3    3    0  502  0.10008436989E+04 -0.59271118223E+03 -0.62313134951E+02  0.11648508840E+04  0.50400001928E-02 0.  1.
</event>
<event>
 5   0  0.2122194E-05  0.2397443E+04  0.7818609E-02  0.8440461E-01
       -2   -1    0    0    0  501  0.00000000000E+00  0.00000000000E+00  0.86476096501E+03  0.86476096501E+03  0.25500000920E-02 0. -1.
        2   -1    0    0  501    0  0.00000000000E+00  0.00000000000E+00 -0.16616538849E+04  0.16616538849E+04  0.25500000920E-02 0.  1.
    10030    2    1    2    0    0  0.00000000000E+00  0.00000000000E+00 -0.79689291988E+03  0.25264148499E+04  0.23974431522E+04 0.  0.
        3    1    3    3  502    0 -0.55135895724E+03  0.83507797017E+02 -0.15166437540E+04  0.16159141495E+04  0.10100000352E+00 0.  1.
       -3    1    3    3    0  502  0.55135895724E+03 -0.83507797017E+02  0.71975083414E+03  0.91050070035E+03  0.10100000352E+00 0. -1.
</event>
<event>
 5   0  0.9038897E-06  0.2276931E+04  0.7818609E-02  0.8487073E-01
       -1   -1    0    0    0  501  0.00000000000E+00  0.00000000000E+00  0.86712790857E+03  0.86712790858E+03  0.50400001928E-02 0. -1.
        1   -1    0    0  501    0  0.00000000000E+00  0.00000000000E+00 -0.14947089647E+04  0.14947089647E+04  0.50400001928E-02 0.  1.
    10030    2    1    2    0    0  0.00000000000E+00  0.00000000000E+00 -0.62758105613E+03  0.23618368733E+04  0.22769311439E+04 0.  0.
        1    1    3    3  502    0 -0.32777979884E+03 -0.26580566496E+02  0.81678738296E+03  0.88050426009E+03  0.50400001928E-02 0. -1.
       -1    1    3    3    0  502  0.32777979884E+03  0.26580566496E+02 -0.14443684391E+04  0.14813326132E+04  0.50400001928E-02 0.  1.
</event>
<event>
 5   0  0.2087882E-05  0.2388400E+04  0.7818609E-02  0.8443859E-01
        2   -1    0    0  501    0  0.00000000000E+00  0.00000000000E+00  0.12969463492E+04  0.12969463492E+04  0.25500000920E-02 0. -1.
       -2   -1    0    0    0  501  0.00000000000E+00  0.00000000000E+00 -0.10995929775E+04  0.10995929775E+04  0.25500000920E-02 0.  1.
    10030    2    1    2    0    0  0.00000000000E+00  0.00000000000E+00  0.19735337164E+03  0.23965393267E+04  0.23883995460E+04 0.  0.
        2    1    3    3  502    0 -0.45397336713E+03  0.22161069455E+03  0.11844504260E+04  0.12876823870E+04  0.25500000920E-02 0. -1.
       -2    1    3    3    0  502  0.45397336713E+03 -0.22161069455E+03 -0.98709705439E+03  0.11088569397E+04  0.25500000920E-02 0.  1.
</event>
<event>
 5   0  0.9083687E-06  0.2387923E+04  0.7818609E-02  0.8444039E-01
       -1   -1    0    0    0  501  0.00000000000E+00  0.00000000000E+00  0.10801025983E+04  0.10801025984E+04  0.50400001928E-02 0. -1.
        1   -1    0    0  501    0  0.00000000000E+00  0.00000000000E+00 -0.13198228942E+04  0.13198228942E+04  0.50400001928E-02 0.  1.
    10030    2    1    2    0    0  0.00000000000E+00  0.00000000000E+00 -0.23972029586E+03  0.23999254926E+04  0.23879230619E+04 0.  0.
        2    1    3    3  502    0 -0.76650752875E+03 -0.35933778945E+03  0.72632586596E+03  0.11154401383E+04  0.25500000920E-02 0. -1.
       -2    1    3    3    0  502  0.76650752875E+03  0.35933778945E+03 -0.96604616182E+03  0.12844853543E+04  0.25500000920E-02 0.  1.
</event>
<event>
 5   0  0.2087882E-05  0.2408086E+04  0.7818609E-02  0.8436482E-01
        2   -1    0    0  501    0  0.00000000000E+00  0.00000000000E+00  0.20676971804E+04  0.20676971804E+04  0.25500000920E-02 0.  1.
       -2   -1    0    0    0  501  0.00000000000E+00  0.00000000000E+00 -0.70112776263E+03  0.70112776263E+03  0.25500000920E-02 0. -1.
    10030    2    1    2    0    0  0.00000000000E+00  0.00000000000E+00  0.13665694178E+04  0.27688249431E+04  0.24080862924E+04 0.  0.
        2    1    3    3  502    0  0.11056430656E+04 -0.19390507299E+03  0.11840422586E+04  0.16315642299E+04  0.25500000920E-02 0.  1.
       -2    1    3    3    0  502 -0.11056430656E+04  0.19390507299E+03  0.18252715914E+03  0.11372607132E+04  0.25500000920E-02 0. -1.
</event>
<event>
 5   0  0.2025353E-05  0.2390337E+04  0.7818609E-02  0.8443130E-01
       -2   -1    0    0    0  501  0.00000000000E+00  0.00000000000E+00  0.10864946512E+04  0.10864946512E+04  0.25500000920E-02 0. -1.
        2   -1    0    0  501    0  0.00000000000E+00  0.00000000000E+00 -0.13147119517E+04  0.13147119517E+04  0.25500000920E-02 0.  1.
    10030    2    1    2    0    0  0.00000000000E+00  0.00000000000E+00 -0.22821730053E+03  0.24012066029E+04  0.23903367992E+04 0.  0.
        4    1    3    3  502    0 -0.99925983365E+03 -0.57206882233E+03 -0.43594490711E+03  0.12311915073E+04  0.12699999809E+01 0.  1.
       -4    1    3    3    0  502  0.99925983365E+03  0.57206882233E+03  0.20772760659E+03  0.11700150957E+04  0.12699999809E+01 0. -1.
</event>
<event>
 5   0  0.9038897E-06  0.2338453E+04  0.7818609E-02  0.8462912E-01
        1   -1    0    0  501    0  0.00000000000E+00  0.00000000000E+00  0.21258519476E+04  0.21258519476E+04  0.50400001928E-02 0.  1.
       -1   -1    0    0    0  501  0.00000000000E+00  0.00000000000E+00 -0.64307873030E+03  0.64307873032E+03  0.50400001928E-02 0. -1.
    10030    2    1    2    0    0  0.00000000000E+00  0.00000000000E+00  0.14827732173E+04  0.27689306779E+04  0.23384526262E+04 0.  0.
        1    1    3    3  502    0 -0.21479079691E+03 -0.11485459839E+04  0.79158417373E+03  0.14113463316E+04  0.50400001928E-02 0.  1.
       -1    1    3    3    0  502  0.21479079691E+03  0.11485459839E+04  0.69118904356E+03  0.13575843463E+04  0.50400001928E-02 0. -1.
</event>
<event>
 5   0  0.9176817E-06  0.2415884E+04  0.7818609E-02  0.8433581E-01
        1   -1    0    0  501    0  0.00000000000E+00  0.00000000000E+00  0.82073706970E+03  0.82073706971E+03  0.50400001928E-02 0.  1.
       -1   -1    0    0    0  501  0.00000000000E+00  0.00000000000E+00 -0.17778207465E+04  0.17778207465E+04  0.50400001928E-02 0. -1.
    10030    2    1    2    0    0  0.00000000000E+00  0.00000000000E+00 -0.95708367680E+03  0.25985578162E+04  0.24158835982E+04 0.  0.
        3    1    3    3  502    0  0.36364162867E+03 -0.33986981053E+03  0.70530625521E+03  0.86325178601E+03  0.10100000352E+00 0.  1.
       -3    1    3    3    0  502 -0.36364162867E+03  0.33986981053E+03 -0.16623899320E+04  0.17353060302E+04  0.10100000352E+00 0. -1.
</event>
<event>
 5   0  0.2122194E-05  0.2388355E+04  0.7818609E-02  0.8443876E-01
        2   -1    0    0  501    0  0.00000000000E+00  0.00000000000E+00  0.10529554654E+04  0.10529554654E+04  0.25500000920E-02 0.  1.
       -2   -1    0    0    0  501  0.00000000000E+00  0.00000000000E+00 -0.13543402766E+04  0.13543402766E+04  0.25500000920E-02 0. -1.
    10030    2    1    2    0    0  0.00000000000E+00  0.00000000000E+00 -0.30138481127E+03  0.24072957420E+04  0.23883550794E+04 0.  0.
        3    1    3    3  502    0  0.22202518469E+03 -0.11615241393E+04  0.16837871783E+02  0.11826736799E+04  0.10100000352E+00 0. -1.
       -3    1    3    3    0  502 -0.22202518469E+03  0.11615241393E+04 -0.31822268305E+03  0.12246220622E+04  0.10100000352E+00 0.  1.
</event>
<event>
 5   0  0.8898848E-06  0.2404088E+04  0.7818609E-02  0.8437975E-01
       -1   -1    0    0    0  501  0.00000000000E+00  0.00000000000E+00  0.12900809050E+04  0.12900809050E+04  0.50400001928E-02 0.  1.
        1   -1    0    0  501    0  0.00000000000E+00  0.00000000000E+00 -0.11200145357E+04  0.11200145357E+04  0.50400001928E-02 0. -1.
    10030    2    1    2    0    0  0.00000000000E+00  0.00000000000E+00  0.17006636925E+03  0.24100954407E+04  0.24040876572E+04 0.  0.
        5    1    3    3  502    0  0.33537841562E+03  0.10454263536E+04  0.57563567681E+03  0.12396666749E+04  0.46999998093E+01 0.  1.
       -5    1    3    3    0  502 -0.33537841562E+03 -0.10454263536E+04 -0.40556930756E+03  0.11704287658E+04  0.46999998093E+01 0. -1.
</event>
<event>
 5   0  0.8528103E-06  0.2476194E+04  0.7818609E-02  0.8411516E-01
        1   -1    0    0  501    0  0.00000000000E+00  0.00000000000E+00  0.11017435618E+04  0.11017435618E+04  0.50400001928E-02 0.  1.
       -1   -1    0    0    0  501  0.00000000000E+00  0.00000000000E+00 -0.13913255911E+04  0.13913255911E+04  0.50400001928E-02 0. -1.
    10030    2    1    2    0    0  0.00000000000E+00  0.00000000000E+00 -0.28958202934E+03  0.24930691529E+04  0.24761938634E+04 0.  0.
        4    1    3    3  502    0 -0.52157836960E+03 -0.80235873793E+03  0.64609332877E+03  0.11546695382E+04  0.12699999809E+01 0.  1.
       -4    1    3    3    0  502  0.52157836960E+03  0.80235873793E+03 -0.93567535811E+03  0.13383996147E+04  0.12699999809E+01 0. -1.
</event>
<event>
 5   0  0.2025353E-05  0.2359369E+04  0.7818609E-02  0.8454874E-01
        2   -1    0    0  501    0  0.00000000000E+00  0.00000000000E+00  0.19206217720E+04  0.19206217720E+04  0.25500000920E-02 0.  1.
       -2   -1    0    0    0  501  0.00000000000E+00  0.00000000000E+00 -0.72458582051E+03  0.72458582052E+03  0.25500000920E-02 0. -1.
    10030    2    1    2    0    0  0.00000000000E+00  0.00000000000E+00  0.11960359515E+04  0.26452075925E+04  0.23593688161E+04 0.  0.
        4    1    3    3  502    0 -0.91148468822E+03 -0.19445778734E+03  0.14088474327E+04  0.16892219717E+04  0.12699999809E+01 0.  1.
       -4    1    3    3    0  502  0.91148468822E+03  0.19445778734E+03 -0.21281148122E+03  0.95598562089E+03  0.12699999809E+01 0. -1.
</event>
<event>
 5   0  0.2080257E-05  0.2393691E+04  0.7818609E-02  0.8441869E-01
       -2   -1    0    0    0  501  0.00000000000E+00  0.00000000000E+00  0.13328760385E+04  0.13328760385E+04  0.25500000920E-02 0. -1.
        2   -1    0    0  501    0  0.00000000000E+00  0.00000000000E+00 -0.10746976733E+04  0.10746976733E+04  0.25500000920E-02 0.  1.
    10030    2    1    2    0    0  0.00000000000E+00  0.00000000000E+00  0.25817836526E+03  0.24075737118E+04  0.23936906880E+04 0.  0.
        1    1    3    3  502    0 -0.79485476273E+03 -0.45929892537E+03 -0.64327680768E+03  0.11209614837E+04  0.50400001928E-02 0.  1.
       -1    1    3    3    0  502  0.79485476273E+03  0.45929892537E+03  0.90145517294E+03  0.12866122281E+04  0.50400001928E-02 0. -1.
</event>
<event>
 5   0  0.9083687E-06  0.2393057E+04  0.7818609E-02  0.8442108E-01
       -1   -1    0    0    0  501  0.00000000000E+00  0.00000000000E+00  0.16670295303E+04  0.16670295303E+04  0.50400001928E-02 0.  1.
        1   -1    0    0  501    0  0.00000000000E+00  0.00000000000E+00 -0.85882105802E+03  0.85882105804E+03  0.50400001928E-02 0. -1.
    10030    2    1    2    0    0  0.00000000000E+00  0.00000000000E+00  0.80820847229E+03  0.25258505884E+04  0.23930566771E+04 0.  0.
        2    1    3    3  502    0 -0.11821653061E+04 -0.16469259037E+03  0.31553345081E+03  0.12345848771E+04  0.25500000920E-02 0. -1.
       -2    1    3    3    0  502  0.11821653061E+04  0.16469259037E+03  0.49267502148E+03  0.12912657112E+04  0.25500000920E-02 0.  1.
</event>
<event>
 5   0  0.2087882E-05  0.2423403E+04  0.7818609E-02  0.8430794E-01
       -2   -1    0    0    0  501  0.00000000000E+00  0.00000000000E+00  0.89491237336E+03  0.89491237337E+03  0.25500000920E-02 0. -1.
        2   -1    0    0  501    0  0.00000000000E+00  0.00000000000E+00 -0.16406301861E+04  0.16406301861E+04  0.25500000920E-02 0.  1.
    10030    2    1    2    0    0  0.00000000000E+00  0.00000000000E+00 -0.74571781275E+03  0.25355425595E+04  0.24234027760E+04 0.  0.
        2    1    3    3  502    0  0.21646068721E+03  0.88298039944E+03 -0.12109957328E+04  0.15142721948E+04  0.25500000920E-02 0.  1.
       -2    1    3    3    0  502 -0.21646068721E+03 -0.88298039944E+03  0.46527792009E+03  0.10212703647E+04  0.25500000920E-02 0. -1.
</event>
<event>
 5   0  0.2080257E-05  0.2393790E+04  0.7818609E-02  0.8441832E-01
        2   -1    0    0  501    0  0.00000000000E+00  0.00000000000E+00  0.27126996446E+04  0.27126996446E+04  0.25500000920E-02 0.  1.
       -2   -1    0    0    0  501  0.00000000000E+00  0.00000000000E+00 -0.52809291392E+03  0.52809291392E+03  0.25500000920E-02 0. -1.
    10030    2    1    2    0    0  0.00000000000E+00  0.00000000000E+00  0.21846067307E+04  0.32407925586E+04  0.23937898487E+04 0.  0.
        1    1    3    3  502    0  0.10375052096E+04  0.55894421293E+03  0.80922018692E+03  0.14295709161E+04  0.50400001928E-02 0. -1.
       -1    1    3    3    0  502 -0.10375052096E+04 -0.55894421293E+03  0.13753865438E+04  0.18112216424E+04  0.50400001928E-02 0.  1.
</event>
<event>
 5   0  0.2122194E-05  0.2395348E+04  0.7818609E-02  0.8441247E-01
       -2   -1    0    0    0  501  0.00000000000E+00  0.00000000000E+00  0.68473269291E+03  0.68473269292E+03  0.25500000920E-02 0. -1.
        2   -1    0    0  501    0  0.00000000000E+00  0.00000000000E+00 -0.20948649978E+04  0.20948649978E+04  0.25500000920E-02 0.  1.
    10030    2    1    2    0    0  0.00000000000E+00  0.00000000000E+00 -0.14101323049E+04  0.27795976907E+04  0.23953476167E+04 0.  0.
        3    1    3    3  502    0 -0.46256689222E+03  0.71553960177E+03  0.27165432335E+03  0.89429365036E+03  0.10100000352E+00 0. -1.
       -3    1    3    3    0  502  0.46256689222E+03 -0.71553960177E+03 -0.16817866282E+04  0.18853040403E+04  0.10100000352E+00 0.  1.
</event>
<event>
 5   0  0.2087882E-05  0.2393279E+04  0.7818609E-02  0.8442024E-01
       -2   -1    0    0    0  501  0.00000000000E+00  0.00000000000E+00  0.12074520168E+04  0.12074520168E+04  0.25500000920E-02 0.  1.
        2   -1    0    0  501    0  0.00000000000E+00  0.00000000000E+00 -0.11859236443E+04  0.11859236443E+04  0.25500000920E-02 0. -1.
    10030    2    1    2    0    0  0.00000000000E+00  0.00000000000E+00  0.21528372428E+02  0.23933756611E+04  0.23932788355E+04 0.  0.
        2    1    3    3  502    0 -0.61348380311E+03 -0.32463540292E+03  0.98558327756E+03  0.12054563113E+04  0.25500000920E-02 0.  1.
       -2    1    3    3    0  502  0.61348380311E+03  0.32463540292E+03 -0.96405490513E+03  0.11879193498E+04  0.25500000920E-02 0. -1.
</event>
<event>
 5   0  0.8898848E-06  0.2409472E+04  0.7818609E-02  0.8435966E-01
       -1   -1    0    0    0  501  0.00000000000E+00  0.00000000000E+00  0.71150440316E+03  0.71150440318E+03  0.50400001928E-02 0. -1.
        1   -1    0    0  501    0  0.00000000000E+00  0.00000000000E+00 -0.20398873261E+04  0.20398873261E+04  0.50400001928E-02 0.  1.
    10030    2    1    2    0    0  0.00000000000E+00  0.00000000000E+00 -0.13283829229E+04  0.27513917292E+04  0.24094719874E+04 0.  0.
        5    1    3    3  502    0  0.97544264934E+03 -0.22370018851E+03  0.10168361042E+03  0.10059283191E+04  0.46999998093E+01 0. -1.
       -5    1    3    3    0  502 -0.97544264934E+03  0.22370018851E+03 -0.14300665333E+04  0.17454634102E+04  0.46999998093E+01 0.  1.
</event>
<event>
 5   0  0.2025353E-05  0.2404048E+04  0.7818609E-02  0.8437990E-01
       -2   -1    0    0    0  501  0.00000000000E+00  0.00000000000E+00  0.16474505369E+04  0.16474505369E+04  0.25500000920E-02 0.  1.
        2   -1    0    0  501    0  0.00000000000E+00  0.00000000000E+00 -0.87702860639E+03  0.87702860639E+03  0.25500000920E-02 0. -1.
    10030    2    1    2    0    0  0.00000000000E+00  0.00000000000E+00  0.77042193055E+03  0.25244791433E+04  0.24040476272E+04 0.  0.
        4    1    3    3  502    0  0.39494797251E+03 -0.11238127514E+04  0.21614681237E+03  0.12106444807E+04  0.12699999809E+01 0. -1.
       -4    1    3    3    0  502 -0.39494797251E+03  0.11238127514E+04  0.55427511818E+03  0.13138346626E+04  0.12699999809E+01 0.  1.
</event>
<event>
 5   0  0.9176817E-06  0.2397415E+04  0.7818609E-02  0.8440472E-01
        1   -1    0    0  501    0  0.00000000000E+00  0.00000000000E+00  0.12603933501E+04  0.12603933501E+04  0.50400001928E-02 0.  1.
       -1   -1    0    0    0  501  0.00000000000E+00  0.00000000000E+00 -0.11400402105E+04  0.11400402105E+04  0.50400001928E-02 0. -1.
    10030    2    1    2    0    0  0.00000000000E+00  0.00000000000E+00  0.12035313954E+03  0.24004335606E+04  0.23974145242E+04 0.  0.
        3    1    3    3  502    0 -0.25307750157E+03  0.65296368343E+03 -0.91392537733E+03  0.11513771750E+04  0.10100000352E+00 0. -1.
       -3    1    3    3    0  502  0.25307750157E+03 -0.65296368343E+03  0.10342785169E+04  0.12490563856E+04  0.10100000352E+00 0.  1.
</event>
<event>
 5   0  0.9038897E-06  0.2403004E+04  0.7818609E-02  0.8438380E-01
       -1   -1    0    0    0  501  0.00000000000E+00  0.00000000000E+00  0.10718129918E+04  0.10718129918E+04  0.50400001928E-02 0.  1.
        1   -1    0    0  501    0  0.00000000000E+00  0.00000000000E+00 -0.13468833873E+04  0.13468833873E+04  0.50400001928E-02 0. -1.
    10030    2    1    2    0    0  0.00000000000E+00  0.00000000000E+00 -0.27507039543E+03  0.24186963791E+04  0.24030040474E+04 0.  0.
        1    1    3    3  502    0 -0.93138810309E+02  0.77068292698E+03  0.78550308167E+03  0.11043740776E+04  0.50400001928E-02 0.  1.
       -1    1    3    3    0  502  0.93138810309E+02 -0.77068292698E+03 -0.10605734771E+04  0.13143223015E+04  0.50400001928E-02 0. -1.
</event>
<event>
 5   0  0.2122194E-05  0.2383550E+04  0.7818609E-02  0.8445688E-01
        2   -1    0    0  501    0  0.00000000000E+00  0.00000000000E+00  0.22766780607E+04  0.22766780607E+04  0.25500000920E-02 0. -1.
       -2   -1    0    0    0  501  0.00000000000E+00  0.00000000000E+00 -0.62385943222E+03  0.62385943223E+03  0.25500000920E-02 0.  1.
    10030    2    1    2    0    0  0.00000000000E+00  0.00000000000E+00  0.16528186284E+04  0.29005374929E+04  0.23835495231E+04 0.  0.
        3    1    3    3  502    0 -0.14696759430E+03  0.11821723134E+04  0.78432116914E+03  0.14262855811E+04  0.10100000352E+00 0.  1.
       -3    1    3    3    0  502  0.14696759430E+03 -0.11821723134E+04  0.86849745930E+03  0.14742519118E+04  0.10100000352E+00 0. -1.
</event>
<event>
 5   0  0.7233625E-06  0.2371605E+04  0.7818609E-02  0.8450211E-01
        3   -1    0    0  501    0  0.00000000000E+00  0.00000000000E+00  0.12938994916E+04  0.12938994955E+04  0.10100000352E+00 0.  1.
       -3   -1    0    0    0  501  0.00000000000E+00  0.00000000000E+00 -0.10867359340E+04  0.10867359387E+04  0.10100000352E+00 0. -1.
    10030    2    1    2    0    0  0.00000000000E+00  0.00000000000E+00  0.20716355757E+03  0.23806354342E+04  0.23716045900E+04 0.  0.
        4    1    3    3  502    0 -0.99136118148E+03 -0.59874460800E+03  0.35917534452E+03  0.12125595403E+04  0.12699999809E+01 0.  1.
       -4    1    3    3    0  502  0.99136118148E+03  0.59874460800E+03 -0.15201178695E+03  0.11680758940E+04  0.12699999809E+01 0. -1.
</event>
<event>
 5   0  0.9176817E-06  0.2398824E+04  0.7818609E-02  0.8439944E-01
       -1   -1    0    0    0  501  0.00000000000E+00  0.00000000000E+00  0.11950527568E+04  0.11950527568E+04  0.50400001928E-02 0. -1.
        1   -1    0    0  501    0  0.00000000000E+00  0.00000000000E+00 -0.12037872166E+04  0.12037872166E+04  0.50400001928E-02 0.  1.
    10030    2    1    2    0    0  0.00000000000E+00  0.00000000000E+00 -0.87344598339E+01  0.23988399734E+04  0.23988240718E+04 0.  0.
        3    1    3    3  502    0  0.60463214830E+03 -0.94506331572E+02 -0.10359155068E+04  0.12031759759E+04  0.10100000352E+00 0.  1.
       -3    1    3    3    0  502 -0.60463214830E+03  0.94506331572E+02  0.10271810470E+04  0.11956639975E+04  0.10100000352E+00 0. -1.
</event>
<event>
 5   0  0.8528103E-06  0.2403761E+04  0.7818609E-02  0.8438097E-01
        1   -1    0    0  501    0  0.00000000000E+00  0.00000000000E+00  0.13278404316E+04  0.13278404316E+04  0.50400001928E-02 0. -1.
       -1   -1    0    0    0  501  0.00000000000E+00  0.00000000000E+00 -0.10878688399E+04  0.10878688399E+04  0.50400001928E-02 0.  1.
    10030    2    1    2    0    0  0.00000000000E+00  0.00000000000E+00  0.23997159172E+03  0.24157092715E+04  0.24037605786E+04 0.  0.
        4    1    3    3  502    0 -0.67308689593E+03  0.99496920561E+03  0.80999566932E+02  0.12039818239E+04  0.12699999809E+01 0. -1.
       -4    1    3    3    0  502  0.67308689593E+03 -0.99496920561E+03  0.15897202479E+03  0.12117274476E+04  0.12699999809E+01 0.  1.
</event>
<event>
 5   0  0.8898848E-06  0.2402344E+04  0.7818609E-02  0.8438627E-01
        1   -1    0    0  501    0  0.00000000000E+00  0.00000000000E+00  0.11870692308E+04  0.11870692308E+04  0.50400001928E-02 0. -1.
       -1   -1    0    0    0  501  0.00000000000E+00  0.00000000000E+00 -0.12154422867E+04  0.12154422867E+04  0.50400001928E-02 0.  1.
    10030    2    1    2    0    0  0.00000000000E+00  0.00000000000E+00 -0.28373055940E+02  0.24025115175E+04  0.24023439723E+04 0.  0.
        5    1    3    3  502    0 -0.95294937864E+03  0.66600812517E+03 -0.31605639826E+03  0.12048207659E+04  0.46999998093E+01 0.  1.
       -5    1    3    3    0  502  0.95294937864E+03 -0.66600812517E+03  0.28768334232E+03  0.11976907516E+04  0.46999998093E+01 0. -1.
</event>
<event>
 5   0  0.8528103E-06  0.2374461E+04  0.7818609E-02  0.8449127E-01
       -1   -1    0    0    0  501  0.00000000000E+00  0.00000000000E+00  0.17394739239E+04  0.17394739239E+04  0.50400001928E-02 0. -1.
        1   -1    0    0  501    0  0.00000000000E+00  0.00000000000E+00 -0.81031196872E+03  0.81031196874E+03  0.50400001928E-02 0.  1.
    10030    2    1    2    0    0  0.00000000000E+00  0.00000000000E+00  0.92916195516E+03  0.25497858926E+04  0.23744612356E+04 0.  0.
        4    1    3    3  502    0 -0.16718512348E+03 -0.16002588216E+03  0.17150167606E+04  0.17305615420E+04  0.12699999809E+01 0. -1.
       -4    1    3    3    0  502  0.16718512348E+03  0.16002588216E+03 -0.78585480548E+03  0.81922435063E+03  0.12699999809E+01 0.  1.
</event>
<event>
 5   0  0.2080257E-05  0.2263415E+04  0.7818609E-02  0.8492488E-01
       -2   -1    0    0    0  501  0.00000000000E+00  0.00000000000E+00  0.75072054595E+03  0.75072054595E+03  0.25500000920E-02 0.  1.
        2   -1    0    0  501    0  0.00000000000E+00  0.00000000000E+00 -0.17060426980E+04  0.17060426980E+04  0.25500000920E-02 0. -1.
    10030    2    1    2    0    0  0.00000000000E+00  0.00000000000E+00 -0.95532215209E+03  0.24567632440E+04  0.22634145053E+04 0.  0.
        1    1    3    3  502    0  0.85426258938E+03 -0.38083676614E+03 -0.11692386186E+04  0.14973042982E+04  0.50400001928E-02 0. -1.
       -1    1    3    3    0  502 -0.85426258938E+03  0.38083676614E+03  0.21391646650E+03  0.95945894583E+03  0.50400001928E-02 0.  1.
</event>
<event>
 5   0  0.8528103E-06  0.2396388E+04  0.7818609E-02  0.8440857E-01
        1   -1    0    0  501    0  0.00000000000E+00  0.00000000000E+00  0.16889019694E+04  0.16889019694E+04  0.50400001928E-02 0. -1.
       -1   -1    0    0    0  501  0.00000000000E+00  0.00000000000E+00 -0.85006041110E+03  0.85006041111E+03  0.50400001928E-02 0.  1.
    10030    2    1    2    0    0  0.00000000000E+00  0.00000000000E+00  0.83884155826E+03  0.25389623805E+04  0.23963878671E+04 0.  0.
        4    1    3    3  502    0 -0.60886847788E+03  0.72031418695E+03 -0.36352692022E+03  0.10108050187E+04  0.12699999809E+01 0.  1.
       -4    1    3    3    0  502  0.60886847788E+03 -0.72031418695E+03  0.12023684785E+04  0.15281573617E+04  0.12699999809E+01 0. -1.
</event>
<event>
 5   0  0.2122194E-05  0.2400885E+04  0.7818609E-02  0.8439172E-01
       -2   -1    0    0    0  501  0.00000000000E+00  0.00000000000E+00  0.12618739516E+04  0.12618739516E+04  0.25500000920E-02 0. -1.
        2   -1    0    0  501    0  0.00000000000E+00  0.00000000000E+00 -0.11420012551E+04  0.11420012551E+04  0.25500000920E-02 0.  1.
    10030    2    1    2    0    0  0.00000000000E+00  0.00000000000E+00  0.11987269649E+03  0.24038752066E+04  0.24008845340E+04 0.  0.
        3    1    3    3  502    0 -0.24705467667E+03 -0.11739077277E+04  0.10433411302E+03  0.12041515618E+04  0.10100000352E+00 0.  1.
       -3    1    3    3    0  502  0.24705467667E+03  0.11739077277E+04  0.15538583464E+02  0.11997236449E+04  0.10100000352E+00 0. -1.
</event>
<event>
 5   0  0.2025353E-05  0.2404281E+04  0.7818609E-02  0.8437903E-01
       -2   -1    0    0    0  501  0.00000000000E+00  0.00000000000E+00  0.75265055593E+03  0.75265055593E+03  0.25500000920E-02 0. -1.
        2   -1    0    0  501    0  0.00000000000E+00  0.00000000000E+00 -0.19200694469E+04  0.19200694469E+04  0.25500000920E-02 0.  1.
    10030    2    1    2    0    0  0.00000000000E+00  0.00000000000E+00 -0.11674188909E+04  0.26727200028E+04  0.24042806297E+04 0.  0.
        4    1    3    3  502    0  0.10035160057E+04  0.65581265348E+03 -0.48424862159E+03  0.12929164515E+04  0.12699999809E+01 0. -1.
       -4    1    3    3    0  502 -0.10035160057E+04 -0.65581265348E+03 -0.68317026934E+03  0.13798035513E+04  0.12699999809E+01 0.  1.
</event>
<event>
 5   0  0.8528103E-06  0.2351546E+04  0.7818609E-02  0.8457870E-01
       -1   -1    0    0    0  501  0.00000000000E+00  0.00000000000E+00  0.65460317743E+03  0.65460317745E+03  0.50400001928E-02 0. -1.
        1   -1    0    0  501    0  0.00000000000E+00  0.00000000000E+00 -0.21118788631E+04  0.21118788631E+04  0.50400001928E-02 0.  1.
    10030    2    1    2    0    0  0.00000000000E+00  0.00000000000E+00 -0.14572756857E+04  0.27664820405E+04  0.23515463969E+04 0.  0.
        4    1    3    3  502    0 -0.11741879068E+04  0.44528557806E+02 -0.67955047677E+03  0.13573836953E+04  0.12699999809E+01 0. -1.
       -4    1    3    3    0  502  0.11741879068E+04 -0.44528557806E+02 -0.77772520888E+03  0.14090983452E+04  0.12699999809E+01 0.  1.
</event>
<event>
 5   0  0.9038897E-06  0.2401745E+04  0.7818609E-02  0.8438850E-01
       -1   -1    0    0    0  501  0.00000000000E+00  0.00000000000E+00  0.67264761079E+03  0.67264761081E+03  0.50400001928E-02 0. -1.
        1   -1    0    0  501    0  0.00000000000E+00  0.00000000000E+00 -0.21439085761E+04  0.21439085761E+04  0.50400001928E-02 0.  1.
    10030    2    1    2    0    0  0.00000000000E+00  0.00000000000E+00 -0.14712609653E+04  0.28165561869E+04  0.24017451834E+04 0.  0.
        1    1    3    3  502    0  0.95513227677E+03 -0.67887588772E+03 -0.42770729867E+03  0.12474308279E+04  0.50400001928E-02 0.  1.
       -1    1    3    3    0  502 -0.95513227677E+03  0.67887588772E+03 -0.10435536666E+04  0.15691253590E+04  0.50400001928E-02 0. -1.
</event>
<event>
 5   0  0.2087882E-05  0.2400720E+04  0.7818609E-02  0.8439234E-01
       -2   -1    0    0    0  501  0.00000000000E+00  0.00000000000E+00  0.10781684123E+04  0.10781684123E+04  0.25500000920E-02 0. -1.
        2   -1    0    0  501    0  0.00000000000E+00  0.00000000000E+00 -0.13364001336E+04  0.13364001336E+04  0.25500000920E-02 0.  1.
    10030    2    1    2    0    0  0.00000000000E+00  0.00000000000E+00 -0.25823172129E+03  0.24145685458E+04  0.24007202337E+04 0.  0.
        2    1    3    3  502    0  0.47787783254E+02  0.11075642588E+04 -0.59207767579E+03  0.12567968149E+04  0.25500000920E-02 0.  1.
       -2    1    3    3    0  502 -0.47787783254E+02 -0.11075642588E+04  0.33384595450E+03  0.11577717310E+04  0.25500000920E-02 0. -1.
</event>
<event>
 5   0  0.2122194E-05  0.2402831E+04  0.7818609E-02  0.8438444E-01
        2   -1    0    0  501    0  0.00000000000E+00  0.00000000000E+00  0.11453908545E+04  0.11453908545E+04  0.25500000920E-02 0. -1.
       -2   -1    0    0    0  501  0.00000000000E+00  0.00000000000E+00 -0.12601809640E+04  0.12601809640E+04  0.25500000920E-02 0.  1.
    10030    2    1    2    0    0  0.00000000000E+00  0.00000000000E+00 -0.11479010947E+03  0.24055718185E+04  0.24028314558E+04 0.  0.
        3    1    3    3  502    0  0.50886823362E+03  0.10568685047E+04 -0.31746396044E+03  0.12151959890E+04  0.10100000352E+00 0.  1.
       -3    1    3    3    0  502 -0.50886823362E+03 -0.10568685047E+04  0.20267385098E+03  0.11903758295E+04  0.10100000352E+00 0. -1.
</event>
<event>
 5   0  0.8528103E-06  0.2499422E+04  0.7818609E-02  0.8403191E-01
        1   -1    0    0  501    0  0.00000000000E+00  0.00000000000E+00  0.13367711866E+04  0.13367711866E+04  0.50400001928E-02 0.  1.
       -1   -1    0    0    0  501  0.00000000000E+00  0.00000000000E+00 -0.11683211449E+04  0.11683211449E+04  0.50400001928E-02 0. -1.
    10030    2    1    2    0    0  0.00000000000E+00  0.00000000000E+00  0.16845004168E+03  0.25050923315E+04  0.24994223679E+04 0.  0.
        4    1    3    3  502    0 -0.12159944978E+03 -0.72125072263E+03  0.10998288990E+04  0.13208384652E+04  0.12699999809E+01 0.  1.
       -4    1    3    3    0  502  0.12159944978E+03  0.72125072263E+03 -0.93137885737E+03  0.11842538663E+04  0.12699999809E+01 0. -1.
</event>
<event>
 5   0  0.9083687E-06  0.2414527E+04  0.7818609E-02  0.8434085E-01
       -1   -1    0    0    0  501  0.00000000000E+00  0.00000000000E+00  0.90058219366E+03  0.90058219367E+03  0.50400001928E-02 0. -1.
        1   -1    0    0  501    0  0.00000000000E+00  0.00000000000E+00 -0.16183804397E+04  0.16183804397E+04  0.50400001928E-02 0.  1.
    10030    2    1    2    0    0  0.00000000000E+00  0.00000000000E+00 -0.71779824600E+03  0.25189626333E+04  0.24145265429E+04 0.  0.
        2    1    3    3  502    0  0.11832219374E+04  0.22898699965E+03 -0.43292900382E+03  0.12805767144E+04  0.25500000920E-02 0. -1.
       -2    1    3    3    0  502 -0.11832219374E+04 -0.22898699965E+03 -0.28486924219E+03  0.12383859189E+04  0.25500000920E-02 0.  1.
</event>
<event>
 5   0  0.9038897E-06  0.2404807E+04  0.7818609E-02  0.8437706E-01
        1   -1    0    0  501    0  0.00000000000E+00  0.00000000000E+00  0.18702715285E+04  0.18702715285E+04  0.50400001928E-02 0.  1.
       -1   -1    0    0    0  501  0.00000000000E+00  0.00000000000E+00 -0.77302917345E+03  0.77302917347E+03  0.50400001928E-02 0. -1.
    10030    2    1    2    0    0  0.00000000000E+00  0.00000000000E+00  0.10972423551E+04  0.26433007020E+04  0.24048072304E+04 0.  0.
        1    1    3    3  502    0  0.50975139556E+03 -0.55736897815E+03  0.15769612880E+04  0.17485175340E+04  0.50400001928E-02 0.  1.
       -1    1    3    3    0  502 -0.50975139556E+03  0.55736897815E+03 -0.47971893289E+03  0.89478316796E+03  0.50400001928E-02 0. -1.
</event>
<event>
 5   0  0.2087882E-05  0.2396277E+04  0.7818609E-02  0.8440899E-01
       -2   -1    0    0    0  501  0.00000000000E+00  0.00000000000E+00  0.64471071328E+03  0.64471071329E+03  0.25500000920E-02 0. -1.
        2   -1    0    0  501    0  0.00000000000E+00  0.00000000000E+00 -0.22266360411E+04  0.22266360411E+04  0.25500000920E-02 0.  1.
    10030    2    1    2    0    0  0.00000000000E+00  0.00000000000E+00 -0.15819253278E+04  0.28713467544E+04  0.23962772046E+04 0.  0.
        2    1    3    3  502    0 -0.87285672344E+03  0.78245314322E+03 -0.10879369164E+04  0.15992868770E+04  0.25500000920E-02 0.  1.
       -2    1    3    3    0  502  0.87285672344E+03 -0.78245314322E+03 -0.49398841144E+03  0.12720598774E+04  0.25500000920E-02 0. -1.
</event>
<event>
 5   0  0.8898848E-06  0.2413722E+04  0.7818609E-02  0.8434384E-01
       -1   -1    0    0    0  501  0.00000000000E+00  0.00000000000E+00  0.62345914060E+03  0.62345914062E+03  0.50400001928E-02 0.  1.
        1   -1    0    0  501    0  0.00000000000E+00  0.00000000000E+00 -0.23361818863E+04  0.23361818863E+04  0.50400001928E-02 0. -1.
    10030    2    1    2    0    0  0.00000000000E+00  0.00000000000E+00 -0.17127227457E+04  0.29596410270E+04  0.24137223960E+04 0.  0.
        5    1    3    3  502    0  0.41176611226E+03 -0.11605540029E+03  0.52735271795E+03  0.67907522872E+03  0.46999998093E+01 0.  1.
       -5    1    3    3    0  502 -0.41176611226E+03  0.11605540029E+03 -0.22400754637E+04  0.22805657982E+04  0.46999998093E+01 0. -1.
</event>
<event>
 5   0  0.9176817E-06  0.2382759E+04  0.7818609E-02  0.8445987E-01
       -1   -1    0    0    0  501  0.00000000000E+00  0.00000000000E+00  0.76402415775E+03  0.76402415777E+03  0.50400001928E-02 0. -1.
        1   -1    0    0  501    0  0.00000000000E+00  0.00000000000E+00 -0.18577756200E+04  0.18577756200E+04  0.50400001928E-02 0.  1.
    10030    2    1    2    0    0  0.00000000000E+00  0.00000000000E+00 -0.10937514622E+04  0.26217997778E+04  0.23827592857E+04 0.  0.
        3    1    3    3  502    0 -0.89376276137E+03  0.57786053812E+03 -0.11359850687E+04  0.15566620576E+04  0.10100000352E+00 0.  1.
       -3    1    3    3    0  502  0.89376276137E+03 -0.57786053812E+03  0.42233606474E+02  0.10651377201E+04  0.10100000352E+00 0. -1.
</event>
<event>
 5   0  0.2122194E-05  0.2396678E+04  0.7818609E-02  0.8440748E-01
       -2   -1    0    0    0  501  0.00000000000E+00  0.00000000000E+00  0.90567165465E+03  0.90567165466E+03  0.25500000920E-02 0. -1.
        2   -1    0    0  501    0  0.00000000000E+00  0.00000000000E+00 -0.15855817409E+04  0.15855817409E+04  0.25500000920E-02 0.  1.
    10030    2    1    2    0    0  0.00000000000E+00  0.00000000000E+00 -0.67991008623E+03  0.24912533955E+04  0.23966780667E+04 0.  0.
        3    1    3    3  502    0 -0.10523470482E+04 -0.17806673272E+03 -0.90631761573E+03  0.14001977367E+04  0.10100000352E+00 0. -1.
       -3    1    3    3    0  502  0.10523470482E+04  0.17806673272E+03  0.22640752950E+03  0.10910556588E+04  0.10100000352E+00 0.  1.
</event>
<event>
 5   0  0.2122194E-05  0.2413239E+04  0.7818609E-02  0.8434564E-01
        2   -1    0    0  501    0  0.00000000000E+00  0.00000000000E+00  0.25678927745E+04  0.25678927745E+04  0.25500000920E-02 0.  1.
       -2   -1    0    0    0  501  0.00000000000E+00  0.00000000000E+00 -0.56697481010E+03  0.56697481010E+03  0.25500000920E-02 0. -1.
    10030    2    1    2    0    0  0.00000000000E+00  0.00000000000E+00  0.20009179644E+04  0.31348675846E+04  0.24132389174E+04 0.  0.
        3    1    3    3  502    0 -0.73624962368E+03  0.22099090172E+03  0.22086468509E+04  0.23385938957E+04  0.10100000352E+00 0.  1.
       -3    1    3    3    0  502  0.73624962368E+03 -0.22099090172E+03 -0.20772888653E+03  0.79627368882E+03  0.10100000352E+00 0. -1.
</event>
<event>
 5   0  0.9038897E-06  0.2397087E+04  0.7818609E-02  0.8440595E-01
       -1   -1    0    0    0  501  0.00000000000E+00  0.00000000000E+00  0.77151266214E+03  0.77151266215E+03  0.50400001928E-02 0. -1.
        1   -1    0    0  501    0  0.00000000000E+00  0.00000000000E+00 -0.18619350824E+04  0.18619350824E+04  0.50400001928E-02 0.  1.
    10030    2    1    2    0    0  0.00000000000E+00  0.00000000000E+00 -0.10904224203E+04  0.26334477446E+04  0.23970869756E+04 0.  0.
        1    1    3    3  502    0 -0.91801690191E+03  0.25898815699E+03 -0.13424949780E+04  0.16468523503E+04  0.50400001928E-02 0.  1.
       -1    1    3    3    0  502  0.91801690191E+03 -0.25898815699E+03  0.25207255772E+03  0.98659539429E+03  0.50400001928E-02 0. -1.
</event>
<event>
 5   0  0.2080257E-05  0.2337603E+04  0.7818609E-02  0.8463241E-01
       -2   -1    0    0    0  501  0.00000000000E+00  0.00000000000E+00  0.12729283335E+04  0.12729283335E+04  0.25500000920E-02 0.  1.
        2   -1    0    0  501    0  0.00000000000E+00  0.00000000000E+00 -0.10731923786E+04  0.10731923786E+04  0.25500000920E-02 0. -1.
    10030    2    1    2    0    0  0.00000000000E+00  0.00000000000E+00  0.19973595490E+03  0.23461207121E+04  0.23376030339E+04 0.  0.
        1    1    3    3  502    0  0.81599021108E+03 -0.70508789890E+03 -0.35244924429E+03  0.11345525283E+04  0.50400001928E-02 0.  1.
       -1    1    3    3    0  502 -0.81599021108E+03  0.70508789890E+03  0.55218519919E+03  0.12115681838E+04  0.50400001928E-02 0. -1.
</event>
<event>
 5   0  0.9083687E-06  0.2293481E+04  0.7818609E-02  0.8480496E-01
        1   -1    0    0  501    0  0.00000000000E+00  0.00000000000E+00  0.11478914618E+04  0.11478914619E+04  0.50400001928E-02 0.  1.
       -1   -1    0    0    0  501  0.00000000000E+00  0.00000000000E+00 -0.11455903029E+04  0.11455903029E+04  0.50400001928E-02 0. -1.
    10030    2    1    2    0    0  0.00000000000E+00  0.00000000000E+00  0.23011589706E+01  0.22934817647E+04  0.22934806103E+04 0.  0.
        2    1    3    3  502    0 -0.20437190433E+03  0.27693096615E+03 -0.10927213951E+04  0.11456433488E+04  0.25500000920E-02 0. -1.
       -2    1    3    3    0  502  0.20437190433E+03 -0.27693096615E+03  0.10950225541E+04  0.11478384160E+04  0.25500000920E-02 0.  1.
</event>
<event>
 5   0  0.9038897E-06  0.2344026E+04  0.7818609E-02  0.8460762E-01
        1   -1    0    0  501    0  0.00000000000E+00  0.00000000000E+00  0.11038022452E+04  0.11038022452E+04  0.50400001928E-02 0.  1.
       -1   -1    0    0    0  501  0.00000000000E+00  0.00000000000E+00 -0.12444390459E+04  0.12444390459E+04  0.50400001928E-02 0. -1.
    10030    2    1    2    0    0  0.00000000000E+00  0.00000000000E+00 -0.14063680066E+03  0.23482412911E+04  0.23440261201E+04 0.  0.
        1    1    3    3  502    0 -0.18191802070E+03 -0.20691301465E+02 -0.12300236741E+04  0.12435757054E+04  0.50400001928E-02 0. -1.
       -1    1    3    3    0  502  0.18191802070E+03  0.20691301465E+02  0.10893868734E+04  0.11046655857E+04  0.50400001928E-02 0.  1.
</event>
<event>
 5   0  0.2048028E-05  0.2409797E+04  0.7818609E-02  0.8435845E-01
       -2   -1    0    0    0  501  0.00000000000E+00  0.00000000000E+00  0.85316947201E+03  0.85316947201E+03  0.25500000920E-02 0. -1.
        2   -1    0    0  501    0  0.00000000000E+00  0.00000000000E+00 -0.17016321005E+04  0.17016321005E+04  0.25500000920E-02 0.  1.
    10030    2    1    2    0    0  0.00000000000E+00  0.00000000000E+00 -0.84846262847E+03  0.25548015725E+04  0.24097971373E+04 0.  0.
        5    1    3    3  502    0 -0.23232002299E+01 -0.92989997027E+03  0.38805701213E+03  0.10076356914E+04  0.46999998093E+01 0. -1.
       -5    1    3    3    0  502  0.23232002299E+01  0.92989997027E+03 -0.12365196406E+04  0.15471658811E+04  0.46999998093E+01 0.  1.
</event>
<event>
 5   0  0.2080257E-05  0.2390398E+04  0.7818609E-02  0.8443107E-01
       -2   -1    0    0    0  501  0.00000000000E+00  0.00000000000E+00  0.72020769862E+03  0.72020769863E+03  0.25500000920E-02 0. -1.
        2   -1    0    0  501    0  0.00000000000E+00  0.00000000000E+00 -0.19834570248E+04  0.19834570248E+04  0.25500000920E-02 0.  1.
    10030    2    1    2    0    0  0.00000000000E+00  0.00000000000E+00 -0.12632493262E+04  0.27036647234E+04  0.23903983092E+04 0.  0.
        1    1    3    3  502    0  0.78206504822E+03  0.29961394804E+03 -0.15960789620E+04  0.18024600718E+04  0.50400001928E-02 0.  1.
       -1    1    3    3    0  502 -0.78206504822E+03 -0.29961394804E+03  0.33282963586E+03  0.90120465159E+03  0.50400001928E-02 0. -1.
</event>
<event>
 5   0  0.9083687E-06  0.2370681E+04  0.7818609E-02  0.8450562E-01
        1   -1    0    0  501    0  0.00000000000E+00  0.00000000000E+00  0.14656005923E+04  0.14656005923E+04  0.50400001928E-02 0. -1.
       -1   -1    0    0    0  501  0.00000000000E+00  0.00000000000E+00 -0.95867340880E+03  0.95867340881E+03  0.50400001928E-02 0.  1.
    10030    2    1    2    0    0  0.00000000000E+00  0.00000000000E+00  0.50692718347E+03  0.24242740011E+04  0.23706811812E+04 0.  0.
        2    1    3    3  502    0 -0.17507025295E+03  0.17935779166E+03 -0.93126632079E+03  0.96440436081E+03  0.25500000920E-02 0.  1.
       -2    1    3    3    0  502  0.17507025295E+03 -0.17935779166E+03  0.14381935043E+04  0.14598696403E+04  0.25500000920E-02 0. -1.
</event>
<event>
 5   0  0.9083687E-06  0.2396017E+04  0.7818609E-02  0.8440996E-01
       -1   -1    0    0    0  501  0.00000000000E+00  0.00000000000E+00  0.21195651902E+04  0.21195651902E+04  0.50400001928E-02 0. -1.
        1   -1    0    0  501    0  0.00000000000E+00  0.00000000000E+00 -0.67713151831E+03  0.67713151833E+03  0.50400001928E-02 0.  1.
    10030    2    1    2    0    0  0.00000000000E+00  0.00000000000E+00  0.14424336719E+04  0.27966967086E+04  0.23960170245E+04 0.  0.
        2    1    3    3  502    0 -0.49567330132E+03  0.46018416738E+02 -0.55069403284E+03  0.74234333979E+03  0.25500000920E-02 0.  1.
       -2    1    3    3    0  502  0.49567330132E+03 -0.46018416738E+02  0.19931277048E+04  0.20543533688E+04  0.25500000920E-02 0. -1.
</event>
<event>
 5   0  0.2087882E-05  0.2410662E+04  0.7818609E-02  0.8435523E-01
        2   -1    0    0  501    0  0.00000000000E+00  0.00000000000E+00  0.11670611423E+04  0.11670611423E+04  0.25500000920E-02 0. -1.
       -2   -1    0    0    0  501  0.00000000000E+00  0.00000000000E+00 -0.12448553546E+04  0.12448553546E+04  0.25500000920E-02 0.  1.
    10030    2    1    2    0    0  0.00000000000E+00  0.00000000000E+00 -0.77794212325E+02  0.24119164970E+04  0.24106615791E+04 0.  0.
        2    1    3    3  502    0  0.94358075594E+03 -0.56697806253E+03  0.45228976252E+03  0.11901154548E+04  0.25500000920E-02 0. -1.
       -2    1    3    3    0  502 -0.94358075594E+03  0.56697806253E+03 -0.53008397484E+03  0.12218010422E+04  0.25500000920E-02 0.  1.
</event>
<event>
 5   0  0.9176817E-06  0.2407982E+04  0.7818609E-02  0.8436521E-01
        1   -1    0    0  501    0  0.00000000000E+00  0.00000000000E+00  0.27016595667E+04  0.27016595667E+04  0.50400001928E-02 0.  1.
       -1   -1    0    0    0  501  0.00000000000E+00  0.00000000000E+00 -0.53655680605E+03  0.53655680607E+03  0.50400001928E-02 0. -1.
    10030    2    1    2    0    0  0.00000000000E+00  0.00000000000E+00  0.21651027606E+04  0.32382163728E+04  0.24079815848E+04 0.  0.
        3    1    3    3  502    0 -0.73899115934E+01  0.10317290658E+04  0.24805396878E+03  0.10611551525E+04  0.10100000352E+00 0. -1.
       -3    1    3    3    0  502  0.73899115934E+01 -0.10317290658E+04  0.19170487919E+04  0.21770612202E+04  0.10100000352E+00 0.  1.
</event>
<event>
 5   0  0.2048028E-05  0.2412586E+04  0.7818609E-02  0.8434807E-01
        2   -1    0    0  501    0  0.00000000000E+00  0.00000000000E+00  0.10626170879E+04  0.10626170879E+04  0.25500000920E-02 0.  1.
       -2   -1    0    0    0  501  0.00000000000E+00  0.00000000000E+00 -0.13693950341E+04  0.13693950342E+04  0.25500000920E-02 0. -1.
    10030    2    1    2    0    0  0.00000000000E+00  0.00000000000E+00 -0.30677794623E+03  0.24320121221E+04  0.24125858023E+04 0.  0.
        5    1    3    3  502    0 -0.73838087364E+01  0.38164866478E+03  0.10001196238E+04  0.10705006192E+04  0.46999998093E+01 0.  1.
       -5    1    3    3    0  502  0.73838087364E+01 -0.38164866478E+03 -0.13068975700E+04  0.13615115028E+04  0.46999998093E+01 0. -1.
</event>
<event>
 5   0  0.9176817E-06  0.2409342E+04  0.7818609E-02  0.8436014E-01
        1   -1    0    0  501    0  0.00000000000E+00  0.00000000000E+00  0.18558595706E+04  0.18558595706E+04  0.50400001928E-02 0. -1.
       -1   -1    0    0    0  501  0.00000000000E+00  0.00000000000E+00 -0.78197335229E+03  0.78197335231E+03  0.50400001928E-02 0.  1.
    10030    2    1    2    0    0  0.00000000000E+00  0.00000000000E+00  0.10738862183E+04  0.26378329229E+04  0.24093424247E+04 0.  0.
        3    1    3    3  502    0  0.86741843092E+03  0.74436971166E+03  0.12042813953E+03  0.11493493590E+04  0.10100000352E+00 0.  1.
       -3    1    3    3    0  502 -0.86741843092E+03 -0.74436971166E+03  0.95345807876E+03  0.14884835639E+04  0.10100000352E+00 0. -1.
</event>
<event>
 5   0  0.2087882E-05  0.2416412E+04  0.7818609E-02  0.8433385E-01
        2   -1    0    0  501    0  0.00000000000E+00  0.00000000000E+00  0.15111070864E+04  0.15111070864E+04  0.25500000920E-02 0. -1.
       -2   -1    0    0    0  501  0.00000000000E+00  0.00000000000E+00 -0.96602156716E+03  0.96602156716E+03  0.25500000920E-02 0.  1.
    10030    2    1    2    0    0  0.00000000000E+00  0.00000000000E+00  0.54508551927E+03  0.24771286536E+04  0.24164122461E+04 0.  0.
        2    1    3    3  502    0  0.63333528541E+03 -0.89685189245E+03 -0.24441504908E+03  0.11248091469E+04  0.25500000920E-02 0.  1.
       -2    1    3    3    0  502 -0.63333528541E+03  0.89685189245E+03  0.78950056835E+03  0.13523195067E+04  0.25500000920E-02 0. -1.
</event>
<event>
 5   0  0.2087882E-05  0.2374657E+04  0.7818609E-02  0.8449053E-01
        2   -1    0    0  501    0  0.00000000000E+00  0.00000000000E+00  0.14534251989E+04  0.14534251989E+04  0.25500000920E-02 0.  1.
       -2   -1    0    0    0  501  0.00000000000E+00  0.00000000000E+00 -0.96994965914E+03  0.96994965915E+03  0.25500000920E-02 0. -1.
    10030    2    1    2    0    0  0.00000000000E+00  0.00000000000E+00  0.48347553975E+03  0.24233748580E+04  0.23746572605E+04 0.  0.
        2    1    3    3  502    0  0.47037619865E+03  0.88492443772E+03 -0.40803844417E+03  0.10820537883E+04  0.25500000920E-02 0. -1.
       -2    1    3    3    0  502 -0.47037619865E+03 -0.88492443772E+03  0.89151398392E+03  0.13413210698E+04  0.25500000920E-02 0.  1.
</event>
<event>
 5   0  0.9038897E-06  0.2383762E+04  0.7818609E-02  0.8445608E-01
       -1   -1    0    0    0  501  0.00000000000E+00  0.00000000000E+00  0.68651252412E+03  0.68651252414E+03  0.50400001928E-02 0.  1.
        1   -1    0    0  501    0  0.00000000000E+00  0.00000000000E+00 -0.20692704855E+04  0.20692704855E+04  0.50400001928E-02 0. -1.
    10030    2    1    2    0    0  0.00000000000E+00  0.00000000000E+00 -0.13827579613E+04  0.27557830096E+04  0.23837618204E+04 0.  0.
        1    1    3    3  502    0  0.18248283352E+03 -0.60559678184E+02 -0.20512240153E+04  0.20602153820E+04  0.50400001928E-02 0. -1.
       -1    1    3    3    0  502 -0.18248283352E+03  0.60559678184E+02  0.66846605401E+03  0.69556762758E+03  0.50400001928E-02 0.  1.
</event>
<event>
 5   0  0.2122194E-05  0.2429770E+04  0.7818609E-02  0.8428442E-01
        2   -1    0    0  501    0  0.00000000000E+00  0.00000000000E+00  0.17948638692E+04  0.17948638692E+04  0.25500000920E-02 0.  1.
       -2   -1    0    0    0  501  0.00000000000E+00  0.00000000000E+00 -0.82231604944E+03  0.82231604944E+03  0.25500000920E-02 0. -1.
    10030    2    1    2    0    0  0.00000000000E+00  0.00000000000E+00  0.97254781981E+03  0.26171799187E+04  0.24297698379E+04 0.  0.
        3    1    3    3  502    0  0.28921051487E+03 -0.87871764314E+03  0.13345155657E+04  0.16237977779E+04  0.10100000352E+00 0.  1.
       -3    1    3    3    0  502 -0.28921051487E+03  0.87871764314E+03 -0.36196774592E+03  0.99338214075E+03  0.10100000352E+00 0. -1.
</event>
<event>
 5   0  0.2087882E-05  0.2310147E+04  0.7818609E-02  0.8473931E-01
        2   -1    0    0  501    0  0.00000000000E+00  0.00000000000E+00  0.96142038344E+03  0.96142038344E+03  0.25500000920E-02 0. -1.
       -2   -1    0    0    0  501  0.00000000000E+00  0.00000000000E+00 -0.13877331528E+04  0.13877331529E+04  0.25500000920E-02 0.  1.
    10030    2    1    2    0    0  0.00000000000E+00  0.00000000000E+00 -0.42631276941E+03  0.23491535363E+04  0.23101471295E+04 0.  0.
        2    1    3    3  502    0 -0.10723445101E+04 -0.41629882119E+03 -0.31965041135E+03  0.11939027776E+04  0.25500000920E-02 0. -1.
       -2    1    3    3    0  502  0.10723445101E+04  0.41629882119E+03 -0.10666235806E+03  0.11552507587E+04  0.25500000920E-02 0.  1.
</event>
<event>
 5   0  0.9176817E-06  0.2399719E+04  0.7818609E-02  0.8439609E-01
        1   -1    0    0  501    0  0.00000000000E+00  0.00000000000E+00  0.15681298405E+04  0.15681298405E+04  0.50400001928E-02 0. -1.
       -1   -1    0    0    0  501  0.00000000000E+00  0.00000000000E+00 -0.91807616938E+03  0.91807616940E+03  0.50400001928E-02 0.  1.
    10030    2    1    2    0    0  0.00000000000E+00  0.00000000000E+00  0.65005367114E+03  0.24862060099E+04  0.23997188478E+04 0.  0.
        3    1    3    3  502    0 -0.61181379934E+03  0.59652890282E+03  0.11977025272E+04  0.14712763884E+04  0.10100000352E+00 0. -1.
       -3    1    3    3    0  502  0.61181379934E+03 -0.59652890282E+03 -0.54764885611E+03  0.10149296216E+04  0.10100000352E+00 0.  1.
</event>
<event>
 5   0  0.9176817E-06  0.2415581E+04  0.7818609E-02  0.8433693E-01
        1   -1    0    0  501    0  0.00000000000E+00  0.00000000000E+00  0.17025330489E+04  0.17025330489E+04  0.50400001928E-02 0.  1.
       -1   -1    0    0    0  501  0.00000000000E+00  0.00000000000E+00 -0.85681612199E+03  0.85681612201E+03  0.50400001928E-02 0. -1.
    10030    2    1    2    0    0  0.00000000000E+00  0.00000000000E+00  0.84571692694E+03  0.25593491710E+04  0.24155808946E+04 0.  0.
        3    1    3    3  502    0  0.71639200969E+02 -0.50364277080E+03 -0.73776959446E+03  0.89615411644E+03  0.10100000352E+00 0. -1.
       -3    1    3    3    0  502 -0.71639200969E+02  0.50364277080E+03  0.15834865214E+04  0.16631950545E+04  0.10100000352E+00 0.  1.
</event>
<event>
 5   0  0.8528103E-06  0.2385806E+04  0.7818609E-02  0.8444837E-01
       -1   -1    0    0    0  501  0.00000000000E+00  0.00000000000E+00  0.15165239010E+04  0.15165239010E+04  0.50400001928E-02 0. -1.
        1   -1    0    0  501    0  0.00000000000E+00  0.00000000000E+00 -0.93834131849E+03  0.93834131851E+03  0.50400001928E-02 0.  1.
    10030    2    1    2    0    0  0.00000000000E+00  0.00000000000E+00  0.57818258253E+03  0.24548652195E+04  0.23858055552E+04 0.  0.
        4    1    3    3  502    0  0.68685330132E+03  0.35176420665E+03  0.12250985333E+04  0.14478858877E+04  0.12699999809E+01 0. -1.
       -4    1    3    3    0  502 -0.68685330132E+03 -0.35176420665E+03 -0.64691595073E+03  0.10069793319E+04  0.12699999809E+01 0.  1.
</event>
<event>
 5   0  0.2122194E-05  0.2432152E+04  0.7818609E-02  0.8427564E-01
        2   -1    0    0  501    0  0.00000000000E+00  0.00000000000E+00  0.94854178550E+03  0.94854178550E+03  0.25500000920E-02 0.  1.
       -2   -1    0    0    0  501  0.00000000000E+00  0.00000000000E+00 -0.15590676481E+04  0.15590676481E+04  0.25500000920E-02 0. -1.
    10030    2    1    2    0    0  0.00000000000E+00  0.00000000000E+00 -0.61052586257E+03  0.25076094336E+04  0.24321519777E+04 0.  0.
        3    1    3    3  502    0  0.96441359777E+03 -0.66356914366E+03  0.34229663131E+02  0.11711486994E+04  0.10100000352E+00 0.  1.
       -3    1    3    3    0  502 -0.96441359777E+03  0.66356914366E+03 -0.64475552570E+03  0.13364607342E+04  0.10100000352E+00 0. -1.
</event>
<event>
 5   0  0.2087882E-05  0.2445120E+04  0.7818609E-02  0.8422802E-01
        2   -1    0    0  501    0  0.00000000000E+00  0.00000000000E+00  0.15162928608E+04  0.15162928608E+04  0.25500000920E-02 0.  1.
       -2   -1    0    0    0  501  0.00000000000E+00  0.00000000000E+00 -0.98572813058E+03  0.98572813059E+03  0.25500000920E-02 0. -1.
    10030    2    1    2    0    0  0.00000000000E+00  0.00000000000E+00  0.53056473021E+03  0.25020209914E+04  0.24451196511E+04 0.  0.
        2    1    3    3  502    0 -0.84520271306E+03 -0.39039419425E+03 -0.54554465921E+03  0.10790710024E+04  0.25500000920E-02 0. -1.
       -2    1    3    3    0  502  0.84520271306E+03  0.39039419425E+03  0.10761093894E+04  0.14229499890E+04  0.25500000920E-02 0.  1.
</event>
<event>
 5   0  0.2025353E-05  0.2206530E+04  0.7818609E-02  0.8515715E-01
       -2   -1    0    0    0  501  0.00000000000E+00  0.00000000000E+00  0.88113645861E+03  0.88113645862E+03  0.25500000920E-02 0.  1.
        2   -1    0    0  501    0  0.00000000000E+00  0.00000000000E+00 -0.13813901612E+04  0.13813901612E+04  0.25500000920E-02 0. -1.
    10030    2    1    2    0    0  0.00000000000E+00  0.00000000000E+00 -0.50025370257E+03  0.22625266198E+04  0.22065296142E+04 0.  0.
        4    1    3    3  502    0  0.61788791053E+03  0.72450637448E+03 -0.82149023786E+03  0.12575940444E+04  0.12699999809E+01 0. -1.
       -4    1    3    3    0  502 -0.61788791053E+03 -0.72450637448E+03  0.32123653530E+03  0.10049325754E+04  0.12699999809E+01 0.  1.
</event>
<event>
 5   0  0.9083687E-06  0.2378353E+04  0.7818609E-02  0.8447652E-01
       -1   -1    0    0    0  501  0.00000000000E+00  0.00000000000E+00  0.10871193423E+04  0.10871193423E+04  0.50400001928E-02 0. -1.
        1   -1    0    0  501    0  0.00000000000E+00  0.00000000000E+00 -0.13008151203E+04  0.13008151203E+04  0.50400001928E-02 0.  1.
    10030    2    1    2    0    0  0.00000000000E+00  0.00000000000E+00 -0.21369577806E+03  0.23879344626E+04  0.23783534456E+04 0.  0.
        2    1    3    3  502    0 -0.88934855902E+02 -0.45003131445E+03 -0.12084019176E+04  0.12925450813E+04  0.25500000920E-02 0.  1.
       -2    1    3    3    0  502  0.88934855902E+02  0.45003131445E+03  0.99470613958E+03  0.10953893813E+04  0.25500000920E-02 0. -1.
</event>
<event>
 5   0  0.7233625E-06  0.2405185E+04  0.7818609E-02  0.8437565E-01
        3   -1    0    0  501    0  0.00000000000E+00  0.00000000000E+00  0.19305809434E+04  0.19305809461E+04  0.10100000352E+00 0. -1.
       -3   -1    0    0    0  501  0.00000000000E+00  0.00000000000E+00 -0.74911590368E+03  0.74911591049E+03  0.10100000352E+00 0.  1.
    10030    2    1    2    0    0  0.00000000000E+00  0.00000000000E+00  0.11814650397E+04  0.26796968565E+04  0.24051851494E+04 0.  0.
        1    1    3    3  502    0 -0.87639729089E+03  0.75752524109E+03  0.23089644388E+03  0.11811984889E+04  0.50400001928E-02 0.  1.
       -1    1    3    3    0  502  0.87639729089E+03 -0.75752524109E+03  0.95056859585E+03  0.14984983676E+04  0.50400001928E-02 0. -1.
</event>
<event>
 5   0  0.2080257E-05  0.2396026E+04  0.7818609E-02  0.8440993E-01
        2   -1    0    0  501    0  0.00000000000E+00  0.00000000000E+00  0.20231236981E+04  0.20231236981E+04  0.25500000920E-02 0.  1.
       -2   -1    0    0    0  501  0.00000000000E+00  0.00000000000E+00 -0.70941551257E+03  0.70941551257E+03  0.25500000920E-02 0. -1.
    10030    2    1    2    0    0  0.00000000000E+00  0.00000000000E+00  0.13137081856E+04  0.27325392107E+04  0.23960261562E+04 0.  0.
        1    1    3    3  502    0  0.68325973083E+03 -0.94197496738E+03  0.33212787622E+03  0.12101527280E+04  0.50400001928E-02 0. -1.
       -1    1    3    3    0  502 -0.68325973083E+03  0.94197496738E+03  0.98158030935E+03  0.15223864827E+04  0.50400001928E-02 0.  1.
</event>
<event>
 5   0  0.2087882E-05  0.2380369E+04  0.7818609E-02  0.8446890E-01
        2   -1    0    0  501    0  0.00000000000E+00  0.00000000000E+00  0.11815158670E+04  0.11815158670E+04  0.25500000920E-02 0. -1.
       -2   -1    0    0    0  501  0.00000000000E+00  0.00000000000E+00 -0.11989167712E+04  0.11989167712E+04  0.25500000920E-02 0.  1.
    10030    2    1    2    0    0  0.00000000000E+00  0.00000000000E+00 -0.17400904249E+02  0.23804326382E+04  0.23803690373E+04 0.  0.
        2    1    3    3  502    0  0.89628233211E+03 -0.72886980117E+03  0.27760421540E+03  0.11881234390E+04  0.25500000920E-02 0. -1.
       -2    1    3    3    0  502 -0.89628233211E+03  0.72886980117E+03 -0.29500511965E+03  0.11923091992E+04  0.25500000920E-02 0.  1.
</event>
<event>
 5   0  0.9038897E-06  0.2391302E+04  0.7818609E-02  0.8442767E-01
       -1   -1    0    0    0  501  0.00000000000E+00  0.00000000000E+00  0.13295608839E+04  0.13295608839E+04  0.50400001928E-02 0.  1.
        1   -1    0    0  501    0  0.00000000000E+00  0.00000000000E+00 -0.10752286107E+04  0.10752286107E+04  0.50400001928E-02 0. -1.
    10030    2    1    2    0    0  0.00000000000E+00  0.00000000000E+00  0.25433227322E+03  0.24047894946E+04  0.23913024920E+04 0.  0.
        1    1    3    3  502    0  0.93414901920E+02  0.53101855661E+03 -0.94603358398E+03  0.10888923700E+04  0.50400001928E-02 0. -1.
       -1    1    3    3    0  502 -0.93414901920E+02 -0.53101855661E+03  0.12003658572E+04  0.13158971246E+04  0.50400001928E-02 0.  1.
</event>
<event>
 5   0  0.9176817E-06  0.2391522E+04  0.7818609E-02  0.8442684E-01
       -1   -1    0    0    0  501  0.00000000000E+00  0.00000000000E+00  0.83186357731E+03  0.83186357732E+03  0.50400001928E-02 0.  1.
        1   -1    0    0  501    0  0.00000000000E+00  0.00000000000E+00 -0.17188448433E+04  0.17188448433E+04  0.50400001928E-02 0. -1.
    10030    2    1    2    0    0  0.00000000000E+00  0.00000000000E+00 -0.88698126596E+03  0.25507084206E+04  0.23915220427E+04 0.  0.
        3    1    3    3  502    0 -0.69171251461E+03  0.89186882687E+03 -0.86467923964E+03  0.14218179929E+04  0.10100000352E+00 0. -1.
       -3    1    3    3    0  502  0.69171251461E+03 -0.89186882687E+03 -0.22302026325E+02  0.11288904277E+04  0.10100000352E+00 0.  1.
</event>
<event>
 5   0  0.8528103E-06  0.2402587E+04  0.7818609E-02  0.8438536E-01
       -1   -1    0    0    0  501  0.00000000000E+00  0.00000000000E+00  0.56874642069E+03  0.56874642072E+03  0.50400001928E-02 0.  1.
        1   -1    0    0  501    0  0.00000000000E+00  0.00000000000E+00 -0.25373461274E+04  0.25373461274E+04  0.50400001928E-02 0. -1.
    10030    2    1    2    0    0  0.00000000000E+00  0.00000000000E+00 -0.19685997067E+04  0.31060925482E+04  0.24025873787E+04 0.  0.
        4    1    3    3  502    0 -0.10097825402E+03 -0.76704109362E+02  0.56006873156E+03  0.57424622345E+03  0.12699999809E+01 0.  1.
       -4    1    3    3    0  502  0.10097825402E+03  0.76704109362E+02 -0.25286684383E+04  0.25318463247E+04  0.12699999809E+01 0. -1.
</event>
<event>
 5   0  0.9038897E-06  0.2415869E+04  0.7818609E-02  0.8433586E-01
       -1   -1    0    0    0  501  0.00000000000E+00  0.00000000000E+00  0.10907431625E+04  0.10907431626E+04  0.50400001928E-02 0.  1.
        1   -1    0    0  501    0  0.00000000000E+00  0.00000000000E+00 -0.13377176103E+04  0.13377176103E+04  0.50400001928E-02 0. -1.
    10030    2    1    2    0    0  0.00000000000E+00  0.00000000000E+00 -0.24697444772E+03  0.24284607728E+04  0.24158694806E+04 0.  0.
        1    1    3    3  502    0 -0.10166977884E+04  0.63104876481E+03 -0.28929966368E+03  0.12310935107E+04  0.50400001928E-02 0.  1.
       -1    1    3    3    0  502  0.10166977884E+04 -0.63104876481E+03  0.42325215960E+02  0.11973672622E+04  0.50400001928E-02 0. -1.
</event>
<event>
 5   0  0.2122194E-05  0.2410420E+04  0.7818609E-02  0.8435613E-01
       -2   -1    0    0    0  501  0.00000000000E+00  0.00000000000E+00  0.66976176745E+03  0.66976176745E+03  0.25500000920E-02 0.  1.
        2   -1    0    0  501    0  0.00000000000E+00  0.00000000000E+00 -0.21687278643E+04  0.21687278643E+04  0.25500000920E-02 0. -1.
    10030    2    1    2    0    0  0.00000000000E+00  0.00000000000E+00 -0.14989660969E+04  0.28384896318E+04  0.24104198867E+04 0.  0.
        3    1    3    3  502    0  0.11968656355E+04  0.85860432464E+02 -0.88204256758E+03  0.14892476170E+04  0.10100000352E+00 0. -1.
       -3    1    3    3    0  502 -0.11968656355E+04 -0.85860432464E+02 -0.61692352932E+03  0.13492420148E+04  0.10100000352E+00 0.  1.
</event>
<event>
 5   0  0.9083687E-06  0.2389066E+04  0.7818609E-02  0.8443608E-01
       -1   -1    0    0    0  501  0.00000000000E+00  0.00000000000E+00  0.76413256609E+03  0.76413256611E+03  0.50400001928E-02 0.  1.
        1   -1    0    0  501    0  0.00000000000E+00  0.00000000000E+00 -0.18673582158E+04  0.18673582158E+04  0.50400001928E-02 0. -1.
    10030    2    1    2    0    0  0.00000000000E+00  0.00000000000E+00 -0.11032256497E+04  0.26314907819E+04  0.23890661149E+04 0.  0.
        2    1    3    3  502    0  0.17414993265E+02  0.25142411365E+03 -0.18377403491E+04  0.18549412275E+04  0.25500000920E-02 0. -1.
       -2    1    3    3    0  502 -0.17414993265E+02 -0.25142411365E+03  0.73451469935E+03  0.77654955443E+03  0.25500000920E-02 0.  1.
</event>
<event>
 5   0  0.2080257E-05  0.2402317E+04  0.7818609E-02  0.8438637E-01
        2   -1    0    0  501    0  0.00000000000E+00  0.00000000000E+00  0.10446061434E+04  0.10446061434E+04  0.25500000920E-02 0.  1.
       -2   -1    0    0    0  501  0.00000000000E+00  0.00000000000E+00 -0.13811724864E+04  0.13811724864E+04  0.25500000920E-02 0. -1.
    10030    2    1    2    0    0  0.00000000000E+00  0.00000000000E+00 -0.33656634302E+03  0.24257786298E+04  0.24023166023E+04 0.  0.
        1    1    3    3  502    0 -0.10849510012E+04 -0.21751891605E+03 -0.64012413515E+03  0.12783552176E+04  0.50400001928E-02 0.  1.
       -1    1    3    3    0  502  0.10849510012E+04  0.21751891605E+03  0.30355779213E+03  0.11474234123E+04  0.50400001928E-02 0. -1.
</event>
<event>
 5   0  0.9083687E-06  0.2396604E+04  0.7818609E-02  0.8440776E-01
       -1   -1    0    0    0  501  0.00000000000E+00  0.00000000000E+00  0.14515728328E+04  0.14515728328E+04  0.50400001928E-02 0.  1.
        1   -1    0    0  501    0  0.00000000000E+00  0.00000000000E+00 -0.98922212871E+03  0.98922212872E+03  0.50400001928E-02 0. -1.
    10030    2    1    2    0    0  0.00000000000E+00  0.00000000000E+00  0.46235070410E+03  0.24407949615E+04  0.23966042374E+04 0.  0.
        2    1    3    3  502    0  0.59956405995E+03 -0.10229120018E+04  0.54477107541E+02  0.11869261900E+04  0.25500000920E-02 0. -1.
       -2    1    3    3    0  502 -0.59956405995E+03  0.10229120018E+04  0.40787359656E+03  0.12538687715E+04  0.25500000920E-02 0.  1.
</event>
<event>
 5   0  0.9176817E-06  0.2395934E+04  0.7818609E-02  0.8441027E-01
        1   -1    0    0  501    0  0.00000000000E+00  0.00000000000E+00  0.18183892743E+04  0.18183892743E+04  0.50400001928E-02 0.  1.
       -1   -1    0    0    0  501  0.00000000000E+00  0.00000000000E+00 -0.78922896452E+03  0.78922896453E+03  0.50400001928E-02 0. -1.
    10030    2    1    2    0    0  0.00000000000E+00  0.00000000000E+00  0.10291603097E+04  0.26076182388E+04  0.23959344599E+04 0.  0.
        3    1    3    3  502    0  0.34586264545E+03 -0.22025945660E+03 -0.71047521135E+03  0.82031105922E+03  0.10100000352E+00 0. -1.
       -3    1    3    3    0  502 -0.34586264545E+03  0.22025945660E+03  0.17396355211E+04  0.17873071796E+04  0.10100000352E+00 0.  1.
</event>
<event>
 5   0  0.2025353E-05  0.2391601E+04  0.7818609E-02  0.8442655E-01
        2   -1    0    0  501    0  0.00000000000E+00  0.00000000000E+00  0.16323770145E+04  0.16323770145E+04  0.25500000920E-02 0.  1.
       -2   -1    0    0    0  501  0.00000000000E+00  0.00000000000E+00 -0.87598586911E+03  0.87598586911E+03  0.25500000920E-02 0. -1.
    10030    2    1    2    0    0  0.00000000000E+00  0.00000000000E+00  0.75639114537E+03  0.25083628836E+04  0.23916013027E+04 0.  0.
        4    1    3    3  502    0  0.58476970148E+03 -0.81579498356E+03 -0.30350655927E+03  0.10486157082E+04  0.12699999809E+01 0. -1.
       -4    1    3    3    0  502 -0.58476970148E+03  0.81579498356E+03  0.10598977046E+04  0.14597471754E+04  0.12699999809E+01 0.  1.
</event>
<event>
 5   0  0.8528103E-06  0.2390608E+04  0.7818609E-02  0.8443028E-01
       -1   -1    0    0    0  501  0.00000000000E+00  0.00000000000E+00  0.89812821518E+03  0.89812821520E+03  0.50400001928E-02 0. -1.
        1   -1    0    0  501    0  0.00000000000E+00  0.00000000000E+00 -0.15908098920E+04  0.15908098920E+04  0.50400001928E-02 0.  1.
    10030    2    1    2    0    0  0.00000000000E+00  0.00000000000E+00 -0.69268167681E+03  0.24889381072E+04  0.23906076625E+04 0.  0.
        4    1    3    3  502    0  0.15398045580E+03  0.73362378664E+03  0.62299486255E+03  0.97469895494E+03  0.12699999809E+01 0. -1.
       -4    1    3    3    0  502 -0.15398045580E+03 -0.73362378664E+03 -0.13156765394E+04  0.15142391523E+04  0.12699999809E+01 0.  1.
</event>
<event>
 5   0  0.2087882E-05  0.2398235E+04  0.7818609E-02  0.8440165E-01
        2   -1    0    0  501    0  0.00000000000E+00  0.00000000000E+00  0.10161829989E+04  0.10161829989E+04  0.25500000920E-02 0.  1.
       -2   -1    0    0    0  501  0.00000000000E+00  0.00000000000E+00 -0.14149837809E+04  0.14149837809E+04  0.25500000920E-02 0. -1.
    10030    2    1    2    0    0  0.00000000000E+00  0.00000000000E+00 -0.39880078201E+03  0.24311667798E+04  0.23982347357E+04 0.  0.
        2    1    3    3  502    0 -0.54987698661E+03  0.40252220949E+03 -0.11996067732E+04  0.13796540290E+04  0.25500000920E-02 0. -1.
       -2    1    3    3    0  502  0.54987698661E+03 -0.40252220949E+03  0.80080599115E+03  0.10515127508E+04  0.25500000920E-02 0.  1.
</event>
<event>
 5   0  0.8898848E-06  0.2149039E+04  0.7818609E-02  0.8539944E-01
        1   -1    0    0  501    0  0.00000000000E+00  0.00000000000E+00  0.11368601138E+04  0.11368601138E+04  0.50400001928E-02 0.  1.
       -1   -1    0    0    0  501  0.00000000000E+00  0.00000000000E+00 -0.10155978459E+04  0.10155978459E+04  0.50400001928E-02 0. -1.
    10030    2    1    2    0    0  0.00000000000E+00  0.00000000000E+00  0.12126226788E+03  0.21524579597E+04  0.21490394902E+04 0.  0.
        5    1    3    3  502    0  0.36139749818E+03 -0.10115025187E+04  0.89401302127E+02  0.10778497947E+04  0.46999998093E+01 0. -1.
       -5    1    3    3    0  502 -0.36139749818E+03  0.10115025187E+04  0.31860965751E+02  0.10746081650E+04  0.46999998093E+01 0.  1.
</event>
<event>
 5   0  0.2122194E-05  0.2399102E+04  0.7818609E-02  0.8439840E-01
       -2   -1    0    0    0  501  0.00000000000E+00  0.00000000000E+00  0.10274170843E+04  0.10274170843E+04  0.25500000920E-02 0. -1.
        2   -1    0    0  501    0  0.00000000000E+00  0.00000000000E+00 -0.14005237661E+04  0.14005237661E+04  0.25500000920E-02 0.  1.
    10030    2    1    2    0    0  0.00000000000E+00  0.00000000000E+00 -0.37310668185E+03  0.24279408504E+04  0.23991015354E+04 0.  0.
        3    1    3    3  502    0  0.54139049749E+03  0.45670589455E+03  0.79319477846E+03  0.10634105095E+04  0.10100000352E+00 0. -1.
       -3    1    3    3    0  502 -0.54139049749E+03 -0.45670589455E+03 -0.11663014603E+04  0.13645303410E+04  0.10100000352E+00 0.  1.
</event>
<event>
 5   0  0.9083687E-06  0.2381526E+04  0.7818609E-02  0.8446452E-01
        1   -1    0    0  501    0  0.00000000000E+00  0.00000000000E+00  0.12561865121E+04  0.12561865122E+04  0.50400001928E-02 0. -1.
       -1   -1    0    0    0  501  0.00000000000E+00  0.00000000000E+00 -0.11287469540E+04  0.11287469540E+04  0.50400001928E-02 0.  1.
    10030    2    1    2    0    0  0.00000000000E+00  0.00000000000E+00  0.12743955817E+03  0.23849334661E+04  0.23815261487E+04 0.  0.
        2    1    3    3  502    0 -0.22593949260E+03  0.56675309298E+03 -0.96031792787E+03  0.11377470041E+04  0.25500000920E-02 0.  1.
       -2    1    3    3    0  502  0.22593949260E+03 -0.56675309298E+03  0.10877574860E+04  0.12471864621E+04  0.25500000920E-02 0. -1.
</event>
<event>
 5   0  0.2087882E-05  0.2428521E+04  0.7818609E-02  0.8428902E-01
       -2   -1    0    0    0  501  0.00000000000E+00  0.00000000000E+00  0.13896260748E+04  0.13896260748E+04  0.25500000920E-02 0.  1.
        2   -1    0    0  501    0  0.00000000000E+00  0.00000000000E+00 -0.10610256784E+04  0.10610256784E+04  0.25500000920E-02 0. -1.
    10030    2    1    2    0    0  0.00000000000E+00  0.00000000000E+00  0.32860039639E+03  0.24506517532E+04  0.24285213186E+04 0.  0.
        2    1    3    3  502    0  0.10274031541E+04  0.59740872368E+03  0.41551561160E+03  0.12590105828E+04  0.25500000920E-02 0.  1.
       -2    1    3    3    0  502 -0.10274031541E+04 -0.59740872368E+03 -0.86915215217E+02  0.11916411703E+04  0.25500000920E-02 0. -1.
</event>
<event>
 5   0  0.2080257E-05  0.2398841E+04  0.7818609E-02  0.8439938E-01
       -2   -1    0    0    0  501  0.00000000000E+00  0.00000000000E+00  0.10963671264E+04  0.10963671264E+04  0.25500000920E-02 0. -1.
        2   -1    0    0  501    0  0.00000000000E+00  0.00000000000E+00 -0.13121599872E+04  0.13121599872E+04  0.25500000920E-02 0.  1.
    10030    2    1    2    0    0  0.00000000000E+00  0.00000000000E+00 -0.21579286081E+03  0.24085271137E+04  0.23988406155E+04 0.  0.
        1    1    3    3  502    0  0.39227026014E+03 -0.69751619048E+03  0.78913399324E+03  0.11238937905E+04  0.50400001928E-02 0. -1.
       -1    1    3    3    0  502 -0.39227026014E+03  0.69751619048E+03 -0.10049268541E+04  0.12846333232E+04  0.50400001928E-02 0.  1.
</event>
<event>
 5   0  0.9176817E-06  0.2409032E+04  0.7818609E-02  0.8436130E-01
       -1   -1    0    0    0  501  0.00000000000E+00  0.00000000000E+00  0.68282196987E+03  0.68282196989E+03  0.50400001928E-02 0.  1.
        1   -1    0    0  501    0  0.00000000000E+00  0.00000000000E+00 -0.21247983362E+04  0.21247983362E+04  0.50400001928E-02 0. -1.
    10030    2    1    2    0    0  0.00000000000E+00  0.00000000000E+00 -0.14419763664E+04  0.28076203061E+04  0.24090321588E+04 0.  0.
        3    1    3    3  502    0  0.55819851355E+03  0.30645233227E+03 -0.19125835109E+04  0.20158061189E+04  0.10100000352E+00 0. -1.
       -3    1    3    3    0  502 -0.55819851355E+03 -0.30645233227E+03  0.47060714453E+03  0.79181418728E+03  0.10100000352E+00 0.  1.
</event>
<event>
 5   0  0.8528103E-06  0.2368054E+04  0.7818609E-02  0.8451562E-01
        1   -1    0    0  501    0  0.00000000000E+00  0.00000000000E+00  0.19532252023E+04  0.19532252023E+04  0.50400001928E-02 0.  1.
       -1   -1    0    0    0  501  0.00000000000E+00  0.00000000000E+00 -0.71774588515E+03  0.71774588516E+03  0.50400001928E-02 0. -1.
    10030    2    1    2    0    0  0.00000000000E+00  0.00000000000E+00  0.12354793172E+04  0.26709710875E+04  0.23680535060E+04 0.  0.
        4    1    3    3  502    0  0.44916133722E+03 -0.65207001962E+03  0.16106772403E+04  0.17947768671E+04  0.12699999809E+01 0.  1.
       -4    1    3    3    0  502 -0.44916133722E+03  0.65207001962E+03 -0.37519792317E+03  0.87619422036E+03  0.12699999809E+01 0. -1.
</event>
<event>
 5   0  0.2087882E-05  0.2339618E+04  0.7818609E-02  0.8462462E-01
       -2   -1    0    0    0  501  0.00000000000E+00  0.00000000000E+00  0.64213138405E+03  0.64213138406E+03  0.25500000920E-02 0.  1.
        2   -1    0    0  501    0  0.00000000000E+00  0.00000000000E+00 -0.21311113896E+04  0.21311113896E+04  0.25500000920E-02 0. -1.
    10030    2    1    2    0    0  0.00000000000E+00  0.00000000000E+00 -0.14889800055E+04  0.27732427736E+04  0.23396183502E+04 0.  0.
        2    1    3    3  502    0  0.81122295986E+03 -0.76633838785E+03 -0.11603674356E+04  0.16099098736E+04  0.25500000920E-02 0. -1.
       -2    1    3    3    0  502 -0.81122295986E+03  0.76633838785E+03 -0.32861256989E+03  0.11633329001E+04  0.25500000920E-02 0.  1.
</event>
<event>
 5   0  0.2025353E-05  0.2385536E+04  0.7818609E-02  0.8444939E-01
       -2   -1    0    0    0  501  0.00000000000E+00  0.00000000000E+00  0.14209127980E+04  0.14209127980E+04  0.25500000920E-02 0. -1.
        2   -1    0    0  501    0  0.00000000000E+00  0.00000000000E+00 -0.10012546095E+04  0.10012546095E+04  0.25500000920E-02 0.  1.
    10030    2    1    2    0    0  0.00000000000E+00  0.00000000000E+00  0.41965818846E+03  0.24221674075E+04  0.23855359890E+04 0.  0.
        4    1    3    3  502    0 -0.53418280607E+03  0.44730444653E+03 -0.77315962621E+03  0.10407737308E+04  0.12699999809E+01 0.  1.
       -4    1    3    3    0  502  0.53418280607E+03 -0.44730444653E+03  0.11928178147E+04  0.13813936767E+04  0.12699999809E+01 0. -1.
</event>
<event>
 5   0  0.2122194E-05  0.2407872E+04  0.7818609E-02  0.8436562E-01
        2   -1    0    0  501    0  0.00000000000E+00  0.00000000000E+00  0.17478329734E+04  0.17478329734E+04  0.25500000920E-02 0.  1.
       -2   -1    0    0    0  501  0.00000000000E+00  0.00000000000E+00 -0.82929062130E+03  0.82929062130E+03  0.25500000920E-02 0. -1.
    10030    2    1    2    0    0  0.00000000000E+00  0.00000000000E+00  0.91854235206E+03  0.25771235947E+04  0.24078716680E+04 0.  0.
        3    1    3    3  502    0  0.48678458637E+03 -0.68632382244E+03 -0.46233699891E+03  0.96008079532E+03  0.10100000352E+00 0. -1.
       -3    1    3    3    0  502 -0.48678458637E+03  0.68632382244E+03  0.13808793510E+04  0.16170427993E+04  0.10100000352E+00 0.  1.
</event>
<event>
 5   0  0.2048028E-05  0.2394770E+04  0.7818609E-02  0.8441464E-01
       -2   -1    0    0    0  501  0.00000000000E+00  0.00000000000E+00  0.12740989489E+04  0.12740989489E+04  0.25500000920E-02 0. -1.
        2   -1    0    0  501    0  0.00000000000E+00  0.00000000000E+00 -0.11252897886E+04  0.11252897886E+04  0.25500000920E-02 0.  1.
    10030    2    1    2    0    0  0.00000000000E+00  0.00000000000E+00  0.14880916033E+03  0.23993887376E+04  0.23947697484E+04 0.  0.
        5    1    3    3  502    0  0.58804914858E+03 -0.32244193587E+03 -0.91944506025E+03  0.11380561990E+04  0.46999998093E+01 0.  1.
       -5    1    3    3    0  502 -0.58804914858E+03  0.32244193587E+03  0.10682542206E+04  0.12613325386E+04  0.46999998093E+01 0. -1.
</event>
<event>
 5   0  0.8528103E-06  0.2444904E+04  0.7818609E-02  0.8422881E-01
       -1   -1    0    0    0  501  0.00000000000E+00  0.00000000000E+00  0.14385069090E+04  0.14385069090E+04  0.50400001928E-02 0. -1.
        1   -1    0    0  501    0  0.00000000000E+00  0.00000000000E+00 -0.10388474289E+04  0.10388474289E+04  0.50400001928E-02 0.  1.
    10030    2    1    2    0    0  0.00000000000E+00  0.00000000000E+00  0.39965948016E+03  0.24773543379E+04  0.24449042549E+04 0.  0.
        4    1    3    3  502    0 -0.22006141852E+03 -0.91707765298E+03  0.98792465515E+03  0.13658166739E+04  0.12699999809E+01 0. -1.
       -4    1    3    3    0  502  0.22006141852E+03  0.91707765298E+03 -0.58826517499E+03  0.11115376640E+04  0.12699999809E+01 0.  1.
</event>
<event>
 5   0  0.8898848E-06  0.2386027E+04  0.7818609E-02  0.8444753E-01
       -1   -1    0    0    0  501  0.00000000000E+00  0.00000000000E+00  0.12186926729E+04  0.12186926729E+04  0.50400001928E-02 0.  1.
        1   -1    0    0  501    0  0.00000000000E+00  0.00000000000E+00 -0.11678755660E+04  0.11678755660E+04  0.50400001928E-02 0. -1.
    10030    2    1    2    0    0  0.00000000000E+00  0.00000000000E+00  0.50817106904E+02  0.23865682389E+04  0.23860271542E+04 0.  0.
        5    1    3    3  502    0  0.45463211295E+03 -0.74286068531E+03 -0.79008422190E+03  0.11759198627E+04  0.46999998093E+01 0. -1.
       -5    1    3    3    0  502 -0.45463211295E+03  0.74286068531E+03  0.84090132881E+03  0.12106483762E+04  0.46999998093E+01 0.  1.
</event>
<event>
 5   0  0.9038897E-06  0.2389390E+04  0.7818609E-02  0.8443487E-01
        1   -1    0    0  501    0  0.00000000000E+00  0.00000000000E+00  0.10727439838E+04  0.10727439838E+04  0.50400001928E-02 0.  1.
       -1   -1    0    0    0  501  0.00000000000E+00  0.00000000000E+00 -0.13305093185E+04  0.13305093185E+04  0.50400001928E-02 0. -1.
    10030    2    1    2    0    0  0.00000000000E+00  0.00000000000E+00 -0.25776533473E+03  0.24032533023E+04  0.23893897688E+04 0.  0.
        1    1    3    3  502    0 -0.17314463581E+03 -0.43817346732E+03 -0.12331236875E+04  0.13200640443E+04  0.50400001928E-02 0. -1.
       -1    1    3    3    0  502  0.17314463581E+03  0.43817346732E+03  0.97535835276E+03  0.10831892580E+04  0.50400001928E-02 0.  1.
</event>
<event>
 5   0  0.2025353E-05  0.2418190E+04  0.7818609E-02  0.8432725E-01
        2   -1    0    0  501    0  0.00000000000E+00  0.00000000000E+00  0.15833416135E+04  0.15833416135E+04  0.25500000920E-02 0.  1.
       -2   -1    0    0    0  501  0.00000000000E+00  0.00000000000E+00 -0.92330700545E+03  0.92330700545E+03  0.25500000920E-02 0. -1.
    10030    2    1    2    0    0  0.00000000000E+00  0.00000000000E+00  0.66003460805E+03  0.25066486189E+04  0.24181897393E+04 0.  0.
        4    1    3    3  502    0 -0.67385621943E+03  0.59240933496E+03  0.11701451238E+04  0.14745413688E+04  0.12699999809E+01 0.  1.
       -4    1    3    3    0  502  0.67385621943E+03 -0.59240933496E+03 -0.51011051577E+03  0.10321072501E+04  0.12699999809E+01 0. -1.
</event>
<event>
 5   0  0.2025353E-05  0.2400486E+04  0.7818609E-02  0.8439322E-01
       -2   -1    0    0    0  501  0.00000000000E+00  0.00000000000E+00  0.12044129182E+04  0.12044129182E+04  0.25500000920E-02 0.  1.
        2   -1    0    0  501    0  0.00000000000E+00  0.00000000000E+00 -0.11960875173E+04  0.11960875173E+04  0.25500000920E-02 0. -1.
    10030    2    1    2    0    0  0.00000000000E+00  0.00000000000E+00  0.83254008568E+01  0.24005004355E+04  0.24004859984E+04 0.  0.
        4    1    3    3  502    0  0.52108026777E+03  0.98788897567E+03  0.44363362504E+03  0.12017743881E+04  0.12699999809E+01 0.  1.
       -4    1    3    3    0  502 -0.52108026777E+03 -0.98788897567E+03 -0.43530822419E+03  0.11987260474E+04  0.12699999809E+01 0. -1.
</event>
<event>
 5   0  0.8898848E-06  0.2429207E+04  0.7818609E-02  0.8428649E-01
       -1   -1    0    0    0  501  0.00000000000E+00  0.00000000000E+00  0.12512385556E+04  0.12512385556E+04  0.50400001928E-02 0. -1.
        1   -1    0    0  501    0  0.00000000000E+00  0.00000000000E+00 -0.11790409573E+04  0.11790409573E+04  0.50400001928E-02 0.  1.
    10030    2    1    2    0    0  0.00000000000E+00  0.00000000000E+00  0.72197598257E+02  0.24302795129E+04  0.24292068700E+04 0.  0.
        5    1    3    3  502    0 -0.79190056810E+03 -0.39470138029E+03  0.86853815661E+03  0.12398694725E+04  0.46999998093E+01 0. -1.
       -5    1    3    3    0  502  0.79190056810E+03  0.39470138029E+03 -0.79634055835E+03  0.11904100404E+04  0.46999998093E+01 0.  1.
</event>
<event>
 5   0  0.2087882E-05  0.2393059E+04  0.7818609E-02  0.8442107E-01
       -2   -1    0    0    0  501  0.00000000000E+00  0.00000000000E+00  0.55674804390E+03  0.55674804391E+03  0.25500000920E-02 0. -1.
        2   -1    0    0  501    0  0.00000000000E+00  0.00000000000E+00 -0.25715095998E+04  0.25715095998E+04  0.25500000920E-02 0.  1.
    10030    2    1    2    0    0  0.00000000000E+00  0.00000000000E+00 -0.20147615559E+04  0.31282576437E+04  0.23930590796E+04 0.  0.
        2    1    3    3  502    0 -0.58507106520E+03 -0.56859974785E+03 -0.21515310564E+04  0.23010214496E+04  0.25500000920E-02 0.  1.
       -2    1    3    3    0  502  0.58507106520E+03  0.56859974785E+03  0.13676950054E+03  0.82723619413E+03  0.25500000920E-02 0. -1.
</event>
<event>
 5   0  0.9083687E-06  0.2391373E+04  0.7818609E-02  0.8442740E-01
       -1   -1    0    0    0  501  0.00000000000E+00  0.00000000000E+00  0.14392819152E+04  0.14392819153E+04  0.50400001928E-02 0.  1.
        1   -1    0    0  501    0  0.00000000000E+00  0.00000000000E+00 -0.99331950383E+03  0.99331950384E+03  0.50400001928E-02 0. -1.
    10030    2    1    2    0    0  0.00000000000E+00  0.00000000000E+00  0.44596241142E+03  0.24326014191E+04  0.23913734948E+04 0.  0.
        2    1    3    3  502    0  0.77755665798E+03 -0.41564450054E+03  0.10445638542E+04  0.13669192927E+04  0.25500000920E-02 0.  1.
       -2    1    3    3    0  502 -0.77755665798E+03  0.41564450054E+03 -0.59860144280E+03  0.10656821264E+04  0.25500000920E-02 0. -1.
</event>
<event>
 5   0  0.9176817E-06  0.2418615E+04  0.7818609E-02  0.8432567E-01
        1   -1    0    0  501    0  0.00000000000E+00  0.00000000000E+00  0.17652116724E+04  0.17652116724E+04  0.50400001928E-02 0. -1.
       -1   -1    0    0    0  501  0.00000000000E+00  0.00000000000E+00 -0.82847011650E+03  0.82847011651E+03  0.50400001928E-02 0.  1.
    10030    2    1    2    0    0  0.00000000000E+00  0.00000000000E+00  0.93674155590E+03  0.25936817889E+04  0.24186154055E+04 0.  0.
        3    1    3    3  502    0 -0.86122087538E+03  0.57343119460E+03 -0.20296179473E+03  0.10543804965E+04  0.10100000352E+00 0. -1.
       -3    1    3    3    0  502  0.86122087538E+03 -0.57343119460E+03  0.11397033506E+04  0.15393012924E+04  0.10100000352E+00 0.  1.
</event>
<event>
 5   0  0.2048028E-05  0.2417477E+04  0.7818609E-02  0.8432989E-01
       -2   -1    0    0    0  501  0.00000000000E+00  0.00000000000E+00  0.90231324046E+03  0.90231324046E+03  0.25500000920E-02 0.  1.
        2   -1    0    0  501    0  0.00000000000E+00  0.00000000000E+00 -0.16192253910E+04  0.16192253910E+04  0.25500000920E-02 0. -1.
    10030    2    1    2    0    0  0.00000000000E+00  0.00000000000E+00 -0.71691215056E+03  0.25215386315E+04  0.24174767917E+04 0.  0.
        5    1    3    3  502    0  0.97109130085E+02  0.20235022702E+03 -0.15972898727E+04  0.16129887863E+04  0.46999998093E+01 0. -1.
       -5    1    3    3    0  502 -0.97109130085E+02 -0.20235022702E+03  0.88037772211E+03  0.90854984514E+03  0.46999998093E+01 0.  1.
</event>
<event>
 5   0  0.2080257E-05  0.2391437E+04  0.7818609E-02  0.8442716E-01
        2   -1    0    0  501    0  0.00000000000E+00  0.00000000000E+00  0.15768733133E+04  0.15768733133E+04  0.25500000920E-02 0. -1.
       -2   -1    0    0    0  501  0.00000000000E+00  0.00000000000E+00 -0.90669456575E+03  0.90669456575E+03  0.25500000920E-02 0.  1.
    10030    2    1    2    0    0  0.00000000000E+00  0.00000000000E+00  0.67017874756E+03  0.24835678791E+04  0.23914367765E+04 0.  0.
        1    1    3    3  502    0  0.60510238261E+03 -0.78492499929E+03 -0.35962616076E+03  0.10543183217E+04  0.50400001928E-02 0.  1.
       -1    1    3    3    0  502 -0.60510238261E+03  0.78492499929E+03  0.10298049083E+04  0.14292495573E+04  0.50400001928E-02 0. -1.
</event>
<event>
 5   0  0.8528103E-06  0.2367067E+04  0.7818609E-02  0.8451937E-01
       -1   -1    0    0    0  501  0.00000000000E+00  0.00000000000E+00  0.10782363924E+04  0.10782363924E+04  0.50400001928E-02 0.  1.
        1   -1    0    0  501    0  0.00000000000E+00  0.00000000000E+00 -0.12991131014E+04  0.12991131014E+04  0.50400001928E-02 0. -1.
    10030    2    1    2    0    0  0.00000000000E+00  0.00000000000E+00 -0.22087670900E+03  0.23773494938E+04  0.23670665591E+04 0.  0.
        4    1    3    3  502    0  0.92003780780E+03 -0.66209924022E+03 -0.45236472559E+03  0.12204427187E+04  0.12699999809E+01 0. -1.
       -4    1    3    3    0  502 -0.92003780780E+03  0.66209924022E+03  0.23148801659E+03  0.11569067752E+04  0.12699999809E+01 0.  1.
</event>
<event>
 5   0  0.8528103E-06  0.2333958E+04  0.7818609E-02  0.8464651E-01
       -1   -1    0    0    0  501  0.00000000000E+00  0.00000000000E+00  0.18663660316E+04  0.18663660316E+04  0.50400001928E-02 0.  1.
        1   -1    0    0  501    0  0.00000000000E+00  0.00000000000E+00 -0.72967448629E+03  0.72967448630E+03  0.50400001928E-02 0. -1.
    10030    2    1    2    0    0  0.00000000000E+00  0.00000000000E+00  0.11366915453E+04  0.25960405179E+04  0.23339577335E+04 0.  0.
        4    1    3    3  502    0 -0.70390126197E+03 -0.36886124192E+03 -0.38219305423E+03  0.88182126647E+03  0.12699999809E+01 0. -1.
       -4    1    3    3    0  502  0.70390126197E+03  0.36886124192E+03  0.15188845996E+04  0.17142192515E+04  0.12699999809E+01 0.  1.
</event>
<event>
 5   0  0.8898848E-06  0.2407866E+04  0.7818609E-02  0.8436564E-01
       -1   -1    0    0    0  501  0.00000000000E+00  0.00000000000E+00  0.12864276655E+04  0.12864276655E+04  0.50400001928E-02 0.  1.
        1   -1    0    0  501    0  0.00000000000E+00  0.00000000000E+00 -0.11267285971E+04  0.11267285971E+04  0.50400001928E-02 0. -1.
    10030    2    1    2    0    0  0.00000000000E+00  0.00000000000E+00  0.15969906838E+03  0.24131562626E+04  0.24078661415E+04 0.  0.
        5    1    3    3  502    0  0.73959501113E+03  0.64558636861E+03  0.77826668464E+03  0.12527983326E+04  0.46999998093E+01 0.  1.
       -5    1    3    3    0  502 -0.73959501113E+03 -0.64558636861E+03 -0.61856761626E+03  0.11603579300E+04  0.46999998093E+01 0. -1.
</event>
<event>
 5   0  0.2025353E-05  0.2411059E+04  0.7818609E-02  0.8435375E-01
       -2   -1    0    0    0  501  0.00000000000E+00  0.00000000000E+00  0.10218485874E+04  0.10218485874E+04  0.25500000920E-02 0. -1.
        2   -1    0    0  501    0  0.00000000000E+00  0.00000000000E+00 -0.14222273605E+04  0.14222273605E+04  0.25500000920E-02 0.  1.
    10030    2    1    2    0    0  0.00000000000E+00  0.00000000000E+00 -0.40037877312E+03  0.24440759479E+04  0.24110587046E+04 0.  0.
        4    1    3    3  502    0 -0.66648754465E+02 -0.53593251465E+03  0.89236109273E+03  0.10430607123E+04  0.12699999809E+01 0. -1.
       -4    1    3    3    0  502  0.66648754465E+02  0.53593251465E+03 -0.12927398659E+04  0.14010152356E+04  0.12699999809E+01 0.  1.
</event>
<event>
 5   0  0.8898848E-06  0.2402245E+04  0.7818609E-02  0.8438663E-01
       -1   -1    0    0    0  501  0.00000000000E+00  0.00000000000E+00  0.94331482544E+03  0.94331482546E+03  0.50400001928E-02 0. -1.
        1   -1    0    0  501    0  0.00000000000E+00  0.00000000000E+00 -0.15293893636E+04  0.15293893636E+04  0.50400001928E-02 0.  1.
    10030    2    1    2    0    0  0.00000000000E+00  0.00000000000E+00 -0.58607453815E+03  0.24727041891E+04  0.24022453335E+04 0.  0.
        5    1    3    3  502    0  0.39837517495E+03  0.27930037241E+03 -0.14234099023E+04  0.15042703606E+04  0.46999998093E+01 0.  1.
       -5    1    3    3    0  502 -0.39837517495E+03 -0.27930037241E+03  0.83733536411E+03  0.96843382842E+03  0.46999998093E+01 0. -1.
</event>
<event>
 5   0  0.2122194E-05  0.2391433E+04  0.7818609E-02  0.8442718E-01
       -2   -1    0    0    0  501  0.00000000000E+00  0.00000000000E+00  0.10616383755E+04  0.10616383755E+04  0.25500000920E-02 0.  1.
        2   -1    0    0  501    0  0.00000000000E+00  0.00000000000E+00 -0.13467273273E+04  0.13467273273E+04  0.25500000920E-02 0. -1.
    10030    2    1    2    0    0  0.00000000000E+00  0.00000000000E+00 -0.28508895181E+03  0.24083657028E+04  0.23914325514E+04 0.  0.
        3    1    3    3  502    0 -0.11953461922E+04  0.12474076300E+02 -0.11534807466E+03  0.12009634925E+04  0.10100000352E+00 0.  1.
       -3    1    3    3    0  502  0.11953461922E+04 -0.12474076300E+02 -0.16974087715E+03  0.12074022103E+04  0.10100000352E+00 0. -1.
</event>
<event>
 5   0  0.2122194E-05  0.2405784E+04  0.7818609E-02  0.8437341E-01
       -2   -1    0    0    0  501  0.00000000000E+00  0.00000000000E+00  0.66269694695E+03  0.66269694695E+03  0.25500000920E-02 0.  1.
        2   -1    0    0  501    0  0.00000000000E+00  0.00000000000E+00 -0.21834250401E+04  0.21834250401E+04  0.25500000920E-02 0. -1.
    10030    2    1    2    0    0  0.00000000000E+00  0.00000000000E+00 -0.15207280932E+04  0.28461219871E+04  0.24057839537E+04 0.  0.
        3    1    3    3  502    0  0.70376519069E+03 -0.20976720983E+03  0.36672651531E+03  0.82083864016E+03  0.10100000352E+00 0.  1.
       -3    1    3    3    0  502 -0.70376519069E+03  0.20976720983E+03 -0.18874546085E+04  0.20252833469E+04  0.10100000352E+00 0. -1.
</event>
<event>
 5   0  0.7233625E-06  0.2374961E+04  0.7818609E-02  0.8448938E-01
        3   -1    0    0  501    0  0.00000000000E+00  0.00000000000E+00  0.15832119735E+04  0.15832119768E+04  0.10100000352E+00 0. -1.
       -3   -1    0    0    0  501  0.00000000000E+00  0.00000000000E+00 -0.89066375685E+03  0.89066376257E+03  0.10100000352E+00 0.  1.
    10030    2    1    2    0    0  0.00000000000E+00  0.00000000000E+00  0.69254821668E+03  0.24738757393E+04  0.23749606610E+04 0.  0.
        4    1    3    3  502    0 -0.10449010891E+04  0.13276748297E+03  0.91743839468E+03  0.13968322417E+04  0.12699999809E+01 0. -1.
       -4    1    3    3    0  502  0.10449010891E+04 -0.13276748297E+03 -0.22489017800E+03  0.10770434976E+04  0.12699999809E+01 0.  1.
</event>
<event>
 5   0  0.8898848E-06  0.2365926E+04  0.7818609E-02  0.8452372E-01
        1   -1    0    0  501    0  0.00000000000E+00  0.00000000000E+00  0.15683492125E+04  0.15683492125E+04  0.50400001928E-02 0.  1.
       -1   -1    0    0    0  501  0.00000000000E+00  0.00000000000E+00 -0.89227663757E+03  0.89227663759E+03  0.50400001928E-02 0. -1.
    10030    2    1    2    0    0  0.00000000000E+00  0.00000000000E+00  0.67607257495E+03  0.24606258501E+04  0.23659259176E+04 0.  0.
        5    1    3    3  502    0  0.11636700722E+04 -0.60727341297E+02  0.12600492489E+03  0.11720559620E+04  0.46999998093E+01 0. -1.
       -5    1    3    3    0  502 -0.11636700722E+04  0.60727341297E+02  0.55006765006E+03  0.12885698881E+04  0.46999998093E+01 0.  1.
</event>
<event>
 5   0  0.2122194E-05  0.2394795E+04  0.7818609E-02  0.8441455E-01
       -2   -1    0    0    0  501  0.00000000000E+00  0.00000000000E+00  0.75753034681E+03  0.75753034682E+03  0.25500000920E-02 0. -1.
        2   -1    0    0  501    0  0.00000000000E+00  0.00000000000E+00 -0.18926771709E+04  0.18926771709E+04  0.25500000920E-02 0.  1.
    10030    2    1    2    0    0  0.00000000000E+00  0.00000000000E+00 -0.11351468241E+04  0.26502075177E+04  0.23947946832E+04 0.  0.
        3    1    3    3  502    0  0.49763904260E+03  0.16999349194E+03 -0.17580454048E+04  0.18350111879E+04  0.10100000352E+00 0.  1.
       -3    1    3    3    0  502 -0.49763904260E+03 -0.16999349194E+03  0.62289858076E+03  0.81519632981E+03  0.10100000352E+00 0. -1.
</event>
<event>
 5   0  0.7233625E-06  0.2178739E+04  0.7818609E-02  0.8527330E-01
        3   -1    0    0  501    0  0.00000000000E+00  0.00000000000E+00  0.17555385821E+04  0.17555385850E+04  0.10100000352E+00 0. -1.
       -3   -1    0    0    0  501  0.00000000000E+00  0.00000000000E+00 -0.67598970580E+03  0.67598971335E+03  0.10100000352E+00 0.  1.
    10030    2    1    2    0    0  0.00000000000E+00  0.00000000000E+00  0.10795488763E+04  0.24315282983E+04  0.21787391054E+04 0.  0.
        3    1    3    3  502    0  0.35473406412E+02  0.81529309063E+03 -0.26559458490E+03  0.85819676061E+03  0.10100000352E+00 0. -1.
       -3    1    3    3    0  502 -0.35473406412E+02 -0.81529309063E+03  0.13451434612E+04  0.15733315377E+04  0.10100000352E+00 0.  1.
</event>
<event>
 5   0  0.2087882E-05  0.2406065E+04  0.7818609E-02  0.8437236E-01
        2   -1    0    0  501    0  0.00000000000E+00  0.00000000000E+00  0.98627505308E+03  0.98627505308E+03  0.25500000920E-02 0.  1.
       -2   -1    0    0    0  501  0.00000000000E+00  0.00000000000E+00 -0.14674280175E+04  0.14674280175E+04  0.25500000920E-02 0. -1.
    10030    2    1    2    0    0  0.00000000000E+00  0.00000000000E+00 -0.48115296440E+03  0.24537030706E+04  0.24060653739E+04 0.  0.
        2    1    3    3  502    0  0.61490760880E+03  0.95496296837E+03  0.16378637066E+03  0.11475589804E+04  0.25500000920E-02 0.  1.
       -2    1    3    3    0  502 -0.61490760880E+03 -0.95496296837E+03 -0.64493933507E+03  0.13061440901E+04  0.25500000920E-02 0. -1.
</event>
<event>
 5   0  0.2080257E-05  0.2404334E+04  0.7818609E-02  0.8437883E-01
        2   -1    0    0  501    0  0.00000000000E+00  0.00000000000E+00  0.17238115160E+04  0.17238115160E+04  0.25500000920E-02 0.  1.
       -2   -1    0    0    0  501  0.00000000000E+00  0.00000000000E+00 -0.83837815804E+03  0.83837815804E+03  0.25500000920E-02 0. -1.
    10030    2    1    2    0    0  0.00000000000E+00  0.00000000000E+00  0.88543335791E+03  0.25621896740E+04  0.24043343557E+04 0.  0.
        1    1    3    3  502    0 -0.10820882447E+04  0.33501642996E+03  0.13726292834E+02  0.11328457039E+04  0.50400001928E-02 0. -1.
       -1    1    3    3    0  502  0.10820882447E+04 -0.33501642996E+03  0.87170706508E+03  0.14293439701E+04  0.50400001928E-02 0.  1.
</event>
<event>
 5   0  0.9038897E-06  0.2424967E+04  0.7818609E-02  0.8430215E-01
        1   -1    0    0  501    0  0.00000000000E+00  0.00000000000E+00  0.91023690123E+03  0.91023690124E+03  0.50400001928E-02 0. -1.
       -1   -1    0    0    0  501  0.00000000000E+00  0.00000000000E+00 -0.16150921335E+04  0.16150921335E+04  0.50400001928E-02 0.  1.
    10030    2    1    2    0    0  0.00000000000E+00  0.00000000000E+00 -0.70485523227E+03  0.25253290347E+04  0.24249671823E+04 0.  0.
        1    1    3    3  502    0  0.86562205344E+03  0.34546610277E+03  0.45521346713E+03  0.10372404101E+04  0.50400001928E-02 0. -1.
       -1    1    3    3    0  502 -0.86562205344E+03 -0.34546610277E+03 -0.11600686994E+04  0.14880886247E+04  0.50400001928E-02 0.  1.
</event>
<event>
 5   0  0.2025353E-05  0.2408989E+04  0.7818609E-02  0.8436146E-01
       -2   -1    0    0    0  501  0.00000000000E+00  0.00000000000E+00  0.11218131704E+04  0.11218131704E+04  0.25500000920E-02 0.  1.
        2   -1    0    0  501    0  0.00000000000E+00  0.00000000000E+00 -0.12932696760E+04  0.12932696760E+04  0.25500000920E-02 0. -1.
    10030    2    1    2    0    0  0.00000000000E+00  0.00000000000E+00 -0.17145650562E+03  0.24150828464E+04  0.24089889626E+04 0.  0.
        4    1    3    3  502    0 -0.28352815158E+03 -0.10271647065E+04 -0.64870894413E+03  0.12475097010E+04  0.12699999809E+01 0. -1.
       -4    1    3    3    0  502  0.28352815158E+03  0.10271647065E+04  0.47725243850E+03  0.11675731454E+04  0.12699999809E+01 0.  1.
</event>
<event>
 5   0  0.2025353E-05  0.2396887E+04  0.7818609E-02  0.8440670E-01
        2   -1    0    0  501    0  0.00000000000E+00  0.00000000000E+00  0.67133909335E+03  0.67133909335E+03  0.25500000920E-02 0.  1.
       -2   -1    0    0    0  501  0.00000000000E+00  0.00000000000E+00 -0.21394062897E+04  0.21394062897E+04  0.25500000920E-02 0. -1.
    10030    2    1    2    0    0  0.00000000000E+00  0.00000000000E+00 -0.14680671964E+04  0.28107453831E+04  0.23968872137E+04 0.  0.
        4    1    3    3  502    0  0.22607272708E+02 -0.65170943941E+03  0.44508028594E+03  0.78951526649E+03  0.12699999809E+01 0.  1.
       -4    1    3    3    0  502 -0.22607272708E+02  0.65170943941E+03 -0.19131474823E+04  0.20212301166E+04  0.12699999809E+01 0. -1.
</event>
<event>
 5   0  0.2122194E-05  0.2548025E+04  0.7818609E-02  0.8386073E-01
        2   -1    0    0  501    0  0.00000000000E+00  0.00000000000E+00  0.89431889842E+03  0.89431889842E+03  0.25500000920E-02 0.  1.
       -2   -1    0    0    0  501  0.00000000000E+00  0.00000000000E+00 -0.18149092993E+04  0.18149092993E+04  0.25500000920E-02 0. -1.
    10030    2    1    2    0    0  0.00000000000E+00  0.00000000000E+00 -0.92059040086E+03  0.27092281977E+04  0.25480248706E+04 0.  0.
        3    1    3    3  502    0 -0.10320819615E+04 -0.25738882508E+03  0.28525482376E+03  0.11012776703E+04  0.10100000352E+00 0. -1.
       -3    1    3    3    0  502  0.10320819615E+04  0.25738882508E+03 -0.12058452246E+04  0.16079505274E+04  0.10100000352E+00 0.  1.
</event>
<event>
 5   0  0.8528103E-06  0.2367006E+04  0.7818609E-02  0.8451960E-01
       -1   -1    0    0    0  501  0.00000000000E+00  0.00000000000E+00  0.10797718180E+04  0.10797718180E+04  0.50400001928E-02 0.  1.
        1   -1    0    0  501    0  0.00000000000E+00  0.00000000000E+00 -0.12971990547E+04  0.12971990548E+04  0.50400001928E-02 0. -1.
    10030    2    1    2    0    0  0.00000000000E+00  0.00000000000E+00 -0.21742723678E+03  0.23769708727E+04  0.23670056879E+04 0.  0.
        4    1    3    3  502    0 -0.10267630822E+04 -0.47753353108E+03 -0.45425041250E+03  0.12200925171E+04  0.12699999809E+01 0.  1.
       -4    1    3    3    0  502  0.10267630822E+04  0.47753353108E+03  0.23682317571E+03  0.11568783556E+04  0.12699999809E+01 0. -1.
</event>
<event>
 5   0  0.9083687E-06  0.2389502E+04  0.7818609E-02  0.8443444E-01
       -1   -1    0    0    0  501  0.00000000000E+00  0.00000000000E+00  0.50947607501E+03  0.50947607503E+03  0.50400001928E-02 0. -1.
        1   -1    0    0  501    0  0.00000000000E+00  0.00000000000E+00 -0.28017600194E+04  0.28017600194E+04  0.50400001928E-02 0.  1.
    10030    2    1    2    0    0  0.00000000000E+00  0.00000000000E+00 -0.22922839444E+04  0.33112360944E+04  0.23895017873E+04 0.  0.
        2    1    3    3  502    0  0.99952894254E+02 -0.50943529639E+03 -0.26372911364E+04  0.26879024239E+04  0.25500000920E-02 0.  1.
       -2    1    3    3    0  502 -0.99952894254E+02  0.50943529639E+03  0.34500719201E+03  0.62333367054E+03  0.25500000920E-02 0. -1.
</event>
<event>
 5   0  0.2122194E-05  0.2395110E+04  0.7818609E-02  0.8441337E-01
        2   -1    0    0  501    0  0.00000000000E+00  0.00000000000E+00  0.16170959517E+04  0.16170959517E+04  0.25500000920E-02 0.  1.
       -2   -1    0    0    0  501  0.00000000000E+00  0.00000000000E+00 -0.88686021905E+03  0.88686021905E+03  0.25500000920E-02 0. -1.
    10030    2    1    2    0    0  0.00000000000E+00  0.00000000000E+00  0.73023573262E+03  0.25039561707E+04  0.23951100767E+04 0.  0.
        3    1    3    3  502    0 -0.76143008919E+03  0.92206794887E+03  0.43249010683E+03  0.12716260401E+04  0.10100000352E+00 0.  1.
       -3    1    3    3    0  502  0.76143008919E+03 -0.92206794887E+03  0.29774562579E+03  0.12323301307E+04  0.10100000352E+00 0. -1.
</event>
<event>
 5   0  0.2025353E-05  0.2400816E+04  0.7818609E-02  0.8439198E-01
        2   -1    0    0  501    0  0.00000000000E+00  0.00000000000E+00  0.24381047770E+04  0.24381047770E+04  0.25500000920E-02 0.  1.
       -2   -1    0    0    0  501  0.00000000000E+00  0.00000000000E+00 -0.59102451748E+03  0.59102451748E+03  0.25500000920E-02 0. -1.
    10030    2    1    2    0    0  0.00000000000E+00  0.00000000000E+00  0.18470802595E+04  0.30291292945E+04  0.24008162773E+04 0.  0.
        4    1    3    3  502    0  0.23574079603E+03  0.11759656690E+04  0.98674035688E+03  0.15531024185E+04  0.12699999809E+01 0.  1.
       -4    1    3    3    0  502 -0.23574079603E+03 -0.11759656690E+04  0.86033990262E+03  0.14760268759E+04  0.12699999809E+01 0. -1.
</event>
<event>
 5   0  0.2025353E-05  0.2449115E+04  0.7818609E-02  0.8421341E-01
        2   -1    0    0  501    0  0.00000000000E+00  0.00000000000E+00  0.12598371044E+04  0.12598371044E+04  0.25500000920E-02 0.  1.
       -2   -1    0    0    0  501  0.00000000000E+00  0.00000000000E+00 -0.11902653958E+04  0.11902653958E+04  0.25500000920E-02 0. -1.
    10030    2    1    2    0    0  0.00000000000E+00  0.00000000000E+00  0.69571708667E+02  0.24501025002E+04  0.24491145418E+04 0.  0.
        4    1    3    3  502    0  0.80529673293E+03 -0.54040049579E+03 -0.71318103075E+03  0.12038124104E+04  0.12699999809E+01 0. -1.
       -4    1    3    3    0  502 -0.80529673293E+03  0.54040049579E+03  0.78275273941E+03  0.12462900898E+04  0.12699999809E+01 0.  1.
</event>
<event>
 5   0  0.9176817E-06  0.2386492E+04  0.7818609E-02  0.8444578E-01
       -1   -1    0    0    0  501  0.00000000000E+00  0.00000000000E+00  0.26440283448E+04  0.26440283448E+04  0.50400001928E-02 0. -1.
        1   -1    0    0  501    0  0.00000000000E+00  0.00000000000E+00 -0.53851029721E+03  0.53851029723E+03  0.50400001928E-02 0.  1.
    10030    2    1    2    0    0  0.00000000000E+00  0.00000000000E+00  0.21055180476E+04  0.31825386420E+04  0.23864923967E+04 0.  0.
        3    1    3    3  502    0 -0.38549060072E+03  0.10952252511E+04  0.14197073866E+04  0.18340366484E+04  0.10100000352E+00 0.  1.
       -3    1    3    3    0  502  0.38549060072E+03 -0.10952252511E+04  0.68581066096E+03  0.13485019936E+04  0.10100000352E+00 0. -1.
</event>
<event>
 5   0  0.9038897E-06  0.2368204E+04  0.7818609E-02  0.8451504E-01
       -1   -1    0    0    0  501  0.00000000000E+00  0.00000000000E+00  0.10571144030E+04  0.10571144030E+04  0.50400001928E-02 0. -1.
        1   -1    0    0  501    0  0.00000000000E+00  0.00000000000E+00 -0.13263439582E+04  0.13263439582E+04  0.50400001928E-02 0.  1.
    10030    2    1    2    0    0  0.00000000000E+00  0.00000000000E+00 -0.26922955521E+03  0.23834583612E+04  0.23682037932E+04 0.  0.
        1    1    3    3  502    0  0.14844760165E+03  0.11473226209E+04 -0.38865186291E+03  0.12204245808E+04  0.50400001928E-02 0.  1.
       -1    1    3    3    0  502 -0.14844760165E+03 -0.11473226209E+04  0.11942230770E+03  0.11630337804E+04  0.50400001928E-02 0. -1.
</event>
<event>
 5   0  0.9083687E-06  0.2384416E+04  0.7818609E-02  0.8445361E-01
        1   -1    0    0  501    0  0.00000000000E+00  0.00000000000E+00  0.85902693459E+03  0.85902693461E+03  0.50400001928E-02 0. -1.
       -1   -1    0    0    0  501  0.00000000000E+00  0.00000000000E+00 -0.16546157037E+04  0.16546157037E+04  0.50400001928E-02 0.  1.
    10030    2    1    2    0    0  0.00000000000E+00  0.00000000000E+00 -0.79558876908E+03  0.25136426383E+04  0.23844156147E+04 0.  0.
        2    1    3    3  502    0  0.37941439800E+03  0.68113737487E+03 -0.13485931811E+04  0.15577570340E+04  0.25500000920E-02 0.  1.
       -2    1    3    3    0  502 -0.37941439800E+03 -0.68113737487E+03  0.55300441199E+03  0.95588560432E+03  0.25500000920E-02 0. -1.
</event>
<event>
 5   0  0.2080257E-05  0.2391881E+04  0.7818609E-02  0.8442549E-01
       -2   -1    0    0    0  501  0.00000000000E+00  0.00000000000E+00  0.68398796032E+03  0.68398796033E+03  0.25500000920E-02 0. -1.
        2   -1    0    0  501    0  0.00000000000E+00  0.00000000000E+00 -0.20910804361E+04  0.20910804361E+04  0.25500000920E-02 0.  1.
    10030    2    1    2    0    0  0.00000000000E+00  0.00000000000E+00 -0.14070924758E+04  0.27750683964E+04  0.23918811361E+04 0.  0.
        1    1    3    3  502    0  0.95915423954E+02 -0.40154838128E+03  0.59869241807E+03  0.72723688200E+03  0.50400001928E-02 0. -1.
       -1    1    3    3    0  502 -0.95915423954E+02  0.40154838128E+03 -0.20057848938E+04  0.20478315144E+04  0.50400001928E-02 0.  1.
</event>
<event>
 5   0  0.2025353E-05  0.2399702E+04  0.7818609E-02  0.8439615E-01
        2   -1    0    0  501    0  0.00000000000E+00  0.00000000000E+00  0.14577162087E+04  0.14577162087E+04  0.25500000920E-02 0.  1.
       -2   -1    0    0    0  501  0.00000000000E+00  0.00000000000E+00 -0.98760090445E+03  0.98760090446E+03  0.25500000920E-02 0. -1.
    10030    2    1    2    0    0  0.00000000000E+00  0.00000000000E+00  0.47011530425E+03  0.24453171132E+04  0.23997015199E+04 0.  0.
        4    1    3    3  502    0  0.11115960940E+03  0.17496330023E+03  0.14393311098E+04  0.14541816502E+04  0.12699999809E+01 0.  1.
       -4    1    3    3    0  502 -0.11115960940E+03 -0.17496330023E+03 -0.96921580559E+03  0.99113546294E+03  0.12699999809E+01 0. -1.
</event>
<event>
 5   0  0.8898848E-06  0.2384162E+04  0.7818609E-02  0.8445457E-01
        1   -1    0    0  501    0  0.00000000000E+00  0.00000000000E+00  0.82932344172E+03  0.82932344174E+03  0.50400001928E-02 0. -1.
       -1   -1    0    0    0  501  0.00000000000E+00  0.00000000000E+00 -0.17135137122E+04  0.17135137122E+04  0.50400001928E-02 0.  1.
    10030    2    1    2    0    0  0.00000000000E+00  0.00000000000E+00 -0.88419027044E+03  0.25428371539E+04  0.23841619821E+04 0.  0.
        5    1    3    3  502    0  0.31005091614E+03  0.17507933472E+03  0.77127132683E+03  0.84950920750E+03  0.46999998093E+01 0. -1.
       -5    1    3    3    0  502 -0.31005091614E+03 -0.17507933472E+03 -0.16554615973E+04  0.16933279464E+04  0.46999998093E+01 0.  1.
</event>
<event>
 5   0  0.2080257E-05  0.2407278E+04  0.7818609E-02  0.8436784E-01
        2   -1    0    0  501    0  0.00000000000E+00  0.00000000000E+00  0.18903128546E+04  0.18903128546E+04  0.25500000920E-02 0. -1.
       -2   -1    0    0    0  501  0.00000000000E+00  0.00000000000E+00 -0.76640581192E+03  0.76640581192E+03  0.25500000920E-02 0.  1.
    10030    2    1    2    0    0  0.00000000000E+00  0.00000000000E+00  0.11239070427E+04  0.26567186666E+04  0.24072779301E+04 0.  0.
        1    1    3    3  502    0  0.31615971068E+03  0.86768793306E+03  0.14138929908E+04  0.16887666213E+04  0.50400001928E-02 0. -1.
       -1    1    3    3    0  502 -0.31615971068E+03 -0.86768793306E+03 -0.28998594805E+03  0.96795204526E+03  0.50400001928E-02 0.  1.
</event>
<event>
 5   0  0.9176817E-06  0.2404980E+04  0.7818609E-02  0.8437642E-01
        1   -1    0    0  501    0  0.00000000000E+00  0.00000000000E+00  0.11783798153E+04  0.11783798153E+04  0.50400001928E-02 0. -1.
       -1   -1    0    0    0  501  0.00000000000E+00  0.00000000000E+00 -0.12270934174E+04  0.12270934174E+04  0.50400001928E-02 0.  1.
    10030    2    1    2    0    0  0.00000000000E+00  0.00000000000E+00 -0.48713602070E+02  0.24054732327E+04  0.24049799288E+04 0.  0.
        3    1    3    3  502    0  0.64623515341E+03 -0.42326857881E+03  0.89735592590E+03  0.11840708726E+04  0.10100000352E+00 0. -1.
       -3    1    3    3    0  502 -0.64623515341E+03  0.42326857881E+03 -0.94606952797E+03  0.12214023601E+04  0.10100000352E+00 0.  1.
</event>
<event>
 5   0  0.8898848E-06  0.2397165E+04  0.7818609E-02  0.8440566E-01
        1   -1    0    0  501    0  0.00000000000E+00  0.00000000000E+00  0.12423111417E+04  0.12423111417E+04  0.50400001928E-02 0.  1.
       -1   -1    0    0    0  501  0.00000000000E+00  0.00000000000E+00 -0.11563935610E+04  0.11563935610E+04  0.50400001928E-02 0. -1.
    10030    2    1    2    0    0  0.00000000000E+00  0.00000000000E+00  0.85917580664E+02  0.23987047027E+04  0.23971654970E+04 0.  0.
        5    1    3    3  502    0 -0.46765940101E+03 -0.10969630803E+04  0.16363971225E+03  0.12036749396E+04  0.46999998093E+01 0. -1.
       -5    1    3    3    0  502  0.46765940101E+03  0.10969630803E+04 -0.77722131589E+02  0.11950297631E+04  0.46999998093E+01 0.  1.
</event>
<event>
 5   0  0.8898848E-06  0.2396334E+04  0.7818609E-02  0.8440877E-01
       -1   -1    0    0    0  501  0.00000000000E+00  0.00000000000E+00  0.22117556672E+04  0.22117556672E+04  0.50400001928E-02 0.  1.
        1   -1    0    0  501    0  0.00000000000E+00  0.00000000000E+00 -0.64907900382E+03  0.64907900384E+03  0.50400001928E-02 0. -1.
    10030    2    1    2    0    0  0.00000000000E+00  0.00000000000E+00  0.15626766634E+04  0.28608346711E+04  0.23963340045E+04 0.  0.
        5    1    3    3  502    0 -0.79085887919E+03 -0.57475278523E+03  0.16082670679E+04  0.18821114692E+04  0.46999998093E+01 0.  1.
       -5    1    3    3    0  502  0.79085887919E+03  0.57475278523E+03 -0.45590404453E+02  0.97872320188E+03  0.46999998093E+01 0. -1.
</event>
<event>
 5   0  0.2048028E-05  0.2329048E+04  0.7818609E-02  0.8466555E-01
        2   -1    0    0  501    0  0.00000000000E+00  0.00000000000E+00  0.12771916878E+04  0.12771916878E+04  0.25500000920E-02 0.  1.
       -2   -1    0    0    0  501  0.00000000000E+00  0.00000000000E+00 -0.10617955382E+04  0.10617955382E+04  0.25500000920E-02 0. -1.
    10030    2    1    2    0    0  0.00000000000E+00  0.00000000000E+00  0.21539614962E+03  0.23389872260E+04  0.23290482481E+04 0.  0.
        5    1    3    3  502    0 -0.81443969069E+03  0.41537841545E+03  0.83205485943E+03  0.12361992626E+04  0.46999998093E+01 0.  1.
       -5    1    3    3    0  502  0.81443969069E+03 -0.41537841545E+03 -0.61665870981E+03  0.11027879634E+04  0.46999998093E+01 0. -1.
</event>
<event>
 5   0  0.2048028E-05  0.2362376E+04  0.7818609E-02  0.8453725E-01
        2   -1    0    0  501    0  0.00000000000E+00  0.00000000000E+00  0.13226509610E+04  0.13226509610E+04  0.25500000920E-02 0. -1.
       -2   -1    0    0    0  501  0.00000000000E+00  0.00000000000E+00 -0.10548553415E+04  0.10548553415E+04  0.25500000920E-02 0.  1.
    10030    2    1    2    0    0  0.00000000000E+00  0.00000000000E+00  0.26779561953E+03  0.23775063025E+04  0.23623762877E+04 0.  0.
        5    1    3    3  502    0  0.29120595531E+03  0.10347004201E+04  0.62670472337E+03  0.12442615352E+04  0.46999998093E+01 0. -1.
       -5    1    3    3    0  502 -0.29120595531E+03 -0.10347004201E+04 -0.35890910384E+03  0.11332447673E+04  0.46999998093E+01 0.  1.
</event>
<event>
 5   0  0.2025353E-05  0.2397729E+04  0.7818609E-02  0.8440354E-01
       -2   -1    0    0    0  501  0.00000000000E+00  0.00000000000E+00  0.85646703612E+03  0.85646703612E+03  0.25500000920E-02 0.  1.
        2   -1    0    0  501    0  0.00000000000E+00  0.00000000000E+00 -0.16781447727E+04  0.16781447727E+04  0.25500000920E-02 0. -1.
    10030    2    1    2    0    0  0.00000000000E+00  0.00000000000E+00 -0.82167773662E+03  0.25346118089E+04  0.23977286583E+04 0.  0.
        4    1    3    3  502    0  0.85892250662E+03 -0.83439181305E+03 -0.47171558300E+03  0.12870410927E+04  0.12699999809E+01 0.  1.
       -4    1    3    3    0  502 -0.85892250662E+03  0.83439181305E+03 -0.34996215362E+03  0.12475707162E+04  0.12699999809E+01 0. -1.
</event>
<event>
 5   0  0.9038897E-06  0.2489215E+04  0.7818609E-02  0.8406838E-01
       -1   -1    0    0    0  501  0.00000000000E+00  0.00000000000E+00  0.62961551187E+03  0.62961551189E+03  0.50400001928E-02 0. -1.
        1   -1    0    0  501    0  0.00000000000E+00  0.00000000000E+00 -0.24603075710E+04  0.24603075710E+04  0.50400001928E-02 0.  1.
    10030    2    1    2    0    0  0.00000000000E+00  0.00000000000E+00 -0.18306920591E+04  0.30899230829E+04  0.24892149853E+04 0.  0.
        1    1    3    3  502    0 -0.11382739007E+04 -0.37233117330E+03 -0.13358414756E+04  0.17940932037E+04  0.50400001928E-02 0.  1.
       -1    1    3    3    0  502  0.11382739007E+04  0.37233117330E+03 -0.49485058353E+03  0.12958298792E+04  0.50400001928E-02 0. -1.
</event>
<event>
 5   0  0.2048028E-05  0.2397096E+04  0.7818609E-02  0.8440591E-01
       -2   -1    0    0    0  501  0.00000000000E+00  0.00000000000E+00  0.71443877297E+03  0.71443877297E+03  0.25500000920E-02 0. -1.
        2   -1    0    0  501    0  0.00000000000E+00  0.00000000000E+00 -0.20106941353E+04  0.20106941353E+04  0.25500000920E-02 0.  1.
    10030    2    1    2    0    0  0.00000000000E+00  0.00000000000E+00 -0.12962553623E+04  0.27251329083E+04  0.23970964527E+04 0.  0.
        5    1    3    3  502    0 -0.63804154830E+03 -0.96766387674E+03 -0.99486682356E+03  0.15274987667E+04  0.46999998093E+01 0.  1.
       -5    1    3    3    0  502  0.63804154830E+03  0.96766387674E+03 -0.30138853877E+03  0.11976341416E+04  0.46999998093E+01 0. -1.
</event>
<event>
 5   0  0.8898848E-06  0.2402550E+04  0.7818609E-02  0.8438549E-01
        1   -1    0    0  501    0  0.00000000000E+00  0.00000000000E+00  0.21081526839E+04  0.21081526839E+04  0.50400001928E-02 0.  1.
       -1   -1    0    0    0  501  0.00000000000E+00  0.00000000000E+00 -0.68451502577E+03  0.68451502579E+03  0.50400001928E-02 0. -1.
    10030    2    1    2    0    0  0.00000000000E+00  0.00000000000E+00  0.14236376581E+04  0.27926677097E+04  0.24025504688E+04 0.  0.
        5    1    3    3  502    0  0.54304148945E+03  0.10039268560E+04  0.27646753947E+03  0.11744017975E+04  0.46999998093E+01 0. -1.
       -5    1    3    3    0  502 -0.54304148945E+03 -0.10039268560E+04  0.11471701186E+04  0.16182659122E+04  0.46999998093E+01 0.  1.
</event>
<event>
 5   0  0.2122194E-05  0.2404133E+04  0.7818609E-02  0.8437958E-01
       -2   -1    0    0    0  501  0.00000000000E+00  0.00000000000E+00  0.12134039832E+04  0.12134039832E+04  0.25500000920E-02 0.  1.
        2   -1    0    0  501    0  0.00000000000E+00  0.00000000000E+00 -0.11908345168E+04  0.11908345168E+04  0.25500000920E-02 0. -1.
    10030    2    1    2    0    0  0.00000000000E+00  0.00000000000E+00  0.22569466487E+02  0.24042385000E+04  0.24041325638E+04 0.  0.
        3    1    3    3  502    0  0.92531765574E+03  0.15312095060E+03  0.76318523651E+03  0.12091776151E+04  0.10100000352E+00 0.  1.
       -3    1    3    3    0  502 -0.92531765574E+03 -0.15312095060E+03 -0.74061577002E+03  0.11950608849E+04  0.10100000352E+00 0. -1.
</event>
<event>
 5   0  0.2048028E-05  0.2393047E+04  0.7818609E-02  0.8442111E-01
       -2   -1    0    0    0  501  0.00000000000E+00  0.00000000000E+00  0.93876762403E+03  0.93876762403E+03  0.25500000920E-02 0.  1.
        2   -1    0    0  501    0  0.00000000000E+00  0.00000000000E+00 -0.15250503720E+04  0.15250503720E+04  0.25500000920E-02 0. -1.
    10030    2    1    2    0    0  0.00000000000E+00  0.00000000000E+00 -0.58628274801E+03  0.24638179961E+04  0.23930465221E+04 0.  0.
        5    1    3    3  502    0  0.33939233715E+03  0.10580907924E+04 -0.75000138041E+03  0.13406220363E+04  0.46999998093E+01 0. -1.
       -5    1    3    3    0  502 -0.33939233715E+03 -0.10580907924E+04  0.16371863240E+03  0.11231959598E+04  0.46999998093E+01 0.  1.
</event>
<event>
 5   0  0.8528103E-06  0.2373977E+04  0.7818609E-02  0.8449311E-01
        1   -1    0    0  501    0  0.00000000000E+00  0.00000000000E+00  0.10791916822E+04  0.10791916822E+04  0.50400001928E-02 0. -1.
       -1   -1    0    0    0  501  0.00000000000E+00  0.00000000000E+00 -0.13055531267E+04  0.13055531267E+04  0.50400001928E-02 0.  1.
    10030    2    1    2    0    0  0.00000000000E+00  0.00000000000E+00 -0.22636144451E+03  0.23847448089E+04  0.23739773167E+04 0.  0.
        4    1    3    3  502    0 -0.36262285044E+03 -0.20604666475E+03  0.10031607277E+04  0.10864085872E+04  0.12699999809E+01 0. -1.
       -4    1    3    3    0  502  0.36262285044E+03  0.20604666475E+03 -0.12295221722E+04  0.12983362217E+04  0.12699999809E+01 0.  1.
</event>
<event>
 5   0  0.2122194E-05  0.2406355E+04  0.7818609E-02  0.8437128E-01
       -2   -1    0    0    0  501  0.00000000000E+00  0.00000000000E+00  0.96395922859E+03  0.96395922859E+03  0.25500000920E-02 0. -1.
        2   -1    0    0  501    0  0.00000000000E+00  0.00000000000E+00 -0.15017604416E+04  0.15017604416E+04  0.25500000920E-02 0.  1.
    10030    2    1    2    0    0  0.00000000000E+00  0.00000000000E+00 -0.53780121305E+03  0.24657196702E+04  0.24063547842E+04 0.  0.
        3    1    3    3  502    0 -0.98877797983E+03  0.65015512021E+03 -0.49163911188E+03  0.12814416102E+04  0.10100000352E+00 0. -1.
       -3    1    3    3    0  502  0.98877797983E+03 -0.65015512021E+03 -0.46162101160E+02  0.11842780601E+04  0.10100000352E+00 0.  1.
</event>
<event>
 5   0  0.2087882E-05  0.2413117E+04  0.7818609E-02  0.8434609E-01
       -2   -1    0    0    0  501  0.00000000000E+00  0.00000000000E+00  0.97798457857E+03  0.97798457858E+03  0.25500000920E-02 0. -1.
        2   -1    0    0  501    0  0.00000000000E+00  0.00000000000E+00 -0.14885539646E+04  0.14885539646E+04  0.25500000920E-02 0.  1.
    10030    2    1    2    0    0  0.00000000000E+00  0.00000000000E+00 -0.51056938606E+03  0.24665385432E+04  0.24131165092E+04 0.  0.
        2    1    3    3  502    0 -0.86718183633E+03 -0.67356252870E+03 -0.76644782110E+03  0.13390791910E+04  0.25500000920E-02 0. -1.
       -2    1    3    3    0  502  0.86718183633E+03  0.67356252870E+03  0.25587843504E+03  0.11274593522E+04  0.25500000920E-02 0.  1.
</event>
<event>
 5   0  0.2025353E-05  0.2365872E+04  0.7818609E-02  0.8452392E-01
       -2   -1    0    0    0  501  0.00000000000E+00  0.00000000000E+00  0.51921346998E+03  0.51921346999E+03  0.25500000920E-02 0. -1.
        2   -1    0    0  501    0  0.00000000000E+00  0.00000000000E+00 -0.26951096194E+04  0.26951096194E+04  0.25500000920E-02 0.  1.
    10030    2    1    2    0    0  0.00000000000E+00  0.00000000000E+00 -0.21758961495E+04  0.32143230894E+04  0.23658716935E+04 0.  0.
        4    1    3    3  502    0  0.74536202627E+02 -0.11138028768E+04 -0.16197629457E+04  0.19671670257E+04  0.12699999809E+01 0.  1.
       -4    1    3    3    0  502 -0.74536202627E+02  0.11138028768E+04 -0.55613320373E+03  0.12471560637E+04  0.12699999809E+01 0. -1.
</event>
<event>
 5   0  0.2122194E-05  0.2406158E+04  0.7818609E-02  0.8437202E-01
       -2   -1    0    0    0  501  0.00000000000E+00  0.00000000000E+00  0.86680073155E+03  0.86680073156E+03  0.25500000920E-02 0.  1.
        2   -1    0    0  501    0  0.00000000000E+00  0.00000000000E+00 -0.16698180536E+04  0.16698180536E+04  0.25500000920E-02 0. -1.
    10030    2    1    2    0    0  0.00000000000E+00  0.00000000000E+00 -0.80301732204E+03  0.25366187851E+04  0.24061583576E+04 0.  0.
        3    1    3    3  502    0  0.11695153292E+04  0.13677805067E+03 -0.14129545304E+03  0.11859337062E+04  0.10100000352E+00 0. -1.
       -3    1    3    3    0  502 -0.11695153292E+04 -0.13677805067E+03 -0.66172186900E+03  0.13506850789E+04  0.10100000352E+00 0.  1.
</event>
<event>
 5   0  0.2080257E-05  0.2416815E+04  0.7818609E-02  0.8433235E-01
        2   -1    0    0  501    0  0.00000000000E+00  0.00000000000E+00  0.13873812660E+04  0.13873812660E+04  0.25500000920E-02 0. -1.
       -2   -1    0    0    0  501  0.00000000000E+00  0.00000000000E+00 -0.10525215908E+04  0.10525215908E+04  0.25500000920E-02 0.  1.
    10030    2    1    2    0    0  0.00000000000E+00  0.00000000000E+00  0.33485967523E+03  0.24399028568E+04  0.24168150422E+04 0.  0.
        1    1    3    3  502    0  0.32617746138E+03 -0.11573454442E+04  0.46247629606E+02  0.12033200143E+04  0.50400001928E-02 0. -1.
       -1    1    3    3    0  502 -0.32617746138E+03  0.11573454442E+04  0.28861204563E+03  0.12365828425E+04  0.50400001928E-02 0.  1.
</event>
<event>
 5   0  0.2080257E-05  0.2407823E+04  0.7818609E-02  0.8436581E-01
       -2   -1    0    0    0  501  0.00000000000E+00  0.00000000000E+00  0.14082835013E+04  0.14082835013E+04  0.25500000920E-02 0.  1.
        2   -1    0    0  501    0  0.00000000000E+00  0.00000000000E+00 -0.10291978179E+04  0.10291978179E+04  0.25500000920E-02 0. -1.
    10030    2    1    2    0    0  0.00000000000E+00  0.00000000000E+00  0.37908568337E+03  0.24374813192E+04  0.24078225072E+04 0.  0.
        1    1    3    3  502    0 -0.11121506895E+04 -0.20101059018E+03  0.60952402866E+03  0.12840576136E+04  0.50400001928E-02 0.  1.
       -1    1    3    3    0  502  0.11121506895E+04  0.20101059018E+03 -0.23043834530E+03  0.11534237056E+04  0.50400001928E-02 0. -1.
</event>
<event>
 5   0  0.9038897E-06  0.2248374E+04  0.7818609E-02  0.8498559E-01
       -1   -1    0    0    0  501  0.00000000000E+00  0.00000000000E+00  0.16232609516E+04  0.16232609517E+04  0.50400001928E-02 0. -1.
        1   -1    0    0  501    0  0.00000000000E+00  0.00000000000E+00 -0.77855423316E+03  0.77855423318E+03  0.50400001928E-02 0.  1.
    10030    2    1    2    0    0  0.00000000000E+00  0.00000000000E+00  0.84470671849E+03  0.24018151848E+04  0.22483742442E+04 0.  0.
        1    1    3    3  502    0  0.67787349413E+03  0.84953818226E+03  0.72931190531E+03  0.13088634201E+04  0.50400001928E-02 0. -1.
       -1    1    3    3    0  502 -0.67787349413E+03 -0.84953818226E+03  0.11539481318E+03  0.10929517648E+04  0.50400001928E-02 0.  1.
</event>
<event>
 5   0  0.9083687E-06  0.2390751E+04  0.7818609E-02  0.8442974E-01
        1   -1    0    0  501    0  0.00000000000E+00  0.00000000000E+00  0.14072333765E+04  0.14072333765E+04  0.50400001928E-02 0.  1.
       -1   -1    0    0    0  501  0.00000000000E+00  0.00000000000E+00 -0.10154124578E+04  0.10154124578E+04  0.50400001928E-02 0. -1.
    10030    2    1    2    0    0  0.00000000000E+00  0.00000000000E+00  0.39182091867E+03  0.24226458343E+04  0.23907507620E+04 0.  0.
        2    1    3    3  502    0  0.11742047858E+04 -0.22390479358E+03  0.19017224438E+03  0.12103948605E+04  0.25500000920E-02 0. -1.
       -2    1    3    3    0  502 -0.11742047858E+04  0.22390479358E+03  0.20164867429E+03  0.12122509738E+04  0.25500000920E-02 0.  1.
</event>
<event>
 5   0  0.2080257E-05  0.2396338E+04  0.7818609E-02  0.8440876E-01
       -2   -1    0    0    0  501  0.00000000000E+00  0.00000000000E+00  0.61403181709E+03  0.61403181709E+03  0.25500000920E-02 0.  1.
        2   -1    0    0  501    0  0.00000000000E+00  0.00000000000E+00 -0.23380041873E+04  0.23380041873E+04  0.25500000920E-02 0. -1.
    10030    2    1    2    0    0  0.00000000000E+00  0.00000000000E+00 -0.17239723702E+04  0.29520360044E+04  0.23963380058E+04 0.  0.
        1    1    3    3  502    0  0.40400439711E+03  0.96838233337E+03 -0.15745976534E+04  0.18921790789E+04  0.50400001928E-02 0. -1.
       -1    1    3    3    0  502 -0.40400439711E+03 -0.96838233337E+03 -0.14937471680E+03  0.10598569255E+04  0.50400001928E-02 0.  1.
</event>
<event>
 5   0  0.9176817E-06  0.2382224E+04  0.7818609E-02  0.8446189E-01
        1   -1    0    0  501    0  0.00000000000E+00  0.00000000000E+00  0.10438206316E+04  0.10438206316E+04  0.50400001928E-02 0. -1.
       -1   -1    0    0    0  501  0.00000000000E+00  0.00000000000E+00 -0.13591872858E+04  0.13591872859E+04  0.50400001928E-02 0.  1.
    10030    2    1    2    0    0  0.00000000000E+00  0.00000000000E+00 -0.31536665429E+03  0.24030079174E+04  0.23822239451E+04 0.  0.
        3    1    3    3  502    0  0.63183147081E+03 -0.25924349808E+03  0.82670451190E+03  0.10723145802E+04  0.10100000352E+00 0. -1.
       -3    1    3    3    0  502 -0.63183147081E+03  0.25924349808E+03 -0.11420711662E+04  0.13306933372E+04  0.10100000352E+00 0.  1.
</event>
<event>
 5   0  0.2048028E-05  0.2434446E+04  0.7818609E-02  0.8426719E-01
        2   -1    0    0  501    0  0.00000000000E+00  0.00000000000E+00  0.16914770095E+04  0.16914770095E+04  0.25500000920E-02 0.  1.
       -2   -1    0    0    0  501  0.00000000000E+00  0.00000000000E+00 -0.87593980242E+03  0.87593980242E+03  0.25500000920E-02 0. -1.
    10030    2    1    2    0    0  0.00000000000E+00  0.00000000000E+00  0.81553720708E+03  0.25674168119E+04  0.24344461690E+04 0.  0.
        5    1    3    3  502    0 -0.83523220694E+03 -0.51076817152E+03  0.11705392192E+04  0.15260016770E+04  0.46999998093E+01 0.  1.
       -5    1    3    3    0  502  0.83523220694E+03  0.51076817152E+03 -0.35500201215E+03  0.10414151349E+04  0.46999998093E+01 0. -1.
</event>
<event>
 5   0  0.9176817E-06  0.2393604E+04  0.7818609E-02  0.8441902E-01
       -1   -1    0    0    0  501  0.00000000000E+00  0.00000000000E+00  0.10944286249E+04  0.10944286249E+04  0.50400001928E-02 0.  1.
        1   -1    0    0  501    0  0.00000000000E+00  0.00000000000E+00 -0.13087513566E+04  0.13087513566E+04  0.50400001928E-02 0. -1.
    10030    2    1    2    0    0  0.00000000000E+00  0.00000000000E+00 -0.21432273165E+03  0.24031799815E+04  0.23936039335E+04 0.  0.
        3    1    3    3  502    0 -0.11836427800E+04  0.14700002238E+03 -0.81987738966E+01  0.11927642127E+04  0.10100000352E+00 0.  1.
       -3    1    3    3    0  502  0.11836427800E+04 -0.14700002238E+03 -0.20612395775E+03  0.12104157688E+04  0.10100000352E+00 0. -1.
</event>
<event>
 5   0  0.2087882E-05  0.2394825E+04  0.7818609E-02  0.8441444E-01
       -2   -1    0    0    0  501  0.00000000000E+00  0.00000000000E+00  0.14190279740E+04  0.14190279740E+04  0.25500000920E-02 0. -1.
        2   -1    0    0  501    0  0.00000000000E+00  0.00000000000E+00 -0.10104077105E+04  0.10104077105E+04  0.25500000920E-02 0.  1.
    10030    2    1    2    0    0  0.00000000000E+00  0.00000000000E+00  0.40862026354E+03  0.24294356845E+04  0.23948250928E+04 0.  0.
        2    1    3    3  502    0 -0.53515307457E+03 -0.89580358801E+02 -0.87853548054E+03  0.10325880323E+04  0.25500000920E-02 0.  1.
       -2    1    3    3    0  502  0.53515307457E+03  0.89580358801E+02  0.12871557441E+04  0.13968476522E+04  0.25500000920E-02 0. -1.
</event>
<event>
 5   0  0.8528103E-06  0.2395041E+04  0.7818609E-02  0.8441362E-01
        1   -1    0    0  501    0  0.00000000000E+00  0.00000000000E+00  0.18670192544E+04  0.18670192544E+04  0.50400001928E-02 0. -1.
       -1   -1    0    0    0  501  0.00000000000E+00  0.00000000000E+00 -0.76809905915E+03  0.76809905916E+03  0.50400001928E-02 0.  1.
    10030    2    1    2    0    0  0.00000000000E+00  0.00000000000E+00  0.10989201953E+04  0.26351183136E+04  0.23950413214E+04 0.  0.
        4    1    3    3  502    0  0.24148575950E+03 -0.69651187259E+03  0.15877792916E+04  0.17505681513E+04  0.12699999809E+01 0. -1.
       -4    1    3    3    0  502 -0.24148575950E+03  0.69651187259E+03 -0.48885909629E+03  0.88455016230E+03  0.12699999809E+01 0.  1.
</event>
<event>
 5   0  0.8898848E-06  0.2377153E+04  0.7818609E-02  0.8448107E-01
        1   -1    0    0  501    0  0.00000000000E+00  0.00000000000E+00  0.16159075714E+04  0.16159075714E+04  0.50400001928E-02 0.  1.
       -1   -1    0    0    0  501  0.00000000000E+00  0.00000000000E+00 -0.87425397570E+03  0.87425397572E+03  0.50400001928E-02 0. -1.
    10030    2    1    2    0    0  0.00000000000E+00  0.00000000000E+00  0.74165359572E+03  0.24901615472E+04  0.23771525981E+04 0.  0.
        5    1    3    3  502    0 -0.19219908841E+03  0.11590658681E+04  0.18251030903E+03  0.11889938096E+04  0.46999998093E+01 0. -1.
       -5    1    3    3    0  502  0.19219908841E+03 -0.11590658681E+04  0.55914328670E+03  0.13011677376E+04  0.46999998093E+01 0.  1.
</event>
<event>
 5   0  0.9038897E-06  0.2372827E+04  0.7818609E-02  0.8449747E-01
        1   -1    0    0  501    0  0.00000000000E+00  0.00000000000E+00  0.18063790554E+04  0.18063790555E+04  0.50400001928E-02 0. -1.
       -1   -1    0    0    0  501  0.00000000000E+00  0.00000000000E+00 -0.77922547209E+03  0.77922547211E+03  0.50400001928E-02 0.  1.
    10030    2    1    2    0    0  0.00000000000E+00  0.00000000000E+00  0.10271535834E+04  0.25856045276E+04  0.23728266454E+04 0.  0.
        1    1    3    3  502    0  0.66450501091E+03  0.96067693352E+03  0.28732994117E+03  0.12029237612E+04  0.50400001928E-02 0.  1.
       -1    1    3    3    0  502 -0.66450501091E+03 -0.96067693352E+03  0.73982364219E+03  0.13826807664E+04  0.50400001928E-02 0. -1.
</event>
<event>
 5   0  0.9083687E-06  0.2424861E+04  0.7818609E-02  0.8430254E-01
        1   -1    0    0  501    0  0.00000000000E+00  0.00000000000E+00  0.15755069941E+04  0.15755069941E+04  0.50400001928E-02 0. -1.
       -1   -1    0    0    0  501  0.00000000000E+00  0.00000000000E+00 -0.93302548129E+03  0.93302548131E+03  0.50400001928E-02 0.  1.
    10030    2    1    2    0    0  0.00000000000E+00  0.00000000000E+00  0.64248151279E+03  0.25085324754E+04  0.24248613746E+04 0.  0.
        2    1    3    3  502    0 -0.45886449933E+03  0.52648118719E+03  0.13465234632E+04  0.15168600813E+04  0.25500000920E-02 0. -1.
       -2    1    3    3    0  502  0.45886449933E+03 -0.52648118719E+03 -0.70404195045E+03  0.99167239409E+03  0.25500000920E-02 0.  1.
</event>
<event>
 5   0  0.2122194E-05  0.2400448E+04  0.7818609E-02  0.8439336E-01
       -2   -1    0    0    0  501  0.00000000000E+00  0.00000000000E+00  0.14831165234E+04  0.14831165234E+04  0.25500000920E-02 0.  1.
        2   -1    0    0  501    0  0.00000000000E+00  0.00000000000E+00 -0.97129101928E+03  0.97129101929E+03  0.25500000920E-02 0. -1.
    10030    2    1    2    0    0  0.00000000000E+00  0.00000000000E+00  0.51182550413E+03  0.24544075427E+04  0.24004480913E+04 0.  0.
        3    1    3    3  502    0  0.30434504403E+02  0.70289360898E+03  0.12501661449E+04  0.14345386312E+04  0.10100000352E+00 0.  1.
       -3    1    3    3    0  502 -0.30434504403E+02 -0.70289360898E+03 -0.73834064073E+03  0.10198689115E+04  0.10100000352E+00 0. -1.
</event>
<event>
 5   0  0.2080257E-05  0.2518995E+04  0.7818609E-02  0.8396250E-01
        2   -1    0    0  501    0  0.00000000000E+00  0.00000000000E+00  0.18347318848E+04  0.18347318848E+04  0.25500000920E-02 0. -1.
       -2   -1    0    0    0  501  0.00000000000E+00  0.00000000000E+00 -0.86461344783E+03  0.86461344784E+03  0.25500000920E-02 0.  1.
    10030    2    1    2    0    0  0.00000000000E+00  0.00000000000E+00  0.97011843700E+03  0.26993453327E+04  0.25189949272E+04 0.  0.
        1    1    3    3  502    0 -0.59687899941E+02  0.12317323301E+04  0.75953573524E+03  0.14483168547E+04  0.50400001928E-02 0.  1.
       -1    1    3    3    0  502  0.59687899941E+02 -0.12317323301E+04  0.21058270176E+03  0.12510284780E+04  0.50400001928E-02 0. -1.
</event>
<event>
 5   0  0.9083687E-06  0.2116481E+04  0.7818609E-02  0.8554018E-01
        1   -1    0    0  501    0  0.00000000000E+00  0.00000000000E+00  0.13483759843E+04  0.13483759843E+04  0.50400001928E-02 0. -1.
       -1   -1    0    0    0  501  0.00000000000E+00  0.00000000000E+00 -0.83053454212E+03  0.83053454214E+03  0.50400001928E-02 0.  1.
    10030    2    1    2    0    0  0.00000000000E+00  0.00000000000E+00  0.51784144222E+03  0.21789105265E+04  0.21164808818E+04 0.  0.
        2    1    3    3  502    0  0.68892402030E+03  0.71756075445E+03 -0.11278767244E+03  0.10011147792E+04  0.25500000920E-02 0. -1.
       -2    1    3    3    0  502 -0.68892402030E+03 -0.71756075445E+03  0.63062911466E+03  0.11777957473E+04  0.25500000920E-02 0.  1.
</event>
<event>
 5   0  0.8528103E-06  0.2376032E+04  0.7818609E-02  0.8448532E-01
        1   -1    0    0  501    0  0.00000000000E+00  0.00000000000E+00  0.23055087166E+04  0.23055087166E+04  0.50400001928E-02 0.  1.
       -1   -1    0    0    0  501  0.00000000000E+00  0.00000000000E+00 -0.61217805010E+03  0.61217805012E+03  0.50400001928E-02 0. -1.
    10030    2    1    2    0    0  0.00000000000E+00  0.00000000000E+00  0.16933306665E+04  0.29176867667E+04  0.23760318438E+04 0.  0.
        4    1    3    3  502    0 -0.62880938393E+03  0.92091668288E+03  0.34351161620E+03  0.11668293026E+04  0.12699999809E+01 0. -1.
       -4    1    3    3    0  502  0.62880938393E+03 -0.92091668288E+03  0.13498190503E+04  0.17508574641E+04  0.12699999809E+01 0.  1.
</event>
<event>
 5   0  0.9176817E-06  0.2384296E+04  0.7818609E-02  0.8445406E-01
       -1   -1    0    0    0  501  0.00000000000E+00  0.00000000000E+00  0.10493704103E+04  0.10493704103E+04  0.50400001928E-02 0. -1.
        1   -1    0    0  501    0  0.00000000000E+00  0.00000000000E+00 -0.13543523569E+04  0.13543523569E+04  0.50400001928E-02 0.  1.
    10030    2    1    2    0    0  0.00000000000E+00  0.00000000000E+00 -0.30498194653E+03  0.24037227672E+04  0.23842963645E+04 0.  0.
        3    1    3    3  502    0  0.12075950819E+03 -0.11093112288E+04 -0.57550835259E+03  0.12555334066E+04  0.10100000352E+00 0.  1.
       -3    1    3    3    0  502 -0.12075950819E+03  0.11093112288E+04  0.27052640605E+03  0.11481893606E+04  0.10100000352E+00 0. -1.
</event>
<event>
 5   0  0.8528103E-06  0.2394267E+04  0.7818609E-02  0.8441653E-01
        1   -1    0    0  501    0  0.00000000000E+00  0.00000000000E+00  0.11286740144E+04  0.11286740144E+04  0.50400001928E-02 0.  1.
       -1   -1    0    0    0  501  0.00000000000E+00  0.00000000000E+00 -0.12697450017E+04  0.12697450018E+04  0.50400001928E-02 0. -1.
    10030    2    1    2    0    0  0.00000000000E+00  0.00000000000E+00 -0.14107098733E+03  0.23984190162E+04  0.23942666422E+04 0.  0.
        4    1    3    3  502    0  0.53302465260E+03 -0.10324838959E+04  0.21804101726E+03  0.11822359213E+04  0.12699999809E+01 0.  1.
       -4    1    3    3    0  502 -0.53302465260E+03  0.10324838959E+04 -0.35911200459E+03  0.12161830949E+04  0.12699999809E+01 0. -1.
</event>
<event>
 5   0  0.2087882E-05  0.2401145E+04  0.7818609E-02  0.8439075E-01
       -2   -1    0    0    0  501  0.00000000000E+00  0.00000000000E+00  0.13090983418E+04  0.13090983418E+04  0.25500000920E-02 0.  1.
        2   -1    0    0  501    0  0.00000000000E+00  0.00000000000E+00 -0.11010437087E+04  0.11010437087E+04  0.25500000920E-02 0. -1.
    10030    2    1    2    0    0  0.00000000000E+00  0.00000000000E+00  0.20805463302E+03  0.24101420505E+04  0.24011451379E+04 0.  0.
        2    1    3    3  502    0 -0.27983661892E+02  0.90636510894E+03 -0.68574593276E+03  0.11368941377E+04  0.25500000920E-02 0. -1.
       -2    1    3    3    0  502  0.27983661892E+02 -0.90636510894E+03  0.89380056578E+03  0.12732479128E+04  0.25500000920E-02 0.  1.
</event>
<event>
 5   0  0.2080257E-05  0.2401524E+04  0.7818609E-02  0.8438933E-01
       -2   -1    0    0    0  501  0.00000000000E+00  0.00000000000E+00  0.64051145458E+03  0.64051145458E+03  0.25500000920E-02 0.  1.
        2   -1    0    0  501    0  0.00000000000E+00  0.00000000000E+00 -0.22510588830E+04  0.22510588830E+04  0.25500000920E-02 0. -1.
    10030    2    1    2    0    0  0.00000000000E+00  0.00000000000E+00 -0.16105474284E+04  0.28915703376E+04  0.24015236826E+04 0.  0.
        1    1    3    3  502    0  0.12281534222E+03  0.10214181895E+04 -0.59681416297E+02  0.10305050207E+04  0.50400001928E-02 0.  1.
       -1    1    3    3    0  502 -0.12281534222E+03 -0.10214181895E+04 -0.15508660121E+04  0.18610653169E+04  0.50400001928E-02 0. -1.
</event>
<event>
 5   0  0.9038897E-06  0.2413589E+04  0.7818609E-02  0.8434433E-01
       -1   -1    0    0    0  501  0.00000000000E+00  0.00000000000E+00  0.15670032395E+04  0.15670032395E+04  0.50400001928E-02 0.  1.
        1   -1    0    0  501    0  0.00000000000E+00  0.00000000000E+00 -0.92938765342E+03  0.92938765343E+03  0.50400001928E-02 0. -1.
    10030    2    1    2    0    0  0.00000000000E+00  0.00000000000E+00  0.63761558610E+03  0.24963908930E+04  0.24135894131E+04 0.  0.
        1    1    3    3  502    0  0.39460365145E+03  0.10466669742E+04  0.78725799987E+03  0.13678446384E+04  0.50400001928E-02 0.  1.
       -1    1    3    3    0  502 -0.39460365145E+03 -0.10466669742E+04 -0.14964241377E+03  0.11285462545E+04  0.50400001928E-02 0. -1.
</event>
<event>
 5   0  0.2087882E-05  0.2403233E+04  0.7818609E-02  0.8438294E-01
        2   -1    0    0  501    0  0.00000000000E+00  0.00000000000E+00  0.11067636701E+04  0.11067636701E+04  0.25500000920E-02 0. -1.
       -2   -1    0    0    0  501  0.00000000000E+00  0.00000000000E+00 -0.13045989655E+04  0.13045989655E+04  0.25500000920E-02 0.  1.
    10030    2    1    2    0    0  0.00000000000E+00  0.00000000000E+00 -0.19783529537E+03  0.24113626356E+04  0.24032334377E+04 0.  0.
        2    1    3    3  502    0  0.34381080111E+03  0.17345595630E+03  0.10431723988E+04  0.11119808854E+04  0.25500000920E-02 0. -1.
       -2    1    3    3    0  502 -0.34381080111E+03 -0.17345595630E+03 -0.12410076942E+04  0.12993817502E+04  0.25500000920E-02 0.  1.
</event>
<event>
 5   0  0.9176817E-06  0.2403835E+04  0.7818609E-02  0.8438069E-01
       -1   -1    0    0    0  501  0.00000000000E+00  0.00000000000E+00  0.12973457365E+04  0.12973457366E+04  0.50400001928E-02 0. -1.
        1   -1    0    0  501    0  0.00000000000E+00  0.00000000000E+00 -0.11135090186E+04  0.11135090186E+04  0.50400001928E-02 0.  1.
    10030    2    1    2    0    0  0.00000000000E+00  0.00000000000E+00  0.18383671796E+03  0.24108547552E+04  0.24038354169E+04 0.  0.
        3    1    3    3  502    0 -0.11659716681E+04  0.27933390141E+03  0.74774434419E+01  0.11989884410E+04  0.10100000352E+00 0. -1.
       -3    1    3    3    0  502  0.11659716681E+04 -0.27933390141E+03  0.17635927451E+03  0.12118663141E+04  0.10100000352E+00 0.  1.
</event>
<event>
 5   0  0.2080257E-05  0.2296380E+04  0.7818609E-02  0.8479350E-01
       -2   -1    0    0    0  501  0.00000000000E+00  0.00000000000E+00  0.13270070612E+04  0.13270070612E+04  0.25500000920E-02 0.  1.
        2   -1    0    0  501    0  0.00000000000E+00  0.00000000000E+00 -0.99346916485E+03  0.99346916485E+03  0.25500000920E-02 0. -1.
    10030    2    1    2    0    0  0.00000000000E+00  0.00000000000E+00  0.33353789633E+03  0.23204762260E+04  0.22963802793E+04 0.  0.
        1    1    3    3  502    0 -0.34672441191E+03 -0.10944281460E+04  0.14786942784E+03  0.11575215559E+04  0.50400001928E-02 0. -1.
       -1    1    3    3    0  502  0.34672441191E+03  0.10944281460E+04  0.18566846849E+03  0.11629546702E+04  0.50400001928E-02 0.  1.
</event>
<event>
 5   0  0.9176817E-06  0.2327151E+04  0.7818609E-02  0.8467292E-01
        1   -1    0    0  501    0  0.00000000000E+00  0.00000000000E+00  0.16084524457E+04  0.16084524457E+04  0.50400001928E-02 0. -1.
       -1   -1    0    0    0  501  0.00000000000E+00  0.00000000000E+00 -0.84174591914E+03  0.84174591915E+03  0.50400001928E-02 0.  1.
    10030    2    1    2    0    0  0.00000000000E+00  0.00000000000E+00  0.76670652654E+03  0.24501983648E+04  0.23271512906E+04 0.  0.
        3    1    3    3  502    0 -0.10207820848E+03 -0.63685132070E+03  0.14030168520E+04  0.15441683401E+04  0.10100000352E+00 0. -1.
       -3    1    3    3    0  502  0.10207820848E+03  0.63685132070E+03 -0.63631032544E+03  0.90603002477E+03  0.10100000352E+00 0.  1.
</event>
<event>
 5   0  0.2048028E-05  0.2426092E+04  0.7818609E-02  0.8429799E-01
        2   -1    0    0  501    0  0.00000000000E+00  0.00000000000E+00  0.14468186574E+04  0.14468186574E+04  0.25500000920E-02 0.  1.
       -2   -1    0    0    0  501  0.00000000000E+00  0.00000000000E+00 -0.10170454641E+04  0.10170454641E+04  0.25500000920E-02 0. -1.
    10030    2    1    2    0    0  0.00000000000E+00  0.00000000000E+00  0.42977319332E+03  0.24638641216E+04  0.24260917979E+04 0.  0.
        5    1    3    3  502    0  0.11171746758E+04 -0.46351012676E+03  0.12105014962E+03  0.12155641170E+04  0.46999998093E+01 0.  1.
       -5    1    3    3    0  502 -0.11171746758E+04  0.46351012676E+03  0.30872304369E+03  0.12483000046E+04  0.46999998093E+01 0. -1.
</event>
<event>
 5   0  0.2080257E-05  0.2387664E+04  0.7818609E-02  0.8444137E-01
       -2   -1    0    0    0  501  0.00000000000E+00  0.00000000000E+00  0.14255556287E+04  0.14255556287E+04  0.25500000920E-02 0.  1.
        2   -1    0    0  501    0  0.00000000000E+00  0.00000000000E+00 -0.99977475129E+03  0.99977475129E+03  0.25500000920E-02 0. -1.
    10030    2    1    2    0    0  0.00000000000E+00  0.00000000000E+00  0.42578087741E+03  0.24253303800E+04  0.23876637319E+04 0.  0.
        1    1    3    3  502    0  0.10875608804E+04 -0.27878293610E+02 -0.28646284253E+03  0.11250008124E+04  0.50400001928E-02 0.  1.
       -1    1    3    3    0  502 -0.10875608804E+04  0.27878293610E+02  0.71224371994E+03  0.13003295676E+04  0.50400001928E-02 0. -1.
</event>
<event>
 5   0  0.9083687E-06  0.2397922E+04  0.7818609E-02  0.8440282E-01
       -1   -1    0    0    0  501  0.00000000000E+00  0.00000000000E+00  0.75504120230E+03  0.75504120232E+03  0.50400001928E-02 0. -1.
        1   -1    0    0  501    0  0.00000000000E+00  0.00000000000E+00 -0.19038790291E+04  0.19038790291E+04  0.50400001928E-02 0.  1.
    10030    2    1    2    0    0  0.00000000000E+00  0.00000000000E+00 -0.11488378268E+04  0.26589202315E+04  0.23979216928E+04 0.  0.
        2    1    3    3  502    0 -0.20412897164E+03  0.89711644170E+03 -0.14268741993E+04  0.16977798819E+04  0.25500000920E-02 0.  1.
       -2    1    3    3    0  502  0.20412897164E+03 -0.89711644170E+03  0.27803637244E+03  0.96114034950E+03  0.25500000920E-02 0. -1.
</event>
<event>
 5   0  0.2087882E-05  0.2382260E+04  0.7818609E-02  0.8446175E-01
       -2   -1    0    0    0  501  0.00000000000E+00  0.00000000000E+00  0.10623940315E+04  0.10623940315E+04  0.25500000920E-02 0. -1.
        2   -1    0    0  501    0  0.00000000000E+00  0.00000000000E+00 -0.13354653805E+04  0.13354653805E+04  0.25500000920E-02 0.  1.
    10030    2    1    2    0    0  0.00000000000E+00  0.00000000000E+00 -0.27307134896E+03  0.23978594119E+04  0.23822598091E+04 0.  0.
        2    1    3    3  502    0  0.99541778057E+03 -0.53669903595E+03  0.23992956279E+03  0.11560573550E+04  0.25500000920E-02 0. -1.
       -2    1    3    3    0  502 -0.99541778057E+03  0.53669903595E+03 -0.51300091175E+03  0.12418020569E+04  0.25500000920E-02 0.  1.
</event>
<event>
 5   0  0.2080257E-05  0.2400907E+04  0.7818609E-02  0.8439164E-01
        2   -1    0    0  501    0  0.00000000000E+00  0.00000000000E+00  0.15250647601E+04  0.15250647601E+04  0.25500000920E-02 0. -1.
       -2   -1    0    0    0  501  0.00000000000E+00  0.00000000000E+00 -0.94493611365E+03  0.94493611366E+03  0.25500000920E-02 0.  1.
    10030    2    1    2    0    0  0.00000000000E+00  0.00000000000E+00  0.58012864641E+03  0.24700008737E+04  0.24009071348E+04 0.  0.
        1    1    3    3  502    0 -0.14312631541E+03  0.56046333077E+03  0.13722316267E+04  0.14891688704E+04  0.50400001928E-02 0. -1.
       -1    1    3    3    0  502  0.14312631541E+03 -0.56046333077E+03 -0.79210298028E+03  0.98083200330E+03  0.50400001928E-02 0.  1.
</event>
<event>
 5   0  0.9083687E-06  0.2403864E+04  0.7818609E-02  0.8438058E-01
        1   -1    0    0  501    0  0.00000000000E+00  0.00000000000E+00  0.16966731834E+04  0.16966731834E+04  0.50400001928E-02 0.  1.
       -1   -1    0    0    0  501  0.00000000000E+00  0.00000000000E+00 -0.85145456727E+03  0.85145456729E+03  0.50400001928E-02 0. -1.
    10030    2    1    2    0    0  0.00000000000E+00  0.00000000000E+00  0.84521861611E+03  0.25481277507E+04  0.24038636660E+04 0.  0.
        2    1    3    3  502    0 -0.11387478562E+04  0.35678402203E+03  0.57474473262E+03  0.13245274728E+04  0.25500000920E-02 0.  1.
       -2    1    3    3    0  502  0.11387478562E+04 -0.35678402203E+03  0.27047388348E+03  0.12236002779E+04  0.25500000920E-02 0. -1.
</event>
<event>
 5   0  0.8528103E-06  0.2377501E+04  0.7818609E-02  0.8447975E-01
       -1   -1    0    0    0  501  0.00000000000E+00  0.00000000000E+00  0.10345730389E+04  0.10345730389E+04  0.50400001928E-02 0.  1.
        1   -1    0    0  501    0  0.00000000000E+00  0.00000000000E+00 -0.13659041079E+04  0.13659041079E+04  0.50400001928E-02 0. -1.
    10030    2    1    2    0    0  0.00000000000E+00  0.00000000000E+00 -0.33133106905E+03  0.24004771468E+04  0.23775008423E+04 0.  0.
        4    1    3    3  502    0  0.48237080466E+03  0.97475573755E+03 -0.65019447897E+03  0.12671167328E+04  0.12699999809E+01 0. -1.
       -4    1    3    3    0  502 -0.48237080466E+03 -0.97475573755E+03  0.31886340992E+03  0.11333604141E+04  0.12699999809E+01 0.  1.
</event>
<event>
 5   0  0.2048028E-05  0.2406493E+04  0.7818609E-02  0.8437077E-01
       -2   -1    0    0    0  501  0.00000000000E+00  0.00000000000E+00  0.12969592113E+04  0.12969592113E+04  0.25500000920E-02 0. -1.
        2   -1    0    0  501    0  0.00000000000E+00  0.00000000000E+00 -0.11163050443E+04  0.11163050443E+04  0.25500000920E-02 0.  1.
    10030    2    1    2    0    0  0.00000000000E+00  0.00000000000E+00  0.18065416694E+03  0.24132642556E+04  0.24064929751E+04 0.  0.
        5    1    3    3  502    0 -0.14270209397E+02 -0.24019444616E+03 -0.10919231405E+04  0.11181302454E+04  0.46999998093E+01 0.  1.
       -5    1    3    3    0  502  0.14270209397E+02  0.24019444616E+03  0.12725773075E+04  0.12951340102E+04  0.46999998093E+01 0. -1.
</event>
<event>
 5   0  0.9176817E-06  0.2406484E+04  0.7818609E-02  0.8437080E-01
       -1   -1    0    0    0  501  0.00000000000E+00  0.00000000000E+00  0.15663525966E+04  0.15663525966E+04  0.50400001928E-02 0. -1.
        1   -1    0    0  501    0  0.00000000000E+00  0.00000000000E+00 -0.92430716407E+03  0.92430716408E+03  0.50400001928E-02 0.  1.
    10030    2    1    2    0    0  0.00000000000E+00  0.00000000000E+00  0.64204543257E+03  0.24906597607E+04  0.24064836809E+04 0.  0.
        3    1    3    3  502    0 -0.51828264760E+02 -0.10642663483E+04  0.89953969509E+03  0.13944607210E+04  0.10100000352E+00 0.  1.
       -3    1    3    3    0  502  0.51828264760E+02  0.10642663483E+04 -0.25749426252E+03  0.10961990397E+04  0.10100000352E+00 0. -1.
</event>
<event>
 5   0  0.9176817E-06  0.2408078E+04  0.7818609E-02  0.8436485E-01
       -1   -1    0    0    0  501  0.00000000000E+00  0.00000000000E+00  0.15298495465E+04  0.15298495465E+04  0.50400001928E-02 0.  1.
        1   -1    0    0  501    0  0.00000000000E+00  0.00000000000E+00 -0.94761605874E+03  0.94761605875E+03  0.50400001928E-02 0. -1.
    10030    2    1    2    0    0  0.00000000000E+00  0.00000000000E+00  0.58223348771E+03  0.24774656052E+04  0.24080780699E+04 0.  0.
        3    1    3    3  502    0 -0.47272025795E+03 -0.71830304290E+03 -0.57595250766E+03  0.10349613543E+04  0.10100000352E+00 0. -1.
       -3    1    3    3    0  502  0.47272025795E+03  0.71830304290E+03  0.11581859954E+04  0.14425042509E+04  0.10100000352E+00 0.  1.
</event>
<event>
 5   0  0.2122194E-05  0.2456556E+04  0.7818609E-02  0.8418628E-01
        2   -1    0    0  501    0  0.00000000000E+00  0.00000000000E+00  0.24140224290E+04  0.24140224290E+04  0.25500000920E-02 0. -1.
       -2   -1    0    0    0  501  0.00000000000E+00  0.00000000000E+00 -0.62495971258E+03  0.62495971259E+03  0.25500000920E-02 0.  1.
    10030    2    1    2    0    0  0.00000000000E+00  0.00000000000E+00  0.17890627164E+04  0.30389821416E+04  0.24565559333E+04 0.  0.
        3    1    3    3  502    0 -0.25244443409E+02  0.12132695146E+04  0.65978855663E+03  0.13812969075E+04  0.10100000352E+00 0.  1.
       -3    1    3    3    0  502  0.25244443409E+02 -0.12132695146E+04  0.11292741598E+04  0.16576852341E+04  0.10100000352E+00 0. -1.
</event>
<event>
 5   0  0.2048028E-05  0.2382701E+04  0.7818609E-02  0.8446009E-01
       -2   -1    0    0    0  501  0.00000000000E+00  0.00000000000E+00  0.13139877715E+04  0.13139877715E+04  0.25500000920E-02 0.  1.
        2   -1    0    0  501    0  0.00000000000E+00  0.00000000000E+00 -0.10801587977E+04  0.10801587977E+04  0.25500000920E-02 0. -1.
    10030    2    1    2    0    0  0.00000000000E+00  0.00000000000E+00  0.23382897381E+03  0.23941465693E+04  0.23827005280E+04 0.  0.
        5    1    3    3  502    0  0.56635400479E+03  0.10356714395E+04 -0.44859464054E+02  0.11812733176E+04  0.46999998093E+01 0. -1.
       -5    1    3    3    0  502 -0.56635400479E+03 -0.10356714395E+04  0.27868843787E+03  0.12128732517E+04  0.46999998093E+01 0.  1.
</event>
<event>
 5   0  0.8898848E-06  0.2397859E+04  0.7818609E-02  0.8440305E-01
        1   -1    0    0  501    0  0.00000000000E+00  0.00000000000E+00  0.15650290206E+04  0.15650290206E+04  0.50400001928E-02 0.  1.
       -1   -1    0    0    0  501  0.00000000000E+00  0.00000000000E+00 -0.91847000504E+03  0.91847000505E+03  0.50400001928E-02 0. -1.
    10030    2    1    2    0    0  0.00000000000E+00  0.00000000000E+00  0.64655901560E+03  0.24834990257E+04  0.23978592223E+04 0.  0.
        5    1    3    3  502    0  0.24185780012E+02  0.36192814475E+03 -0.86026382396E+03  0.93362351659E+03  0.46999998093E+01 0. -1.
       -5    1    3    3    0  502 -0.24185780012E+02 -0.36192814475E+03  0.15068228396E+04  0.15498755091E+04  0.46999998093E+01 0.  1.
</event>
<event>
 5   0  0.9083687E-06  0.2400332E+04  0.7818609E-02  0.8439379E-01
        1   -1    0    0  501    0  0.00000000000E+00  0.00000000000E+00  0.23613972873E+04  0.23613972873E+04  0.50400001928E-02 0. -1.
       -1   -1    0    0    0  501  0.00000000000E+00  0.00000000000E+00 -0.60997694100E+03  0.60997694102E+03  0.50400001928E-02 0.  1.
    10030    2    1    2    0    0  0.00000000000E+00  0.00000000000E+00  0.17514203463E+04  0.29713742284E+04  0.24003315553E+04 0.  0.
        2    1    3    3  502    0  0.15989854187E+03  0.11737246778E+04  0.63695001717E+03  0.13449544555E+04  0.25500000920E-02 0. -1.
       -2    1    3    3    0  502 -0.15989854187E+03 -0.11737246778E+04  0.11144703292E+04  0.16264197729E+04  0.25500000920E-02 0.  1.
</event>
<event>
 5   0  0.2025353E-05  0.2397060E+04  0.7818609E-02  0.8440605E-01
        2   -1    0    0  501    0  0.00000000000E+00  0.00000000000E+00  0.19753912947E+04  0.19753912947E+04  0.25500000920E-02 0. -1.
       -2   -1    0    0    0  501  0.00000000000E+00  0.00000000000E+00 -0.72718437475E+03  0.72718437475E+03  0.25500000920E-02 0.  1.
    10030    2    1    2    0    0  0.00000000000E+00  0.00000000000E+00  0.12482069199E+04  0.27025756694E+04  0.23970596017E+04 0.  0.
        4    1    3    3  502    0  0.95641877699E+03  0.69372059560E+03  0.85096268652E+03  0.14560646443E+04  0.12699999809E+01 0. -1.
       -4    1    3    3    0  502 -0.95641877699E+03 -0.69372059560E+03  0.39724423338E+03  0.12465110251E+04  0.12699999809E+01 0.  1.
</event>
<event>
 5   0  0.2048028E-05  0.2400320E+04  0.7818609E-02  0.8439384E-01
       -2   -1    0    0    0  501  0.00000000000E+00  0.00000000000E+00  0.22391996952E+04  0.22391996952E+04  0.25500000920E-02 0. -1.
        2   -1    0    0  501    0  0.00000000000E+00  0.00000000000E+00 -0.64325835972E+03  0.64325835973E+03  0.25500000920E-02 0.  1.
    10030    2    1    2    0    0  0.00000000000E+00  0.00000000000E+00  0.15959413354E+04  0.28824580549E+04  0.24003199145E+04 0.  0.
        5    1    3    3  502    0  0.93257426553E+03  0.75451340259E+03  0.75341557320E+03  0.14165600416E+04  0.46999998093E+01 0. -1.
       -5    1    3    3    0  502 -0.93257426553E+03 -0.75451340259E+03  0.84252576224E+03  0.14658980133E+04  0.46999998093E+01 0.  1.
</event>
<event>
 5   0  0.9038897E-06  0.2385191E+04  0.7818609E-02  0.8445069E-01
       -1   -1    0    0    0  501  0.00000000000E+00  0.00000000000E+00  0.11522940270E+04  0.11522940270E+04  0.50400001928E-02 0.  1.
        1   -1    0    0  501    0  0.00000000000E+00  0.00000000000E+00 -0.12343064219E+04  0.12343064219E+04  0.50400001928E-02 0. -1.
    10030    2    1    2    0    0  0.00000000000E+00  0.00000000000E+00 -0.82012394870E+02  0.23866004489E+04  0.23851909085E+04 0.  0.
        1    1    3    3  502    0  0.94596541400E+03 -0.40259185477E+03 -0.64580789515E+03  0.12140834417E+04  0.50400001928E-02 0. -1.
       -1    1    3    3    0  502 -0.94596541400E+03  0.40259185477E+03  0.56379550028E+03  0.11725170072E+04  0.50400001928E-02 0.  1.
</event>
<event>
 5   0  0.2087882E-05  0.2411755E+04  0.7818609E-02  0.8435116E-01
       -2   -1    0    0    0  501  0.00000000000E+00  0.00000000000E+00  0.11103099657E+04  0.11103099657E+04  0.25500000920E-02 0. -1.
        2   -1    0    0  501    0  0.00000000000E+00  0.00000000000E+00 -0.13096711697E+04  0.13096711697E+04  0.25500000920E-02 0.  1.
    10030    2    1    2    0    0  0.00000000000E+00  0.00000000000E+00 -0.19936120399E+03  0.24199811354E+04  0.24117553371E+04 0.  0.
        2    1    3    3  502    0  0.90606626902E+03  0.25919457688E+03 -0.85457832206E+03  0.12721800270E+04  0.25500000920E-02 0.  1.
       -2    1    3    3    0  502 -0.90606626902E+03 -0.25919457688E+03  0.65521711807E+03  0.11478011084E+04  0.25500000920E-02 0. -1.
</event>
<event>
 5   0  0.9083687E-06  0.2370936E+04  0.7818609E-02  0.8450465E-01
        1   -1    0    0  501    0  0.00000000000E+00  0.00000000000E+00  0.16018186392E+04  0.16018186392E+04  0.50400001928E-02 0. -1.
       -1   -1    0    0    0  501  0.00000000000E+00  0.00000000000E+00 -0.87733690590E+03  0.87733690592E+03  0.50400001928E-02 0.  1.
    10030    2    1    2    0    0  0.00000000000E+00  0.00000000000E+00  0.72448173329E+03  0.24791555451E+04  0.23709361938E+04 0.  0.
        2    1    3    3  502    0  0.38616140334E+03 -0.17244335301E+03  0.15202544700E+04  0.15779832043E+04  0.25500000920E-02 0. -1.
       -2    1    3    3    0  502 -0.38616140334E+03  0.17244335301E+03 -0.79577273670E+03  0.90117234085E+03  0.25500000920E-02 0.  1.
</event>
<event>
 5   0  0.2080257E-05  0.2404581E+04  0.7818609E-02  0.8437791E-01
       -2   -1    0    0    0  501  0.00000000000E+00  0.00000000000E+00  0.14293887160E+04  0.14293887160E+04  0.25500000920E-02 0. -1.
        2   -1    0    0  501    0  0.00000000000E+00  0.00000000000E+00 -0.10112727680E+04  0.10112727680E+04  0.25500000920E-02 0.  1.
    10030    2    1    2    0    0  0.00000000000E+00  0.00000000000E+00  0.41811594802E+03  0.24406614840E+04  0.24045805317E+04 0.  0.
        1    1    3    3  502    0  0.89767962568E+03 -0.49436920502E+03 -0.42908264698E+03  0.11110092435E+04  0.50400001928E-02 0.  1.
       -1    1    3    3    0  502 -0.89767962568E+03  0.49436920502E+03  0.84719859501E+03  0.13296522405E+04  0.50400001928E-02 0. -1.
</event>
<event>
 5   0  0.9176817E-06  0.2386810E+04  0.7818609E-02  0.8444458E-01
       -1   -1    0    0    0  501  0.00000000000E+00  0.00000000000E+00  0.13469715717E+04  0.13469715717E+04  0.50400001928E-02 0. -1.
        1   -1    0    0  501    0  0.00000000000E+00  0.00000000000E+00 -0.10573464141E+04  0.10573464141E+04  0.50400001928E-02 0.  1.
    10030    2    1    2    0    0  0.00000000000E+00  0.00000000000E+00  0.28962515754E+03  0.24043179858E+04  0.23868100564E+04 0.  0.
        3    1    3    3  502    0 -0.53492306071E+03  0.50660126050E+03 -0.80091809606E+03  0.10882358774E+04  0.10100000352E+00 0.  1.
       -3    1    3    3    0  502  0.53492306071E+03 -0.50660126050E+03  0.10905432536E+04  0.13160821085E+04  0.10100000352E+00 0. -1.
</event>
<event>
 5   0  0.9176817E-06  0.2400011E+04  0.7818609E-02  0.8439499E-01
       -1   -1    0    0    0  501  0.00000000000E+00  0.00000000000E+00  0.14623159837E+04  0.14623159837E+04  0.50400001928E-02 0.  1.
        1   -1    0    0  501    0  0.00000000000E+00  0.00000000000E+00 -0.98474859517E+03  0.98474859518E+03  0.50400001928E-02 0. -1.
    10030    2    1    2    0    0  0.00000000000E+00  0.00000000000E+00  0.47756738856E+03  0.24470645789E+04  0.24000113422E+04 0.  0.
        3    1    3    3  502    0  0.31786064965E+03 -0.11534723795E+03 -0.93516840980E+03  0.99442462901E+03  0.10100000352E+00 0. -1.
       -3    1    3    3    0  502 -0.31786064965E+03  0.11534723795E+03  0.14127357984E+04  0.14526399499E+04  0.10100000352E+00 0.  1.
</event>
<event>
 5   0  0.2025353E-05  0.2415002E+04  0.7818609E-02  0.8433908E-01
        2   -1    0    0  501    0  0.00000000000E+00  0.00000000000E+00  0.25022168661E+04  0.25022168661E+04  0.25500000920E-02 0. -1.
       -2   -1    0    0    0  501  0.00000000000E+00  0.00000000000E+00 -0.58270696085E+03  0.58270696086E+03  0.25500000920E-02 0.  1.
    10030    2    1    2    0    0  0.00000000000E+00  0.00000000000E+00  0.19195099053E+04  0.30849238270E+04  0.24150024310E+04 0.  0.
        4    1    3    3  502    0 -0.98023497918E+03  0.65445604869E+03  0.62449104432E+03  0.13338530697E+04  0.12699999809E+01 0.  1.
       -4    1    3    3    0  502  0.98023497918E+03 -0.65445604869E+03  0.12950188610E+04  0.17510707573E+04  0.12699999809E+01 0. -1.
</event>
<event>
 5   0  0.2080257E-05  0.2397720E+04  0.7818609E-02  0.8440358E-01
        2   -1    0    0  501    0  0.00000000000E+00  0.00000000000E+00  0.22272736806E+04  0.22272736806E+04  0.25500000920E-02 0. -1.
       -2   -1    0    0    0  501  0.00000000000E+00  0.00000000000E+00 -0.64530231616E+03  0.64530231616E+03  0.25500000920E-02 0.  1.
    10030    2    1    2    0    0  0.00000000000E+00  0.00000000000E+00  0.15819713644E+04  0.28725759967E+04  0.23977196373E+04 0.  0.
        1    1    3    3  502    0 -0.80031655464E+03  0.41293578216E+03 -0.15709289291E+03  0.91416668330E+03  0.50400001928E-02 0. -1.
       -1    1    3    3    0  502  0.80031655464E+03 -0.41293578216E+03  0.17390642573E+04  0.19584093134E+04  0.50400001928E-02 0.  1.
</event>
<event>
 5   0  0.2048028E-05  0.2409529E+04  0.7818609E-02  0.8435945E-01
       -2   -1    0    0    0  501  0.00000000000E+00  0.00000000000E+00  0.55799303328E+03  0.55799303328E+03  0.25500000920E-02 0.  1.
        2   -1    0    0  501    0  0.00000000000E+00  0.00000000000E+00 -0.26012114368E+04  0.26012114368E+04  0.25500000920E-02 0. -1.
    10030    2    1    2    0    0  0.00000000000E+00  0.00000000000E+00 -0.20432184036E+04  0.31592044701E+04  0.24095292983E+04 0.  0.
        5    1    3    3  502    0  0.92516715980E+03 -0.74144509655E+03 -0.74113579629E+03  0.13982058015E+04  0.46999998093E+01 0.  1.
       -5    1    3    3    0  502 -0.92516715980E+03  0.74144509655E+03 -0.13020826073E+04  0.17609986686E+04  0.46999998093E+01 0. -1.
</event>
<event>
 5   0  0.8528103E-06  0.2425346E+04  0.7818609E-02  0.8430075E-01
       -1   -1    0    0    0  501  0.00000000000E+00  0.00000000000E+00  0.31183806969E+04  0.31183806969E+04  0.50400001928E-02 0.  1.
        1   -1    0    0  501    0  0.00000000000E+00  0.00000000000E+00 -0.47158312096E+03  0.47158312099E+03  0.50400001928E-02 0. -1.
    10030    2    1    2    0    0  0.00000000000E+00  0.00000000000E+00  0.26467975759E+04  0.35899638179E+04  0.24253459147E+04 0.  0.
        4    1    3    3  502    0 -0.79211139977E+03  0.86728078706E+03  0.17698109430E+04  0.21241113013E+04  0.12699999809E+01 0.  1.
       -4    1    3    3    0  502  0.79211139977E+03 -0.86728078706E+03  0.87698663287E+03  0.14658525166E+04  0.12699999809E+01 0. -1.
</event>
<event>
 5   0  0.8898848E-06  0.2440153E+04  0.7818609E-02  0.8424622E-01
        1   -1    0    0  501    0  0.00000000000E+00  0.00000000000E+00  0.18597136417E+04  0.18597136417E+04  0.50400001928E-02 0. -1.
       -1   -1    0    0    0  501  0.00000000000E+00  0.00000000000E+00 -0.80043855533E+03  0.80043855535E+03  0.50400001928E-02 0.  1.
    10030    2    1    2    0    0  0.00000000000E+00  0.00000000000E+00  0.10592750864E+04  0.26601521971E+04  0.24401528647E+04 0.  0.
        5    1    3    3  502    0  0.23740968371E+03  0.11826215672E+04  0.32978662669E+03  0.12504952772E+04  0.46999998093E+01 0.  1.
       -5    1    3    3    0  502 -0.23740968371E+03 -0.11826215672E+04  0.72948845971E+03  0.14096569199E+04  0.46999998093E+01 0. -1.
</event>
<event>
 5   0  0.2087882E-05  0.2388880E+04  0.7818609E-02  0.8443678E-01
        2   -1    0    0  501    0  0.00000000000E+00  0.00000000000E+00  0.14699519239E+04  0.14699519239E+04  0.25500000920E-02 0.  1.
       -2   -1    0    0    0  501  0.00000000000E+00  0.00000000000E+00 -0.97056744504E+03  0.97056744504E+03  0.25500000920E-02 0. -1.
    10030    2    1    2    0    0  0.00000000000E+00  0.00000000000E+00  0.49938447884E+03  0.24405193689E+04  0.23888804768E+04 0.  0.
        2    1    3    3  502    0 -0.68352519764E+03 -0.76358701553E+03  0.87648168865E+03  0.13485147299E+04  0.25500000920E-02 0.  1.
       -2    1    3    3    0  502  0.68352519764E+03  0.76358701553E+03 -0.37709720981E+03  0.10920046391E+04  0.25500000920E-02 0. -1.
</event>
<event>
 5   0  0.8528103E-06  0.2396333E+04  0.7818609E-02  0.8440878E-01
       -1   -1    0    0    0  501  0.00000000000E+00  0.00000000000E+00  0.98721835174E+03  0.98721835176E+03  0.50400001928E-02 0.  1.
        1   -1    0    0  501    0  0.00000000000E+00  0.00000000000E+00 -0.14541896933E+04  0.14541896933E+04  0.50400001928E-02 0. -1.
    10030    2    1    2    0    0  0.00000000000E+00  0.00000000000E+00 -0.46697134159E+03  0.24414080451E+04  0.23963328251E+04 0.  0.
        4    1    3    3  502    0  0.58992699998E+03 -0.62108284232E+03  0.62003361274E+03  0.10574502618E+04  0.12699999809E+01 0.  1.
       -4    1    3    3    0  502 -0.58992699998E+03  0.62108284232E+03 -0.10870049543E+04  0.13839577833E+04  0.12699999809E+01 0. -1.
</event>
<event>
 5   0  0.2048028E-05  0.2395571E+04  0.7818609E-02  0.8441164E-01
        2   -1    0    0  501    0  0.00000000000E+00  0.00000000000E+00  0.15762089754E+04  0.15762089754E+04  0.25500000920E-02 0. -1.
       -2   -1    0    0    0  501  0.00000000000E+00  0.00000000000E+00 -0.91021569425E+03  0.91021569426E+03  0.25500000920E-02 0.  1.
    10030    2    1    2    0    0  0.00000000000E+00  0.00000000000E+00  0.66599328113E+03  0.24864246696E+04  0.23955710357E+04 0.  0.
        5    1    3    3  502    0 -0.43468186330E+03  0.46314163398E+03  0.13869995845E+04  0.15255289027E+04  0.46999998093E+01 0. -1.
       -5    1    3    3    0  502  0.43468186330E+03 -0.46314163398E+03 -0.72100630341E+03  0.96089576696E+03  0.46999998093E+01 0.  1.
</event>
<event>
 5   0  0.8898848E-06  0.2401520E+04  0.7818609E-02  0.8438935E-01
       -1   -1    0    0    0  501  0.00000000000E+00  0.00000000000E+00  0.75700033185E+03  0.75700033186E+03  0.50400001928E-02 0. -1.
        1   -1    0    0  501    0  0.00000000000E+00  0.00000000000E+00 -0.19046551554E+04  0.19046551554E+04  0.50400001928E-02 0.  1.
    10030    2    1    2    0    0  0.00000000000E+00  0.00000000000E+00 -0.11476548236E+04  0.26616554873E+04  0.24015200059E+04 0.  0.
        5    1    3    3  502    0  0.90696684821E+03  0.48814730864E+03  0.11021943842E+03  0.10358798547E+04  0.46999998093E+01 0. -1.
       -5    1    3    3    0  502 -0.90696684821E+03 -0.48814730864E+03 -0.12578742620E+04  0.16257756326E+04  0.46999998093E+01 0.  1.
</event>
<event>
 5   0  0.9038897E-06  0.2385691E+04  0.7818609E-02  0.8444880E-01
       -1   -1    0    0    0  501  0.00000000000E+00  0.00000000000E+00  0.84208615667E+03  0.84208615668E+03  0.50400001928E-02 0.  1.
        1   -1    0    0  501    0  0.00000000000E+00  0.00000000000E+00 -0.16897092129E+04  0.16897092129E+04  0.50400001928E-02 0. -1.
    10030    2    1    2    0    0  0.00000000000E+00  0.00000000000E+00 -0.84762305622E+03  0.25317953696E+04  0.23856912935E+04 0.  0.
        1    1    3    3  502    0  0.95756468049E+02  0.36016835918E+02  0.83742167900E+03  0.84364778321E+03  0.50400001928E-02 0.  1.
       -1    1    3    3    0  502 -0.95756468049E+02 -0.36016835918E+02 -0.16850447352E+04  0.16881475864E+04  0.50400001928E-02 0. -1.
</event>
<event>
 5   0  0.2087882E-05  0.2398119E+04  0.7818609E-02  0.8440208E-01
       -2   -1    0    0    0  501  0.00000000000E+00  0.00000000000E+00  0.10892485665E+04  0.10892485665E+04  0.25500000920E-02 0.  1.
        2   -1    0    0  501    0  0.00000000000E+00  0.00000000000E+00 -0.13199404487E+04  0.13199404487E+04  0.25500000920E-02 0. -1.
    10030    2    1    2    0    0  0.00000000000E+00  0.00000000000E+00 -0.23069188223E+03  0.24091890151E+04  0.23981186305E+04 0.  0.
        2    1    3    3  502    0 -0.11586197061E+04  0.28870666583E+03 -0.22535981505E+03  0.12151288855E+04  0.25500000920E-02 0.  1.
       -2    1    3    3    0  502  0.11586197061E+04 -0.28870666583E+03 -0.53320671808E+01  0.11940601296E+04  0.25500000920E-02 0. -1.
</event>
<event>
 5   0  0.8898848E-06  0.2389818E+04  0.7818609E-02  0.8443325E-01
       -1   -1    0    0    0  501  0.00000000000E+00  0.00000000000E+00  0.18379204056E+04  0.18379204056E+04  0.50400001928E-02 0.  1.
        1   -1    0    0  501    0  0.00000000000E+00  0.00000000000E+00 -0.77686031838E+03  0.77686031839E+03  0.50400001928E-02 0. -1.
    10030    2    1    2    0    0  0.00000000000E+00  0.00000000000E+00  0.10610600872E+04  0.26147807240E+04  0.23898179273E+04 0.  0.
        5    1    3    3  502    0 -0.66075046998E+03 -0.13059302669E+03  0.16104238827E+04  0.17456038766E+04  0.46999998093E+01 0.  1.
       -5    1    3    3    0  502  0.66075046998E+03  0.13059302669E+03 -0.54936379548E+03  0.86917684735E+03  0.46999998093E+01 0. -1.
</event>
<event>
 5   0  0.2080257E-05  0.2385316E+04  0.7818609E-02  0.8445021E-01
        2   -1    0    0  501    0  0.00000000000E+00  0.00000000000E+00  0.66145661497E+03  0.66145661498E+03  0.25500000920E-02 0.  1.
       -2   -1    0    0    0  501  0.00000000000E+00  0.00000000000E+00 -0.21504565213E+04  0.21504565213E+04  0.25500000920E-02 0. -1.
    10030    2    1    2    0    0  0.00000000000E+00  0.00000000000E+00 -0.14889999063E+04  0.28119131363E+04  0.23853164916E+04 0.  0.
        1    1    3    3  502    0  0.87015578176E+03  0.42770204294E+03  0.74209178038E+02  0.97242332562E+03  0.50400001928E-02 0.  1.
       -1    1    3    3    0  502 -0.87015578176E+03 -0.42770204294E+03 -0.15632090844E+04  0.18394898107E+04  0.50400001928E-02 0. -1.
</event>
<event>
 5   0  0.9038897E-06  0.2372763E+04  0.7818609E-02  0.8449772E-01
        1   -1    0    0  501    0  0.00000000000E+00  0.00000000000E+00  0.14058879152E+04  0.14058879152E+04  0.50400001928E-02 0.  1.
       -1   -1    0    0    0  501  0.00000000000E+00  0.00000000000E+00 -0.10011474956E+04  0.10011474957E+04  0.50400001928E-02 0. -1.
    10030    2    1    2    0    0  0.00000000000E+00  0.00000000000E+00  0.40474041957E+03  0.24070354109E+04  0.23727630859E+04 0.  0.
        1    1    3    3  502    0  0.86982386011E+03 -0.58337568754E+03 -0.36297685559E+03  0.11084552035E+04  0.50400001928E-02 0. -1.
       -1    1    3    3    0  502 -0.86982386011E+03  0.58337568754E+03  0.76771727516E+03  0.12985802074E+04  0.50400001928E-02 0.  1.
</event>
<event>
 5   0  0.9083687E-06  0.2391589E+04  0.7818609E-02  0.8442659E-01
        1   -1    0    0  501    0  0.00000000000E+00  0.00000000000E+00  0.11827995900E+04  0.11827995900E+04  0.50400001928E-02 0.  1.
       -1   -1    0    0    0  501  0.00000000000E+00  0.00000000000E+00 -0.12089320253E+04  0.12089320253E+04  0.50400001928E-02 0. -1.
    10030    2    1    2    0    0  0.00000000000E+00  0.00000000000E+00 -0.26132435281E+02  0.23917316153E+04  0.23915888475E+04 0.  0.
        2    1    3    3  502    0 -0.67972670204E+03  0.36428137344E+03 -0.92701080766E+03  0.12058517098E+04  0.25500000920E-02 0.  1.
       -2    1    3    3    0  502  0.67972670204E+03 -0.36428137344E+03  0.90087837238E+03  0.11858799055E+04  0.25500000920E-02 0. -1.
</event>
<event>
 5   0  0.2025353E-05  0.2394254E+04  0.7818609E-02  0.8441658E-01
       -2   -1    0    0    0  501  0.00000000000E+00  0.00000000000E+00  0.75315449181E+03  0.75315449182E+03  0.25500000920E-02 0. -1.
        2   -1    0    0  501    0  0.00000000000E+00  0.00000000000E+00 -0.19028148687E+04  0.19028148687E+04  0.25500000920E-02 0.  1.
    10030    2    1    2    0    0  0.00000000000E+00  0.00000000000E+00 -0.11496603769E+04  0.26559693605E+04  0.23942544271E+04 0.  0.
        4    1    3    3  502    0 -0.70382229079E+03 -0.71364881691E+03 -0.13009421585E+04  0.16422888185E+04  0.12699999809E+01 0.  1.
       -4    1    3    3    0  502  0.70382229079E+03  0.71364881691E+03  0.15128178158E+03  0.10136805420E+04  0.12699999809E+01 0. -1.
</event>
<event>
 5   0  0.2087882E-05  0.2400470E+04  0.7818609E-02  0.8439328E-01
       -2   -1    0    0    0  501  0.00000000000E+00  0.00000000000E+00  0.93981510341E+03  0.93981510341E+03  0.25500000920E-02 0. -1.
        2   -1    0    0  501    0  0.00000000000E+00  0.00000000000E+00 -0.15328158739E+04  0.15328158739E+04  0.25500000920E-02 0.  1.
    10030    2    1    2    0    0  0.00000000000E+00  0.00000000000E+00 -0.59300077047E+03  0.24726309773E+04  0.24004695449E+04 0.  0.
        2    1    3    3  502    0 -0.87079527259E+03 -0.81453054040E+03 -0.43780701620E+03  0.12702044684E+04  0.25500000920E-02 0.  1.
       -2    1    3    3    0  502  0.87079527259E+03  0.81453054040E+03 -0.15519375426E+03  0.12024265089E+04  0.25500000920E-02 0. -1.
</event>
<event>
 5   0  0.2025353E-05  0.2390073E+04  0.7818609E-02  0.8443229E-01
        2   -1    0    0  501    0  0.00000000000E+00  0.00000000000E+00  0.21498126139E+04  0.21498126139E+04  0.25500000920E-02 0.  1.
       -2   -1    0    0    0  501  0.00000000000E+00  0.00000000000E+00 -0.66429610425E+03  0.66429610425E+03  0.25500000920E-02 0. -1.
    10030    2    1    2    0    0  0.00000000000E+00  0.00000000000E+00  0.14855165097E+04  0.28141087182E+04  0.23900729230E+04 0.  0.
        4    1    3    3  502    0 -0.85527476339E+03  0.82721151398E+03  0.61198178705E+03  0.13380198542E+04  0.12699999809E+01 0.  1.
       -4    1    3    3    0  502  0.85527476339E+03 -0.82721151398E+03  0.87353472265E+03  0.14760888640E+04  0.12699999809E+01 0. -1.
</event>
<event>
 5   0  0.9083687E-06  0.2396359E+04  0.7818609E-02  0.8440868E-01
       -1   -1    0    0    0  501  0.00000000000E+00  0.00000000000E+00  0.85441962793E+03  0.85441962794E+03  0.50400001928E-02 0.  1.
        1   -1    0    0  501    0  0.00000000000E+00  0.00000000000E+00 -0.16802442840E+04  0.16802442840E+04  0.50400001928E-02 0. -1.
    10030    2    1    2    0    0  0.00000000000E+00  0.00000000000E+00 -0.82582465603E+03  0.25346639119E+04  0.23963586509E+04 0.  0.
        2    1    3    3  502    0 -0.10981983458E+04  0.40175460551E+03 -0.68911024243E+03  0.13573206312E+04  0.25500000920E-02 0.  1.
       -2    1    3    3    0  502  0.10981983458E+04 -0.40175460551E+03 -0.13671441360E+03  0.11773432807E+04  0.25500000920E-02 0. -1.
</event>
<event>
 5   0  0.2080257E-05  0.2616797E+04  0.7818609E-02  0.8362518E-01
        2   -1    0    0  501    0  0.00000000000E+00  0.00000000000E+00  0.18917116103E+04  0.18917116103E+04  0.25500000920E-02 0.  1.
       -2   -1    0    0    0  501  0.00000000000E+00  0.00000000000E+00 -0.90495148697E+03  0.90495148697E+03  0.25500000920E-02 0. -1.
    10030    2    1    2    0    0  0.00000000000E+00  0.00000000000E+00  0.98676012331E+03  0.27966630973E+04  0.26167974585E+04 0.  0.
        1    1    3    3  502    0 -0.95000739498E+03 -0.51794338227E+03  0.12795564211E+04  0.16757219437E+04  0.50400001928E-02 0.  1.
       -1    1    3    3    0  502  0.95000739498E+03  0.51794338227E+03 -0.29279629778E+03  0.11209411536E+04  0.50400001928E-02 0. -1.
</event>
<event>
 5   0  0.8528103E-06  0.2410995E+04  0.7818609E-02  0.8435399E-01
       -1   -1    0    0    0  501  0.00000000000E+00  0.00000000000E+00  0.13424450992E+04  0.13424450993E+04  0.50400001928E-02 0. -1.
        1   -1    0    0  501    0  0.00000000000E+00  0.00000000000E+00 -0.10825203614E+04  0.10825203614E+04  0.50400001928E-02 0.  1.
    10030    2    1    2    0    0  0.00000000000E+00  0.00000000000E+00  0.25992473783E+03  0.24249654607E+04  0.24109949432E+04 0.  0.
        4    1    3    3  502    0 -0.19187397711E+03 -0.11031803792E+04  0.57909209566E+03  0.12606235919E+04  0.12699999809E+01 0. -1.
       -4    1    3    3    0  502  0.19187397711E+03  0.11031803792E+04 -0.31916735783E+03  0.11643418688E+04  0.12699999809E+01 0.  1.
</event>
<event>
 5   0  0.9083687E-06  0.2371086E+04  0.7818609E-02  0.8450408E-01
       -1   -1    0    0    0  501  0.00000000000E+00  0.00000000000E+00  0.97680210296E+03  0.97680210298E+03  0.50400001928E-02 0. -1.
        1   -1    0    0  501    0  0.00000000000E+00  0.00000000000E+00 -0.14388919805E+04  0.14388919805E+04  0.50400001928E-02 0.  1.
    10030    2    1    2    0    0  0.00000000000E+00  0.00000000000E+00 -0.46208987754E+03  0.24156940835E+04  0.23710864282E+04 0.  0.
        2    1    3    3  502    0  0.72044915749E+03 -0.39128555129E+03 -0.11035210754E+04  0.13747400246E+04  0.25500000920E-02 0.  1.
       -2    1    3    3    0  502 -0.72044915749E+03  0.39128555129E+03  0.64143119789E+03  0.10409540589E+04  0.25500000920E-02 0. -1.
</event>
<event>
 5   0  0.9038897E-06  0.2390895E+04  0.7818609E-02  0.8442920E-01
       -1   -1    0    0    0  501  0.00000000000E+00  0.00000000000E+00  0.11095899583E+04  0.11095899583E+04  0.50400001928E-02 0. -1.
        1   -1    0    0  501    0  0.00000000000E+00  0.00000000000E+00 -0.12879489487E+04  0.12879489487E+04  0.50400001928E-02 0.  1.
    10030    2    1    2    0    0  0.00000000000E+00  0.00000000000E+00 -0.17835899044E+03  0.23975389070E+04  0.23908954141E+04 0.  0.
        1    1    3    3  502    0 -0.46742640482E+03  0.77414701118E+03  0.69485246718E+03  0.11404433305E+04  0.50400001928E-02 0. -1.
       -1    1    3    3    0  502  0.46742640482E+03 -0.77414701118E+03 -0.87321145762E+03  0.12570955766E+04  0.50400001928E-02 0.  1.
</event>
<event>
 5   0  0.2025353E-05  0.2375600E+04  0.7818609E-02  0.8448695E-01
       -2   -1    0    0    0  501  0.00000000000E+00  0.00000000000E+00  0.96885644107E+03  0.96885644107E+03  0.25500000920E-02 0.  1.
        2   -1    0    0  501    0  0.00000000000E+00  0.00000000000E+00 -0.14562211367E+04  0.14562211367E+04  0.25500000920E-02 0. -1.
    10030    2    1    2    0    0  0.00000000000E+00  0.00000000000E+00 -0.48736469564E+03  0.24250775778E+04  0.23756003266E+04 0.  0.
        4    1    3    3  502    0  0.47171229149E+03  0.10875997510E+04 -0.16810037313E+03  0.11973491775E+04  0.12699999809E+01 0.  1.
       -4    1    3    3    0  502 -0.47171229149E+03 -0.10875997510E+04 -0.31926432251E+03  0.12277284003E+04  0.12699999809E+01 0. -1.
</event>
<event>
 5   0  0.9176817E-06  0.2398318E+04  0.7818609E-02  0.8440134E-01
       -1   -1    0    0    0  501  0.00000000000E+00  0.00000000000E+00  0.73822591340E+03  0.73822591342E+03  0.50400001928E-02 0.  1.
        1   -1    0    0  501    0  0.00000000000E+00  0.00000000000E+00 -0.19478892343E+04  0.19478892343E+04  0.50400001928E-02 0. -1.
    10030    2    1    2    0    0  0.00000000000E+00  0.00000000000E+00 -0.12096633209E+04  0.26861151477E+04  0.23983180016E+04 0.  0.
        3    1    3    3  502    0  0.47847989728E+03  0.10766280473E+04 -0.35461429314E+03  0.12303748500E+04  0.10100000352E+00 0. -1.
       -3    1    3    3    0  502 -0.47847989728E+03 -0.10766280473E+04 -0.85504902777E+03  0.14557402977E+04  0.10100000352E+00 0.  1.
</event>
<event>
 5   0  0.8898848E-06  0.2411752E+04  0.7818609E-02  0.8435117E-01
        1   -1    0    0  501    0  0.00000000000E+00  0.00000000000E+00  0.18356224214E+04  0.18356224214E+04  0.50400001928E-02 0. -1.
       -1   -1    0    0    0  501  0.00000000000E+00  0.00000000000E+00 -0.79217648305E+03  0.79217648307E+03  0.50400001928E-02 0.  1.
    10030    2    1    2    0    0  0.00000000000E+00  0.00000000000E+00  0.10434459383E+04  0.26277989044E+04  0.24117519889E+04 0.  0.
        5    1    3    3  502    0 -0.35640071683E+03  0.37388996789E+03 -0.66552012161E+03  0.84246916935E+03  0.46999998093E+01 0.  1.
       -5    1    3    3    0  502  0.35640071683E+03 -0.37388996789E+03  0.17089660599E+04  0.17853297351E+04  0.46999998093E+01 0. -1.
</event>
<event>
 5   0  0.9176817E-06  0.2387002E+04  0.7818609E-02  0.8444386E-01
       -1   -1    0    0    0  501  0.00000000000E+00  0.00000000000E+00  0.81332305720E+03  0.81332305722E+03  0.50400001928E-02 0. -1.
        1   -1    0    0  501    0  0.00000000000E+00  0.00000000000E+00 -0.17513890489E+04  0.17513890489E+04  0.50400001928E-02 0.  1.
    10030    2    1    2    0    0  0.00000000000E+00  0.00000000000E+00 -0.93806599165E+03  0.25647121061E+04  0.23870023842E+04 0.  0.
        3    1    3    3  502    0 -0.97991369829E+03  0.32717703241E+03  0.17309691855E+03  0.10474913938E+04  0.10100000352E+00 0. -1.
       -3    1    3    3    0  502  0.97991369829E+03 -0.32717703241E+03 -0.11111629102E+04  0.15172207123E+04  0.10100000352E+00 0.  1.
</event>
<event>
 5   0  0.2087882E-05  0.2339231E+04  0.7818609E-02  0.8462611E-01
       -2   -1    0    0    0  501  0.00000000000E+00  0.00000000000E+00  0.65654416427E+03  0.65654416427E+03  0.25500000920E-02 0.  1.
        2   -1    0    0  501    0  0.00000000000E+00  0.00000000000E+00 -0.20836387803E+04  0.20836387803E+04  0.25500000920E-02 0. -1.
    10030    2    1    2    0    0  0.00000000000E+00  0.00000000000E+00 -0.14270946161E+04  0.27401829446E+04  0.23392313966E+04 0.  0.
        2    1    3    3  502    0  0.19211579606E+03 -0.40338721697E+03  0.55263659471E+03  0.71065950477E+03  0.25500000920E-02 0.  1.
       -2    1    3    3    0  502 -0.19211579606E+03  0.40338721697E+03 -0.19797312108E+04  0.20295234398E+04  0.25500000920E-02 0. -1.
</event>
<event>
 5   0  0.2087882E-05  0.2395578E+04  0.7818609E-02  0.8441161E-01
        2   -1    0    0  501    0  0.00000000000E+00  0.00000000000E+00  0.12534111195E+04  0.12534111195E+04  0.25500000920E-02 0.  1.
       -2   -1    0    0    0  501  0.00000000000E+00  0.00000000000E+00 -0.11446352231E+04  0.11446352231E+04  0.25500000920E-02 0. -1.
    10030    2    1    2    0    0  0.00000000000E+00  0.00000000000E+00  0.10877589639E+03  0.23980463427E+04  0.23955780233E+04 0.  0.
        2    1    3    3  502    0  0.14393320231E+03  0.64700517039E+03  0.10530962621E+04  0.12443247946E+04  0.25500000920E-02 0.  1.
       -2    1    3    3    0  502 -0.14393320231E+03 -0.64700517039E+03 -0.94432036573E+03  0.11537215480E+04  0.25500000920E-02 0. -1.
</event>
<event>
 5   0  0.2025353E-05  0.2385781E+04  0.7818609E-02  0.8444846E-01
        2   -1    0    0  501    0  0.00000000000E+00  0.00000000000E+00  0.11600206777E+04  0.11600206777E+04  0.25500000920E-02 0.  1.
       -2   -1    0    0    0  501  0.00000000000E+00  0.00000000000E+00 -0.12266917779E+04  0.12266917779E+04  0.25500000920E-02 0. -1.
    10030    2    1    2    0    0  0.00000000000E+00  0.00000000000E+00 -0.66671100187E+02  0.23867124556E+04  0.23857810691E+04 0.  0.
        4    1    3    3  502    0  0.70480182911E+03 -0.21012676808E+03  0.90622615048E+03  0.11671102457E+04  0.12699999809E+01 0.  1.
       -4    1    3    3    0  502 -0.70480182911E+03  0.21012676808E+03 -0.97289725066E+03  0.12196022098E+04  0.12699999809E+01 0. -1.
</event>
<event>
 5   0  0.7233625E-06  0.2401402E+04  0.7818609E-02  0.8438979E-01
        3   -1    0    0  501    0  0.00000000000E+00  0.00000000000E+00  0.82045233110E+03  0.82045233732E+03  0.10100000352E+00 0.  1.
       -3   -1    0    0    0  501  0.00000000000E+00  0.00000000000E+00 -0.17571800997E+04  0.17571801026E+04  0.10100000352E+00 0. -1.
    10030    2    1    2    0    0  0.00000000000E+00  0.00000000000E+00 -0.93672776855E+03  0.25776324399E+04  0.24014016912E+04 0.  0.
        4    1    3    3  502    0  0.86159525944E+03 -0.56244999443E+03  0.19590940110E+03  0.10474151487E+04  0.12699999809E+01 0. -1.
       -4    1    3    3    0  502 -0.86159525944E+03  0.56244999443E+03 -0.11326371697E+04  0.15302172912E+04  0.12699999809E+01 0.  1.
</event>
<event>
 5   0  0.9176817E-06  0.2395955E+04  0.7818609E-02  0.8441019E-01
       -1   -1    0    0    0  501  0.00000000000E+00  0.00000000000E+00  0.14647935690E+04  0.14647935690E+04  0.50400001928E-02 0. -1.
        1   -1    0    0  501    0  0.00000000000E+00  0.00000000000E+00 -0.97976274840E+03  0.97976274841E+03  0.50400001928E-02 0.  1.
    10030    2    1    2    0    0  0.00000000000E+00  0.00000000000E+00  0.48503082059E+03  0.24445563174E+04  0.23959550689E+04 0.  0.
        3    1    3    3  502    0 -0.93517682904E+02 -0.98171853029E+03 -0.45145321760E+03  0.10845860259E+04  0.10100000352E+00 0.  1.
       -3    1    3    3    0  502  0.93517682904E+02  0.98171853029E+03  0.93648403820E+03  0.13599702915E+04  0.10100000352E+00 0. -1.
</event>
<event>
 5   0  0.8528103E-06  0.2382837E+04  0.7818609E-02  0.8445957E-01
        1   -1    0    0  501    0  0.00000000000E+00  0.00000000000E+00  0.23940192917E+04  0.23940192917E+04  0.50400001928E-02 0.  1.
       -1   -1    0    0    0  501  0.00000000000E+00  0.00000000000E+00 -0.59292691912E+03  0.59292691914E+03  0.50400001928E-02 0. -1.
    10030    2    1    2    0    0  0.00000000000E+00  0.00000000000E+00  0.18010923726E+04  0.29869462109E+04  0.23828373700E+04 0.  0.
        4    1    3    3  502    0 -0.35414271521E+03  0.11240777369E+04  0.68159498463E+03  0.13614481838E+04  0.12699999809E+01 0. -1.
       -4    1    3    3    0  502  0.35414271521E+03 -0.11240777369E+04  0.11194973880E+04  0.16254980270E+04  0.12699999809E+01 0.  1.
</event>
<event>
 5   0  0.2048028E-05  0.2406426E+04  0.7818609E-02  0.8437102E-01
        2   -1    0    0  501    0  0.00000000000E+00  0.00000000000E+00  0.22950015325E+04  0.22950015325E+04  0.25500000920E-02 0. -1.
       -2   -1    0    0    0  501  0.00000000000E+00  0.00000000000E+00 -0.63081510327E+03  0.63081510328E+03  0.25500000920E-02 0.  1.
    10030    2    1    2    0    0  0.00000000000E+00  0.00000000000E+00  0.16641864292E+04  0.29258166357E+04  0.24064260876E+04 0.  0.
        5    1    3    3  502    0  0.35449490040E+03  0.68042351299E+03 -0.29480711136E+03  0.82193437350E+03  0.46999998093E+01 0.  1.
       -5    1    3    3    0  502 -0.35449490040E+03 -0.68042351299E+03  0.19589935406E+04  0.21038822622E+04  0.46999998093E+01 0. -1.
</event>
<event>
 5   0  0.9176817E-06  0.2453718E+04  0.7818609E-02  0.8419662E-01
        1   -1    0    0  501    0  0.00000000000E+00  0.00000000000E+00  0.23123273655E+04  0.23123273655E+04  0.50400001928E-02 0.  1.
       -1   -1    0    0    0  501  0.00000000000E+00  0.00000000000E+00 -0.65093860420E+03  0.65093860422E+03  0.50400001928E-02 0. -1.
    10030    2    1    2    0    0  0.00000000000E+00  0.00000000000E+00  0.16613887613E+04  0.29632659697E+04  0.24537181157E+04 0.  0.
        3    1    3    3  502    0  0.76772993194E+03  0.79537771905E+03  0.14733123217E+04  0.18419240408E+04  0.10100000352E+00 0. -1.
       -3    1    3    3    0  502 -0.76772993194E+03 -0.79537771905E+03  0.18807643956E+03  0.11213419290E+04  0.10100000352E+00 0.  1.
</event>
<event>
 5   0  0.9083687E-06  0.2384938E+04  0.7818609E-02  0.8445164E-01
        1   -1    0    0  501    0  0.00000000000E+00  0.00000000000E+00  0.19304029979E+04  0.19304029979E+04  0.50400001928E-02 0. -1.
       -1   -1    0    0    0  501  0.00000000000E+00  0.00000000000E+00 -0.73662456649E+03  0.73662456651E+03  0.50400001928E-02 0.  1.
    10030    2    1    2    0    0  0.00000000000E+00  0.00000000000E+00  0.11937784314E+04  0.26670275644E+04  0.23849379627E+04 0.  0.
        2    1    3    3  502    0  0.12236414302E+03 -0.11270296142E+03  0.19173626641E+04  0.19245660619E+04  0.25500000920E-02 0. -1.
       -2    1    3    3    0  502 -0.12236414302E+03  0.11270296142E+03 -0.72358423264E+03  0.74246150254E+03  0.25500000920E-02 0.  1.
</event>
<event>
 5   0  0.2122194E-05  0.2366845E+04  0.7818609E-02  0.8452022E-01
        2   -1    0    0  501    0  0.00000000000E+00  0.00000000000E+00  0.16819297249E+04  0.16819297249E+04  0.25500000920E-02 0. -1.
       -2   -1    0    0    0  501  0.00000000000E+00  0.00000000000E+00 -0.83266756553E+03  0.83266756554E+03  0.25500000920E-02 0.  1.
    10030    2    1    2    0    0  0.00000000000E+00  0.00000000000E+00  0.84926215936E+03  0.25145972904E+04  0.23668445910E+04 0.  0.
        3    1    3    3  502    0  0.80507964786E+02  0.11760429827E+04  0.53570257415E+03  0.12948111398E+04  0.10100000352E+00 0. -1.
       -3    1    3    3    0  502 -0.80507964786E+02 -0.11760429827E+04  0.31355958521E+03  0.12197861506E+04  0.10100000352E+00 0.  1.
</event>
<event>
 5   0  0.9176817E-06  0.2373098E+04  0.7818609E-02  0.8449645E-01
        1   -1    0    0  501    0  0.00000000000E+00  0.00000000000E+00  0.84078163785E+03  0.84078163786E+03  0.50400001928E-02 0.  1.
       -1   -1    0    0    0  501  0.00000000000E+00  0.00000000000E+00 -0.16745110179E+04  0.16745110179E+04  0.50400001928E-02 0. -1.
    10030    2    1    2    0    0  0.00000000000E+00  0.00000000000E+00 -0.83372938001E+03  0.25152926557E+04  0.23730976518E+04 0.  0.
        3    1    3    3  502    0  0.59113821624E+03 -0.37569373970E+03  0.59828593642E+03  0.92116027306E+03  0.10100000352E+00 0.  1.
       -3    1    3    3    0  502 -0.59113821624E+03  0.37569373970E+03 -0.14320153164E+04  0.15941323827E+04  0.10100000352E+00 0. -1.
</event>
<event>
 5   0  0.9176817E-06  0.2326889E+04  0.7818609E-02  0.8467394E-01
        1   -1    0    0  501    0  0.00000000000E+00  0.00000000000E+00  0.90585678174E+03  0.90585678175E+03  0.50400001928E-02 0.  1.
       -1   -1    0    0    0  501  0.00000000000E+00  0.00000000000E+00 -0.14942797343E+04  0.14942797343E+04  0.50400001928E-02 0. -1.
    10030    2    1    2    0    0  0.00000000000E+00  0.00000000000E+00 -0.58842295253E+03  0.24001365160E+04  0.23268892807E+04 0.  0.
        3    1    3    3  502    0  0.43766403487E+03 -0.71914276143E+03  0.53411613518E+03  0.99699356808E+03  0.10100000352E+00 0.  1.
       -3    1    3    3    0  502 -0.43766403487E+03  0.71914276143E+03 -0.11225390877E+04  0.14031429479E+04  0.10100000352E+00 0. -1.
</event>
<event>
 5   0  0.9176817E-06  0.2359419E+04  0.7818609E-02  0.8454855E-01
        1   -1    0    0  501    0  0.00000000000E+00  0.00000000000E+00  0.15474934764E+04  0.15474934764E+04  0.50400001928E-02 0.  1.
       -1   -1    0    0    0  501  0.00000000000E+00  0.00000000000E+00 -0.89933467167E+03  0.89933467169E+03  0.50400001928E-02 0. -1.
    10030    2    1    2    0    0  0.00000000000E+00  0.00000000000E+00  0.64815880472E+03  0.24468281481E+04  0.23594190281E+04 0.  0.
        3    1    3    3  502    0  0.10962879653E+04 -0.40984404433E+03  0.47753109988E+03  0.12640630542E+04  0.10100000352E+00 0.  1.
       -3    1    3    3    0  502 -0.10962879653E+04  0.40984404433E+03  0.17062770484E+03  0.11827650939E+04  0.10100000352E+00 0. -1.
</event>
<event>
 5   0  0.7233625E-06  0.2409620E+04  0.7818609E-02  0.8435911E-01
       -4   -1    0    0    0  501  0.00000000000E+00  0.00000000000E+00  0.16948007342E+04  0.16948012100E+04  0.12699999809E+01 0.  1.
        4   -1    0    0  501    0  0.00000000000E+00  0.00000000000E+00 -0.85648161147E+03  0.85648255306E+03  0.12699999809E+01 0. -1.
    10030    2    1    2    0    0  0.00000000000E+00  0.00000000000E+00  0.83831912271E+03  0.25512837631E+04  0.24096202789E+04 0.  0.
        2    1    3    3  502    0  0.29756738152E+03 -0.12106364472E+03 -0.81029885952E+03  0.87165761303E+03  0.25500000920E-02 0. -1.
       -2    1    3    3    0  502 -0.29756738152E+03  0.12106364472E+03  0.16486179822E+04  0.16796261501E+04  0.25500000920E-02 0.  1.
</event>
<event>
 5   0  0.8528103E-06  0.2348444E+04  0.7818609E-02  0.8459062E-01
        1   -1    0    0  501    0  0.00000000000E+00  0.00000000000E+00  0.19149003875E+04  0.19149003875E+04  0.50400001928E-02 0.  1.
       -1   -1    0    0    0  501  0.00000000000E+00  0.00000000000E+00 -0.72003583466E+03  0.72003583468E+03  0.50400001928E-02 0. -1.
    10030    2    1    2    0    0  0.00000000000E+00  0.00000000000E+00  0.11948645528E+04  0.26349362222E+04  0.23484436539E+04 0.  0.
        4    1    3    3  502    0  0.28388804047E+03 -0.13562873436E+03  0.18667265614E+04  0.18930550022E+04  0.12699999809E+01 0.  1.
       -4    1    3    3    0  502 -0.28388804047E+03  0.13562873436E+03 -0.67186200861E+03  0.74188122002E+03  0.12699999809E+01 0. -1.
</event>
<event>
 5   0  0.8528103E-06  0.2392866E+04  0.7818609E-02  0.8442179E-01
       -1   -1    0    0    0  501  0.00000000000E+00  0.00000000000E+00  0.80647367526E+03  0.80647367528E+03  0.50400001928E-02 0.  1.
        1   -1    0    0  501    0  0.00000000000E+00  0.00000000000E+00 -0.17749515752E+04  0.17749515752E+04  0.50400001928E-02 0. -1.
    10030    2    1    2    0    0  0.00000000000E+00  0.00000000000E+00 -0.96847789992E+03  0.25814252505E+04  0.23928658301E+04 0.  0.
        4    1    3    3  502    0 -0.66004705978E+03  0.99080241911E+03 -0.61233285607E+03  0.13387698437E+04  0.12699999809E+01 0. -1.
       -4    1    3    3    0  502  0.66004705978E+03 -0.99080241911E+03 -0.35614504384E+03  0.12426554068E+04  0.12699999809E+01 0.  1.
</event>
<event>
 5   0  0.2122194E-05  0.2368685E+04  0.7818609E-02  0.8451321E-01
       -2   -1    0    0    0  501  0.00000000000E+00  0.00000000000E+00  0.10564502641E+04  0.10564502641E+04  0.25500000920E-02 0. -1.
        2   -1    0    0  501    0  0.00000000000E+00  0.00000000000E+00 -0.13277176867E+04  0.13277176867E+04  0.25500000920E-02 0.  1.
    10030    2    1    2    0    0  0.00000000000E+00  0.00000000000E+00 -0.27126742261E+03  0.23841679509E+04  0.23686854589E+04 0.  0.
        3    1    3    3  502    0  0.90200595287E+02  0.63849196409E+03 -0.11355349973E+04  0.13058513988E+04  0.10100000352E+00 0.  1.
       -3    1    3    3    0  502 -0.90200595287E+02 -0.63849196409E+03  0.86426757467E+03  0.10783165520E+04  0.10100000352E+00 0. -1.
</event>
<event>
 5   0  0.2025353E-05  0.2399909E+04  0.7818609E-02  0.8439537E-01
        2   -1    0    0  501    0  0.00000000000E+00  0.00000000000E+00  0.10639511244E+04  0.10639511244E+04  0.25500000920E-02 0.  1.
       -2   -1    0    0    0  501  0.00000000000E+00  0.00000000000E+00 -0.13533434816E+04  0.13533434816E+04  0.25500000920E-02 0. -1.
    10030    2    1    2    0    0  0.00000000000E+00  0.00000000000E+00 -0.28939235718E+03  0.24172946060E+04  0.23999094308E+04 0.  0.
        4    1    3    3  502    0  0.37581181748E+03  0.57979714069E+03  0.84347673920E+03  0.10903457566E+04  0.12699999809E+01 0.  1.
       -4    1    3    3    0  502 -0.37581181748E+03 -0.57979714069E+03 -0.11328690964E+04  0.13269488494E+04  0.12699999809E+01 0. -1.
</event>
<event>
 5   0  0.2025353E-05  0.2397853E+04  0.7818609E-02  0.8440308E-01
       -2   -1    0    0    0  501  0.00000000000E+00  0.00000000000E+00  0.79239412102E+03  0.79239412102E+03  0.25500000920E-02 0.  1.
        2   -1    0    0  501    0  0.00000000000E+00  0.00000000000E+00 -0.18140277516E+04  0.18140277516E+04  0.25500000920E-02 0. -1.
    10030    2    1    2    0    0  0.00000000000E+00  0.00000000000E+00 -0.10216336306E+04  0.26064218727E+04  0.23978531446E+04 0.  0.
        4    1    3    3  502    0 -0.10223311607E+03  0.10810014924E+04 -0.10633707392E+04  0.15197943211E+04  0.12699999809E+01 0. -1.
       -4    1    3    3    0  502  0.10223311607E+03 -0.10810014924E+04  0.41737108627E+02  0.10866275515E+04  0.12699999809E+01 0.  1.
</event>
<event>
 5   0  0.8898848E-06  0.2399629E+04  0.7818609E-02  0.8439643E-01
       -1   -1    0    0    0  501  0.00000000000E+00  0.00000000000E+00  0.12718502867E+04  0.12718502867E+04  0.50400001928E-02 0.  1.
        1   -1    0    0  501    0  0.00000000000E+00  0.00000000000E+00 -0.11318584792E+04  0.11318584792E+04  0.50400001928E-02 0. -1.
    10030    2    1    2    0    0  0.00000000000E+00  0.00000000000E+00  0.13999180753E+03  0.24037087659E+04  0.23996287473E+04 0.  0.
        5    1    3    3  502    0 -0.51864333109E+03  0.10810689774E+04  0.27128251929E+02  0.11993577743E+04  0.46999998093E+01 0. -1.
       -5    1    3    3    0  502  0.51864333109E+03 -0.10810689774E+04  0.11286355560E+03  0.12043509916E+04  0.46999998093E+01 0.  1.
</event>
<event>
 5   0  0.9176817E-06  0.2404275E+04  0.7818609E-02  0.8437905E-01
        1   -1    0    0  501    0  0.00000000000E+00  0.00000000000E+00  0.92001045214E+03  0.92001045216E+03  0.50400001928E-02 0. -1.
       -1   -1    0    0    0  501  0.00000000000E+00  0.00000000000E+00 -0.15707810633E+04  0.15707810634E+04  0.50400001928E-02 0.  1.
    10030    2    1    2    0    0  0.00000000000E+00  0.00000000000E+00 -0.65077061120E+03  0.24907915155E+04  0.24042753556E+04 0.  0.
        3    1    3    3  502    0 -0.71235528577E+03 -0.44668657848E+03 -0.12154616519E+04  0.14779465450E+04  0.10100000352E+00 0.  1.
       -3    1    3    3    0  502  0.71235528577E+03  0.44668657848E+03  0.56469104069E+03  0.10128449705E+04  0.10100000352E+00 0. -1.
</event>
<event>
 5   0  0.2025353E-05  0.2380216E+04  0.7818609E-02  0.8446948E-01
       -2   -1    0    0    0  501  0.00000000000E+00  0.00000000000E+00  0.10879671319E+04  0.10879671320E+04  0.25500000920E-02 0.  1.
        2   -1    0    0  501    0  0.00000000000E+00  0.00000000000E+00 -0.13018379253E+04  0.13018379254E+04  0.25500000920E-02 0. -1.
    10030    2    1    2    0    0  0.00000000000E+00  0.00000000000E+00 -0.21387079340E+03  0.23898050573E+04  0.23802158506E+04 0.  0.
        4    1    3    3  502    0 -0.84267434574E+03 -0.70640567113E+03  0.35014169831E+03  0.11539973340E+04  0.12699999809E+01 0.  1.
       -4    1    3    3    0  502  0.84267434574E+03  0.70640567113E+03 -0.56401249171E+03  0.12358077233E+04  0.12699999809E+01 0. -1.
</event>
<event>
 5   0  0.2048028E-05  0.2422884E+04  0.7818609E-02  0.8430985E-01
        2   -1    0    0  501    0  0.00000000000E+00  0.00000000000E+00  0.10323571365E+04  0.10323571365E+04  0.25500000920E-02 0. -1.
       -2   -1    0    0    0  501  0.00000000000E+00  0.00000000000E+00 -0.14215932138E+04  0.14215932138E+04  0.25500000920E-02 0.  1.
    10030    2    1    2    0    0  0.00000000000E+00  0.00000000000E+00 -0.38923607733E+03  0.24539503503E+04  0.24228841487E+04 0.  0.
        5    1    3    3  502    0 -0.82542074754E+02  0.88272438654E+03  0.64153032725E+03  0.10943485676E+04  0.46999998093E+01 0. -1.
       -5    1    3    3    0  502  0.82542074754E+02 -0.88272438654E+03 -0.10307664046E+04  0.13596017827E+04  0.46999998093E+01 0.  1.
</event>
<event>
 5   0  0.8898848E-06  0.2406309E+04  0.7818609E-02  0.8437145E-01
        1   -1    0    0  501    0  0.00000000000E+00  0.00000000000E+00  0.72737771684E+03  0.72737771686E+03  0.50400001928E-02 0.  1.
       -1   -1    0    0    0  501  0.00000000000E+00  0.00000000000E+00 -0.19901364644E+04  0.19901364644E+04  0.50400001928E-02 0. -1.
    10030    2    1    2    0    0  0.00000000000E+00  0.00000000000E+00 -0.12627587475E+04  0.27175141812E+04  0.24063091387E+04 0.  0.
        5    1    3    3  502    0  0.21004313196E+03 -0.47699941672E+03  0.59325898671E+03  0.78969923144E+03  0.46999998093E+01 0.  1.
       -5    1    3    3    0  502 -0.21004313196E+03  0.47699941672E+03 -0.18560177343E+04  0.19278149498E+04  0.46999998093E+01 0. -1.
</event>
<event>
 5   0  0.9176817E-06  0.2439854E+04  0.7818609E-02  0.8424732E-01
        1   -1    0    0  501    0  0.00000000000E+00  0.00000000000E+00  0.12539304225E+04  0.12539304225E+04  0.50400001928E-02 0.  1.
       -1   -1    0    0    0  501  0.00000000000E+00  0.00000000000E+00 -0.11868451960E+04  0.11868451960E+04  0.50400001928E-02 0. -1.
    10030    2    1    2    0    0  0.00000000000E+00  0.00000000000E+00  0.67085226475E+02  0.24407756185E+04  0.24398535186E+04 0.  0.
        3    1    3    3  502    0  0.77821029731E+03 -0.57675660718E+03  0.77541700461E+03  0.12407783815E+04  0.10100000352E+00 0.  1.
       -3    1    3    3    0  502 -0.77821029731E+03  0.57675660718E+03 -0.70833177814E+03  0.11999972370E+04  0.10100000352E+00 0. -1.
</event>
<event>
 5   0  0.2087882E-05  0.2438718E+04  0.7818609E-02  0.8425149E-01
       -2   -1    0    0    0  501  0.00000000000E+00  0.00000000000E+00  0.15147978939E+04  0.15147978939E+04  0.25500000920E-02 0.  1.
        2   -1    0    0  501    0  0.00000000000E+00  0.00000000000E+00 -0.98154086482E+03  0.98154086483E+03  0.25500000920E-02 0. -1.
    10030    2    1    2    0    0  0.00000000000E+00  0.00000000000E+00  0.53325702904E+03  0.24963387587E+04  0.24387177244E+04 0.  0.
        2    1    3    3  502    0 -0.41928265188E+03  0.10591422304E+04  0.71194278901E+03  0.13432954780E+04  0.25500000920E-02 0.  1.
       -2    1    3    3    0  502  0.41928265188E+03 -0.10591422304E+04 -0.17868575997E+03  0.11530432807E+04  0.25500000920E-02 0. -1.
</event>
<event>
 5   0  0.2048028E-05  0.2466027E+04  0.7818609E-02  0.8415189E-01
       -2   -1    0    0    0  501  0.00000000000E+00  0.00000000000E+00  0.82520371993E+03  0.82520371993E+03  0.25500000920E-02 0.  1.
        2   -1    0    0  501    0  0.00000000000E+00  0.00000000000E+00 -0.18423603115E+04  0.18423603115E+04  0.25500000920E-02 0. -1.
    10030    2    1    2    0    0  0.00000000000E+00  0.00000000000E+00 -0.10171565916E+04  0.26675640314E+04  0.24660272363E+04 0.  0.
        5    1    3    3  502    0  0.21009172201E+03 -0.10457192388E+04 -0.11777049475E+04  0.15889236267E+04  0.46999998093E+01 0. -1.
       -5    1    3    3    0  502 -0.21009172201E+03  0.10457192388E+04  0.16054835594E+03  0.10786404047E+04  0.46999998093E+01 0.  1.
</event>
<event>
 5   0  0.2080257E-05  0.2387521E+04  0.7818609E-02  0.8444190E-01
        2   -1    0    0  501    0  0.00000000000E+00  0.00000000000E+00  0.73819649605E+03  0.73819649605E+03  0.25500000920E-02 0.  1.
       -2   -1    0    0    0  501  0.00000000000E+00  0.00000000000E+00 -0.19304666762E+04  0.19304666762E+04  0.25500000920E-02 0. -1.
    10030    2    1    2    0    0  0.00000000000E+00  0.00000000000E+00 -0.11922701802E+04  0.26686631723E+04  0.23875206689E+04 0.  0.
        1    1    3    3  502    0  0.79907119463E+03 -0.65686154924E+03  0.69921101527E+02  0.10367597742E+04  0.50400001928E-02 0.  1.
       -1    1    3    3    0  502 -0.79907119463E+03  0.65686154924E+03 -0.12621912817E+04  0.16319033980E+04  0.50400001928E-02 0. -1.
</event>
<event>
 5   0  0.2025353E-05  0.2392266E+04  0.7818609E-02  0.8442405E-01
        2   -1    0    0  501    0  0.00000000000E+00  0.00000000000E+00  0.10417415319E+04  0.10417415319E+04  0.25500000920E-02 0. -1.
       -2   -1    0    0    0  501  0.00000000000E+00  0.00000000000E+00 -0.13734065065E+04  0.13734065065E+04  0.25500000920E-02 0.  1.
    10030    2    1    2    0    0  0.00000000000E+00  0.00000000000E+00 -0.33166497456E+03  0.24151480384E+04  0.23922663714E+04 0.  0.
        4    1    3    3  502    0  0.84877232193E+03  0.76183993021E+03  0.19805710840E+03  0.11576021617E+04  0.12699999809E+01 0. -1.
       -4    1    3    3    0  502 -0.84877232193E+03 -0.76183993021E+03 -0.52972208297E+03  0.12575458766E+04  0.12699999809E+01 0.  1.
</event>
<event>
 5   0  0.2048028E-05  0.2362420E+04  0.7818609E-02  0.8453708E-01
        2   -1    0    0  501    0  0.00000000000E+00  0.00000000000E+00  0.11152296209E+04  0.11152296209E+04  0.25500000920E-02 0. -1.
       -2   -1    0    0    0  501  0.00000000000E+00  0.00000000000E+00 -0.12510938255E+04  0.12510938255E+04  0.25500000920E-02 0.  1.
    10030    2    1    2    0    0  0.00000000000E+00  0.00000000000E+00 -0.13586420465E+03  0.23663234464E+04  0.23624198549E+04 0.  0.
        5    1    3    3  502    0 -0.45673196955E+03 -0.45826656412E+03 -0.10578071533E+04  0.12399961288E+04  0.46999998093E+01 0.  1.
       -5    1    3    3    0  502  0.45673196955E+03  0.45826656412E+03  0.92194294864E+03  0.11263273176E+04  0.46999998093E+01 0. -1.
</event>
<event>
 5   0  0.2122194E-05  0.2408678E+04  0.7818609E-02  0.8436262E-01
       -2   -1    0    0    0  501  0.00000000000E+00  0.00000000000E+00  0.93534985158E+03  0.93534985159E+03  0.25500000920E-02 0. -1.
        2   -1    0    0  501    0  0.00000000000E+00  0.00000000000E+00 -0.15506838021E+04  0.15506838021E+04  0.25500000920E-02 0.  1.
    10030    2    1    2    0    0  0.00000000000E+00  0.00000000000E+00 -0.61533395049E+03  0.24860336537E+04  0.24086775327E+04 0.  0.
        3    1    3    3  502    0  0.10860349484E+04  0.11071113719E+03  0.21729647190E+03  0.11130797959E+04  0.10100000352E+00 0. -1.
       -3    1    3    3    0  502 -0.10860349484E+04 -0.11071113719E+03 -0.83263042239E+03  0.13729538578E+04  0.10100000352E+00 0.  1.
</event>
<event>
 5   0  0.8528103E-06  0.2376050E+04  0.7818609E-02  0.8448525E-01
       -1   -1    0    0    0  501  0.00000000000E+00  0.00000000000E+00  0.63016388903E+03  0.63016388905E+03  0.50400001928E-02 0.  1.
        1   -1    0    0  501    0  0.00000000000E+00  0.00000000000E+00 -0.22397402666E+04  0.22397402666E+04  0.50400001928E-02 0. -1.
    10030    2    1    2    0    0  0.00000000000E+00  0.00000000000E+00 -0.16095763776E+04  0.28699041557E+04  0.23760500305E+04 0.  0.
        4    1    3    3  502    0 -0.51376463314E+03 -0.10705586997E+04 -0.76037955428E+03  0.14100456401E+04  0.12699999809E+01 0.  1.
       -4    1    3    3    0  502  0.51376463314E+03  0.10705586997E+04 -0.84919682332E+03  0.14598585156E+04  0.12699999809E+01 0. -1.
</event>
<event>
 5   0  0.2048028E-05  0.2389641E+04  0.7818609E-02  0.8443392E-01
        2   -1    0    0  501    0  0.00000000000E+00  0.00000000000E+00  0.81303452187E+03  0.81303452187E+03  0.25500000920E-02 0. -1.
       -2   -1    0    0    0  501  0.00000000000E+00  0.00000000000E+00 -0.17558860843E+04  0.17558860843E+04  0.25500000920E-02 0.  1.
    10030    2    1    2    0    0  0.00000000000E+00  0.00000000000E+00 -0.94285156247E+03  0.25689206062E+04  0.23896409798E+04 0.  0.
        5    1    3    3  502    0 -0.50542290413E+03  0.52606291909E+03  0.54580987738E+03  0.91111196848E+03  0.46999998093E+01 0. -1.
       -5    1    3    3    0  502  0.50542290413E+03 -0.52606291909E+03 -0.14886614399E+04  0.16578086377E+04  0.46999998093E+01 0.  1.
</event>
<event>
 5   0  0.8898848E-06  0.2375221E+04  0.7818609E-02  0.8448839E-01
        1   -1    0    0  501    0  0.00000000000E+00  0.00000000000E+00  0.11069435902E+04  0.11069435902E+04  0.50400001928E-02 0.  1.
       -1   -1    0    0    0  501  0.00000000000E+00  0.00000000000E+00 -0.12741560122E+04  0.12741560122E+04  0.50400001928E-02 0. -1.
    10030    2    1    2    0    0  0.00000000000E+00  0.00000000000E+00 -0.16721242195E+03  0.23810996024E+04  0.23752211102E+04 0.  0.
        5    1    3    3  502    0 -0.25235601242E+03  0.92396723287E+03  0.62026950247E+03  0.11411202172E+04  0.46999998093E+01 0.  1.
       -5    1    3    3    0  502  0.25235601242E+03 -0.92396723287E+03 -0.78748192443E+03  0.12399793852E+04  0.46999998093E+01 0. -1.
</event>
<event>
 5   0  0.8898848E-06  0.2429563E+04  0.7818609E-02  0.8428518E-01
        1   -1    0    0  501    0  0.00000000000E+00  0.00000000000E+00  0.24660499345E+04  0.24660499345E+04  0.50400001928E-02 0.  1.
       -1   -1    0    0    0  501  0.00000000000E+00  0.00000000000E+00 -0.59840383928E+03  0.59840383930E+03  0.50400001928E-02 0. -1.
    10030    2    1    2    0    0  0.00000000000E+00  0.00000000000E+00  0.18676460953E+04  0.30644537738E+04  0.24295627168E+04 0.  0.
        5    1    3    3  502    0 -0.22049199367E+03  0.89163359473E+03 -0.68941055725E+02  0.92108747993E+03  0.46999998093E+01 0. -1.
       -5    1    3    3    0  502  0.22049199367E+03 -0.89163359473E+03  0.19365871510E+04  0.21433662939E+04  0.46999998093E+01 0.  1.
</event>
<event>
 5   0  0.8898848E-06  0.2401129E+04  0.7818609E-02  0.8439081E-01
       -1   -1    0    0    0  501  0.00000000000E+00  0.00000000000E+00  0.23024365545E+04  0.23024365545E+04  0.50400001928E-02 0. -1.
        1   -1    0    0  501    0  0.00000000000E+00  0.00000000000E+00 -0.62601291641E+03  0.62601291643E+03  0.50400001928E-02 0.  1.
    10030    2    1    2    0    0  0.00000000000E+00  0.00000000000E+00  0.16764236381E+04  0.29284494709E+04  0.24011289198E+04 0.  0.
        5    1    3    3  502    0 -0.57034292536E+03  0.56879575628E+03  0.19239510416E+04  0.20857682914E+04  0.46999998093E+01 0. -1.
       -5    1    3    3    0  502  0.57034292536E+03 -0.56879575628E+03 -0.24752740352E+03  0.84268117954E+03  0.46999998093E+01 0.  1.
</event>
<event>
 5   0  0.9038897E-06  0.2295553E+04  0.7818609E-02  0.8479677E-01
        1   -1    0    0  501    0  0.00000000000E+00  0.00000000000E+00  0.19004575336E+04  0.19004575336E+04  0.50400001928E-02 0. -1.
       -1   -1    0    0    0  501  0.00000000000E+00  0.00000000000E+00 -0.69319662126E+03  0.69319662128E+03  0.50400001928E-02 0.  1.
    10030    2    1    2    0    0  0.00000000000E+00  0.00000000000E+00  0.12072609123E+04  0.25936541549E+04  0.22955528669E+04 0.  0.
        1    1    3    3  502    0 -0.14494057823E+03 -0.87349612348E+03  0.14288056810E+04  0.16809190709E+04  0.50400001928E-02 0. -1.
       -1    1    3    3    0  502  0.14494057823E+03  0.87349612348E+03 -0.22154476865E+03  0.91273508396E+03  0.50400001928E-02 0.  1.
</event>
<event>
 5   0  0.2122194E-05  0.2381735E+04  0.7818609E-02  0.8446374E-01
       -2   -1    0    0    0  501  0.00000000000E+00  0.00000000000E+00  0.97897734722E+03  0.97897734722E+03  0.25500000920E-02 0. -1.
        2   -1    0    0  501    0  0.00000000000E+00  0.00000000000E+00 -0.14486191745E+04  0.14486191745E+04  0.25500000920E-02 0.  1.
    10030    2    1    2    0    0  0.00000000000E+00  0.00000000000E+00 -0.46964182729E+03  0.24275965217E+04  0.23817349614E+04 0.  0.
        3    1    3    3  502    0  0.10927787069E+04  0.46332386872E+03 -0.13636358954E+03  0.11947507473E+04  0.10100000352E+00 0. -1.
       -3    1    3    3    0  502 -0.10927787069E+04 -0.46332386872E+03 -0.33327823775E+03  0.12328457744E+04  0.10100000352E+00 0.  1.
</event>
<event>
 5   0  0.2048028E-05  0.2482465E+04  0.7818609E-02  0.8409259E-01
       -2   -1    0    0    0  501  0.00000000000E+00  0.00000000000E+00  0.95477406966E+03  0.95477406967E+03  0.25500000920E-02 0. -1.
        2   -1    0    0  501    0  0.00000000000E+00  0.00000000000E+00 -0.16136369083E+04  0.16136369083E+04  0.25500000920E-02 0.  1.
    10030    2    1    2    0    0  0.00000000000E+00  0.00000000000E+00 -0.65886283863E+03  0.25684109780E+04  0.24824654502E+04 0.  0.
        5    1    3    3  502    0 -0.67556670082E+03 -0.10400173847E+04 -0.27657392619E+03  0.12706461956E+04  0.46999998093E+01 0.  1.
       -5    1    3    3    0  502  0.67556670082E+03  0.10400173847E+04 -0.38228891244E+03  0.12977647824E+04  0.46999998093E+01 0. -1.
</event>
<event>
 5   0  0.8528103E-06  0.2401624E+04  0.7818609E-02  0.8438896E-01
       -1   -1    0    0    0  501  0.00000000000E+00  0.00000000000E+00  0.10541216234E+04  0.10541216234E+04  0.50400001928E-02 0. -1.
        1   -1    0    0  501    0  0.00000000000E+00  0.00000000000E+00 -0.13679157467E+04  0.13679157467E+04  0.50400001928E-02 0.  1.
    10030    2    1    2    0    0  0.00000000000E+00  0.00000000000E+00 -0.31379412329E+03  0.24220373702E+04  0.24016240902E+04 0.  0.
        4    1    3    3  502    0  0.25933622077E+03 -0.66119528613E+03 -0.11333797927E+04  0.13375297564E+04  0.12699999809E+01 0.  1.
       -4    1    3    3    0  502 -0.25933622077E+03  0.66119528613E+03  0.81958566945E+03  0.10845076137E+04  0.12699999809E+01 0. -1.
</event>
<event>
 5   0  0.2087882E-05  0.2392257E+04  0.7818609E-02  0.8442408E-01
        2   -1    0    0  501    0  0.00000000000E+00  0.00000000000E+00  0.10914504485E+04  0.10914504485E+04  0.25500000920E-02 0.  1.
       -2   -1    0    0    0  501  0.00000000000E+00  0.00000000000E+00 -0.13108464177E+04  0.13108464177E+04  0.25500000920E-02 0. -1.
    10030    2    1    2    0    0  0.00000000000E+00  0.00000000000E+00 -0.21939596923E+03  0.24022968661E+04  0.23922574363E+04 0.  0.
        2    1    3    3  502    0  0.15108757187E+03  0.11555747879E+04  0.16077108777E+03  0.11764471461E+04  0.25500000920E-02 0.  1.
       -2    1    3    3    0  502 -0.15108757187E+03 -0.11555747879E+04 -0.38016705700E+03  0.12258497200E+04  0.25500000920E-02 0. -1.
</event>
<event>
 5   0  0.2087882E-05  0.2364228E+04  0.7818609E-02  0.8453019E-01
       -2   -1    0    0    0  501  0.00000000000E+00  0.00000000000E+00  0.13661159780E+04  0.13661159780E+04  0.25500000920E-02 0.  1.
        2   -1    0    0  501    0  0.00000000000E+00  0.00000000000E+00 -0.10228949485E+04  0.10228949485E+04  0.25500000920E-02 0. -1.
    10030    2    1    2    0    0  0.00000000000E+00  0.00000000000E+00  0.34322102944E+03  0.23890109265E+04  0.23642276819E+04 0.  0.
        2    1    3    3  502    0  0.11282257657E+03  0.11624275736E+04  0.35635573916E+03  0.12210471778E+04  0.25500000920E-02 0.  1.
       -2    1    3    3    0  502 -0.11282257657E+03 -0.11624275736E+04 -0.13134709721E+02  0.11679637487E+04  0.25500000920E-02 0. -1.
</event>
<event>
 5   0  0.9038897E-06  0.2395633E+04  0.7818609E-02  0.8441140E-01
        1   -1    0    0  501    0  0.00000000000E+00  0.00000000000E+00  0.13321509076E+04  0.13321509076E+04  0.50400001928E-02 0.  1.
       -1   -1    0    0    0  501  0.00000000000E+00  0.00000000000E+00 -0.10770286493E+04  0.10770286494E+04  0.50400001928E-02 0. -1.
    10030    2    1    2    0    0  0.00000000000E+00  0.00000000000E+00  0.25512225828E+03  0.24091795570E+04  0.23956332714E+04 0.  0.
        1    1    3    3  502    0  0.29695324275E+03  0.11525405378E+04  0.26335716948E+03  0.12189700236E+04  0.50400001928E-02 0.  1.
       -1    1    3    3    0  502 -0.29695324275E+03 -0.11525405378E+04 -0.82349112079E+01  0.11902095334E+04  0.50400001928E-02 0. -1.
</event>
<event>
 5   0  0.2048028E-05  0.2425461E+04  0.7818609E-02  0.8430032E-01
        2   -1    0    0  501    0  0.00000000000E+00  0.00000000000E+00  0.10061576534E+04  0.10061576534E+04  0.25500000920E-02 0.  1.
       -2   -1    0    0    0  501  0.00000000000E+00  0.00000000000E+00 -0.14617149781E+04  0.14617149781E+04  0.25500000920E-02 0. -1.
    10030    2    1    2    0    0  0.00000000000E+00  0.00000000000E+00 -0.45555732473E+03  0.24678726316E+04  0.24254613684E+04 0.  0.
        5    1    3    3  502    0  0.40609190825E+03  0.11094675583E+04  0.50619898853E+02  0.11825452909E+04  0.46999998093E+01 0.  1.
       -5    1    3    3    0  502 -0.40609190825E+03 -0.11094675583E+04 -0.50617722358E+03  0.12853273406E+04  0.46999998093E+01 0. -1.
</event>
<event>
 5   0  0.9176817E-06  0.2422208E+04  0.7818609E-02  0.8431236E-01
        1   -1    0    0  501    0  0.00000000000E+00  0.00000000000E+00  0.11589699592E+04  0.11589699592E+04  0.50400001928E-02 0. -1.
       -1   -1    0    0    0  501  0.00000000000E+00  0.00000000000E+00 -0.12655828692E+04  0.12655828692E+04  0.50400001928E-02 0.  1.
    10030    2    1    2    0    0  0.00000000000E+00  0.00000000000E+00 -0.10661290998E+03  0.24245528284E+04  0.24222076924E+04 0.  0.
        3    1    3    3  502    0 -0.28233073291E+03  0.68174440556E+03  0.90798079874E+03  0.11700065035E+04  0.10100000352E+00 0. -1.
       -3    1    3    3    0  502  0.28233073291E+03 -0.68174440556E+03 -0.10145937087E+04  0.12545463249E+04  0.10100000352E+00 0.  1.
</event>
<event>
 5   0  0.2025353E-05  0.2509064E+04  0.7818609E-02  0.8399764E-01
       -2   -1    0    0    0  501  0.00000000000E+00  0.00000000000E+00  0.75715433253E+03  0.75715433254E+03  0.25500000920E-02 0.  1.
        2   -1    0    0  501    0  0.00000000000E+00  0.00000000000E+00 -0.20786385211E+04  0.20786385211E+04  0.25500000920E-02 0. -1.
    10030    2    1    2    0    0  0.00000000000E+00  0.00000000000E+00 -0.13214841886E+04  0.28357928537E+04  0.25090636995E+04 0.  0.
        4    1    3    3  502    0  0.47615872492E+03  0.13999182961E+03  0.64147669996E+03  0.81106030180E+03  0.12699999809E+01 0.  1.
       -4    1    3    3    0  502 -0.47615872492E+03 -0.13999182961E+03 -0.19629608885E+04  0.20247325518E+04  0.12699999809E+01 0. -1.
</event>
<event>
 5   0  0.7233625E-06  0.2385532E+04  0.7818609E-02  0.8444940E-01
       -3   -1    0    0    0  501  0.00000000000E+00  0.00000000000E+00  0.18938320550E+04  0.18938320577E+04  0.10100000352E+00 0.  1.
        3   -1    0    0  501    0  0.00000000000E+00  0.00000000000E+00 -0.75122327445E+03  0.75122328124E+03  0.10100000352E+00 0. -1.
    10030    2    1    2    0    0  0.00000000000E+00  0.00000000000E+00  0.11426087805E+04  0.26450553389E+04  0.23855319995E+04 0.  0.
        5    1    3    3  502    0  0.94322868952E+03 -0.72288806977E+03  0.45811475171E+03  0.12736321046E+04  0.46999998093E+01 0. -1.
       -5    1    3    3    0  502 -0.94322868952E+03  0.72288806977E+03  0.68449402884E+03  0.13714232343E+04  0.46999998093E+01 0.  1.
</event>
<event>
 5   0  0.2048028E-05  0.2407266E+04  0.7818609E-02  0.8436788E-01
        2   -1    0    0  501    0  0.00000000000E+00  0.00000000000E+00  0.17990787380E+04  0.17990787380E+04  0.25500000920E-02 0.  1.
       -2   -1    0    0    0  501  0.00000000000E+00  0.00000000000E+00 -0.80526348912E+03  0.80526348913E+03  0.25500000920E-02 0. -1.
    10030    2    1    2    0    0  0.00000000000E+00  0.00000000000E+00  0.99381524892E+03  0.26043422272E+04  0.24072660192E+04 0.  0.
        5    1    3    3  502    0 -0.76578398267E+03  0.92855216444E+03  0.50634542672E+03  0.13057725726E+04  0.46999998093E+01 0.  1.
       -5    1    3    3    0  502  0.76578398267E+03 -0.92855216444E+03  0.48746982220E+03  0.12985696546E+04  0.46999998093E+01 0. -1.
</event>
<event>
 5   0  0.9038897E-06  0.2348869E+04  0.7818609E-02  0.8458898E-01
        1   -1    0    0  501    0  0.00000000000E+00  0.00000000000E+00  0.16218291375E+04  0.16218291375E+04  0.50400001928E-02 0. -1.
       -1   -1    0    0    0  501  0.00000000000E+00  0.00000000000E+00 -0.85045756492E+03  0.85045756494E+03  0.50400001928E-02 0.  1.
    10030    2    1    2    0    0  0.00000000000E+00  0.00000000000E+00  0.77137157256E+03  0.24722867024E+04  0.23488693953E+04 0.  0.
        1    1    3    3  502    0  0.64225335948E+03  0.95467449022E+03  0.13793735583E+03  0.11588440250E+04  0.50400001928E-02 0.  1.
       -1    1    3    3    0  502 -0.64225335948E+03 -0.95467449022E+03  0.63343421673E+03  0.13134426775E+04  0.50400001928E-02 0. -1.
</event>
<event>
 5   0  0.9038897E-06  0.2376741E+04  0.7818609E-02  0.8448263E-01
       -1   -1    0    0    0  501  0.00000000000E+00  0.00000000000E+00  0.14678883993E+04  0.14678883993E+04  0.50400001928E-02 0. -1.
        1   -1    0    0  501    0  0.00000000000E+00  0.00000000000E+00 -0.96207885540E+03  0.96207885541E+03  0.50400001928E-02 0.  1.
    10030    2    1    2    0    0  0.00000000000E+00  0.00000000000E+00  0.50580954394E+03  0.24299672548E+04  0.23767409544E+04 0.  0.
        1    1    3    3  502    0  0.48871130828E+01  0.11245184455E+04  0.64577416797E+03  0.12967613096E+04  0.50400001928E-02 0.  1.
       -1    1    3    3    0  502 -0.48871130828E+01 -0.11245184455E+04 -0.13996462403E+03  0.11332059451E+04  0.50400001928E-02 0. -1.
</event>
<event>
 5   0  0.9176817E-06  0.2401080E+04  0.7818609E-02  0.8439099E-01
       -1   -1    0    0    0  501  0.00000000000E+00  0.00000000000E+00  0.91259302807E+03  0.91259302808E+03  0.50400001928E-02 0.  1.
        1   -1    0    0  501    0  0.00000000000E+00  0.00000000000E+00 -0.15793421816E+04  0.15793421816E+04  0.50400001928E-02 0. -1.
    10030    2    1    2    0    0  0.00000000000E+00  0.00000000000E+00 -0.66674915354E+03  0.24919352097E+04  0.24010803101E+04 0.  0.
        3    1    3    3  502    0  0.10706698120E+04 -0.33974044622E+03  0.10637937124E+03  0.11283058087E+04  0.10100000352E+00 0.  1.
       -3    1    3    3    0  502 -0.10706698120E+04  0.33974044622E+03 -0.77312852478E+03  0.13636294010E+04  0.10100000352E+00 0. -1.
</event>
<event>
 5   0  0.2025353E-05  0.2392065E+04  0.7818609E-02  0.8442480E-01
        2   -1    0    0  501    0  0.00000000000E+00  0.00000000000E+00  0.16107491174E+04  0.16107491174E+04  0.25500000920E-02 0.  1.
       -2   -1    0    0    0  501  0.00000000000E+00  0.00000000000E+00 -0.88809247224E+03  0.88809247224E+03  0.25500000920E-02 0. -1.
    10030    2    1    2    0    0  0.00000000000E+00  0.00000000000E+00  0.72265664517E+03  0.24988415896E+04  0.23920653552E+04 0.  0.
        4    1    3    3  502    0  0.43856841096E+03 -0.11048677940E+04  0.49919461310E+03  0.12892912658E+04  0.12699999809E+01 0.  1.
       -4    1    3    3    0  502 -0.43856841096E+03  0.11048677940E+04  0.22346203207E+03  0.12095503239E+04  0.12699999809E+01 0. -1.
</event>
<event>
 5   0  0.2080257E-05  0.2402710E+04  0.7818609E-02  0.8438490E-01
       -2   -1    0    0    0  501  0.00000000000E+00  0.00000000000E+00  0.78533828627E+03  0.78533828628E+03  0.25500000920E-02 0. -1.
        2   -1    0    0  501    0  0.00000000000E+00  0.00000000000E+00 -0.18377479321E+04  0.18377479321E+04  0.25500000920E-02 0.  1.
    10030    2    1    2    0    0  0.00000000000E+00  0.00000000000E+00 -0.10524096458E+04  0.26230862184E+04  0.24027099797E+04 0.  0.
        1    1    3    3  502    0  0.11166859939E+04 -0.23386300061E+03 -0.11543037175E+03  0.11467360999E+04  0.50400001928E-02 0. -1.
       -1    1    3    3    0  502 -0.11166859939E+04  0.23386300061E+03 -0.93697927407E+03  0.14763501184E+04  0.50400001928E-02 0.  1.
</event>
<event>
 5   0  0.2048028E-05  0.2388938E+04  0.7818609E-02  0.8443657E-01
       -2   -1    0    0    0  501  0.00000000000E+00  0.00000000000E+00  0.75787779252E+03  0.75787779253E+03  0.25500000920E-02 0. -1.
        2   -1    0    0  501    0  0.00000000000E+00  0.00000000000E+00 -0.18825670071E+04  0.18825670071E+04  0.25500000920E-02 0.  1.
    10030    2    1    2    0    0  0.00000000000E+00  0.00000000000E+00 -0.11246892146E+04  0.26404447997E+04  0.23889376113E+04 0.  0.
        5    1    3    3  502    0  0.58570383644E+03 -0.39584986803E+03 -0.16265102467E+04  0.17735004299E+04  0.46999998093E+01 0.  1.
       -5    1    3    3    0  502 -0.58570383644E+03  0.39584986803E+03  0.50182103212E+03  0.86694436979E+03  0.46999998093E+01 0. -1.
</event>
<event>
 5   0  0.9083687E-06  0.2398890E+04  0.7818609E-02  0.8439919E-01
       -1   -1    0    0    0  501  0.00000000000E+00  0.00000000000E+00  0.11207466933E+04  0.11207466933E+04  0.50400001928E-02 0. -1.
        1   -1    0    0  501    0  0.00000000000E+00  0.00000000000E+00 -0.12836696434E+04  0.12836696435E+04  0.50400001928E-02 0.  1.
    10030    2    1    2    0    0  0.00000000000E+00  0.00000000000E+00 -0.16292295014E+03  0.24044163368E+04  0.23988901669E+04 0.  0.
        2    1    3    3  502    0 -0.17725471833E+03 -0.11858575885E+04 -0.49907963419E+02  0.12000701064E+04  0.25500000920E-02 0.  1.
       -2    1    3    3    0  502  0.17725471833E+03  0.11858575885E+04 -0.11301498672E+03  0.12043462304E+04  0.25500000920E-02 0. -1.
</event>
<event>
 5   0  0.8898848E-06  0.2415753E+04  0.7818609E-02  0.8433629E-01
        1   -1    0    0  501    0  0.00000000000E+00  0.00000000000E+00  0.12190577615E+04  0.12190577615E+04  0.50400001928E-02 0. -1.
       -1   -1    0    0    0  501  0.00000000000E+00  0.00000000000E+00 -0.11967976355E+04  0.11967976355E+04  0.50400001928E-02 0.  1.
    10030    2    1    2    0    0  0.00000000000E+00  0.00000000000E+00  0.22260125986E+02  0.24158553970E+04  0.24157528404E+04 0.  0.
        5    1    3    3  502    0 -0.97730309582E+03  0.69360319826E+03 -0.13966300471E+03  0.12065382641E+04  0.46999998093E+01 0.  1.
       -5    1    3    3    0  502  0.97730309582E+03 -0.69360319826E+03  0.16192313070E+03  0.12093171329E+04  0.46999998093E+01 0. -1.
</event>
<event>
 5   0  0.2025353E-05  0.2395884E+04  0.7818609E-02  0.8441046E-01
       -2   -1    0    0    0  501  0.00000000000E+00  0.00000000000E+00  0.14217908492E+04  0.14217908493E+04  0.25500000920E-02 0.  1.
        2   -1    0    0  501    0  0.00000000000E+00  0.00000000000E+00 -0.10093364252E+04  0.10093364252E+04  0.25500000920E-02 0. -1.
    10030    2    1    2    0    0  0.00000000000E+00  0.00000000000E+00  0.41245442407E+03  0.24311272744E+04  0.23958842152E+04 0.  0.
        4    1    3    3  502    0  0.21739118773E+03 -0.28374097269E+02 -0.98880619755E+03  0.10128194938E+04  0.12699999809E+01 0. -1.
       -4    1    3    3    0  502 -0.21739118773E+03  0.28374097269E+02  0.14012606216E+04  0.14183077806E+04  0.12699999809E+01 0.  1.
</event>
<event>
 5   0  0.9176817E-06  0.2399782E+04  0.7818609E-02  0.8439585E-01
        1   -1    0    0  501    0  0.00000000000E+00  0.00000000000E+00  0.16555463514E+04  0.16555463514E+04  0.50400001928E-02 0. -1.
       -1   -1    0    0    0  501  0.00000000000E+00  0.00000000000E+00 -0.86964534366E+03  0.86964534367E+03  0.50400001928E-02 0.  1.
    10030    2    1    2    0    0  0.00000000000E+00  0.00000000000E+00  0.78590100772E+03  0.25251916951E+04  0.23997818032E+04 0.  0.
        3    1    3    3  502    0  0.20675708725E+03  0.99707627895E+03 -0.27490533434E+03  0.10547428844E+04  0.10100000352E+00 0.  1.
       -3    1    3    3    0  502 -0.20675708725E+03 -0.99707627895E+03  0.10608063421E+04  0.14704488106E+04  0.10100000352E+00 0. -1.
</event>
<event>
 5   0  0.2025353E-05  0.2411371E+04  0.7818609E-02  0.8435259E-01
        2   -1    0    0  501    0  0.00000000000E+00  0.00000000000E+00  0.10170141451E+04  0.10170141451E+04  0.25500000920E-02 0. -1.
       -2   -1    0    0    0  501  0.00000000000E+00  0.00000000000E+00 -0.14293586256E+04  0.14293586256E+04  0.25500000920E-02 0.  1.
    10030    2    1    2    0    0  0.00000000000E+00  0.00000000000E+00 -0.41234448049E+03  0.24463727707E+04  0.24113713448E+04 0.  0.
        4    1    3    3  502    0 -0.48782750501E+03  0.50963263102E+03 -0.11981041450E+04  0.13903798935E+04  0.12699999809E+01 0.  1.
       -4    1    3    3    0  502  0.48782750501E+03 -0.50963263102E+03  0.78575966450E+03  0.10559928771E+04  0.12699999809E+01 0. -1.
</event>
<event>
 5   0  0.9176817E-06  0.2212908E+04  0.7818609E-02  0.8513075E-01
        1   -1    0    0  501    0  0.00000000000E+00  0.00000000000E+00  0.77166804806E+03  0.77166804808E+03  0.50400001928E-02 0. -1.
       -1   -1    0    0    0  501  0.00000000000E+00  0.00000000000E+00 -0.15864857683E+04  0.15864857683E+04  0.50400001928E-02 0.  1.
    10030    2    1    2    0    0  0.00000000000E+00  0.00000000000E+00 -0.81481772020E+03  0.23581538163E+04  0.22129079295E+04 0.  0.
        3    1    3    3  502    0 -0.10413130242E+04 -0.11137532795E+03 -0.26896177981E+02  0.10475975814E+04  0.10100000352E+00 0. -1.
       -3    1    3    3    0  502  0.10413130242E+04  0.11137532795E+03 -0.78792154222E+03  0.13105562349E+04  0.10100000352E+00 0.  1.
</event>
<event>
 5   0  0.9038897E-06  0.2377054E+04  0.7818609E-02  0.8448144E-01
       -1   -1    0    0    0  501  0.00000000000E+00  0.00000000000E+00  0.55199088198E+03  0.55199088200E+03  0.50400001928E-02 0. -1.
        1   -1    0    0  501    0  0.00000000000E+00  0.00000000000E+00 -0.25590946732E+04  0.25590946732E+04  0.50400001928E-02 0.  1.
    10030    2    1    2    0    0  0.00000000000E+00  0.00000000000E+00 -0.20071037912E+04  0.31110855552E+04  0.23770544174E+04 0.  0.
        1    1    3    3  502    0 -0.61971403050E+03 -0.94600010977E+03 -0.14819983349E+04  0.18642104903E+04  0.50400001928E-02 0.  1.
       -1    1    3    3    0  502  0.61971403050E+03  0.94600010977E+03 -0.52510545628E+03  0.12468750649E+04  0.50400001928E-02 0. -1.
</event>
<event>
 5   0  0.2025353E-05  0.2404035E+04  0.7818609E-02  0.8437994E-01
        2   -1    0    0  501    0  0.00000000000E+00  0.00000000000E+00  0.17291322028E+04  0.17291322028E+04  0.25500000920E-02 0.  1.
       -2   -1    0    0    0  501  0.00000000000E+00  0.00000000000E+00 -0.83559029876E+03  0.83559029876E+03  0.25500000920E-02 0. -1.
    10030    2    1    2    0    0  0.00000000000E+00  0.00000000000E+00  0.89354190400E+03  0.25647225015E+04  0.24040350196E+04 0.  0.
        4    1    3    3  502    0  0.12372845506E+03 -0.85234399386E+03  0.13412935128E+04  0.15940103246E+04  0.12699999809E+01 0.  1.
       -4    1    3    3    0  502 -0.12372845506E+03  0.85234399386E+03 -0.44775160878E+03  0.97071217697E+03  0.12699999809E+01 0. -1.
</event>
<event>
 5   0  0.2080257E-05  0.2378261E+04  0.7818609E-02  0.8447688E-01
       -2   -1    0    0    0  501  0.00000000000E+00  0.00000000000E+00  0.46864895154E+03  0.46864895155E+03  0.25500000920E-02 0.  1.
        2   -1    0    0  501    0  0.00000000000E+00  0.00000000000E+00 -0.30172498541E+04  0.30172498541E+04  0.25500000920E-02 0. -1.
    10030    2    1    2    0    0  0.00000000000E+00  0.00000000000E+00 -0.25486009025E+04  0.34858988056E+04  0.23782606928E+04 0.  0.
        1    1    3    3  502    0 -0.34129392437E+03 -0.52036617338E+03  0.21092226237E+03  0.65707739118E+03  0.50400001928E-02 0.  1.
       -1    1    3    3    0  502  0.34129392437E+03  0.52036617338E+03 -0.27595231649E+04  0.28288214144E+04  0.50400001928E-02 0. -1.
</event>
<event>
 5   0  0.2087882E-05  0.2407605E+04  0.7818609E-02  0.8436662E-01
       -2   -1    0    0    0  501  0.00000000000E+00  0.00000000000E+00  0.12454739795E+04  0.12454739795E+04  0.25500000920E-02 0. -1.
        2   -1    0    0  501    0  0.00000000000E+00  0.00000000000E+00 -0.11635248017E+04  0.11635248017E+04  0.25500000920E-02 0.  1.
    10030    2    1    2    0    0  0.00000000000E+00  0.00000000000E+00  0.81949177746E+02  0.24089987812E+04  0.24076045066E+04 0.  0.
        2    1    3    3  502    0 -0.42884208843E+03  0.60580042449E+03  0.98927878057E+03  0.12367587464E+04  0.25500000920E-02 0. -1.
       -2    1    3    3    0  502  0.42884208843E+03 -0.60580042449E+03 -0.90732960282E+03  0.11722400348E+04  0.25500000920E-02 0.  1.
</event>
<event>
 5   0  0.2025353E-05  0.2403638E+04  0.7818609E-02  0.8438143E-01
       -2   -1    0    0    0  501  0.00000000000E+00  0.00000000000E+00  0.12290672130E+04  0.12290672130E+04  0.25500000920E-02 0.  1.
        2   -1    0    0  501    0  0.00000000000E+00  0.00000000000E+00 -0.11751751383E+04  0.11751751383E+04  0.25500000920E-02 0. -1.
    10030    2    1    2    0    0  0.00000000000E+00  0.00000000000E+00  0.53892074648E+02  0.24042423513E+04  0.24036382690E+04 0.  0.
        4    1    3    3  502    0 -0.24666290065E+03 -0.43726476270E+03 -0.10652645400E+04  0.11776388293E+04  0.12699999809E+01 0. -1.
       -4    1    3    3    0  502  0.24666290065E+03  0.43726476270E+03  0.11191566146E+04  0.12266035220E+04  0.12699999809E+01 0.  1.
</event>
<event>
 5   0  0.9038897E-06  0.2405152E+04  0.7818609E-02  0.8437577E-01
        1   -1    0    0  501    0  0.00000000000E+00  0.00000000000E+00  0.18381004556E+04  0.18381004556E+04  0.50400001928E-02 0. -1.
       -1   -1    0    0    0  501  0.00000000000E+00  0.00000000000E+00 -0.78678434412E+03  0.78678434414E+03  0.50400001928E-02 0.  1.
    10030    2    1    2    0    0  0.00000000000E+00  0.00000000000E+00  0.10513161115E+04  0.26248847998E+04  0.24051516887E+04 0.  0.
        1    1    3    3  502    0 -0.68486607380E+03 -0.81800572329E+03 -0.80035334915E+02  0.10698507173E+04  0.50400001928E-02 0.  1.
       -1    1    3    3    0  502  0.68486607380E+03  0.81800572329E+03  0.11313514464E+04  0.15550340825E+04  0.50400001928E-02 0. -1.
</event>
<event>
 5   0  0.9176817E-06  0.2413872E+04  0.7818609E-02  0.8434328E-01
        1   -1    0    0  501    0  0.00000000000E+00  0.00000000000E+00  0.19934254724E+04  0.19934254724E+04  0.50400001928E-02 0.  1.
       -1   -1    0    0    0  501  0.00000000000E+00  0.00000000000E+00 -0.73074932962E+03  0.73074932964E+03  0.50400001928E-02 0. -1.
    10030    2    1    2    0    0  0.00000000000E+00  0.00000000000E+00  0.12626761428E+04  0.27241748021E+04  0.24138718505E+04 0.  0.
        3    1    3    3  502    0 -0.61416950358E+03 -0.44381371509E+03  0.16915261647E+04  0.18534928025E+04  0.10100000352E+00 0.  1.
       -3    1    3    3    0  502  0.61416950358E+03  0.44381371509E+03 -0.42885002193E+03  0.87068199955E+03  0.10100000352E+00 0. -1.
</event>
<event>
 5   0  0.2087882E-05  0.2401591E+04  0.7818609E-02  0.8438908E-01
        2   -1    0    0  501    0  0.00000000000E+00  0.00000000000E+00  0.18293270887E+04  0.18293270887E+04  0.25500000920E-02 0.  1.
       -2   -1    0    0    0  501  0.00000000000E+00  0.00000000000E+00 -0.78821893670E+03  0.78821893671E+03  0.25500000920E-02 0. -1.
    10030    2    1    2    0    0  0.00000000000E+00  0.00000000000E+00  0.10411081520E+04  0.26175460254E+04  0.24015913497E+04 0.  0.
        2    1    3    3  502    0 -0.85865959488E+03  0.50976081126E+03 -0.20631641184E+03  0.10196660465E+04  0.25500000920E-02 0. -1.
       -2    1    3    3    0  502  0.85865959488E+03 -0.50976081126E+03  0.12474245639E+04  0.15978799789E+04  0.25500000920E-02 0.  1.
</event>
<event>
 5   0  0.9083687E-06  0.2303024E+04  0.7818609E-02  0.8476730E-01
       -1   -1    0    0    0  501  0.00000000000E+00  0.00000000000E+00  0.93197213218E+03  0.93197213220E+03  0.50400001928E-02 0.  1.
        1   -1    0    0  501    0  0.00000000000E+00  0.00000000000E+00 -0.14227677347E+04  0.14227677347E+04  0.50400001928E-02 0. -1.
    10030    2    1    2    0    0  0.00000000000E+00  0.00000000000E+00 -0.49079560255E+03  0.23547398669E+04  0.23030239941E+04 0.  0.
        2    1    3    3  502    0  0.40598170208E+03  0.66037466828E+03  0.62523024954E+03  0.99590597442E+03  0.25500000920E-02 0.  1.
       -2    1    3    3    0  502 -0.40598170208E+03 -0.66037466828E+03 -0.11160258521E+04  0.13588338925E+04  0.25500000920E-02 0. -1.
</event>
<event>
 5   0  0.8528103E-06  0.2389089E+04  0.7818609E-02  0.8443600E-01
       -1   -1    0    0    0  501  0.00000000000E+00  0.00000000000E+00  0.94125774567E+03  0.94125774569E+03  0.50400001928E-02 0. -1.
        1   -1    0    0  501    0  0.00000000000E+00  0.00000000000E+00 -0.15159890777E+04  0.15159890777E+04  0.50400001928E-02 0.  1.
    10030    2    1    2    0    0  0.00000000000E+00  0.00000000000E+00 -0.57473133202E+03  0.24572468234E+04  0.23890889157E+04 0.  0.
        4    1    3    3  502    0 -0.49842010923E+03 -0.27881680519E+03 -0.13664749739E+04  0.14810188666E+04  0.12699999809E+01 0.  1.
       -4    1    3    3    0  502  0.49842010923E+03  0.27881680519E+03  0.79174364189E+03  0.97622795674E+03  0.12699999809E+01 0. -1.
</event>
<event>
 5   0  0.8528103E-06  0.2400948E+04  0.7818609E-02  0.8439149E-01
        1   -1    0    0  501    0  0.00000000000E+00  0.00000000000E+00  0.25983156927E+04  0.25983156927E+04  0.50400001928E-02 0. -1.
       -1   -1    0    0    0  501  0.00000000000E+00  0.00000000000E+00 -0.55464306823E+03  0.55464306825E+03  0.50400001928E-02 0.  1.
    10030    2    1    2    0    0  0.00000000000E+00  0.00000000000E+00  0.20436726245E+04  0.31529587610E+04  0.24009479695E+04 0.  0.
        4    1    3    3  502    0 -0.10388505624E+04 -0.36183949890E+03  0.16529963903E+04  0.19855822806E+04  0.12699999809E+01 0. -1.
       -4    1    3    3    0  502  0.10388505624E+04  0.36183949890E+03  0.39067623419E+03  0.11673764803E+04  0.12699999809E+01 0.  1.
</event>
<event>
 5   0  0.2087882E-05  0.2389951E+04  0.7818609E-02  0.8443275E-01
        2   -1    0    0  501    0  0.00000000000E+00  0.00000000000E+00  0.21594875992E+04  0.21594875992E+04  0.25500000920E-02 0.  1.
       -2   -1    0    0    0  501  0.00000000000E+00  0.00000000000E+00 -0.66125245090E+03  0.66125245090E+03  0.25500000920E-02 0. -1.
    10030    2    1    2    0    0  0.00000000000E+00  0.00000000000E+00  0.14982351483E+04  0.28207400501E+04  0.23899510185E+04 0.  0.
        2    1    3    3  502    0 -0.96381345056E+03  0.48806496793E+03  0.14635435006E+03  0.10902125372E+04  0.25500000920E-02 0. -1.
       -2    1    3    3    0  502  0.96381345056E+03 -0.48806496793E+03  0.13518807983E+04  0.17305275130E+04  0.25500000920E-02 0.  1.
</event>
<event>
 5   0  0.9038897E-06  0.2366027E+04  0.7818609E-02  0.8452333E-01
       -1   -1    0    0    0  501  0.00000000000E+00  0.00000000000E+00  0.70103562014E+03  0.70103562016E+03  0.50400001928E-02 0. -1.
        1   -1    0    0  501    0  0.00000000000E+00  0.00000000000E+00 -0.19963623927E+04  0.19963623927E+04  0.50400001928E-02 0.  1.
    10030    2    1    2    0    0  0.00000000000E+00  0.00000000000E+00 -0.12953267726E+04  0.26973980129E+04  0.23660271749E+04 0.  0.
        1    1    3    3  502    0 -0.55921299039E+03  0.10392237136E+04 -0.55354125236E+03  0.13035002929E+04  0.50400001928E-02 0. -1.
       -1    1    3    3    0  502  0.55921299039E+03 -0.10392237136E+04 -0.74178552020E+03  0.13938977199E+04  0.50400001928E-02 0.  1.
</event>
<event>
 5   0  0.2087882E-05  0.2406854E+04  0.7818609E-02  0.8436942E-01
        2   -1    0    0  501    0  0.00000000000E+00  0.00000000000E+00  0.16758442368E+04  0.16758442368E+04  0.25500000920E-02 0. -1.
       -2   -1    0    0    0  501  0.00000000000E+00  0.00000000000E+00 -0.86418355517E+03  0.86418355517E+03  0.25500000920E-02 0.  1.
    10030    2    1    2    0    0  0.00000000000E+00  0.00000000000E+00  0.81166068164E+03  0.25400277920E+04  0.24068544040E+04 0.  0.
        2    1    3    3  502    0 -0.28037202516E+03  0.14170490174E+03  0.16318088626E+04  0.16617728231E+04  0.25500000920E-02 0. -1.
       -2    1    3    3    0  502  0.28037202516E+03 -0.14170490174E+03 -0.82014818093E+03  0.87825496888E+03  0.25500000920E-02 0.  1.
</event>
<event>
 5   0  0.2087882E-05  0.2421151E+04  0.7818609E-02  0.8431627E-01
        2   -1    0    0  501    0  0.00000000000E+00  0.00000000000E+00  0.10968799129E+04  0.10968799129E+04  0.25500000920E-02 0.  1.
       -2   -1    0    0    0  501  0.00000000000E+00  0.00000000000E+00 -0.13360563865E+04  0.13360563865E+04  0.25500000920E-02 0. -1.
    10030    2    1    2    0    0  0.00000000000E+00  0.00000000000E+00 -0.23917647358E+03  0.24329362994E+04  0.24211513070E+04 0.  0.
        2    1    3    3  502    0  0.86969759597E+03 -0.18203341201E+03  0.70659580839E+03  0.11352478619E+04  0.25500000920E-02 0.  1.
       -2    1    3    3    0  502 -0.86969759597E+03  0.18203341201E+03 -0.94577228198E+03  0.12976884375E+04  0.25500000920E-02 0. -1.
</event>
<event>
 5   0  0.2087882E-05  0.2404460E+04  0.7818609E-02  0.8437836E-01
        2   -1    0    0  501    0  0.00000000000E+00  0.00000000000E+00  0.15748051972E+04  0.15748051972E+04  0.25500000920E-02 0. -1.
       -2   -1    0    0    0  501  0.00000000000E+00  0.00000000000E+00 -0.91780013978E+03  0.91780013979E+03  0.25500000920E-02 0.  1.
    10030    2    1    2    0    0  0.00000000000E+00  0.00000000000E+00  0.65700505746E+03  0.24926053370E+04  0.24044595486E+04 0.  0.
        2    1    3    3  502    0 -0.10056415348E+04 -0.14200449938E+03  0.99541878129E+03  0.14220895628E+04  0.25500000920E-02 0. -1.
       -2    1    3    3    0  502  0.10056415348E+04  0.14200449938E+03 -0.33841372383E+03  0.10705157742E+04  0.25500000920E-02 0.  1.
</event>
<event>
 5   0  0.2080257E-05  0.2395931E+04  0.7818609E-02  0.8441029E-01
       -2   -1    0    0    0  501  0.00000000000E+00  0.00000000000E+00  0.93363538820E+03  0.93363538820E+03  0.25500000920E-02 0. -1.
        2   -1    0    0  501    0  0.00000000000E+00  0.00000000000E+00 -0.15371322884E+04  0.15371322884E+04  0.25500000920E-02 0.  1.
    10030    2    1    2    0    0  0.00000000000E+00  0.00000000000E+00 -0.60349690019E+03  0.24707676766E+04  0.23959308010E+04 0.  0.
        1    1    3    3  502    0  0.10478390115E+04  0.35635091329E+03  0.17101238067E+03  0.11199097293E+04  0.50400001928E-02 0. -1.
       -1    1    3    3    0  502 -0.10478390115E+04 -0.35635091329E+03 -0.77450928085E+03  0.13508579473E+04  0.50400001928E-02 0.  1.
</event>
<event>
 5   0  0.9083687E-06  0.2315184E+04  0.7818609E-02  0.8471958E-01
        1   -1    0    0  501    0  0.00000000000E+00  0.00000000000E+00  0.11055010582E+04  0.11055010582E+04  0.50400001928E-02 0.  1.
       -1   -1    0    0    0  501  0.00000000000E+00  0.00000000000E+00 -0.12121379304E+04  0.12121379304E+04  0.50400001928E-02 0. -1.
    10030    2    1    2    0    0  0.00000000000E+00  0.00000000000E+00 -0.10663687222E+03  0.23176389886E+04  0.23151844546E+04 0.  0.
        2    1    3    3  502    0 -0.66904889289E+03  0.90265941092E+03  0.22554346291E+03  0.11459887813E+04  0.25500000920E-02 0. -1.
       -2    1    3    3    0  502  0.66904889289E+03 -0.90265941092E+03 -0.33218033513E+03  0.11716502073E+04  0.25500000920E-02 0.  1.
</event>
<event>
 5   0  0.2025353E-05  0.2389743E+04  0.7818609E-02  0.8443353E-01
       -2   -1    0    0    0  501  0.00000000000E+00  0.00000000000E+00  0.55808950748E+03  0.55808950748E+03  0.25500000920E-02 0. -1.
        2   -1    0    0  501    0  0.00000000000E+00  0.00000000000E+00 -0.25582249194E+04  0.25582249194E+04  0.25500000920E-02 0.  1.
    10030    2    1    2    0    0  0.00000000000E+00  0.00000000000E+00 -0.20001354119E+04  0.31163144269E+04  0.23897434886E+04 0.  0.
        4    1    3    3  502    0  0.14458329222E+03  0.94269920590E+03 -0.61404774508E+02  0.95569779765E+03  0.12699999809E+01 0. -1.
       -4    1    3    3    0  502 -0.14458329222E+03 -0.94269920590E+03 -0.19387306374E+04  0.21606166292E+04  0.12699999809E+01 0.  1.
</event>
<event>
 5   0  0.2048028E-05  0.2404024E+04  0.7818609E-02  0.8437999E-01
       -2   -1    0    0    0  501  0.00000000000E+00  0.00000000000E+00  0.11881677566E+04  0.11881677566E+04  0.25500000920E-02 0.  1.
        2   -1    0    0  501    0  0.00000000000E+00  0.00000000000E+00 -0.12160172973E+04  0.12160172973E+04  0.25500000920E-02 0. -1.
    10030    2    1    2    0    0  0.00000000000E+00  0.00000000000E+00 -0.27849540741E+02  0.24041850539E+04  0.24040237471E+04 0.  0.
        5    1    3    3  502    0 -0.93431369536E+03 -0.99914204272E+02  0.73571576396E+03  0.11934088591E+04  0.46999998093E+01 0.  1.
       -5    1    3    3    0  502  0.93431369536E+03  0.99914204272E+02 -0.76356530470E+03  0.12107761949E+04  0.46999998093E+01 0. -1.
</event>
<event>
 5   0  0.9176817E-06  0.2387809E+04  0.7818609E-02  0.8444082E-01
       -1   -1    0    0    0  501  0.00000000000E+00  0.00000000000E+00  0.62857998742E+03  0.62857998744E+03  0.50400001928E-02 0. -1.
        1   -1    0    0  501    0  0.00000000000E+00  0.00000000000E+00 -0.22676641766E+04  0.22676641766E+04  0.50400001928E-02 0.  1.
    10030    2    1    2    0    0  0.00000000000E+00  0.00000000000E+00 -0.16390841891E+04  0.28962441640E+04  0.23878093053E+04 0.  0.
        3    1    3    3  502    0 -0.43014763859E+03  0.52827453806E+03 -0.20087742910E+04  0.21211494858E+04  0.10100000352E+00 0.  1.
       -3    1    3    3    0  502  0.43014763859E+03 -0.52827453806E+03  0.36969010190E+03  0.77509467821E+03  0.10100000352E+00 0. -1.
</event>
<event>
 5   0  0.2048028E-05  0.2386403E+04  0.7818609E-02  0.8444612E-01
        2   -1    0    0  501    0  0.00000000000E+00  0.00000000000E+00  0.18190089313E+04  0.18190089313E+04  0.25500000920E-02 0. -1.
       -2   -1    0    0    0  501  0.00000000000E+00  0.00000000000E+00 -0.78269543053E+03  0.78269543053E+03  0.25500000920E-02 0.  1.
    10030    2    1    2    0    0  0.00000000000E+00  0.00000000000E+00  0.10363135008E+04  0.26017043618E+04  0.23864031333E+04 0.  0.
        5    1    3    3  502    0 -0.60979437815E+03  0.96927043932E+03  0.88362203338E+03  0.14464246804E+04  0.46999998093E+01 0. -1.
       -5    1    3    3    0  502  0.60979437815E+03 -0.96927043932E+03  0.15269146740E+03  0.11552796815E+04  0.46999998093E+01 0.  1.
</event>
<event>
 5   0  0.8898848E-06  0.2209397E+04  0.7818609E-02  0.8514527E-01
       -1   -1    0    0    0  501  0.00000000000E+00  0.00000000000E+00  0.12513875913E+04  0.12513875913E+04  0.50400001928E-02 0.  1.
        1   -1    0    0  501    0  0.00000000000E+00  0.00000000000E+00 -0.97520453102E+03  0.97520453103E+03  0.50400001928E-02 0. -1.
    10030    2    1    2    0    0  0.00000000000E+00  0.00000000000E+00  0.27618306029E+03  0.22265921224E+04  0.22093970663E+04 0.  0.
        5    1    3    3  502    0 -0.59451846568E+03 -0.90114526490E+03  0.37405425389E+03  0.11425645143E+04  0.46999998093E+01 0.  1.
       -5    1    3    3    0  502  0.59451846568E+03  0.90114526490E+03 -0.97871193606E+02  0.10840276081E+04  0.46999998093E+01 0. -1.
</event>
<event>
 5   0  0.2048028E-05  0.2398992E+04  0.7818609E-02  0.8439881E-01
        2   -1    0    0  501    0  0.00000000000E+00  0.00000000000E+00  0.14216102886E+04  0.14216102886E+04  0.25500000920E-02 0.  1.
       -2   -1    0    0    0  501  0.00000000000E+00  0.00000000000E+00 -0.10120853184E+04  0.10120853184E+04  0.25500000920E-02 0. -1.
    10030    2    1    2    0    0  0.00000000000E+00  0.00000000000E+00  0.40952497027E+03  0.24336956070E+04  0.23989922064E+04 0.  0.
        5    1    3    3  502    0  0.11560587356E+04  0.31773077805E+03  0.24195568647E+03  0.12231064106E+04  0.46999998093E+01 0. -1.
       -5    1    3    3    0  502 -0.11560587356E+04 -0.31773077805E+03  0.16756928380E+03  0.12105891964E+04  0.46999998093E+01 0.  1.
</event>
<event>
 5   0  0.2087882E-05  0.2415403E+04  0.7818609E-02  0.8433759E-01
        2   -1    0    0  501    0  0.00000000000E+00  0.00000000000E+00  0.12761759537E+04  0.12761759537E+04  0.25500000920E-02 0. -1.
       -2   -1    0    0    0  501  0.00000000000E+00  0.00000000000E+00 -0.11429015232E+04  0.11429015232E+04  0.25500000920E-02 0.  1.
    10030    2    1    2    0    0  0.00000000000E+00  0.00000000000E+00  0.13327443045E+03  0.24190774769E+04  0.24154034375E+04 0.  0.
        2    1    3    3  502    0 -0.61970337314E+03 -0.99456068076E+03 -0.22597191180E+03  0.11934180003E+04  0.25500000920E-02 0.  1.
       -2    1    3    3    0  502  0.61970337314E+03  0.99456068076E+03  0.35924634225E+03  0.12256594767E+04  0.25500000920E-02 0. -1.
</event>
<event>
 5   0  0.9038897E-06  0.2415147E+04  0.7818609E-02  0.8433854E-01
        1   -1    0    0  501    0  0.00000000000E+00  0.00000000000E+00  0.11945209731E+04  0.11945209731E+04  0.50400001928E-02 0. -1.
       -1   -1    0    0    0  501  0.00000000000E+00  0.00000000000E+00 -0.12207689369E+04  0.12207689369E+04  0.50400001928E-02 0.  1.
    10030    2    1    2    0    0  0.00000000000E+00  0.00000000000E+00 -0.26247963737E+02  0.24152899100E+04  0.24151472820E+04 0.  0.
        1    1    3    3  502    0  0.36311371736E+03  0.18373083000E+03  0.11238800581E+04  0.11952886574E+04  0.50400001928E-02 0. -1.
       -1    1    3    3    0  502 -0.36311371736E+03 -0.18373083000E+03 -0.11501280218E+04  0.12200012526E+04  0.50400001928E-02 0.  1.
</event>
<event>
 5   0  0.9176817E-06  0.2399208E+04  0.7818609E-02  0.8439800E-01
        1   -1    0    0  501    0  0.00000000000E+00  0.00000000000E+00  0.11753365241E+04  0.11753365241E+04  0.50400001928E-02 0.  1.
       -1   -1    0    0    0  501  0.00000000000E+00  0.00000000000E+00 -0.12243725928E+04  0.12243725928E+04  0.50400001928E-02 0. -1.
    10030    2    1    2    0    0  0.00000000000E+00  0.00000000000E+00 -0.49036068664E+02  0.23997091169E+04  0.23992080588E+04 0.  0.
        3    1    3    3  502    0  0.10087845021E+04 -0.32046773491E+03  0.54013868306E+03  0.11883162660E+04  0.10100000352E+00 0.  1.
       -3    1    3    3    0  502 -0.10087845021E+04  0.32046773491E+03 -0.58917475173E+03  0.12113928509E+04  0.10100000352E+00 0. -1.
</event>
<event>
 5   0  0.2025353E-05  0.2585786E+04  0.7818609E-02  0.8373045E-01
        2   -1    0    0  501    0  0.00000000000E+00  0.00000000000E+00  0.24653591145E+04  0.24653591145E+04  0.25500000920E-02 0. -1.
       -2   -1    0    0    0  501  0.00000000000E+00  0.00000000000E+00 -0.67802383587E+03  0.67802383588E+03  0.25500000920E-02 0.  1.
    10030    2    1    2    0    0  0.00000000000E+00  0.00000000000E+00  0.17873352786E+04  0.31433829503E+04  0.25857859491E+04 0.  0.
        4    1    3    3  502    0  0.62158638753E+03  0.72392769567E+03 -0.16688945199E+03  0.96865610400E+03  0.12699999809E+01 0. -1.
       -4    1    3    3    0  502 -0.62158638753E+03 -0.72392769567E+03  0.19542247306E+04  0.21747268463E+04  0.12699999809E+01 0.  1.
</event>
<event>
 5   0  0.2025353E-05  0.2409432E+04  0.7818609E-02  0.8435981E-01
        2   -1    0    0  501    0  0.00000000000E+00  0.00000000000E+00  0.19258133120E+04  0.19258133120E+04  0.25500000920E-02 0.  1.
       -2   -1    0    0    0  501  0.00000000000E+00  0.00000000000E+00 -0.75362490116E+03  0.75362490117E+03  0.25500000920E-02 0. -1.
    10030    2    1    2    0    0  0.00000000000E+00  0.00000000000E+00  0.11721884109E+04  0.26794382132E+04  0.24094321878E+04 0.  0.
        4    1    3    3  502    0  0.58806153002E+03 -0.20659949213E+03 -0.56037631103E+03  0.83816641313E+03  0.12699999809E+01 0. -1.
       -4    1    3    3    0  502 -0.58806153002E+03  0.20659949213E+03  0.17325647219E+04  0.18412718001E+04  0.12699999809E+01 0.  1.
</event>
<event>
 5   0  0.2080257E-05  0.2409553E+04  0.7818609E-02  0.8435936E-01
        2   -1    0    0  501    0  0.00000000000E+00  0.00000000000E+00  0.10336273262E+04  0.10336273262E+04  0.25500000920E-02 0. -1.
       -2   -1    0    0    0  501  0.00000000000E+00  0.00000000000E+00 -0.14042645116E+04  0.14042645116E+04  0.25500000920E-02 0.  1.
    10030    2    1    2    0    0  0.00000000000E+00  0.00000000000E+00 -0.37063718546E+03  0.24378918378E+04  0.24095527987E+04 0.  0.
        1    1    3    3  502    0  0.11075979758E+04 -0.36343062600E+03  0.12261448451E+03  0.11721302861E+04  0.50400001928E-02 0. -1.
       -1    1    3    3    0  502 -0.11075979758E+04  0.36343062600E+03 -0.49325166997E+03  0.12657615517E+04  0.50400001928E-02 0.  1.
</event>
<event>
 5   0  0.2048028E-05  0.2509949E+04  0.7818609E-02  0.8399450E-01
        2   -1    0    0  501    0  0.00000000000E+00  0.00000000000E+00  0.11389276965E+04  0.11389276965E+04  0.25500000920E-02 0. -1.
       -2   -1    0    0    0  501  0.00000000000E+00  0.00000000000E+00 -0.13828460062E+04  0.13828460062E+04  0.25500000920E-02 0.  1.
    10030    2    1    2    0    0  0.00000000000E+00  0.00000000000E+00 -0.24391830975E+03  0.25217737027E+04  0.25099494947E+04 0.  0.
        5    1    3    3  502    0  0.64955952933E+02 -0.42041856254E+03 -0.13081856122E+04  0.13756244871E+04  0.46999998093E+01 0.  1.
       -5    1    3    3    0  502 -0.64955952933E+02  0.42041856254E+03  0.10642673024E+04  0.11461492157E+04  0.46999998093E+01 0. -1.
</event>
<event>
 5   0  0.9176817E-06  0.2409304E+04  0.7818609E-02  0.8436028E-01
       -1   -1    0    0    0  501  0.00000000000E+00  0.00000000000E+00  0.99201231547E+03  0.99201231548E+03  0.50400001928E-02 0.  1.
        1   -1    0    0  501    0  0.00000000000E+00  0.00000000000E+00 -0.14628718366E+04  0.14628718366E+04  0.50400001928E-02 0. -1.
    10030    2    1    2    0    0  0.00000000000E+00  0.00000000000E+00 -0.47085952109E+03  0.24548841520E+04  0.24093043625E+04 0.  0.
        3    1    3    3  502    0  0.32476368549E+03  0.11546402187E+04 -0.34944567087E+03  0.12493109194E+04  0.10100000352E+00 0. -1.
       -3    1    3    3    0  502 -0.32476368549E+03 -0.11546402187E+04 -0.12141385022E+03  0.12055732327E+04  0.10100000352E+00 0.  1.
</event>
<event>
 5   0  0.9038897E-06  0.2396356E+04  0.7818609E-02  0.8440869E-01
        1   -1    0    0  501    0  0.00000000000E+00  0.00000000000E+00  0.13579178997E+04  0.13579178997E+04  0.50400001928E-02 0. -1.
       -1   -1    0    0    0  501  0.00000000000E+00  0.00000000000E+00 -0.10572291711E+04  0.10572291711E+04  0.50400001928E-02 0.  1.
    10030    2    1    2    0    0  0.00000000000E+00  0.00000000000E+00  0.30068872867E+03  0.24151470708E+04  0.23963559131E+04 0.  0.
        1    1    3    3  502    0 -0.94124345654E+03  0.59273031694E+03 -0.29852652133E+03  0.11516885677E+04  0.50400001928E-02 0.  1.
       -1    1    3    3    0  502  0.94124345654E+03 -0.59273031694E+03  0.59921525000E+03  0.12634585031E+04  0.50400001928E-02 0. -1.
</event>
<event>
 5   0  0.2087882E-05  0.2421876E+04  0.7818609E-02  0.8431359E-01
        2   -1    0    0  501    0  0.00000000000E+00  0.00000000000E+00  0.15456787947E+04  0.15456787947E+04  0.25500000920E-02 0. -1.
       -2   -1    0    0    0  501  0.00000000000E+00  0.00000000000E+00 -0.94869039475E+03  0.94869039475E+03  0.25500000920E-02 0.  1.
    10030    2    1    2    0    0  0.00000000000E+00  0.00000000000E+00  0.59698839998E+03  0.24943691895E+04  0.24218758234E+04 0.  0.
        2    1    3    3  502    0  0.98172900623E+03  0.51500507460E+03  0.80026127441E+03  0.13672747258E+04  0.25500000920E-02 0. -1.
       -2    1    3    3    0  502 -0.98172900623E+03 -0.51500507460E+03 -0.20327287443E+03  0.11270944637E+04  0.25500000920E-02 0.  1.
</event>
<event>
 5   0  0.8898848E-06  0.2494866E+04  0.7818609E-02  0.8404817E-01
       -1   -1    0    0    0  501  0.00000000000E+00  0.00000000000E+00  0.13415910371E+04  0.13415910371E+04  0.50400001928E-02 0. -1.
        1   -1    0    0  501    0  0.00000000000E+00  0.00000000000E+00 -0.11598832662E+04  0.11598832662E+04  0.50400001928E-02 0.  1.
    10030    2    1    2    0    0  0.00000000000E+00  0.00000000000E+00  0.18170777084E+03  0.25014743033E+04  0.24948659235E+04 0.  0.
        5    1    3    3  502    0 -0.10463264385E+04  0.22309799602E+03  0.73403192400E+03  0.12974577786E+04  0.46999998093E+01 0. -1.
       -5    1    3    3    0  502  0.10463264385E+04 -0.22309799602E+03 -0.55232415317E+03  0.12040165248E+04  0.46999998093E+01 0.  1.
</event>
<event>
 5   0  0.9038897E-06  0.2360664E+04  0.7818609E-02  0.8454379E-01
        1   -1    0    0  501    0  0.00000000000E+00  0.00000000000E+00  0.86169307184E+03  0.86169307186E+03  0.50400001928E-02 0.  1.
       -1   -1    0    0    0  501  0.00000000000E+00  0.00000000000E+00 -0.16167976672E+04  0.16167976673E+04  0.50400001928E-02 0. -1.
    10030    2    1    2    0    0  0.00000000000E+00  0.00000000000E+00 -0.75510459541E+03  0.24784907391E+04  0.23606637613E+04 0.  0.
        1    1    3    3  502    0  0.78869726852E+03  0.19451413172E+03 -0.12766259265E+04  0.15131599007E+04  0.50400001928E-02 0. -1.
       -1    1    3    3    0  502 -0.78869726852E+03 -0.19451413172E+03  0.52152133109E+03  0.96533083843E+03  0.50400001928E-02 0.  1.
</event>
<event>
 5   0  0.9083687E-06  0.2392238E+04  0.7818609E-02  0.8442415E-01
       -1   -1    0    0    0  501  0.00000000000E+00  0.00000000000E+00  0.82845698232E+03  0.82845698233E+03  0.50400001928E-02 0. -1.
        1   -1    0    0  501    0  0.00000000000E+00  0.00000000000E+00 -0.17269468941E+04  0.17269468941E+04  0.50400001928E-02 0.  1.
    10030    2    1    2    0    0  0.00000000000E+00  0.00000000000E+00 -0.89848991178E+03  0.25554038764E+04  0.23922384601E+04 0.  0.
        2    1    3    3  502    0  0.90322954935E+03  0.42069254095E+03 -0.11561161150E+04  0.15262405787E+04  0.25500000920E-02 0.  1.
       -2    1    3    3    0  502 -0.90322954935E+03 -0.42069254095E+03  0.25762620317E+03  0.10291632977E+04  0.25500000920E-02 0. -1.
</event>
<event>
 5   0  0.2087882E-05  0.2395516E+04  0.7818609E-02  0.8441184E-01
       -2   -1    0    0    0  501  0.00000000000E+00  0.00000000000E+00  0.98253830834E+03  0.98253830834E+03  0.25500000920E-02 0. -1.
        2   -1    0    0  501    0  0.00000000000E+00  0.00000000000E+00 -0.14601205038E+04  0.14601205038E+04  0.25500000920E-02 0.  1.
    10030    2    1    2    0    0  0.00000000000E+00  0.00000000000E+00 -0.47758219551E+03  0.24426588122E+04  0.23955160862E+04 0.  0.
        2    1    3    3  502    0 -0.49181587107E+03  0.75183791089E+03 -0.10465171468E+04  0.13792538686E+04  0.25500000920E-02 0.  1.
       -2    1    3    3    0  502  0.49181587107E+03 -0.75183791089E+03  0.56893495133E+03  0.10634049436E+04  0.25500000920E-02 0. -1.
</event>
<event>
 5   0  0.2122194E-05  0.2405737E+04  0.7818609E-02  0.8437359E-01
       -2   -1    0    0    0  501  0.00000000000E+00  0.00000000000E+00  0.67883166426E+03  0.67883166426E+03  0.25500000920E-02 0. -1.
        2   -1    0    0  501    0  0.00000000000E+00  0.00000000000E+00 -0.21314451968E+04  0.21314451968E+04  0.25500000920E-02 0.  1.
    10030    2    1    2    0    0  0.00000000000E+00  0.00000000000E+00 -0.14526135325E+04  0.28102768610E+04  0.24057368852E+04 0.  0.
        3    1    3    3  502    0  0.93665685284E+03 -0.55346536027E+03 -0.13256546777E+04  0.17149374040E+04  0.10100000352E+00 0.  1.
       -3    1    3    3    0  502 -0.93665685284E+03  0.55346536027E+03 -0.12695885477E+03  0.10953394570E+04  0.10100000352E+00 0. -1.
</event>
<event>
 5   0  0.8898848E-06  0.2394370E+04  0.7818609E-02  0.8441614E-01
       -1   -1    0    0    0  501  0.00000000000E+00  0.00000000000E+00  0.12992603692E+04  0.12992603692E+04  0.50400001928E-02 0. -1.
        1   -1    0    0  501    0  0.00000000000E+00  0.00000000000E+00 -0.11031292581E+04  0.11031292581E+04  0.50400001928E-02 0.  1.
    10030    2    1    2    0    0  0.00000000000E+00  0.00000000000E+00  0.19613111109E+03  0.24023896274E+04  0.23943701696E+04 0.  0.
        5    1    3    3  502    0  0.23344496618E+03 -0.25408431703E+03  0.12482796706E+04  0.12950983045E+04  0.46999998093E+01 0. -1.
       -5    1    3    3    0  502 -0.23344496618E+03  0.25408431703E+03 -0.10521485595E+04  0.11072913228E+04  0.46999998093E+01 0.  1.
</event>
<event>
 5   0  0.9038897E-06  0.2472121E+04  0.7818609E-02  0.8412985E-01
        1   -1    0    0  501    0  0.00000000000E+00  0.00000000000E+00  0.53810608465E+03  0.53810608467E+03  0.50400001928E-02 0.  1.
       -1   -1    0    0    0  501  0.00000000000E+00  0.00000000000E+00 -0.28393025939E+04  0.28393025939E+04  0.50400001928E-02 0. -1.
    10030    2    1    2    0    0  0.00000000000E+00  0.00000000000E+00 -0.23011965092E+04  0.33774086786E+04  0.24721213578E+04 0.  0.
        1    1    3    3  502    0 -0.11957287835E+04  0.16794203363E+03 -0.78946115781E+03  0.14426436740E+04  0.50400001928E-02 0. -1.
       -1    1    3    3    0  502  0.11957287835E+04 -0.16794203363E+03 -0.15117353514E+04  0.19347650046E+04  0.50400001928E-02 0.  1.
</event>
<event>
 5   0  0.9176817E-06  0.2316973E+04  0.7818609E-02  0.8471259E-01
       -1   -1    0    0    0  501  0.00000000000E+00  0.00000000000E+00  0.66568737408E+03  0.66568737410E+03  0.50400001928E-02 0.  1.
        1   -1    0    0  501    0  0.00000000000E+00  0.00000000000E+00 -0.20160981623E+04  0.20160981623E+04  0.50400001928E-02 0. -1.
    10030    2    1    2    0    0  0.00000000000E+00  0.00000000000E+00 -0.13504107882E+04  0.26817855364E+04  0.23169731044E+04 0.  0.
        3    1    3    3  502    0 -0.26556643388E+03 -0.10182115067E+04 -0.11433546235E+03  0.10584671990E+04  0.10100000352E+00 0. -1.
       -3    1    3    3    0  502  0.26556643388E+03  0.10182115067E+04 -0.12360753259E+04  0.16233183374E+04  0.10100000352E+00 0.  1.
</event>
<event>
 5   0  0.2048028E-05  0.2401091E+04  0.7818609E-02  0.8439095E-01
        2   -1    0    0  501    0  0.00000000000E+00  0.00000000000E+00  0.14902088834E+04  0.14902088834E+04  0.25500000920E-02 0.  1.
       -2   -1    0    0    0  501  0.00000000000E+00  0.00000000000E+00 -0.96718632506E+03  0.96718632507E+03  0.25500000920E-02 0. -1.
    10030    2    1    2    0    0  0.00000000000E+00  0.00000000000E+00  0.52302255829E+03  0.24573952084E+04  0.24010911299E+04 0.  0.
        5    1    3    3  502    0 -0.42366848131E+03  0.10722159581E+04 -0.81222831301E+02  0.11557513924E+04  0.46999998093E+01 0. -1.
       -5    1    3    3    0  502  0.42366848131E+03 -0.10722159581E+04  0.60424538959E+03  0.13016438160E+04  0.46999998093E+01 0.  1.
</event>
<event>
 5   0  0.7233625E-06  0.2418686E+04  0.7818609E-02  0.8432541E-01
       -3   -1    0    0    0  501  0.00000000000E+00  0.00000000000E+00  0.97044708304E+03  0.97044708830E+03  0.10100000352E+00 0. -1.
        3   -1    0    0  501    0  0.00000000000E+00  0.00000000000E+00 -0.15070484536E+04  0.15070484570E+04  0.10100000352E+00 0.  1.
    10030    2    1    2    0    0  0.00000000000E+00  0.00000000000E+00 -0.53660137054E+03  0.24774955453E+04  0.24186862438E+04 0.  0.
        4    1    3    3  502    0 -0.51956831278E+03  0.56419821083E+03 -0.12260420992E+04  0.14461852214E+04  0.12699999809E+01 0.  1.
       -4    1    3    3    0  502  0.51956831278E+03 -0.56419821083E+03  0.68944072869E+03  0.10313103238E+04  0.12699999809E+01 0. -1.
</event>
<event>
 5   0  0.2087882E-05  0.2404555E+04  0.7818609E-02  0.8437800E-01
       -2   -1    0    0    0  501  0.00000000000E+00  0.00000000000E+00  0.79681140243E+03  0.79681140243E+03  0.25500000920E-02 0.  1.
        2   -1    0    0  501    0  0.00000000000E+00  0.00000000000E+00 -0.18140687281E+04  0.18140687281E+04  0.25500000920E-02 0. -1.
    10030    2    1    2    0    0  0.00000000000E+00  0.00000000000E+00 -0.10172573256E+04  0.26108801305E+04  0.24045545511E+04 0.  0.
        2    1    3    3  502    0 -0.11040264039E+04  0.25975042827E+03 -0.75493984428E+02  0.11366811018E+04  0.25500000920E-02 0.  1.
       -2    1    3    3    0  502  0.11040264039E+04 -0.25975042827E+03 -0.94176334120E+03  0.14741990287E+04  0.25500000920E-02 0. -1.
</event>
<event>
 5   0  0.2087882E-05  0.2403005E+04  0.7818609E-02  0.8438379E-01
        2   -1    0    0  501    0  0.00000000000E+00  0.00000000000E+00  0.22345175575E+04  0.22345175575E+04  0.25500000920E-02 0.  1.
       -2   -1    0    0    0  501  0.00000000000E+00  0.00000000000E+00 -0.64604906117E+03  0.64604906118E+03  0.25500000920E-02 0. -1.
    10030    2    1    2    0    0  0.00000000000E+00  0.00000000000E+00  0.15884684963E+04  0.28805666187E+04  0.24030047609E+04 0.  0.
        2    1    3    3  502    0 -0.77008428691E+03 -0.57379696963E+03 -0.71295135831E+02  0.96299312962E+03  0.25500000920E-02 0. -1.
       -2    1    3    3    0  502  0.77008428691E+03  0.57379696963E+03  0.16597636322E+04  0.19175734891E+04  0.25500000920E-02 0.  1.
</event>
<event>
 5   0  0.2048028E-05  0.2348226E+04  0.7818609E-02  0.8459145E-01
        2   -1    0    0  501    0  0.00000000000E+00  0.00000000000E+00  0.15157060080E+04  0.15157060080E+04  0.25500000920E-02 0. -1.
       -2   -1    0    0    0  501  0.00000000000E+00  0.00000000000E+00 -0.90950459763E+03  0.90950459764E+03  0.25500000920E-02 0.  1.
    10030    2    1    2    0    0  0.00000000000E+00  0.00000000000E+00  0.60620141035E+03  0.24252106056E+04  0.23482262097E+04 0.  0.
        5    1    3    3  502    0  0.40479314812E+03  0.74234689626E+03  0.11444128950E+04  0.14228982295E+04  0.46999998093E+01 0. -1.
       -5    1    3    3    0  502 -0.40479314812E+03 -0.74234689626E+03 -0.53821148467E+03  0.10023123761E+04  0.46999998093E+01 0.  1.
</event>
<event>
 5   0  0.2080257E-05  0.2402904E+04  0.7818609E-02  0.8438417E-01
        2   -1    0    0  501    0  0.00000000000E+00  0.00000000000E+00  0.18337262644E+04  0.18337262644E+04  0.25500000920E-02 0. -1.
       -2   -1    0    0    0  501  0.00000000000E+00  0.00000000000E+00 -0.78718801052E+03  0.78718801052E+03  0.25500000920E-02 0.  1.
    10030    2    1    2    0    0  0.00000000000E+00  0.00000000000E+00  0.10465382539E+04  0.26209142749E+04  0.24029043509E+04 0.  0.
        1    1    3    3  502    0 -0.94628090143E+03  0.71365065003E+03  0.30857985140E+03  0.12247311213E+04  0.50400001928E-02 0. -1.
       -1    1    3    3    0  502  0.94628090143E+03 -0.71365065003E+03  0.73795840247E+03  0.13961831536E+04  0.50400001928E-02 0.  1.
</event>
<event>
 5   0  0.2087882E-05  0.2405508E+04  0.7818609E-02  0.8437444E-01
        2   -1    0    0  501    0  0.00000000000E+00  0.00000000000E+00  0.14574552990E+04  0.14574552990E+04  0.25500000920E-02 0. -1.
       -2   -1    0    0    0  501  0.00000000000E+00  0.00000000000E+00 -0.99256397761E+03  0.99256397761E+03  0.25500000920E-02 0.  1.
    10030    2    1    2    0    0  0.00000000000E+00  0.00000000000E+00  0.46489132137E+03  0.24500192766E+04  0.24055083694E+04 0.  0.
        2    1    3    3  502    0  0.41625025163E+03  0.86165598196E+03  0.97455849585E+03  0.13658255983E+04  0.25500000920E-02 0.  1.
       -2    1    3    3    0  502 -0.41625025163E+03 -0.86165598196E+03 -0.50966717448E+03  0.10841936783E+04  0.25500000920E-02 0. -1.
</event>
<event>
 5   0  0.2080257E-05  0.2392400E+04  0.7818609E-02  0.8442354E-01
        2   -1    0    0  501    0  0.00000000000E+00  0.00000000000E+00  0.11945873329E+04  0.11945873329E+04  0.25500000920E-02 0. -1.
       -2   -1    0    0    0  501  0.00000000000E+00  0.00000000000E+00 -0.11978153160E+04  0.11978153160E+04  0.25500000920E-02 0.  1.
    10030    2    1    2    0    0  0.00000000000E+00  0.00000000000E+00 -0.32279831030E+01  0.23924026489E+04  0.23924004712E+04 0.  0.
        1    1    3    3  502    0  0.43535636507E+03 -0.42594210328E+02  0.11117358317E+04  0.11946991214E+04  0.50400001928E-02 0. -1.
       -1    1    3    3    0  502 -0.43535636507E+03  0.42594210328E+02 -0.11149638148E+04  0.11977035274E+04  0.50400001928E-02 0.  1.
</event>
<event>
 5   0  0.8528103E-06  0.2386711E+04  0.7818609E-02  0.8444496E-01
       -1   -1    0    0    0  501  0.00000000000E+00  0.00000000000E+00  0.13640582153E+04  0.13640582153E+04  0.50400001928E-02 0. -1.
        1   -1    0    0  501    0  0.00000000000E+00  0.00000000000E+00 -0.10440150795E+04  0.10440150796E+04  0.50400001928E-02 0.  1.
    10030    2    1    2    0    0  0.00000000000E+00  0.00000000000E+00  0.32004313572E+03  0.24080732948E+04  0.23867109973E+04 0.  0.
        4    1    3    3  502    0  0.25991690471E+03 -0.62408762811E+03 -0.83216908904E+03  0.10721703086E+04  0.12699999809E+01 0.  1.
       -4    1    3    3    0  502 -0.25991690471E+03  0.62408762811E+03  0.11522122248E+04  0.13359029863E+04  0.12699999809E+01 0. -1.
</event>
<event>
 5   0  0.8528103E-06  0.2402841E+04  0.7818609E-02  0.8438441E-01
       -1   -1    0    0    0  501  0.00000000000E+00  0.00000000000E+00  0.11663844765E+04  0.11663844765E+04  0.50400001928E-02 0. -1.
        1   -1    0    0  501    0  0.00000000000E+00  0.00000000000E+00 -0.12375085816E+04  0.12375085816E+04  0.50400001928E-02 0.  1.
    10030    2    1    2    0    0  0.00000000000E+00  0.00000000000E+00 -0.71124105147E+02  0.24038930581E+04  0.24028406515E+04 0.  0.
        4    1    3    3  502    0 -0.65628395438E+03  0.82391546660E+03  0.54250055623E+03  0.11848433615E+04  0.12699999809E+01 0. -1.
       -4    1    3    3    0  502  0.65628395438E+03 -0.82391546660E+03 -0.61362466138E+03  0.12190496966E+04  0.12699999809E+01 0.  1.
</event>
<event>
 5   0  0.8528103E-06  0.2398355E+04  0.7818609E-02  0.8440120E-01
       -1   -1    0    0    0  501  0.00000000000E+00  0.00000000000E+00  0.76943765553E+03  0.76943765555E+03  0.50400001928E-02 0.  1.
        1   -1    0    0  501    0  0.00000000000E+00  0.00000000000E+00 -0.18689322872E+04  0.18689322872E+04  0.50400001928E-02 0. -1.
    10030    2    1    2    0    0  0.00000000000E+00  0.00000000000E+00 -0.10994946316E+04  0.26383699427E+04  0.23983551675E+04 0.  0.
        4    1    3    3  502    0 -0.39081338430E+03  0.15823695575E+03 -0.17847012505E+04  0.18338304726E+04  0.12699999809E+01 0. -1.
       -4    1    3    3    0  502  0.39081338430E+03 -0.15823695575E+03  0.68520661892E+03  0.80453947014E+03  0.12699999809E+01 0.  1.
</event>
<event>
 5   0  0.2025353E-05  0.2427874E+04  0.7818609E-02  0.8429141E-01
       -2   -1    0    0    0  501  0.00000000000E+00  0.00000000000E+00  0.92407245894E+03  0.92407245894E+03  0.25500000920E-02 0.  1.
        2   -1    0    0  501    0  0.00000000000E+00  0.00000000000E+00 -0.15947269267E+04  0.15947269267E+04  0.25500000920E-02 0. -1.
    10030    2    1    2    0    0  0.00000000000E+00  0.00000000000E+00 -0.67065446780E+03  0.25187993857E+04  0.24278741586E+04 0.  0.
        4    1    3    3  502    0 -0.64543532234E+03  0.18304585383E+03 -0.13849222072E+04  0.15388644101E+04  0.12699999809E+01 0. -1.
       -4    1    3    3    0  502  0.64543532234E+03 -0.18304585383E+03  0.71426773937E+03  0.97993497556E+03  0.12699999809E+01 0.  1.
</event>
<event>
 5   0  0.8898848E-06  0.2337207E+04  0.7818609E-02  0.8463394E-01
        1   -1    0    0  501    0  0.00000000000E+00  0.00000000000E+00  0.89573442515E+03  0.89573442517E+03  0.50400001928E-02 0. -1.
       -1   -1    0    0    0  501  0.00000000000E+00  0.00000000000E+00 -0.15245971083E+04  0.15245971083E+04  0.50400001928E-02 0.  1.
    10030    2    1    2    0    0  0.00000000000E+00  0.00000000000E+00 -0.62886268318E+03  0.24203315335E+04  0.23372069780E+04 0.  0.
        5    1    3    3  502    0  0.34733668148E+03  0.10007705202E+03 -0.14652398042E+04  0.15091745958E+04  0.46999998093E+01 0.  1.
       -5    1    3    3    0  502 -0.34733668148E+03 -0.10007705202E+03  0.83637712102E+03  0.91115693775E+03  0.46999998093E+01 0. -1.
</event>
<event>
 5   0  0.9083687E-06  0.2398101E+04  0.7818609E-02  0.8440215E-01
       -1   -1    0    0    0  501  0.00000000000E+00  0.00000000000E+00  0.81878970719E+03  0.81878970721E+03  0.50400001928E-02 0.  1.
        1   -1    0    0  501    0  0.00000000000E+00  0.00000000000E+00 -0.17559110482E+04  0.17559110482E+04  0.50400001928E-02 0. -1.
    10030    2    1    2    0    0  0.00000000000E+00  0.00000000000E+00 -0.93712134100E+03  0.25747007554E+04  0.23981008261E+04 0.  0.
        2    1    3    3  502    0  0.91120098725E+03  0.66115289240E+03 -0.25481517002E+02  0.11260815663E+04  0.25500000920E-02 0.  1.
       -2    1    3    3    0  502 -0.91120098725E+03 -0.66115289240E+03 -0.91163982400E+03  0.14486191891E+04  0.25500000920E-02 0. -1.
</event>
<event>
 5   0  0.8528103E-06  0.2394371E+04  0.7818609E-02  0.8441614E-01
        1   -1    0    0  501    0  0.00000000000E+00  0.00000000000E+00  0.11343042653E+04  0.11343042653E+04  0.50400001928E-02 0.  1.
       -1   -1    0    0    0  501  0.00000000000E+00  0.00000000000E+00 -0.12635531421E+04  0.12635531421E+04  0.50400001928E-02 0. -1.
    10030    2    1    2    0    0  0.00000000000E+00  0.00000000000E+00 -0.12924887678E+03  0.23978574074E+04  0.23943714988E+04 0.  0.
        4    1    3    3  502    0 -0.10289960540E+04 -0.46780194840E+03 -0.45963571099E+03  0.12202205300E+04  0.12699999809E+01 0. -1.
       -4    1    3    3    0  502  0.10289960540E+04  0.46780194840E+03  0.33038683421E+03  0.11776368774E+04  0.12699999809E+01 0.  1.
</event>
<event>
 5   0  0.8528103E-06  0.2411453E+04  0.7818609E-02  0.8435228E-01
        1   -1    0    0  501    0  0.00000000000E+00  0.00000000000E+00  0.17979931441E+04  0.17979931441E+04  0.50400001928E-02 0.  1.
       -1   -1    0    0    0  501  0.00000000000E+00  0.00000000000E+00 -0.80855507778E+03  0.80855507780E+03  0.50400001928E-02 0. -1.
    10030    2    1    2    0    0  0.00000000000E+00  0.00000000000E+00  0.98943806636E+03  0.26065482219E+04  0.24114530777E+04 0.  0.
        4    1    3    3  502    0 -0.22670521665E+03 -0.39820994575E+03  0.17002092797E+04  0.17608746758E+04  0.12699999809E+01 0.  1.
       -4    1    3    3    0  502  0.22670521665E+03  0.39820994575E+03 -0.71077121331E+03  0.84567354619E+03  0.12699999809E+01 0. -1.
</event>
<event>
 5   0  0.2122194E-05  0.2398214E+04  0.7818609E-02  0.8440173E-01
       -2   -1    0    0    0  501  0.00000000000E+00  0.00000000000E+00  0.78582300380E+03  0.78582300380E+03  0.25500000920E-02 0. -1.
        2   -1    0    0  501    0  0.00000000000E+00  0.00000000000E+00 -0.18297466914E+04  0.18297466914E+04  0.25500000920E-02 0.  1.
    10030    2    1    2    0    0  0.00000000000E+00  0.00000000000E+00 -0.10439236876E+04  0.26155696952E+04  0.23982135361E+04 0.  0.
        3    1    3    3  502    0  0.27995187383E+02  0.37698749752E+03  0.71913471636E+03  0.81243956962E+03  0.10100000352E+00 0. -1.
       -3    1    3    3    0  502 -0.27995187383E+02 -0.37698749752E+03 -0.17630584040E+04  0.18031301256E+04  0.10100000352E+00 0.  1.
</event>
<event>
 5   0  0.9083687E-06  0.2401857E+04  0.7818609E-02  0.8438809E-01
        1   -1    0    0  501    0  0.00000000000E+00  0.00000000000E+00  0.66517353917E+03  0.66517353919E+03  0.50400001928E-02 0. -1.
       -1   -1    0    0    0  501  0.00000000000E+00  0.00000000000E+00 -0.21682006365E+04  0.21682006365E+04  0.50400001928E-02 0.  1.
    10030    2    1    2    0    0  0.00000000000E+00  0.00000000000E+00 -0.15030270973E+04  0.28333741757E+04  0.24018573572E+04 0.  0.
        2    1    3    3  502    0  0.97476517379E+02  0.10729003299E+04 -0.12550106575E+03  0.10846046777E+04  0.25500000920E-02 0. -1.
       -2    1    3    3    0  502 -0.97476517379E+02 -0.10729003299E+04 -0.13775260316E+04  0.17487694980E+04  0.25500000920E-02 0.  1.
</event>
<event>
 5   0  0.2122194E-05  0.2404551E+04  0.7818609E-02  0.8437802E-01
        2   -1    0    0  501    0  0.00000000000E+00  0.00000000000E+00  0.69131490810E+03  0.69131490811E+03  0.25500000920E-02 0. -1.
       -2   -1    0    0    0  501  0.00000000000E+00  0.00000000000E+00 -0.20908935831E+04  0.20908935831E+04  0.25500000920E-02 0.  1.
    10030    2    1    2    0    0  0.00000000000E+00  0.00000000000E+00 -0.13995786750E+04  0.27822084912E+04  0.24045506069E+04 0.  0.
        3    1    3    3  502    0 -0.95340873397E+03 -0.17854639134E+03 -0.15217080830E+04  0.18045671304E+04  0.10100000352E+00 0.  1.
       -3    1    3    3    0  502  0.95340873397E+03  0.17854639134E+03  0.12212940804E+03  0.97764136082E+03  0.10100000352E+00 0. -1.
</event>
<event>
 5   0  0.8898848E-06  0.2514803E+04  0.7818609E-02  0.8397731E-01
       -1   -1    0    0    0  501  0.00000000000E+00  0.00000000000E+00  0.88472320637E+03  0.88472320638E+03  0.50400001928E-02 0. -1.
        1   -1    0    0  501    0  0.00000000000E+00  0.00000000000E+00 -0.17870660175E+04  0.17870660175E+04  0.50400001928E-02 0.  1.
    10030    2    1    2    0    0  0.00000000000E+00  0.00000000000E+00 -0.90234281114E+03  0.26717892239E+04  0.25148031947E+04 0.  0.
        5    1    3    3  502    0 -0.53990116064E+03 -0.58648244716E+03 -0.14842841863E+04  0.16848075735E+04  0.46999998093E+01 0.  1.
       -5    1    3    3    0  502  0.53990116064E+03  0.58648244716E+03  0.58194137515E+03  0.98698165038E+03  0.46999998093E+01 0. -1.
</event>
<event>
 5   0  0.2122194E-05  0.2396105E+04  0.7818609E-02  0.8440963E-01
        2   -1    0    0  501    0  0.00000000000E+00  0.00000000000E+00  0.14864962899E+04  0.14864962899E+04  0.25500000920E-02 0.  1.
       -2   -1    0    0    0  501  0.00000000000E+00  0.00000000000E+00 -0.96557877336E+03  0.96557877337E+03  0.25500000920E-02 0. -1.
    10030    2    1    2    0    0  0.00000000000E+00  0.00000000000E+00  0.52091751654E+03  0.24520750633E+04  0.23961045588E+04 0.  0.
        3    1    3    3  502    0 -0.31056661356E+03  0.74758537411E+03  0.11642612913E+04  0.14180408589E+04  0.10100000352E+00 0.  1.
       -3    1    3    3    0  502  0.31056661356E+03 -0.74758537411E+03 -0.64334377474E+03  0.10340342043E+04  0.10100000352E+00 0. -1.
</event>
<event>
 5   0  0.9176817E-06  0.2412657E+04  0.7818609E-02  0.8434780E-01
       -1   -1    0    0    0  501  0.00000000000E+00  0.00000000000E+00  0.81357234454E+03  0.81357234455E+03  0.50400001928E-02 0.  1.
        1   -1    0    0  501    0  0.00000000000E+00  0.00000000000E+00 -0.17886890003E+04  0.17886890004E+04  0.50400001928E-02 0. -1.
    10030    2    1    2    0    0  0.00000000000E+00  0.00000000000E+00 -0.97511665581E+03  0.26022613449E+04  0.24126565472E+04 0.  0.
        3    1    3    3  502    0 -0.10657748164E+04  0.56133657876E+03 -0.41721672454E+03  0.12747723402E+04  0.10100000352E+00 0. -1.
       -3    1    3    3    0  502  0.10657748164E+04 -0.56133657876E+03 -0.55789993127E+03  0.13274890047E+04  0.10100000352E+00 0.  1.
</event>
<event>
 5   0  0.8898848E-06  0.2406784E+04  0.7818609E-02  0.8436968E-01
        1   -1    0    0  501    0  0.00000000000E+00  0.00000000000E+00  0.12704714483E+04  0.12704714483E+04  0.50400001928E-02 0. -1.
       -1   -1    0    0    0  501  0.00000000000E+00  0.00000000000E+00 -0.11398539670E+04  0.11398539670E+04  0.50400001928E-02 0.  1.
    10030    2    1    2    0    0  0.00000000000E+00  0.00000000000E+00  0.13061748136E+03  0.24103254153E+04  0.24067836798E+04 0.  0.
        5    1    3    3  502    0  0.65211650881E+03 -0.77364188380E+03 -0.58707302347E+03  0.11698096128E+04  0.46999998093E+01 0.  1.
       -5    1    3    3    0  502 -0.65211650881E+03  0.77364188380E+03  0.71769050483E+03  0.12405158025E+04  0.46999998093E+01 0. -1.
</event>
<event>
 5   0  0.2048028E-05  0.2403495E+04  0.7818609E-02  0.8438196E-01
        2   -1    0    0  501    0  0.00000000000E+00  0.00000000000E+00  0.11019884008E+04  0.11019884008E+04  0.25500000920E-02 0.  1.
       -2   -1    0    0    0  501  0.00000000000E+00  0.00000000000E+00 -0.13105377420E+04  0.13105377420E+04  0.25500000920E-02 0. -1.
    10030    2    1    2    0    0  0.00000000000E+00  0.00000000000E+00 -0.20854934125E+03  0.24125261428E+04  0.24034952802E+04 0.  0.
        5    1    3    3  502    0  0.11607268723E+04  0.28018631407E+03  0.31822608215E+02  0.11944982257E+04  0.46999998093E+01 0.  1.
       -5    1    3    3    0  502 -0.11607268723E+04 -0.28018631407E+03 -0.24037194947E+03  0.12180279171E+04  0.46999998093E+01 0. -1.
</event>
<event>
 5   0  0.9038897E-06  0.2398787E+04  0.7818609E-02  0.8439958E-01
       -1   -1    0    0    0  501  0.00000000000E+00  0.00000000000E+00  0.12400855949E+04  0.12400855949E+04  0.50400001928E-02 0. -1.
        1   -1    0    0  501    0  0.00000000000E+00  0.00000000000E+00 -0.11600369488E+04  0.11600369488E+04  0.50400001928E-02 0.  1.
    10030    2    1    2    0    0  0.00000000000E+00  0.00000000000E+00  0.80048646104E+02  0.24001225438E+04  0.23987872851E+04 0.  0.
        1    1    3    3  502    0  0.61190418655E+03 -0.16334870218E+03 -0.97908845457E+03  0.11660719248E+04  0.50400001928E-02 0.  1.
       -1    1    3    3    0  502 -0.61190418655E+03  0.16334870218E+03  0.10591371007E+04  0.12340506189E+04  0.50400001928E-02 0. -1.
</event>
<event>
 5   0  0.9083687E-06  0.2398592E+04  0.7818609E-02  0.8440031E-01
       -1   -1    0    0    0  501  0.00000000000E+00  0.00000000000E+00  0.12887123465E+04  0.12887123465E+04  0.50400001928E-02 0. -1.
        1   -1    0    0  501    0  0.00000000000E+00  0.00000000000E+00 -0.11160839039E+04  0.11160839040E+04  0.50400001928E-02 0.  1.
    10030    2    1    2    0    0  0.00000000000E+00  0.00000000000E+00  0.17262844254E+03  0.24047962504E+04  0.23985921760E+04 0.  0.
        2    1    3    3  502    0  0.11075591684E+04 -0.14860985734E+03 -0.35017252164E+03  0.11710648983E+04  0.25500000920E-02 0.  1.
       -2    1    3    3    0  502 -0.11075591684E+04  0.14860985734E+03  0.52280096418E+03  0.12337313521E+04  0.25500000920E-02 0. -1.
</event>
<event>
 5   0  0.2087882E-05  0.2261843E+04  0.7818609E-02  0.8493120E-01
        2   -1    0    0  501    0  0.00000000000E+00  0.00000000000E+00  0.14011429758E+04  0.14011429758E+04  0.25500000920E-02 0.  1.
       -2   -1    0    0    0  501  0.00000000000E+00  0.00000000000E+00 -0.91281450314E+03  0.91281450315E+03  0.25500000920E-02 0. -1.
    10030    2    1    2    0    0  0.00000000000E+00  0.00000000000E+00  0.48832847269E+03  0.23139574790E+04  0.22618431682E+04 0.  0.
        2    1    3    3  502    0  0.14889371700E+03  0.27357457440E+03  0.13563986816E+04  0.13917003162E+04  0.25500000920E-02 0.  1.
       -2    1    3    3    0  502 -0.14889371700E+03 -0.27357457440E+03 -0.86807020889E+03  0.92225716278E+03  0.25500000920E-02 0. -1.
</event>
<event>
 5   0  0.2087882E-05  0.2389652E+04  0.7818609E-02  0.8443388E-01
       -2   -1    0    0    0  501  0.00000000000E+00  0.00000000000E+00  0.74970020459E+03  0.74970020460E+03  0.25500000920E-02 0. -1.
        2   -1    0    0  501    0  0.00000000000E+00  0.00000000000E+00 -0.19042392736E+04  0.19042392736E+04  0.25500000920E-02 0.  1.
    10030    2    1    2    0    0  0.00000000000E+00  0.00000000000E+00 -0.11545390690E+04  0.26539394782E+04  0.23896515001E+04 0.  0.
        2    1    3    3  502    0  0.17144784695E+02  0.47755617435E+03  0.63895053433E+03  0.79787945745E+03  0.25500000920E-02 0. -1.
       -2    1    3    3    0  502 -0.17144784695E+02 -0.47755617435E+03 -0.17934896033E+04  0.18560600207E+04  0.25500000920E-02 0.  1.
</event>
<event>
 5   0  0.2025353E-05  0.2400447E+04  0.7818609E-02  0.8439336E-01
       -2   -1    0    0    0  501  0.00000000000E+00  0.00000000000E+00  0.84408551888E+03  0.84408551889E+03  0.25500000920E-02 0. -1.
        2   -1    0    0  501    0  0.00000000000E+00  0.00000000000E+00 -0.17066237908E+04  0.17066237908E+04  0.25500000920E-02 0.  1.
    10030    2    1    2    0    0  0.00000000000E+00  0.00000000000E+00 -0.86253827188E+03  0.25507093097E+04  0.24004469817E+04 0.  0.
        4    1    3    3  502    0  0.49266943570E+03 -0.53885119612E+02  0.73027599864E+03  0.88257091844E+03  0.12699999809E+01 0. -1.
       -4    1    3    3    0  502 -0.49266943570E+03  0.53885119612E+02 -0.15928142705E+04  0.16681383912E+04  0.12699999809E+01 0.  1.
</event>
<event>
 5   0  0.2080257E-05  0.2407344E+04  0.7818609E-02  0.8436759E-01
        2   -1    0    0  501    0  0.00000000000E+00  0.00000000000E+00  0.17222135608E+04  0.17222135608E+04  0.25500000920E-02 0.  1.
       -2   -1    0    0    0  501  0.00000000000E+00  0.00000000000E+00 -0.84125824352E+03  0.84125824352E+03  0.25500000920E-02 0. -1.
    10030    2    1    2    0    0  0.00000000000E+00  0.00000000000E+00  0.88095531730E+03  0.25634718043E+04  0.24073440594E+04 0.  0.
        1    1    3    3  502    0  0.16073099467E+03 -0.12416563284E+03  0.17038347481E+04  0.17158975511E+04  0.50400001928E-02 0.  1.
       -1    1    3    3    0  502 -0.16073099467E+03  0.12416563284E+03 -0.82287943082E+03  0.84757425322E+03  0.50400001928E-02 0. -1.
</event>
<event>
 5   0  0.2048028E-05  0.2419130E+04  0.7818609E-02  0.8432376E-01
       -2   -1    0    0    0  501  0.00000000000E+00  0.00000000000E+00  0.16648165329E+04  0.16648165329E+04  0.25500000920E-02 0.  1.
        2   -1    0    0  501    0  0.00000000000E+00  0.00000000000E+00 -0.87880375690E+03  0.87880375690E+03  0.25500000920E-02 0. -1.
    10030    2    1    2    0    0  0.00000000000E+00  0.00000000000E+00  0.78601277602E+03  0.25436202898E+04  0.24191296151E+04 0.  0.
        5    1    3    3  502    0 -0.24624532950E+03 -0.10979833174E+04 -0.73468904219E+02  0.11276630248E+04  0.46999998093E+01 0. -1.
       -5    1    3    3    0  502  0.24624532950E+03  0.10979833174E+04  0.85948168024E+03  0.14159572650E+04  0.46999998093E+01 0.  1.
</event>
<event>
 5   0  0.2087882E-05  0.2280161E+04  0.7818609E-02  0.8485785E-01
        2   -1    0    0  501    0  0.00000000000E+00  0.00000000000E+00  0.11609769609E+04  0.11609769609E+04  0.25500000920E-02 0.  1.
       -2   -1    0    0    0  501  0.00000000000E+00  0.00000000000E+00 -0.11195604554E+04  0.11195604554E+04  0.25500000920E-02 0. -1.
    10030    2    1    2    0    0  0.00000000000E+00  0.00000000000E+00  0.41416505416E+02  0.22805374163E+04  0.22801613057E+04 0.  0.
        2    1    3    3  502    0 -0.48365742122E+03 -0.73336397236E+03  0.74748943759E+03  0.11534676746E+04  0.25500000920E-02 0.  1.
       -2    1    3    3    0  502  0.48365742122E+03  0.73336397236E+03 -0.70607293218E+03  0.11270697417E+04  0.25500000920E-02 0. -1.
</event>
<event>
 5   0  0.2080257E-05  0.2406669E+04  0.7818609E-02  0.8437011E-01
       -2   -1    0    0    0  501  0.00000000000E+00  0.00000000000E+00  0.19924853117E+04  0.19924853117E+04  0.25500000920E-02 0.  1.
        2   -1    0    0  501    0  0.00000000000E+00  0.00000000000E+00 -0.72673784592E+03  0.72673784593E+03  0.25500000920E-02 0. -1.
    10030    2    1    2    0    0  0.00000000000E+00  0.00000000000E+00  0.12657474658E+04  0.27192231576E+04  0.24066694692E+04 0.  0.
        1    1    3    3  502    0 -0.87406844876E+03  0.29123715099E+03  0.15074832808E+04  0.17667259474E+04  0.50400001928E-02 0.  1.
       -1    1    3    3    0  502  0.87406844876E+03 -0.29123715099E+03 -0.24173581503E+03  0.95249721024E+03  0.50400001928E-02 0. -1.
</event>
<event>
 5   0  0.7233625E-06  0.2320996E+04  0.7818609E-02  0.8469689E-01
        3   -1    0    0  501    0  0.00000000000E+00  0.00000000000E+00  0.77149810794E+03  0.77149811455E+03  0.10100000352E+00 0.  1.
       -3   -1    0    0    0  501  0.00000000000E+00  0.00000000000E+00 -0.17456363765E+04  0.17456363794E+04  0.10100000352E+00 0. -1.
    10030    2    1    2    0    0  0.00000000000E+00  0.00000000000E+00 -0.97413826856E+03  0.25171344940E+04  0.23209956257E+04 0.  0.
        3    1    3    3  502    0  0.86783033245E+03  0.21691982242E+03  0.31471152837E+03  0.94827583095E+03  0.10100000352E+00 0.  1.
       -3    1    3    3    0  502 -0.86783033245E+03 -0.21691982242E+03 -0.12888497969E+04  0.15688586630E+04  0.10100000352E+00 0. -1.
</event>
<event>
 5   0  0.7233625E-06  0.2399943E+04  0.7818609E-02  0.8439525E-01
       -3   -1    0    0    0  501  0.00000000000E+00  0.00000000000E+00  0.26701926878E+04  0.26701926897E+04  0.10100000352E+00 0.  1.
        3   -1    0    0  501    0  0.00000000000E+00  0.00000000000E+00 -0.53926109487E+03  0.53926110433E+03  0.10100000352E+00 0. -1.
    10030    2    1    2    0    0  0.00000000000E+00  0.00000000000E+00  0.21309315930E+04  0.32094537941E+04  0.23999425415E+04 0.  0.
        1    1    3    3  502    0  0.20246548344E+03  0.11824076820E+04  0.10264574692E+04  0.15788271389E+04  0.50400001928E-02 0.  1.
       -1    1    3    3    0  502 -0.20246548344E+03 -0.11824076820E+04  0.11044741237E+04  0.16306266551E+04  0.50400001928E-02 0. -1.
</event>
<event>
 5   0  0.9176817E-06  0.2490073E+04  0.7818609E-02  0.8406531E-01
       -1   -1    0    0    0  501  0.00000000000E+00  0.00000000000E+00  0.12017734043E+04  0.12017734043E+04  0.50400001928E-02 0.  1.
        1   -1    0    0  501    0  0.00000000000E+00  0.00000000000E+00 -0.12898569731E+04  0.12898569731E+04  0.50400001928E-02 0. -1.
    10030    2    1    2    0    0  0.00000000000E+00  0.00000000000E+00 -0.88083568789E+02  0.24916303774E+04  0.24900729351E+04 0.  0.
        3    1    3    3  502    0 -0.29833200546E+03 -0.32066873997E+03  0.11221421668E+04  0.12045885103E+04  0.10100000352E+00 0.  1.
       -3    1    3    3    0  502  0.29833200546E+03  0.32066873997E+03 -0.12102257356E+04  0.12870418671E+04  0.10100000352E+00 0. -1.
</event>
<event>
 5   0  0.2048028E-05  0.2464009E+04  0.7818609E-02  0.8415921E-01
       -2   -1    0    0    0  501  0.00000000000E+00  0.00000000000E+00  0.70692275389E+03  0.70692275390E+03  0.25500000920E-02 0.  1.
        2   -1    0    0  501    0  0.00000000000E+00  0.00000000000E+00 -0.21471010693E+04  0.21471010693E+04  0.25500000920E-02 0. -1.
    10030    2    1    2    0    0  0.00000000000E+00  0.00000000000E+00 -0.14401783154E+04  0.28540238232E+04  0.24640086045E+04 0.  0.
        5    1    3    3  502    0  0.46580279487E+03  0.21284386879E+03 -0.20179563733E+04  0.20819329410E+04  0.46999998093E+01 0. -1.
       -5    1    3    3    0  502 -0.46580279487E+03 -0.21284386879E+03  0.57777805791E+03  0.77209088220E+03  0.46999998093E+01 0.  1.
</event>
<event>
 5   0  0.8528103E-06  0.2405029E+04  0.7818609E-02  0.8437623E-01
       -1   -1    0    0    0  501  0.00000000000E+00  0.00000000000E+00  0.91965101319E+03  0.91965101320E+03  0.50400001928E-02 0.  1.
        1   -1    0    0  501    0  0.00000000000E+00  0.00000000000E+00 -0.15723798111E+04  0.15723798111E+04  0.50400001928E-02 0. -1.
    10030    2    1    2    0    0  0.00000000000E+00  0.00000000000E+00 -0.65272879787E+03  0.24920308243E+04  0.24050286372E+04 0.  0.
        4    1    3    3  502    0  0.11931660555E+04 -0.14764789584E+03 -0.30111197092E+03  0.12394011332E+04  0.12699999809E+01 0. -1.
       -4    1    3    3    0  502 -0.11931660555E+04  0.14764789584E+03 -0.35161682695E+03  0.12526296911E+04  0.12699999809E+01 0.  1.
</event>
<event>
 5   0  0.2080257E-05  0.2405087E+04  0.7818609E-02  0.8437601E-01
        2   -1    0    0  501    0  0.00000000000E+00  0.00000000000E+00  0.60529147413E+03  0.60529147414E+03  0.25500000920E-02 0. -1.
       -2   -1    0    0    0  501  0.00000000000E+00  0.00000000000E+00 -0.23891152518E+04  0.23891152518E+04  0.25500000920E-02 0.  1.
    10030    2    1    2    0    0  0.00000000000E+00  0.00000000000E+00 -0.17838237776E+04  0.29944067259E+04  0.24050871856E+04 0.  0.
        1    1    3    3  502    0  0.69769528664E+03  0.15733471513E+03  0.31170363578E+03  0.78018720969E+03  0.50400001928E-02 0. -1.
       -1    1    3    3    0  502 -0.69769528664E+03 -0.15733471513E+03 -0.20955274134E+04  0.22142195162E+04  0.50400001928E-02 0.  1.
</event>
<event>
 5   0  0.2087882E-05  0.2382872E+04  0.7818609E-02  0.8445944E-01
        2   -1    0    0  501    0  0.00000000000E+00  0.00000000000E+00  0.17659867123E+04  0.17659867123E+04  0.25500000920E-02 0. -1.
       -2   -1    0    0    0  501  0.00000000000E+00  0.00000000000E+00 -0.80381123067E+03  0.80381123068E+03  0.25500000920E-02 0.  1.
    10030    2    1    2    0    0  0.00000000000E+00  0.00000000000E+00  0.96217548160E+03  0.25697979429E+04  0.23828721766E+04 0.  0.
        2    1    3    3  502    0  0.34851416372E+03 -0.57611357648E+03  0.15411240213E+04  0.16817943467E+04  0.25500000920E-02 0. -1.
       -2    1    3    3    0  502 -0.34851416372E+03  0.57611357648E+03 -0.57894853975E+03  0.88800359628E+03  0.25500000920E-02 0.  1.
</event>
<event>
 5   0  0.8898848E-06  0.2398799E+04  0.7818609E-02  0.8439953E-01
       -1   -1    0    0    0  501  0.00000000000E+00  0.00000000000E+00  0.31634798512E+04  0.31634798512E+04  0.50400001928E-02 0. -1.
        1   -1    0    0  501    0  0.00000000000E+00  0.00000000000E+00 -0.45473932638E+03  0.45473932641E+03  0.50400001928E-02 0.  1.
    10030    2    1    2    0    0  0.00000000000E+00  0.00000000000E+00  0.27087405248E+04  0.36182191776E+04  0.23987986131E+04 0.  0.
        5    1    3    3  502    0 -0.11495896674E+04 -0.27457570009E+03  0.10467696995E+04  0.15788277653E+04  0.46999998093E+01 0.  1.
       -5    1    3    3    0  502  0.11495896674E+04  0.27457570009E+03  0.16619708252E+04  0.20393914123E+04  0.46999998093E+01 0. -1.
</event>
<event>
 5   0  0.2025353E-05  0.2477093E+04  0.7818609E-02  0.8411192E-01
        2   -1    0    0  501    0  0.00000000000E+00  0.00000000000E+00  0.84669674187E+03  0.84669674187E+03  0.25500000920E-02 0.  1.
       -2   -1    0    0    0  501  0.00000000000E+00  0.00000000000E+00 -0.18117430961E+04  0.18117430961E+04  0.25500000920E-02 0. -1.
    10030    2    1    2    0    0  0.00000000000E+00  0.00000000000E+00 -0.96504635423E+03  0.26584398380E+04  0.24770926318E+04 0.  0.
        4    1    3    3  502    0  0.84147714611E+02 -0.77313547914E+03 -0.15170305592E+04  0.17047588209E+04  0.12699999809E+01 0. -1.
       -4    1    3    3    0  502 -0.84147714611E+02  0.77313547914E+03  0.55198420494E+03  0.95368101710E+03  0.12699999809E+01 0.  1.
</event>
<event>
 5   0  0.2048028E-05  0.2395446E+04  0.7818609E-02  0.8441211E-01
        2   -1    0    0  501    0  0.00000000000E+00  0.00000000000E+00  0.13654576971E+04  0.13654576971E+04  0.25500000920E-02 0. -1.
       -2   -1    0    0    0  501  0.00000000000E+00  0.00000000000E+00 -0.10505929248E+04  0.10505929248E+04  0.25500000920E-02 0.  1.
    10030    2    1    2    0    0  0.00000000000E+00  0.00000000000E+00  0.31486477234E+03  0.24160506219E+04  0.23954458422E+04 0.  0.
        5    1    3    3  502    0 -0.28424458391E+03 -0.11148886257E+04  0.49308082225E+03  0.12517677174E+04  0.46999998093E+01 0. -1.
       -5    1    3    3    0  502  0.28424458391E+03  0.11148886257E+04 -0.17821604992E+03  0.11642829045E+04  0.46999998093E+01 0.  1.
</event>
<event>
 5   0  0.8528103E-06  0.2427700E+04  0.7818609E-02  0.8429205E-01
       -1   -1    0    0    0  501  0.00000000000E+00  0.00000000000E+00  0.12014611387E+04  0.12014611387E+04  0.50400001928E-02 0.  1.
        1   -1    0    0  501    0  0.00000000000E+00  0.00000000000E+00 -0.12263669678E+04  0.12263669678E+04  0.50400001928E-02 0. -1.
    10030    2    1    2    0    0  0.00000000000E+00  0.00000000000E+00 -0.24905829031E+02  0.24278281065E+04  0.24277003552E+04 0.  0.
        4    1    3    3  502    0 -0.27069874790E+02 -0.74775663408E+03 -0.96830542850E+03  0.12237196483E+04  0.12699999809E+01 0. -1.
       -4    1    3    3    0  502  0.27069874790E+02  0.74775663408E+03  0.94339959947E+03  0.12041084582E+04  0.12699999809E+01 0.  1.
</event>
<event>
 5   0  0.2080257E-05  0.2400553E+04  0.7818609E-02  0.8439296E-01
       -2   -1    0    0    0  501  0.00000000000E+00  0.00000000000E+00  0.72532453565E+03  0.72532453566E+03  0.25500000920E-02 0.  1.
        2   -1    0    0  501    0  0.00000000000E+00  0.00000000000E+00 -0.19862336616E+04  0.19862336616E+04  0.25500000920E-02 0. -1.
    10030    2    1    2    0    0  0.00000000000E+00  0.00000000000E+00 -0.12609091259E+04  0.27115581972E+04  0.24005532765E+04 0.  0.
        1    1    3    3  502    0  0.28602926404E+03  0.13463714930E+03 -0.19383628459E+04  0.19639731221E+04  0.50400001928E-02 0. -1.
       -1    1    3    3    0  502 -0.28602926404E+03 -0.13463714930E+03  0.67745371998E+03  0.74758507516E+03  0.50400001928E-02 0.  1.
</event>
<event>
 5   0  0.8898848E-06  0.2356820E+04  0.7818609E-02  0.8455849E-01
       -1   -1    0    0    0  501  0.00000000000E+00  0.00000000000E+00  0.88524701490E+03  0.88524701491E+03  0.50400001928E-02 0.  1.
        1   -1    0    0  501    0  0.00000000000E+00  0.00000000000E+00 -0.15686583567E+04  0.15686583567E+04  0.50400001928E-02 0. -1.
    10030    2    1    2    0    0  0.00000000000E+00  0.00000000000E+00 -0.68341134180E+03  0.24539053716E+04  0.23568199997E+04 0.  0.
        5    1    3    3  502    0  0.26716458793E+03 -0.11475143963E+04 -0.31933016118E+03  0.12207211182E+04  0.46999998093E+01 0.  1.
       -5    1    3    3    0  502 -0.26716458793E+03  0.11475143963E+04 -0.36408118062E+03  0.12331842534E+04  0.46999998093E+01 0. -1.
</event>
<event>
 5   0  0.9176817E-06  0.2389929E+04  0.7818609E-02  0.8443284E-01
        1   -1    0    0  501    0  0.00000000000E+00  0.00000000000E+00  0.18375557188E+04  0.18375557188E+04  0.50400001928E-02 0.  1.
       -1   -1    0    0    0  501  0.00000000000E+00  0.00000000000E+00 -0.77708640563E+03  0.77708640564E+03  0.50400001928E-02 0. -1.
    10030    2    1    2    0    0  0.00000000000E+00  0.00000000000E+00  0.10604693132E+04  0.26146421245E+04  0.23899285083E+04 0.  0.
        3    1    3    3  502    0  0.87071588160E+03  0.42539430616E+03  0.12951399124E+04  0.16175579943E+04  0.10100000352E+00 0.  1.
       -3    1    3    3    0  502 -0.87071588160E+03 -0.42539430616E+03 -0.23467059922E+03  0.99708413011E+03  0.10100000352E+00 0. -1.
</event>
<event>
 5   0  0.9176817E-06  0.2410787E+04  0.7818609E-02  0.8435476E-01
        1   -1    0    0  501    0  0.00000000000E+00  0.00000000000E+00  0.16262465300E+04  0.16262465300E+04  0.50400001928E-02 0.  1.
       -1   -1    0    0    0  501  0.00000000000E+00  0.00000000000E+00 -0.89345249847E+03  0.89345249848E+03  0.50400001928E-02 0. -1.
    10030    2    1    2    0    0  0.00000000000E+00  0.00000000000E+00  0.73279403151E+03  0.25196990285E+04  0.24107874443E+04 0.  0.
        3    1    3    3  502    0 -0.41270734330E+03  0.29258019465E+03  0.15099195120E+04  0.15924156067E+04  0.10100000352E+00 0.  1.
       -3    1    3    3    0  502  0.41270734330E+03 -0.29258019465E+03 -0.77712548054E+03  0.92728342173E+03  0.10100000352E+00 0. -1.
</event>
<event>
 5   0  0.8528103E-06  0.2384464E+04  0.7818609E-02  0.8445343E-01
        1   -1    0    0  501    0  0.00000000000E+00  0.00000000000E+00  0.12880196828E+04  0.12880196828E+04  0.50400001928E-02 0. -1.
       -1   -1    0    0    0  501  0.00000000000E+00  0.00000000000E+00 -0.11035679969E+04  0.11035679969E+04  0.50400001928E-02 0.  1.
    10030    2    1    2    0    0  0.00000000000E+00  0.00000000000E+00  0.18445168587E+03  0.23915876798E+04  0.23844641338E+04 0.  0.
        4    1    3    3  502    0  0.10613088386E+04  0.44002069099E+03  0.41164394101E+03  0.12204290256E+04  0.12699999809E+01 0. -1.
       -4    1    3    3    0  502 -0.10613088386E+04 -0.44002069099E+03 -0.22719225514E+03  0.11711586541E+04  0.12699999809E+01 0.  1.
</event>
<event>
 5   0  0.2122194E-05  0.2399949E+04  0.7818609E-02  0.8439523E-01
       -2   -1    0    0    0  501  0.00000000000E+00  0.00000000000E+00  0.67959199919E+03  0.67959199919E+03  0.25500000920E-02 0.  1.
        2   -1    0    0  501    0  0.00000000000E+00  0.00000000000E+00 -0.21188282815E+04  0.21188282815E+04  0.25500000920E-02 0. -1.
    10030    2    1    2    0    0  0.00000000000E+00  0.00000000000E+00 -0.14392362823E+04  0.27984202807E+04  0.23999489559E+04 0.  0.
        3    1    3    3  502    0 -0.68532049890E+03 -0.91075496324E+03 -0.11571525193E+04  0.16242354363E+04  0.10100000352E+00 0. -1.
       -3    1    3    3    0  502  0.68532049890E+03  0.91075496324E+03 -0.28208376296E+03  0.11741848444E+04  0.10100000352E+00 0.  1.
</event>
<event>
 5   0  0.7233625E-06  0.2375835E+04  0.7818609E-02  0.8448606E-01
        3   -1    0    0  501    0  0.00000000000E+00  0.00000000000E+00  0.16792412564E+04  0.16792412594E+04  0.10100000352E+00 0. -1.
       -3   -1    0    0    0  501  0.00000000000E+00  0.00000000000E+00 -0.84034853902E+03  0.84034854509E+03  0.10100000352E+00 0.  1.
    10030    2    1    2    0    0  0.00000000000E+00  0.00000000000E+00  0.83889271736E+03  0.25195898045E+04  0.23758349673E+04 0.  0.
        2    1    3    3  502    0 -0.89168721943E+02 -0.21642869285E+03 -0.81564857434E+03  0.84857235218E+03  0.25500000920E-02 0.  1.
       -2    1    3    3    0  502  0.89168721943E+02  0.21642869285E+03  0.16545412917E+04  0.16710174523E+04  0.25500000920E-02 0. -1.
</event>
<event>
 5   0  0.2122194E-05  0.2400938E+04  0.7818609E-02  0.8439152E-01
       -2   -1    0    0    0  501  0.00000000000E+00  0.00000000000E+00  0.73973377464E+03  0.73973377464E+03  0.25500000920E-02 0. -1.
        2   -1    0    0  501    0  0.00000000000E+00  0.00000000000E+00 -0.19481684734E+04  0.19481684734E+04  0.25500000920E-02 0.  1.
    10030    2    1    2    0    0  0.00000000000E+00  0.00000000000E+00 -0.12084346987E+04  0.26879022480E+04  0.24009381653E+04 0.  0.
        3    1    3    3  502    0 -0.76291770128E+03 -0.60660607087E+03 -0.13887709497E+04  0.16966729517E+04  0.10100000352E+00 0.  1.
       -3    1    3    3    0  502  0.76291770128E+03  0.60660607087E+03  0.18033625101E+03  0.99122929626E+03  0.10100000352E+00 0. -1.
</event>
<event>
 5   0  0.2048028E-05  0.2391801E+04  0.7818609E-02  0.8442579E-01
        2   -1    0    0  501    0  0.00000000000E+00  0.00000000000E+00  0.83595059538E+03  0.83595059539E+03  0.25500000920E-02 0. -1.
       -2   -1    0    0    0  501  0.00000000000E+00  0.00000000000E+00 -0.17108408141E+04  0.17108408141E+04  0.25500000920E-02 0.  1.
    10030    2    1    2    0    0  0.00000000000E+00  0.00000000000E+00 -0.87489021875E+03  0.25467914095E+04  0.23918013272E+04 0.  0.
        5    1    3    3  502    0 -0.32440668828E+03  0.64434489058E+03  0.57816269285E+03  0.92450755910E+03  0.46999998093E+01 0. -1.
       -5    1    3    3    0  502  0.32440668828E+03 -0.64434489058E+03 -0.14530529116E+04  0.16222838504E+04  0.46999998093E+01 0.  1.
</event>
<event>
 5   0  0.9083687E-06  0.2442663E+04  0.7818609E-02  0.8423702E-01
        1   -1    0    0  501    0  0.00000000000E+00  0.00000000000E+00  0.53433172343E+03  0.53433172346E+03  0.50400001928E-02 0. -1.
       -1   -1    0    0    0  501  0.00000000000E+00  0.00000000000E+00 -0.27916183320E+04  0.27916183320E+04  0.50400001928E-02 0.  1.
    10030    2    1    2    0    0  0.00000000000E+00  0.00000000000E+00 -0.22572866086E+04  0.33259500555E+04  0.24426626738E+04 0.  0.
        2    1    3    3  502    0 -0.90992707593E+03 -0.37825300756E+02 -0.20581636095E+02  0.91094546524E+03  0.25500000920E-02 0. -1.
       -2    1    3    3    0  502  0.90992707593E+03  0.37825300756E+02 -0.22367049725E+04  0.24150045902E+04  0.25500000920E-02 0.  1.
</event>
<event>
 5   0  0.8528103E-06  0.2401082E+04  0.7818609E-02  0.8439098E-01
       -1   -1    0    0    0  501  0.00000000000E+00  0.00000000000E+00  0.12944195126E+04  0.12944195126E+04  0.50400001928E-02 0. -1.
        1   -1    0    0  501    0  0.00000000000E+00  0.00000000000E+00 -0.11134713699E+04  0.11134713699E+04  0.50400001928E-02 0.  1.
    10030    2    1    2    0    0  0.00000000000E+00  0.00000000000E+00  0.18094814264E+03  0.24078908825E+04  0.24010823126E+04 0.  0.
        4    1    3    3  502    0  0.87810430403E+03  0.74866762026E+03 -0.24171601394E+03  0.11789820264E+04  0.12699999809E+01 0.  1.
       -4    1    3    3    0  502 -0.87810430403E+03 -0.74866762026E+03  0.42266415657E+03  0.12289088561E+04  0.12699999809E+01 0. -1.
</event>
<event>
 5   0  0.2087882E-05  0.2399342E+04  0.7818609E-02  0.8439750E-01
        2   -1    0    0  501    0  0.00000000000E+00  0.00000000000E+00  0.19775552011E+04  0.19775552011E+04  0.25500000920E-02 0. -1.
       -2   -1    0    0    0  501  0.00000000000E+00  0.00000000000E+00 -0.72777264646E+03  0.72777264646E+03  0.25500000920E-02 0.  1.
    10030    2    1    2    0    0  0.00000000000E+00  0.00000000000E+00  0.12497825547E+04  0.27053278476E+04  0.23993420617E+04 0.  0.
        2    1    3    3  502    0  0.18722628196E+02 -0.48723981643E+03 -0.61100471818E+03  0.78171602335E+03  0.25500000920E-02 0.  1.
       -2    1    3    3    0  502 -0.18722628196E+02  0.48723981643E+03  0.18607872729E+04  0.19236118242E+04  0.25500000920E-02 0. -1.
</event>
<event>
 5   0  0.2122194E-05  0.2404387E+04  0.7818609E-02  0.8437863E-01
        2   -1    0    0  501    0  0.00000000000E+00  0.00000000000E+00  0.12400967542E+04  0.12400967542E+04  0.25500000920E-02 0.  1.
       -2   -1    0    0    0  501  0.00000000000E+00  0.00000000000E+00 -0.11654488314E+04  0.11654488314E+04  0.25500000920E-02 0. -1.
    10030    2    1    2    0    0  0.00000000000E+00  0.00000000000E+00  0.74647922881E+02  0.24055455856E+04  0.24043870845E+04 0.  0.
        3    1    3    3  502    0  0.25943944380E+03 -0.11051568754E+04 -0.35857967910E+03  0.11904872703E+04  0.10100000352E+00 0. -1.
       -3    1    3    3    0  502 -0.25943944380E+03  0.11051568754E+04  0.43322760198E+03  0.12150583153E+04  0.10100000352E+00 0.  1.
</event>
<event>
 5   0  0.9038897E-06  0.2388928E+04  0.7818609E-02  0.8443661E-01
       -1   -1    0    0    0  501  0.00000000000E+00  0.00000000000E+00  0.95938289911E+03  0.95938289912E+03  0.50400001928E-02 0.  1.
        1   -1    0    0  501    0  0.00000000000E+00  0.00000000000E+00 -0.14871473511E+04  0.14871473511E+04  0.50400001928E-02 0. -1.
    10030    2    1    2    0    0  0.00000000000E+00  0.00000000000E+00 -0.52776445203E+03  0.24465302503E+04  0.23889275729E+04 0.  0.
        1    1    3    3  502    0 -0.34036777929E+03  0.59826343429E+03  0.73586042036E+03  0.10076010720E+04  0.50400001928E-02 0.  1.
       -1    1    3    3    0  502  0.34036777929E+03 -0.59826343429E+03 -0.12636248724E+04  0.14389291783E+04  0.50400001928E-02 0. -1.
</event>
<event>
 5   0  0.2048028E-05  0.2427306E+04  0.7818609E-02  0.8429351E-01
        2   -1    0    0  501    0  0.00000000000E+00  0.00000000000E+00  0.81887749042E+03  0.81887749042E+03  0.25500000920E-02 0.  1.
       -2   -1    0    0    0  501  0.00000000000E+00  0.00000000000E+00 -0.17987473351E+04  0.17987473351E+04  0.25500000920E-02 0. -1.
    10030    2    1    2    0    0  0.00000000000E+00  0.00000000000E+00 -0.97986984465E+03  0.26176248255E+04  0.24273060818E+04 0.  0.
        5    1    3    3  502    0  0.77693572765E+03  0.88938556809E+03 -0.18818157956E+03  0.11958554304E+04  0.46999998093E+01 0.  1.
       -5    1    3    3    0  502 -0.77693572765E+03 -0.88938556809E+03 -0.79168826509E+03  0.14217693951E+04  0.46999998093E+01 0. -1.
</event>
<event>
 5   0  0.8528103E-06  0.2448571E+04  0.7818609E-02  0.8421540E-01
       -1   -1    0    0    0  501  0.00000000000E+00  0.00000000000E+00  0.21400011562E+04  0.21400011562E+04  0.50400001928E-02 0.  1.
        1   -1    0    0  501    0  0.00000000000E+00  0.00000000000E+00 -0.70040824952E+03  0.70040824953E+03  0.50400001928E-02 0. -1.
    10030    2    1    2    0    0  0.00000000000E+00  0.00000000000E+00  0.14395929067E+04  0.28404094057E+04  0.24485705739E+04 0.  0.
        4    1    3    3  502    0  0.41520611285E+03  0.18255886467E+02 -0.61607161723E+03  0.74315223474E+03  0.12699999809E+01 0. -1.
       -4    1    3    3    0  502 -0.41520611285E+03 -0.18255886467E+02  0.20556645239E+04  0.20972571710E+04  0.12699999809E+01 0.  1.
</event>
<event>
 5   0  0.8898848E-06  0.2386452E+04  0.7818609E-02  0.8444593E-01
        1   -1    0    0  501    0  0.00000000000E+00  0.00000000000E+00  0.16031979680E+04  0.16031979681E+04  0.50400001928E-02 0.  1.
       -1   -1    0    0    0  501  0.00000000000E+00  0.00000000000E+00 -0.88809282823E+03  0.88809282825E+03  0.50400001928E-02 0. -1.
    10030    2    1    2    0    0  0.00000000000E+00  0.00000000000E+00  0.71510513981E+03  0.24912907963E+04  0.23864522771E+04 0.  0.
        5    1    3    3  502    0  0.79258654636E+03  0.88861398375E+03  0.43799813054E+03  0.12687366543E+04  0.46999998093E+01 0.  1.
       -5    1    3    3    0  502 -0.79258654636E+03 -0.88861398375E+03  0.27710700927E+03  0.12225541420E+04  0.46999998093E+01 0. -1.
</event>
<event>
 5   0  0.2087882E-05  0.2395345E+04  0.7818609E-02  0.8441248E-01
        2   -1    0    0  501    0  0.00000000000E+00  0.00000000000E+00  0.29344870595E+04  0.29344870595E+04  0.25500000920E-02 0. -1.
       -2   -1    0    0    0  501  0.00000000000E+00  0.00000000000E+00 -0.48881435066E+03  0.48881435067E+03  0.25500000920E-02 0.  1.
    10030    2    1    2    0    0  0.00000000000E+00  0.00000000000E+00  0.24456727089E+04  0.34233014102E+04  0.23953449744E+04 0.  0.
        2    1    3    3  502    0  0.93778729351E+03 -0.74475265194E+03  0.12483163398E+04  0.17298540992E+04  0.25500000920E-02 0. -1.
       -2    1    3    3    0  502 -0.93778729351E+03  0.74475265194E+03  0.11973563691E+04  0.16934473110E+04  0.25500000920E-02 0.  1.
</event>
<event>
 5   0  0.9038897E-06  0.2397377E+04  0.7818609E-02  0.8440486E-01
       -1   -1    0    0    0  501  0.00000000000E+00  0.00000000000E+00  0.15496561198E+04  0.15496561198E+04  0.50400001928E-02 0. -1.
        1   -1    0    0  501    0  0.00000000000E+00  0.00000000000E+00 -0.92720860193E+03  0.92720860195E+03  0.50400001928E-02 0.  1.
    10030    2    1    2    0    0  0.00000000000E+00  0.00000000000E+00  0.62244751786E+03  0.24768647218E+04  0.23973773039E+04 0.  0.
        1    1    3    3  502    0  0.10155989491E+03 -0.12577431307E+02 -0.92268715218E+03  0.92834486311E+03  0.50400001928E-02 0.  1.
       -1    1    3    3    0  502 -0.10155989491E+03  0.12577431307E+02  0.15451346700E+04  0.15485198586E+04  0.50400001928E-02 0. -1.
</event>
<event>
 5   0  0.9083687E-06  0.2298708E+04  0.7818609E-02  0.8478431E-01
       -1   -1    0    0    0  501  0.00000000000E+00  0.00000000000E+00  0.87663428062E+03  0.87663428063E+03  0.50400001928E-02 0. -1.
        1   -1    0    0  501    0  0.00000000000E+00  0.00000000000E+00 -0.15069158436E+04  0.15069158436E+04  0.50400001928E-02 0.  1.
    10030    2    1    2    0    0  0.00000000000E+00  0.00000000000E+00 -0.63028156296E+03  0.23835501242E+04  0.22987075382E+04 0.  0.
        2    1    3    3  502    0  0.59360410384E+03 -0.92259956724E+03 -0.67051213109E+03  0.12857458192E+04  0.25500000920E-02 0.  1.
       -2    1    3    3    0  502 -0.59360410384E+03  0.92259956724E+03  0.40230568124E+02  0.10978043051E+04  0.25500000920E-02 0. -1.
</event>
<event>
 5   0  0.2048028E-05  0.2367856E+04  0.7818609E-02  0.8451637E-01
       -2   -1    0    0    0  501  0.00000000000E+00  0.00000000000E+00  0.13984330751E+04  0.13984330751E+04  0.25500000920E-02 0.  1.
        2   -1    0    0  501    0  0.00000000000E+00  0.00000000000E+00 -0.10023256854E+04  0.10023256854E+04  0.25500000920E-02 0. -1.
    10030    2    1    2    0    0  0.00000000000E+00  0.00000000000E+00  0.39610738966E+03  0.24007587605E+04  0.23678558997E+04 0.  0.
        5    1    3    3  502    0  0.30663547814E+03 -0.31594033003E+03 -0.91622622995E+03  0.10165314570E+04  0.46999998093E+01 0. -1.
       -5    1    3    3    0  502 -0.30663547814E+03  0.31594033003E+03  0.13123336196E+04  0.13842273035E+04  0.46999998093E+01 0.  1.
</event>
<event>
 5   0  0.2025353E-05  0.2387825E+04  0.7818609E-02  0.8444076E-01
       -2   -1    0    0    0  501  0.00000000000E+00  0.00000000000E+00  0.76986711391E+03  0.76986711392E+03  0.25500000920E-02 0.  1.
        2   -1    0    0  501    0  0.00000000000E+00  0.00000000000E+00 -0.18515227331E+04  0.18515227331E+04  0.25500000920E-02 0. -1.
    10030    2    1    2    0    0  0.00000000000E+00  0.00000000000E+00 -0.10816556192E+04  0.26213898470E+04  0.23878245018E+04 0.  0.
        4    1    3    3  502    0 -0.10902519620E+04  0.31225921930E+02 -0.77365960307E+01  0.10907272192E+04  0.12699999809E+01 0.  1.
       -4    1    3    3    0  502  0.10902519620E+04 -0.31225921930E+02 -0.10739190232E+04  0.15306626278E+04  0.12699999809E+01 0. -1.
</event>
<event>
 5   0  0.9083687E-06  0.2450260E+04  0.7818609E-02  0.8420923E-01
        1   -1    0    0  501    0  0.00000000000E+00  0.00000000000E+00  0.21532588487E+04  0.21532588487E+04  0.50400001928E-02 0.  1.
       -1   -1    0    0    0  501  0.00000000000E+00  0.00000000000E+00 -0.69705694195E+03  0.69705694196E+03  0.50400001928E-02 0. -1.
    10030    2    1    2    0    0  0.00000000000E+00  0.00000000000E+00  0.14562019068E+04  0.28503157907E+04  0.24502604175E+04 0.  0.
        2    1    3    3  502    0 -0.41483410481E+03  0.16962915688E+03  0.20544756084E+04  0.21027913379E+04  0.25500000920E-02 0.  1.
       -2    1    3    3    0  502  0.41483410481E+03 -0.16962915688E+03 -0.59827370163E+03  0.74752445275E+03  0.25500000920E-02 0. -1.
</event>
<event>
 5   0  0.9176817E-06  0.2394974E+04  0.7818609E-02  0.8441388E-01
        1   -1    0    0  501    0  0.00000000000E+00  0.00000000000E+00  0.85431216038E+03  0.85431216040E+03  0.50400001928E-02 0. -1.
       -1   -1    0    0    0  501  0.00000000000E+00  0.00000000000E+00 -0.16785143197E+04  0.16785143197E+04  0.50400001928E-02 0.  1.
    10030    2    1    2    0    0  0.00000000000E+00  0.00000000000E+00 -0.82420215931E+03  0.25328264801E+04  0.23949740664E+04 0.  0.
        3    1    3    3  502    0  0.66305722826E+03  0.92430939785E+03 -0.16423545377E+02  0.11376565800E+04  0.10100000352E+00 0. -1.
       -3    1    3    3    0  502 -0.66305722826E+03 -0.92430939785E+03 -0.80777861393E+03  0.13951699001E+04  0.10100000352E+00 0.  1.
</event>
<event>
 5   0  0.9083687E-06  0.2351120E+04  0.7818609E-02  0.8458034E-01
        1   -1    0    0  501    0  0.00000000000E+00  0.00000000000E+00  0.12266995572E+04  0.12266995572E+04  0.50400001928E-02 0. -1.
       -1   -1    0    0    0  501  0.00000000000E+00  0.00000000000E+00 -0.11265522307E+04  0.11265522307E+04  0.50400001928E-02 0.  1.
    10030    2    1    2    0    0  0.00000000000E+00  0.00000000000E+00  0.10014732646E+03  0.23532517879E+04  0.23511198375E+04 0.  0.
        2    1    3    3  502    0 -0.42700742057E+03  0.10941449627E+04  0.99642159053E+02  0.11787353802E+04  0.25500000920E-02 0. -1.
       -2    1    3    3    0  502  0.42700742057E+03 -0.10941449627E+04  0.50516740497E+00  0.11745164077E+04  0.25500000920E-02 0.  1.
</event>
<event>
 5   0  0.2122194E-05  0.2499301E+04  0.7818609E-02  0.8403235E-01
        2   -1    0    0  501    0  0.00000000000E+00  0.00000000000E+00  0.14810856747E+04  0.14810856747E+04  0.25500000920E-02 0.  1.
       -2   -1    0    0    0  501  0.00000000000E+00  0.00000000000E+00 -0.10543794351E+04  0.10543794351E+04  0.25500000920E-02 0. -1.
    10030    2    1    2    0    0  0.00000000000E+00  0.00000000000E+00  0.42670623958E+03  0.25354651099E+04  0.24993009239E+04 0.  0.
        3    1    3    3  502    0  0.35737245607E+03 -0.10924839109E+04  0.71074349489E+03  0.13514408954E+04  0.10100000352E+00 0.  1.
       -3    1    3    3    0  502 -0.35737245607E+03  0.10924839109E+04 -0.28403725531E+03  0.11840242145E+04  0.10100000352E+00 0. -1.
</event>
<event>
 5   0  0.8898848E-06  0.2389694E+04  0.7818609E-02  0.8443372E-01
       -1   -1    0    0    0  501  0.00000000000E+00  0.00000000000E+00  0.78394127184E+03  0.78394127186E+03  0.50400001928E-02 0.  1.
        1   -1    0    0  501    0  0.00000000000E+00  0.00000000000E+00 -0.18211299640E+04  0.18211299640E+04  0.50400001928E-02 0. -1.
    10030    2    1    2    0    0  0.00000000000E+00  0.00000000000E+00 -0.10371886922E+04  0.26050712359E+04  0.23896936542E+04 0.  0.
        5    1    3    3  502    0  0.14582955586E+03  0.38926266083E+03  0.70256530264E+03  0.81634047612E+03  0.46999998093E+01 0.  1.
       -5    1    3    3    0  502 -0.14582955586E+03 -0.38926266083E+03 -0.17397539948E+04  0.17887307598E+04  0.46999998093E+01 0. -1.
</event>
<event>
 5   0  0.8528103E-06  0.2397439E+04  0.7818609E-02  0.8440463E-01
        1   -1    0    0  501    0  0.00000000000E+00  0.00000000000E+00  0.13488592348E+04  0.13488592348E+04  0.50400001928E-02 0.  1.
       -1   -1    0    0    0  501  0.00000000000E+00  0.00000000000E+00 -0.10652916706E+04  0.10652916706E+04  0.50400001928E-02 0. -1.
    10030    2    1    2    0    0  0.00000000000E+00  0.00000000000E+00  0.28356756416E+03  0.24141509054E+04  0.23974390567E+04 0.  0.
        4    1    3    3  502    0  0.45749158785E+03  0.46373944437E+02  0.12565134546E+04  0.13380122459E+04  0.12699999809E+01 0.  1.
       -4    1    3    3    0  502 -0.45749158785E+03 -0.46373944437E+02 -0.97294589048E+03  0.10761386595E+04  0.12699999809E+01 0. -1.
</event>
<event>
 5   0  0.9176817E-06  0.2431351E+04  0.7818609E-02  0.8427859E-01
        1   -1    0    0  501    0  0.00000000000E+00  0.00000000000E+00  0.14091075337E+04  0.14091075337E+04  0.50400001928E-02 0. -1.
       -1   -1    0    0    0  501  0.00000000000E+00  0.00000000000E+00 -0.10487960387E+04  0.10487960387E+04  0.50400001928E-02 0.  1.
    10030    2    1    2    0    0  0.00000000000E+00  0.00000000000E+00  0.36031149506E+03  0.24579035724E+04  0.24313505707E+04 0.  0.
        3    1    3    3  502    0 -0.12186554285E+03  0.10518278929E+03  0.13982849401E+04  0.14075210171E+04  0.10100000352E+00 0. -1.
       -3    1    3    3    0  502  0.12186554285E+03 -0.10518278929E+03 -0.10379734450E+04  0.10503825553E+04  0.10100000352E+00 0.  1.
</event>
<event>
 5   0  0.2080257E-05  0.2466496E+04  0.7818609E-02  0.8415019E-01
       -2   -1    0    0    0  501  0.00000000000E+00  0.00000000000E+00  0.97567257542E+03  0.97567257542E+03  0.25500000920E-02 0. -1.
        2   -1    0    0  501    0  0.00000000000E+00  0.00000000000E+00 -0.15588233179E+04  0.15588233179E+04  0.25500000920E-02 0.  1.
    10030    2    1    2    0    0  0.00000000000E+00  0.00000000000E+00 -0.58315074252E+03  0.25344958934E+04  0.24664964312E+04 0.  0.
        1    1    3    3  502    0 -0.66529023833E+01  0.99821208078E+03 -0.10357154134E+04  0.14384637767E+04  0.50400001928E-02 0.  1.
       -1    1    3    3    0  502  0.66529023833E+01 -0.99821208078E+03  0.45256467089E+03  0.10960321166E+04  0.50400001928E-02 0. -1.
</event>
<event>
 5   0  0.9038897E-06  0.2395925E+04  0.7818609E-02  0.8441031E-01
        1   -1    0    0  501    0  0.00000000000E+00  0.00000000000E+00  0.70140918537E+03  0.70140918539E+03  0.50400001928E-02 0.  1.
       -1   -1    0    0    0  501  0.00000000000E+00  0.00000000000E+00 -0.20460433792E+04  0.20460433792E+04  0.50400001928E-02 0. -1.
    10030    2    1    2    0    0  0.00000000000E+00  0.00000000000E+00 -0.13446341938E+04  0.27474525646E+04  0.23959245563E+04 0.  0.
        1    1    3    3  502    0  0.70644026749E+03 -0.11699210374E+03 -0.17736264384E+04  0.19127194637E+04  0.50400001928E-02 0. -1.
       -1    1    3    3    0  502 -0.70644026749E+03  0.11699210374E+03  0.42899224453E+03  0.83473310091E+03  0.50400001928E-02 0.  1.
</event>
<event>
 5   0  0.2122194E-05  0.2411588E+04  0.7818609E-02  0.8435178E-01
        2   -1    0    0  501    0  0.00000000000E+00  0.00000000000E+00  0.12031002835E+04  0.12031002835E+04  0.25500000920E-02 0.  1.
       -2   -1    0    0    0  501  0.00000000000E+00  0.00000000000E+00 -0.12084934627E+04  0.12084934627E+04  0.25500000920E-02 0. -1.
    10030    2    1    2    0    0  0.00000000000E+00  0.00000000000E+00 -0.53931791522E+01  0.24115937462E+04  0.24115877156E+04 0.  0.
        3    1    3    3  502    0  0.26417589801E+03 -0.41233256575E+03  0.10991826414E+04  0.12033326802E+04  0.10100000352E+00 0.  1.
       -3    1    3    3    0  502 -0.26417589801E+03  0.41233256575E+03 -0.11045758206E+04  0.12082610660E+04  0.10100000352E+00 0. -1.
</event>
<event>
 5   0  0.2122194E-05  0.2402819E+04  0.7818609E-02  0.8438449E-01
       -2   -1    0    0    0  501  0.00000000000E+00  0.00000000000E+00  0.71637863331E+03  0.71637863332E+03  0.25500000920E-02 0.  1.
        2   -1    0    0  501    0  0.00000000000E+00  0.00000000000E+00 -0.20148357868E+04  0.20148357868E+04  0.25500000920E-02 0. -1.
    10030    2    1    2    0    0  0.00000000000E+00  0.00000000000E+00 -0.12984571534E+04  0.27312144201E+04  0.24028194333E+04 0.  0.
        3    1    3    3  502    0  0.33639728693E+03  0.93193280069E+03  0.12314180547E+03  0.99841163561E+03  0.10100000352E+00 0.  1.
       -3    1    3    3    0  502 -0.33639728693E+03 -0.93193280069E+03 -0.14215989589E+04  0.17328027845E+04  0.10100000352E+00 0. -1.
</event>
<event>
 5   0  0.2025353E-05  0.2412805E+04  0.7818609E-02  0.8434725E-01
        2   -1    0    0  501    0  0.00000000000E+00  0.00000000000E+00  0.25969177805E+04  0.25969177805E+04  0.25500000920E-02 0.  1.
       -2   -1    0    0    0  501  0.00000000000E+00  0.00000000000E+00 -0.56043648722E+03  0.56043648722E+03  0.25500000920E-02 0. -1.
    10030    2    1    2    0    0  0.00000000000E+00  0.00000000000E+00  0.20364812933E+04  0.31573542677E+04  0.24128054033E+04 0.  0.
        4    1    3    3  502    0  0.11461725605E+04 -0.27561339336E+03  0.13537372044E+04  0.17950711163E+04  0.12699999809E+01 0.  1.
       -4    1    3    3    0  502 -0.11461725605E+04  0.27561339336E+03  0.68274408887E+03  0.13622831515E+04  0.12699999809E+01 0. -1.
</event>
<event>
 5   0  0.9176817E-06  0.2395140E+04  0.7818609E-02  0.8441325E-01
        1   -1    0    0  501    0  0.00000000000E+00  0.00000000000E+00  0.14070010028E+04  0.14070010028E+04  0.50400001928E-02 0. -1.
       -1   -1    0    0    0  501  0.00000000000E+00  0.00000000000E+00 -0.10193129121E+04  0.10193129121E+04  0.50400001928E-02 0.  1.
    10030    2    1    2    0    0  0.00000000000E+00  0.00000000000E+00  0.38768809066E+03  0.24263139149E+04  0.23951403211E+04 0.  0.
        3    1    3    3  502    0 -0.31827012642E+03  0.11142032383E+04 -0.11246464416E+03  0.11642134839E+04  0.10100000352E+00 0.  1.
       -3    1    3    3    0  502  0.31827012642E+03 -0.11142032383E+04  0.50015273482E+03  0.12621004310E+04  0.10100000352E+00 0. -1.
</event>
<event>
 5   0  0.2025353E-05  0.2392059E+04  0.7818609E-02  0.8442482E-01
       -2   -1    0    0    0  501  0.00000000000E+00  0.00000000000E+00  0.79469048013E+03  0.79469048014E+03  0.25500000920E-02 0.  1.
        2   -1    0    0  501    0  0.00000000000E+00  0.00000000000E+00 -0.18000556715E+04  0.18000556715E+04  0.25500000920E-02 0. -1.
    10030    2    1    2    0    0  0.00000000000E+00  0.00000000000E+00 -0.10053651914E+04  0.25947461517E+04  0.23920594523E+04 0.  0.
        4    1    3    3  502    0  0.64862715543E+03  0.40863679586E+03  0.49313803412E+03  0.91153055422E+03  0.12699999809E+01 0.  1.
       -4    1    3    3    0  502 -0.64862715543E+03 -0.40863679586E+03 -0.14985032255E+04  0.16832155974E+04  0.12699999809E+01 0. -1.
</event>
<event>
 5   0  0.8898848E-06  0.2395182E+04  0.7818609E-02  0.8441310E-01
        1   -1    0    0  501    0  0.00000000000E+00  0.00000000000E+00  0.11666380755E+04  0.11666380755E+04  0.50400001928E-02 0.  1.
       -1   -1    0    0    0  501  0.00000000000E+00  0.00000000000E+00 -0.12293650178E+04  0.12293650178E+04  0.50400001928E-02 0. -1.
    10030    2    1    2    0    0  0.00000000000E+00  0.00000000000E+00 -0.62726942285E+02  0.23960030934E+04  0.23951818624E+04 0.  0.
        5    1    3    3  502    0  0.56158689205E+03 -0.85237854928E+03  0.59516822128E+03  0.11815990565E+04  0.46999998093E+01 0.  1.
       -5    1    3    3    0  502 -0.56158689205E+03  0.85237854928E+03 -0.65789516356E+03  0.12144040369E+04  0.46999998093E+01 0. -1.
</event>
<event>
 5   0  0.2080257E-05  0.2409550E+04  0.7818609E-02  0.8435937E-01
       -2   -1    0    0    0  501  0.00000000000E+00  0.00000000000E+00  0.86286494163E+03  0.86286494163E+03  0.25500000920E-02 0.  1.
        2   -1    0    0  501    0  0.00000000000E+00  0.00000000000E+00 -0.16821662170E+04  0.16821662170E+04  0.25500000920E-02 0. -1.
    10030    2    1    2    0    0  0.00000000000E+00  0.00000000000E+00 -0.81930127535E+03  0.25450311586E+04  0.24095495468E+04 0.  0.
        1    1    3    3  502    0  0.10961643684E+04 -0.48718883592E+03 -0.52799034509E+03  0.13106117232E+04  0.50400001928E-02 0. -1.
       -1    1    3    3    0  502 -0.10961643684E+04  0.48718883592E+03 -0.29131093026E+03  0.12344194354E+04  0.50400001928E-02 0.  1.
</event>
<event>
 5   0  0.9083687E-06  0.2409053E+04  0.7818609E-02  0.8436122E-01
       -1   -1    0    0    0  501  0.00000000000E+00  0.00000000000E+00  0.11703038050E+04  0.11703038050E+04  0.50400001928E-02 0. -1.
        1   -1    0    0  501    0  0.00000000000E+00  0.00000000000E+00 -0.12397500086E+04  0.12397500086E+04  0.50400001928E-02 0.  1.
    10030    2    1    2    0    0  0.00000000000E+00  0.00000000000E+00 -0.69446203599E+02  0.24100538136E+04  0.24090530524E+04 0.  0.
        2    1    3    3  502    0  0.28479062934E+03  0.43651024890E+02  0.11353237985E+04  0.11713117612E+04  0.25500000920E-02 0. -1.
       -2    1    3    3    0  502 -0.28479062934E+03 -0.43651024890E+02 -0.12047700021E+04  0.12387420524E+04  0.25500000920E-02 0.  1.
</event>
<event>
 5   0  0.2048028E-05  0.2404449E+04  0.7818609E-02  0.8437840E-01
       -2   -1    0    0    0  501  0.00000000000E+00  0.00000000000E+00  0.11314910700E+04  0.11314910700E+04  0.25500000920E-02 0. -1.
        2   -1    0    0  501    0  0.00000000000E+00  0.00000000000E+00 -0.12773801123E+04  0.12773801123E+04  0.25500000920E-02 0.  1.
    10030    2    1    2    0    0  0.00000000000E+00  0.00000000000E+00 -0.14588904232E+03  0.24088711823E+04  0.24044493673E+04 0.  0.
        5    1    3    3  502    0 -0.46853199232E+03  0.78455134111E+03 -0.85558476561E+03  0.12518348197E+04  0.46999998093E+01 0.  1.
       -5    1    3    3    0  502  0.46853199232E+03 -0.78455134111E+03  0.70969572330E+03  0.11570363626E+04  0.46999998093E+01 0. -1.
</event>
<event>
 5   0  0.9176817E-06  0.2397724E+04  0.7818609E-02  0.8440356E-01
       -1   -1    0    0    0  501  0.00000000000E+00  0.00000000000E+00  0.93031860213E+03  0.93031860215E+03  0.50400001928E-02 0.  1.
        1   -1    0    0  501    0  0.00000000000E+00  0.00000000000E+00 -0.15449222940E+04  0.15449222940E+04  0.50400001928E-02 0. -1.
    10030    2    1    2    0    0  0.00000000000E+00  0.00000000000E+00 -0.61460369183E+03  0.24752408961E+04  0.23977238781E+04 0.  0.
        3    1    3    3  502    0 -0.81999390598E+03 -0.18078933382E+03  0.57604594520E+03  0.10182847000E+04  0.10100000352E+00 0.  1.
       -3    1    3    3    0  502  0.81999390598E+03  0.18078933382E+03 -0.11906496370E+04  0.14569561961E+04  0.10100000352E+00 0. -1.
</event>
<event>
 5   0  0.9176817E-06  0.2431656E+04  0.7818609E-02  0.8427746E-01
       -1   -1    0    0    0  501  0.00000000000E+00  0.00000000000E+00  0.14595545928E+04  0.14595545928E+04  0.50400001928E-02 0. -1.
        1   -1    0    0  501    0  0.00000000000E+00  0.00000000000E+00 -0.10128007098E+04  0.10128007098E+04  0.50400001928E-02 0.  1.
    10030    2    1    2    0    0  0.00000000000E+00  0.00000000000E+00  0.44675388301E+03  0.24723553026E+04  0.24316561662E+04 0.  0.
        3    1    3    3  502    0 -0.39777705129E+03 -0.91646139499E+03  0.92787373982E+03  0.13634800176E+04  0.10100000352E+00 0. -1.
       -3    1    3    3    0  502  0.39777705129E+03  0.91646139499E+03 -0.48111985681E+03  0.11088752851E+04  0.10100000352E+00 0.  1.
</event>
<event>
 5   0  0.7233625E-06  0.2374140E+04  0.7818609E-02  0.8449249E-01
        3   -1    0    0  501    0  0.00000000000E+00  0.00000000000E+00  0.15640182253E+04  0.15640182285E+04  0.10100000352E+00 0. -1.
       -3   -1    0    0    0  501  0.00000000000E+00  0.00000000000E+00 -0.90097128578E+03  0.90097129144E+03  0.10100000352E+00 0.  1.
    10030    2    1    2    0    0  0.00000000000E+00  0.00000000000E+00  0.66304693947E+03  0.24649895200E+04  0.23741402843E+04 0.  0.
        4    1    3    3  502    0  0.50188478074E+03  0.10054721297E+04 -0.65565998417E+02  0.11256833701E+04  0.12699999809E+01 0. -1.
       -4    1    3    3    0  502 -0.50188478074E+03 -0.10054721297E+04  0.72861293789E+03  0.13393061498E+04  0.12699999809E+01 0.  1.
</event>
<event>
 5   0  0.9038897E-06  0.2404243E+04  0.7818609E-02  0.8437917E-01
        1   -1    0    0  501    0  0.00000000000E+00  0.00000000000E+00  0.12074764748E+04  0.12074764748E+04  0.50400001928E-02 0. -1.
       -1   -1    0    0    0  501  0.00000000000E+00  0.00000000000E+00 -0.11967898309E+04  0.11967898310E+04  0.50400001928E-02 0.  1.
    10030    2    1    2    0    0  0.00000000000E+00  0.00000000000E+00  0.10686643893E+02  0.24042663058E+04  0.24042425553E+04 0.  0.
        1    1    3    3  502    0  0.63975730171E+03 -0.76897195680E+03  0.67204945858E+03  0.12050965730E+04  0.50400001928E-02 0. -1.
       -1    1    3    3    0  502 -0.63975730171E+03  0.76897195680E+03 -0.66136281468E+03  0.11991697328E+04  0.50400001928E-02 0.  1.
</event>
<event>
 5   0  0.9083687E-06  0.2393010E+04  0.7818609E-02  0.8442125E-01
        1   -1    0    0  501    0  0.00000000000E+00  0.00000000000E+00  0.10829935416E+04  0.10829935416E+04  0.50400001928E-02 0. -1.
       -1   -1    0    0    0  501  0.00000000000E+00  0.00000000000E+00 -0.13219137451E+04  0.13219137451E+04  0.50400001928E-02 0.  1.
    10030    2    1    2    0    0  0.00000000000E+00  0.00000000000E+00 -0.23892020353E+03  0.24049072867E+04  0.23930098608E+04 0.  0.
        2    1    3    3  502    0  0.71908323346E+03  0.90700771426E+03 -0.42408485449E+03  0.12327171834E+04  0.25500000920E-02 0.  1.
       -2    1    3    3    0  502 -0.71908323346E+03 -0.90700771426E+03  0.18516465096E+03  0.11721901033E+04  0.25500000920E-02 0. -1.
</event>
<event>
 5   0  0.8898848E-06  0.2405388E+04  0.7818609E-02  0.8437489E-01
        1   -1    0    0  501    0  0.00000000000E+00  0.00000000000E+00  0.91960606777E+03  0.91960606779E+03  0.50400001928E-02 0. -1.
       -1   -1    0    0    0  501  0.00000000000E+00  0.00000000000E+00 -0.15729266185E+04  0.15729266185E+04  0.50400001928E-02 0.  1.
    10030    2    1    2    0    0  0.00000000000E+00  0.00000000000E+00 -0.65332055071E+03  0.24925326863E+04  0.24053880041E+04 0.  0.
        5    1    3    3  502    0  0.43307945356E+03 -0.10824957868E+04 -0.20848358374E+02  0.11661096370E+04  0.46999998093E+01 0. -1.
       -5    1    3    3    0  502 -0.43307945356E+03  0.10824957868E+04 -0.63247219233E+03  0.13264230493E+04  0.46999998093E+01 0.  1.
</event>
<event>
 5   0  0.2048028E-05  0.2398762E+04  0.7818609E-02  0.8439967E-01
       -2   -1    0    0    0  501  0.00000000000E+00  0.00000000000E+00  0.58577279510E+03  0.58577279510E+03  0.25500000920E-02 0. -1.
        2   -1    0    0  501    0  0.00000000000E+00  0.00000000000E+00 -0.24557549112E+04  0.24557549112E+04  0.25500000920E-02 0.  1.
    10030    2    1    2    0    0  0.00000000000E+00  0.00000000000E+00 -0.18699821161E+04  0.30415277063E+04  0.23987616959E+04 0.  0.
        5    1    3    3  502    0  0.53963235475E+03  0.85888020761E+03 -0.17464977178E+04  0.20196917234E+04  0.46999998093E+01 0.  1.
       -5    1    3    3    0  502 -0.53963235475E+03 -0.85888020761E+03 -0.12348439830E+03  0.10218359829E+04  0.46999998093E+01 0. -1.
</event>
<event>
 5   0  0.8898848E-06  0.2397095E+04  0.7818609E-02  0.8440592E-01
       -1   -1    0    0    0  501  0.00000000000E+00  0.00000000000E+00  0.13465062512E+04  0.13465062512E+04  0.50400001928E-02 0.  1.
        1   -1    0    0  501    0  0.00000000000E+00  0.00000000000E+00 -0.10668471522E+04  0.10668471522E+04  0.50400001928E-02 0. -1.
    10030    2    1    2    0    0  0.00000000000E+00  0.00000000000E+00  0.27965909902E+03  0.24133534034E+04  0.23970952084E+04 0.  0.
        5    1    3    3  502    0  0.38577169900E+03 -0.89097281741E+03  0.84733470488E+03  0.12886623131E+04  0.46999998093E+01 0.  1.
       -5    1    3    3    0  502 -0.38577169900E+03  0.89097281741E+03 -0.56767560587E+03  0.11246910903E+04  0.46999998093E+01 0. -1.
</event>
<event>
 5   0  0.2080257E-05  0.2366134E+04  0.7818609E-02  0.8452292E-01
       -2   -1    0    0    0  501  0.00000000000E+00  0.00000000000E+00  0.95005139865E+03  0.95005139865E+03  0.25500000920E-02 0. -1.
        2   -1    0    0  501    0  0.00000000000E+00  0.00000000000E+00 -0.14732332607E+04  0.14732332607E+04  0.25500000920E-02 0.  1.
    10030    2    1    2    0    0  0.00000000000E+00  0.00000000000E+00 -0.52318186203E+03  0.24232846593E+04  0.23661338253E+04 0.  0.
        1    1    3    3  502    0 -0.52572467587E+02 -0.51303459741E+02  0.94771358630E+03  0.95055612723E+03  0.50400001928E-02 0. -1.
       -1    1    3    3    0  502  0.52572467587E+02  0.51303459741E+02 -0.14708954483E+04  0.14727285321E+04  0.50400001928E-02 0.  1.
</event>
<event>
 5   0  0.9038897E-06  0.2401861E+04  0.7818609E-02  0.8438807E-01
        1   -1    0    0  501    0  0.00000000000E+00  0.00000000000E+00  0.15978554484E+04  0.15978554484E+04  0.50400001928E-02 0.  1.
       -1   -1    0    0    0  501  0.00000000000E+00  0.00000000000E+00 -0.90260646089E+03  0.90260646091E+03  0.50400001928E-02 0. -1.
    10030    2    1    2    0    0  0.00000000000E+00  0.00000000000E+00  0.69524898752E+03  0.25004619093E+04  0.24018614875E+04 0.  0.
        1    1    3    3  502    0  0.89429096964E+01  0.11765653251E+04  0.59801573274E+03  0.13198517934E+04  0.50400001928E-02 0.  1.
       -1    1    3    3    0  502 -0.89429096964E+01 -0.11765653251E+04  0.97233254777E+02  0.11806101159E+04  0.50400001928E-02 0. -1.
</event>
<event>
 5   0  0.2025353E-05  0.2473662E+04  0.7818609E-02  0.8412429E-01
        2   -1    0    0  501    0  0.00000000000E+00  0.00000000000E+00  0.17773713287E+04  0.17773713287E+04  0.25500000920E-02 0.  1.
       -2   -1    0    0    0  501  0.00000000000E+00  0.00000000000E+00 -0.86068148737E+03  0.86068148738E+03  0.25500000920E-02 0. -1.
    10030    2    1    2    0    0  0.00000000000E+00  0.00000000000E+00  0.91668984129E+03  0.26380528160E+04  0.24736617382E+04 0.  0.
        4    1    3    3  502    0  0.37924363161E+03  0.95452845963E+03 -0.27650376737E+03  0.10636758240E+04  0.12699999809E+01 0. -1.
       -4    1    3    3    0  502 -0.37924363161E+03 -0.95452845963E+03  0.11931936087E+04  0.15743769920E+04  0.12699999809E+01 0.  1.
</event>
<event>
 5   0  0.2122194E-05  0.2392322E+04  0.7818609E-02  0.8442384E-01
       -2   -1    0    0    0  501  0.00000000000E+00  0.00000000000E+00  0.72734924873E+03  0.72734924874E+03  0.25500000920E-02 0.  1.
        2   -1    0    0  501    0  0.00000000000E+00  0.00000000000E+00 -0.19671438177E+04  0.19671438177E+04  0.25500000920E-02 0. -1.
    10030    2    1    2    0    0  0.00000000000E+00  0.00000000000E+00 -0.12397945690E+04  0.26944930665E+04  0.23923215319E+04 0.  0.
        3    1    3    3  502    0 -0.63732272394E+03 -0.95558927187E+03 -0.99593851376E+03  0.15202712404E+04  0.10100000352E+00 0. -1.
       -3    1    3    3    0  502  0.63732272394E+03  0.95558927187E+03 -0.24385605524E+03  0.11742218261E+04  0.10100000352E+00 0.  1.
</event>
<event>
 5   0  0.9176817E-06  0.2348047E+04  0.7818609E-02  0.8459214E-01
        1   -1    0    0  501    0  0.00000000000E+00  0.00000000000E+00  0.99539347472E+03  0.99539347473E+03  0.50400001928E-02 0. -1.
       -1   -1    0    0    0  501  0.00000000000E+00  0.00000000000E+00 -0.13847093126E+04  0.13847093126E+04  0.50400001928E-02 0.  1.
    10030    2    1    2    0    0  0.00000000000E+00  0.00000000000E+00 -0.38931583788E+03  0.23801027873E+04  0.23480465193E+04 0.  0.
        3    1    3    3  502    0  0.42505288299E+03 -0.88720160074E+03  0.45481876668E+03  0.10838158305E+04  0.10100000352E+00 0. -1.
       -3    1    3    3    0  502 -0.42505288299E+03  0.88720160074E+03 -0.84413460456E+03  0.12962869569E+04  0.10100000352E+00 0.  1.
</event>
<event>
 5   0  0.8898848E-06  0.2435740E+04  0.7818609E-02  0.8426243E-01
        1   -1    0    0  501    0  0.00000000000E+00  0.00000000000E+00  0.13027133259E+04  0.13027133259E+04  0.50400001928E-02 0.  1.
       -1   -1    0    0    0  501  0.00000000000E+00  0.00000000000E+00 -0.11385520486E+04  0.11385520486E+04  0.50400001928E-02 0. -1.
    10030    2    1    2    0    0  0.00000000000E+00  0.00000000000E+00  0.16416127734E+03  0.24412653745E+04  0.24357396625E+04 0.  0.
        5    1    3    3  502    0 -0.10096090212E+04 -0.60419431439E+03  0.39715615585E+03  0.12418197322E+04  0.46999998093E+01 0. -1.
       -5    1    3    3    0  502  0.10096090212E+04  0.60419431439E+03 -0.23299487851E+03  0.11994456422E+04  0.46999998093E+01 0.  1.
</event>
<event>
 5   0  0.7233625E-06  0.2385842E+04  0.7818609E-02  0.8444823E-01
       -3   -1    0    0    0  501  0.00000000000E+00  0.00000000000E+00  0.10998268602E+04  0.10998268648E+04  0.10100000352E+00 0. -1.
        3   -1    0    0  501    0  0.00000000000E+00  0.00000000000E+00 -0.12938945680E+04  0.12938945719E+04  0.10100000352E+00 0.  1.
    10030    2    1    2    0    0  0.00000000000E+00  0.00000000000E+00 -0.19406770782E+03  0.23937214367E+04  0.23858415793E+04 0.  0.
        5    1    3    3  502    0  0.72011517247E+03  0.86471761769E+03 -0.49423975641E+03  0.12290636463E+04  0.46999998093E+01 0.  1.
       -5    1    3    3    0  502 -0.72011517247E+03 -0.86471761769E+03  0.30017204859E+03  0.11646577904E+04  0.46999998093E+01 0. -1.
</event>
<event>
 5   0  0.8528103E-06  0.2403054E+04  0.7818609E-02  0.8438361E-01
       -1   -1    0    0    0  501  0.00000000000E+00  0.00000000000E+00  0.73416373380E+03  0.73416373382E+03  0.50400001928E-02 0.  1.
        1   -1    0    0  501    0  0.00000000000E+00  0.00000000000E+00 -0.19664103189E+04  0.19664103189E+04  0.50400001928E-02 0. -1.
    10030    2    1    2    0    0  0.00000000000E+00  0.00000000000E+00 -0.12322465851E+04  0.27005740527E+04  0.24030540085E+04 0.  0.
        4    1    3    3  502    0  0.10887407951E+04  0.31191718619E+03 -0.10670728774E+04  0.15560510880E+04  0.12699999809E+01 0. -1.
       -4    1    3    3    0  502 -0.10887407951E+04 -0.31191718619E+03 -0.16517370772E+03  0.11445229647E+04  0.12699999809E+01 0.  1.
</event>
<event>
 5   0  0.2122194E-05  0.2396752E+04  0.7818609E-02  0.8440720E-01
        2   -1    0    0  501    0  0.00000000000E+00  0.00000000000E+00  0.96066896727E+03  0.96066896727E+03  0.25500000920E-02 0.  1.
       -2   -1    0    0    0  501  0.00000000000E+00  0.00000000000E+00 -0.14949012555E+04  0.14949012555E+04  0.25500000920E-02 0. -1.
    10030    2    1    2    0    0  0.00000000000E+00  0.00000000000E+00 -0.53423228820E+03  0.24555702227E+04  0.23967521735E+04 0.  0.
        3    1    3    3  502    0 -0.69022047431E+03 -0.84429840436E+03 -0.77616045754E+03  0.13385324668E+04  0.10100000352E+00 0. -1.
       -3    1    3    3    0  502  0.69022047431E+03  0.84429840436E+03  0.24192816934E+03  0.11170377559E+04  0.10100000352E+00 0.  1.
</event>
<event>
 5   0  0.2087882E-05  0.2426735E+04  0.7818609E-02  0.8429562E-01
        2   -1    0    0  501    0  0.00000000000E+00  0.00000000000E+00  0.12166345347E+04  0.12166345347E+04  0.25500000920E-02 0.  1.
       -2   -1    0    0    0  501  0.00000000000E+00  0.00000000000E+00 -0.12101088330E+04  0.12101088330E+04  0.25500000920E-02 0. -1.
    10030    2    1    2    0    0  0.00000000000E+00  0.00000000000E+00  0.65257017018E+01  0.24267433677E+04  0.24267345936E+04 0.  0.
        2    1    3    3  502    0 -0.59467808304E+03 -0.63454376627E+02 -0.10524832249E+04  0.12105327005E+04  0.25500000920E-02 0. -1.
       -2    1    3    3    0  502  0.59467808304E+03  0.63454376627E+02  0.10590089266E+04  0.12162106672E+04  0.25500000920E-02 0.  1.
</event>
<event>
 5   0  0.2122194E-05  0.2329656E+04  0.7818609E-02  0.8466319E-01
       -2   -1    0    0    0  501  0.00000000000E+00  0.00000000000E+00  0.84770845210E+03  0.84770845211E+03  0.25500000920E-02 0.  1.
        2   -1    0    0  501    0  0.00000000000E+00  0.00000000000E+00 -0.16005783116E+04  0.16005783116E+04  0.25500000920E-02 0. -1.
    10030    2    1    2    0    0  0.00000000000E+00  0.00000000000E+00 -0.75286985951E+03  0.24482867637E+04  0.23296555651E+04 0.  0.
        3    1    3    3  502    0  0.10713612405E+04  0.36669528937E+03 -0.66336442614E+03  0.13123767428E+04  0.10100000352E+00 0. -1.
       -3    1    3    3    0  502 -0.10713612405E+04 -0.36669528937E+03 -0.89505433375E+02  0.11359100210E+04  0.10100000352E+00 0.  1.
</event>
<event>
 5   0  0.2087882E-05  0.2392694E+04  0.7818609E-02  0.8442244E-01
        2   -1    0    0  501    0  0.00000000000E+00  0.00000000000E+00  0.12029761595E+04  0.12029761595E+04  0.25500000920E-02 0.  1.
       -2   -1    0    0    0  501  0.00000000000E+00  0.00000000000E+00 -0.11897548224E+04  0.11897548224E+04  0.25500000920E-02 0. -1.
    10030    2    1    2    0    0  0.00000000000E+00  0.00000000000E+00  0.13221337137E+02  0.23927309819E+04  0.23926944536E+04 0.  0.
        2    1    3    3  502    0 -0.10372637681E+04  0.19312780246E+03  0.57056272768E+03  0.11994816793E+04  0.25500000920E-02 0.  1.
       -2    1    3    3    0  502  0.10372637681E+04 -0.19312780246E+03 -0.55734139054E+03  0.11932493027E+04  0.25500000920E-02 0. -1.
</event>
<event>
 5   0  0.2122194E-05  0.2387389E+04  0.7818609E-02  0.8444240E-01
       -2   -1    0    0    0  501  0.00000000000E+00  0.00000000000E+00  0.15723149620E+04  0.15723149620E+04  0.25500000920E-02 0. -1.
        2   -1    0    0  501    0  0.00000000000E+00  0.00000000000E+00 -0.90624766665E+03  0.90624766666E+03  0.25500000920E-02 0.  1.
    10030    2    1    2    0    0  0.00000000000E+00  0.00000000000E+00  0.66606729530E+03  0.24785626286E+04  0.23873891727E+04 0.  0.
        3    1    3    3  502    0  0.67320774891E+02 -0.86052521320E+03  0.11890655377E+04  0.14693238556E+04  0.10100000352E+00 0.  1.
       -3    1    3    3    0  502 -0.67320774891E+02  0.86052521320E+03 -0.52299824243E+03  0.10092387731E+04  0.10100000352E+00 0. -1.
</event>
<event>
 5   0  0.2048028E-05  0.2413262E+04  0.7818609E-02  0.8434555E-01
       -2   -1    0    0    0  501  0.00000000000E+00  0.00000000000E+00  0.63693290836E+03  0.63693290836E+03  0.25500000920E-02 0. -1.
        2   -1    0    0  501    0  0.00000000000E+00  0.00000000000E+00 -0.22858898436E+04  0.22858898436E+04  0.25500000920E-02 0.  1.
    10030    2    1    2    0    0  0.00000000000E+00  0.00000000000E+00 -0.16489569352E+04  0.29228227520E+04  0.24132620797E+04 0.  0.
        5    1    3    3  502    0 -0.77742739641E+03 -0.72872487435E+03 -0.15101468005E+04  0.18482420697E+04  0.46999998093E+01 0.  1.
       -5    1    3    3    0  502  0.77742739641E+03  0.72872487435E+03 -0.13881013474E+03  0.10745806823E+04  0.46999998093E+01 0. -1.
</event>
<event>
 5   0  0.2025353E-05  0.2404714E+04  0.7818609E-02  0.8437741E-01
        2   -1    0    0  501    0  0.00000000000E+00  0.00000000000E+00  0.67279920174E+03  0.67279920174E+03  0.25500000920E-02 0.  1.
       -2   -1    0    0    0  501  0.00000000000E+00  0.00000000000E+00 -0.21487278842E+04  0.21487278842E+04  0.25500000920E-02 0. -1.
    10030    2    1    2    0    0  0.00000000000E+00  0.00000000000E+00 -0.14759286825E+04  0.28215270860E+04  0.24047140414E+04 0.  0.
        4    1    3    3  502    0 -0.64042386205E+02  0.21474036550E+03  0.64808053828E+03  0.68572942828E+03  0.12699999809E+01 0.  1.
       -4    1    3    3    0  502  0.64042386205E+02 -0.21474036550E+03 -0.21240092208E+04  0.21357976577E+04  0.12699999809E+01 0. -1.
</event>
<event>
 5   0  0.2025353E-05  0.2432540E+04  0.7818609E-02  0.8427421E-01
       -2   -1    0    0    0  501  0.00000000000E+00  0.00000000000E+00  0.13321465444E+04  0.13321465444E+04  0.25500000920E-02 0. -1.
        2   -1    0    0  501    0  0.00000000000E+00  0.00000000000E+00 -0.11104726907E+04  0.11104726907E+04  0.25500000920E-02 0.  1.
    10030    2    1    2    0    0  0.00000000000E+00  0.00000000000E+00  0.22167385362E+03  0.24426192351E+04  0.24325397079E+04 0.  0.
        4    1    3    3  502    0 -0.50731975548E+03  0.10133695961E+04  0.55427688298E+03  0.12615529115E+04  0.12699999809E+01 0. -1.
       -4    1    3    3    0  502  0.50731975548E+03 -0.10133695961E+04 -0.33260302936E+03  0.11810663236E+04  0.12699999809E+01 0.  1.
</event>
<event>
 5   0  0.9038897E-06  0.2401092E+04  0.7818609E-02  0.8439095E-01
        1   -1    0    0  501    0  0.00000000000E+00  0.00000000000E+00  0.12451049926E+04  0.12451049926E+04  0.50400001928E-02 0. -1.
       -1   -1    0    0    0  501  0.00000000000E+00  0.00000000000E+00 -0.11575816381E+04  0.11575816381E+04  0.50400001928E-02 0.  1.
    10030    2    1    2    0    0  0.00000000000E+00  0.00000000000E+00  0.87523354517E+02  0.24026866307E+04  0.24010919824E+04 0.  0.
        1    1    3    3  502    0  0.97232347794E+03  0.53127471363E+03  0.50628603560E+03  0.12181918227E+04  0.50400001928E-02 0. -1.
       -1    1    3    3    0  502 -0.97232347794E+03 -0.53127471363E+03 -0.41876268108E+03  0.11844948080E+04  0.50400001928E-02 0.  1.
</event>
<event>
 5   0  0.2087882E-05  0.2365552E+04  0.7818609E-02  0.8452514E-01
        2   -1    0    0  501    0  0.00000000000E+00  0.00000000000E+00  0.16749596041E+04  0.16749596041E+04  0.25500000920E-02 0. -1.
       -2   -1    0    0    0  501  0.00000000000E+00  0.00000000000E+00 -0.83521963171E+03  0.83521963172E+03  0.25500000920E-02 0.  1.
    10030    2    1    2    0    0  0.00000000000E+00  0.00000000000E+00  0.83973997240E+03  0.25101792358E+04  0.23655520655E+04 0.  0.
        2    1    3    3  502    0 -0.81503055797E+03  0.66537950253E+03 -0.15349315631E+03  0.10632802273E+04  0.25500000920E-02 0.  1.
       -2    1    3    3    0  502  0.81503055797E+03 -0.66537950253E+03  0.99323312871E+03  0.14468990085E+04  0.25500000920E-02 0. -1.
</event>
<event>
 5   0  0.8898848E-06  0.2396028E+04  0.7818609E-02  0.8440992E-01
       -1   -1    0    0    0  501  0.00000000000E+00  0.00000000000E+00  0.55182104755E+03  0.55182104757E+03  0.50400001928E-02 0. -1.
        1   -1    0    0  501    0  0.00000000000E+00  0.00000000000E+00 -0.26009122764E+04  0.26009122764E+04  0.50400001928E-02 0.  1.
    10030    2    1    2    0    0  0.00000000000E+00  0.00000000000E+00 -0.20490912288E+04  0.31527333239E+04  0.23960284948E+04 0.  0.
        5    1    3    3  502    0  0.91456760048E+03  0.77341734803E+03 -0.99210715622E+03  0.15552835721E+04  0.46999998093E+01 0.  1.
       -5    1    3    3    0  502 -0.91456760048E+03 -0.77341734803E+03 -0.10569840726E+04  0.15974497519E+04  0.46999998093E+01 0. -1.
</event>
<event>
 5   0  0.8528103E-06  0.2418787E+04  0.7818609E-02  0.8432503E-01
        1   -1    0    0  501    0  0.00000000000E+00  0.00000000000E+00  0.18949529235E+04  0.18949529235E+04  0.50400001928E-02 0.  1.
       -1   -1    0    0    0  501  0.00000000000E+00  0.00000000000E+00 -0.77185700415E+03  0.77185700417E+03  0.50400001928E-02 0. -1.
    10030    2    1    2    0    0  0.00000000000E+00  0.00000000000E+00  0.11230959193E+04  0.26668099276E+04  0.24187870403E+04 0.  0.
        4    1    3    3  502    0  0.41785393989E+03 -0.54244599175E+03  0.16606547351E+04  0.17962809722E+04  0.12699999809E+01 0.  1.
       -4    1    3    3    0  502 -0.41785393989E+03  0.54244599175E+03 -0.53755881573E+03  0.87052895547E+03  0.12699999809E+01 0. -1.
</event>
<event>
 5   0  0.8898848E-06  0.2342320E+04  0.7818609E-02  0.8461419E-01
        1   -1    0    0  501    0  0.00000000000E+00  0.00000000000E+00  0.19018509474E+04  0.19018509474E+04  0.50400001928E-02 0.  1.
       -1   -1    0    0    0  501  0.00000000000E+00  0.00000000000E+00 -0.72120032525E+03  0.72120032527E+03  0.50400001928E-02 0. -1.
    10030    2    1    2    0    0  0.00000000000E+00  0.00000000000E+00  0.11806506221E+04  0.26230512727E+04  0.23423198090E+04 0.  0.
        5    1    3    3  502    0 -0.15572857038E+03 -0.97243938683E+03  0.13000885393E+04  0.16309941903E+04  0.46999998093E+01 0.  1.
       -5    1    3    3    0  502  0.15572857038E+03  0.97243938683E+03 -0.11943791715E+03  0.99205708240E+03  0.46999998093E+01 0. -1.
</event>
<event>
 5   0  0.2080257E-05  0.2479924E+04  0.7818609E-02  0.8410173E-01
        2   -1    0    0  501    0  0.00000000000E+00  0.00000000000E+00  0.11984205833E+04  0.11984205833E+04  0.25500000920E-02 0.  1.
       -2   -1    0    0    0  501  0.00000000000E+00  0.00000000000E+00 -0.12829430668E+04  0.12829430668E+04  0.25500000920E-02 0. -1.
    10030    2    1    2    0    0  0.00000000000E+00  0.00000000000E+00 -0.84522483483E+02  0.24813636502E+04  0.24799236912E+04 0.  0.
        1    1    3    3  502    0 -0.63628522658E+02  0.10216669812E+04  0.65789742972E+03  0.12168323785E+04  0.50400001928E-02 0.  1.
       -1    1    3    3    0  502  0.63628522658E+02 -0.10216669812E+04 -0.74241991321E+03  0.12645312716E+04  0.50400001928E-02 0. -1.
</event>
<event>
 5   0  0.2122194E-05  0.2395437E+04  0.7818609E-02  0.8441214E-01
        2   -1    0    0  501    0  0.00000000000E+00  0.00000000000E+00  0.10688399335E+04  0.10688399335E+04  0.25500000920E-02 0. -1.
       -2   -1    0    0    0  501  0.00000000000E+00  0.00000000000E+00 -0.13421365805E+04  0.13421365805E+04  0.25500000920E-02 0.  1.
    10030    2    1    2    0    0  0.00000000000E+00  0.00000000000E+00 -0.27329664699E+03  0.24109765140E+04  0.23954366395E+04 0.  0.
        3    1    3    3  502    0  0.11392710171E+03  0.91138737548E+03  0.63705359990E+03  0.11177851457E+04  0.10100000352E+00 0. -1.
       -3    1    3    3    0  502 -0.11392710171E+03 -0.91138737548E+03 -0.91035024689E+03  0.12931913682E+04  0.10100000352E+00 0.  1.
</event>
<event>
 5   0  0.2048028E-05  0.2371422E+04  0.7818609E-02  0.8450281E-01
       -2   -1    0    0    0  501  0.00000000000E+00  0.00000000000E+00  0.64780611477E+03  0.64780611478E+03  0.25500000920E-02 0.  1.
        2   -1    0    0  501    0  0.00000000000E+00  0.00000000000E+00 -0.21702637139E+04  0.21702637139E+04  0.25500000920E-02 0. -1.
    10030    2    1    2    0    0  0.00000000000E+00  0.00000000000E+00 -0.15224575991E+04  0.28180698287E+04  0.23714216028E+04 0.  0.
        5    1    3    3  502    0  0.79844228103E+01 -0.59946837602E+03  0.45441039769E+03  0.75228783347E+03  0.46999998093E+01 0.  1.
       -5    1    3    3    0  502 -0.79844228103E+01  0.59946837602E+03 -0.19768679968E+04  0.20657819952E+04  0.46999998093E+01 0. -1.
</event>
<event>
 5   0  0.8898848E-06  0.2407506E+04  0.7818609E-02  0.8436699E-01
        1   -1    0    0  501    0  0.00000000000E+00  0.00000000000E+00  0.83048388086E+03  0.83048388087E+03  0.50400001928E-02 0.  1.
       -1   -1    0    0    0  501  0.00000000000E+00  0.00000000000E+00 -0.17447920700E+04  0.17447920700E+04  0.50400001928E-02 0. -1.
    10030    2    1    2    0    0  0.00000000000E+00  0.00000000000E+00 -0.91430818912E+03  0.25752759509E+04  0.24075063361E+04 0.  0.
        5    1    3    3  502    0 -0.42176312354E+02  0.10356468311E+04 -0.11119001807E+04  0.15200945043E+04  0.46999998093E+01 0. -1.
       -5    1    3    3    0  502  0.42176312354E+02 -0.10356468311E+04  0.19759199156E+03  0.10551814466E+04  0.46999998093E+01 0.  1.
</event>
<event>
 5   0  0.2122194E-05  0.2416987E+04  0.7818609E-02  0.8433171E-01
       -2   -1    0    0    0  501  0.00000000000E+00  0.00000000000E+00  0.15166006851E+04  0.15166006851E+04  0.25500000920E-02 0.  1.
        2   -1    0    0  501    0  0.00000000000E+00  0.00000000000E+00 -0.96297995892E+03  0.96297995892E+03  0.25500000920E-02 0. -1.
    10030    2    1    2    0    0  0.00000000000E+00  0.00000000000E+00  0.55362072619E+03  0.24795806440E+04  0.24169866077E+04 0.  0.
        3    1    3    3  502    0 -0.93734294281E+03 -0.79855934691E+02  0.10550517376E+04  0.14135497664E+04  0.10100000352E+00 0.  1.
       -3    1    3    3    0  502  0.93734294281E+03  0.79855934691E+02 -0.50143101142E+03  0.10660308777E+04  0.10100000352E+00 0. -1.
</event>
<event>
 5   0  0.2025353E-05  0.2293911E+04  0.7818609E-02  0.8480326E-01
       -2   -1    0    0    0  501  0.00000000000E+00  0.00000000000E+00  0.92425930638E+03  0.92425930638E+03  0.25500000920E-02 0.  1.
        2   -1    0    0  501    0  0.00000000000E+00  0.00000000000E+00 -0.14233093342E+04  0.14233093342E+04  0.25500000920E-02 0. -1.
    10030    2    1    2    0    0  0.00000000000E+00  0.00000000000E+00 -0.49905002781E+03  0.23475686406E+04  0.22939109817E+04 0.  0.
        4    1    3    3  502    0 -0.78810105712E+03  0.27459850446E+02  0.60281189924E+03  0.99259312832E+03  0.12699999809E+01 0.  1.
       -4    1    3    3    0  502  0.78810105712E+03 -0.27459850446E+02 -0.11018619271E+04  0.13549755123E+04  0.12699999809E+01 0. -1.
</event>
<event>
 5   0  0.2048028E-05  0.2447628E+04  0.7818609E-02  0.8421885E-01
       -2   -1    0    0    0  501  0.00000000000E+00  0.00000000000E+00  0.71493293851E+03  0.71493293851E+03  0.25500000920E-02 0. -1.
        2   -1    0    0  501    0  0.00000000000E+00  0.00000000000E+00 -0.20949106498E+04  0.20949106498E+04  0.25500000920E-02 0.  1.
    10030    2    1    2    0    0  0.00000000000E+00  0.00000000000E+00 -0.13799777113E+04  0.28098435884E+04  0.24476279348E+04 0.  0.
        5    1    3    3  502    0  0.28893282637E+03  0.12551892286E+03  0.66758035435E+03  0.73818886314E+03  0.46999998093E+01 0. -1.
       -5    1    3    3    0  502 -0.28893282637E+03 -0.12551892286E+03 -0.20475580657E+04  0.20716547252E+04  0.46999998093E+01 0.  1.
</event>
<event>
 5   0  0.8898848E-06  0.2403240E+04  0.7818609E-02  0.8438291E-01
        1   -1    0    0  501    0  0.00000000000E+00  0.00000000000E+00  0.16094467022E+04  0.16094467022E+04  0.50400001928E-02 0.  1.
       -1   -1    0    0    0  501  0.00000000000E+00  0.00000000000E+00 -0.89713494792E+03  0.89713494793E+03  0.50400001928E-02 0. -1.
    10030    2    1    2    0    0  0.00000000000E+00  0.00000000000E+00  0.71231175432E+03  0.25065816502E+04  0.24032402156E+04 0.  0.
        5    1    3    3  502    0  0.11219117603E+04 -0.41494989982E+03  0.23723833401E+03  0.12194972466E+04  0.46999998093E+01 0.  1.
       -5    1    3    3    0  502 -0.11219117603E+04  0.41494989982E+03  0.47507342031E+03  0.12870844036E+04  0.46999998093E+01 0. -1.
</event>
<event>
 5   0  0.2122194E-05  0.2413783E+04  0.7818609E-02  0.8434361E-01
       -2   -1    0    0    0  501  0.00000000000E+00  0.00000000000E+00  0.78402260250E+03  0.78402260251E+03  0.25500000920E-02 0. -1.
        2   -1    0    0  501    0  0.00000000000E+00  0.00000000000E+00 -0.18578383206E+04  0.18578383206E+04  0.25500000920E-02 0.  1.
    10030    2    1    2    0    0  0.00000000000E+00  0.00000000000E+00 -0.10738157181E+04  0.26418609231E+04  0.24137831179E+04 0.  0.
        3    1    3    3  502    0  0.46559350665E+03 -0.82665520166E+02 -0.17522234630E+04  0.18149099086E+04  0.10100000352E+00 0.  1.
       -3    1    3    3    0  502 -0.46559350665E+03  0.82665520166E+02  0.67840774499E+03  0.82695101447E+03  0.10100000352E+00 0. -1.
</event>
<event>
 5   0  0.2080257E-05  0.2415257E+04  0.7818609E-02  0.8433814E-01
       -2   -1    0    0    0  501  0.00000000000E+00  0.00000000000E+00  0.65452416071E+03  0.65452416071E+03  0.25500000920E-02 0.  1.
        2   -1    0    0  501    0  0.00000000000E+00  0.00000000000E+00 -0.22281323555E+04  0.22281323555E+04  0.25500000920E-02 0. -1.
    10030    2    1    2    0    0  0.00000000000E+00  0.00000000000E+00 -0.15736081948E+04  0.28826565162E+04  0.24152568890E+04 0.  0.
        1    1    3    3  502    0 -0.82348558641E+03  0.83452663484E+03 -0.44129460437E+03  0.12527187007E+04  0.50400001928E-02 0.  1.
       -1    1    3    3    0  502  0.82348558641E+03 -0.83452663484E+03 -0.11323135904E+04  0.16299378155E+04  0.50400001928E-02 0. -1.
</event>
<event>
 5   0  0.2025353E-05  0.2400366E+04  0.7818609E-02  0.8439367E-01
        2   -1    0    0  501    0  0.00000000000E+00  0.00000000000E+00  0.18073568616E+04  0.18073568616E+04  0.25500000920E-02 0. -1.
       -2   -1    0    0    0  501  0.00000000000E+00  0.00000000000E+00 -0.79698651558E+03  0.79698651559E+03  0.25500000920E-02 0.  1.
    10030    2    1    2    0    0  0.00000000000E+00  0.00000000000E+00  0.10103703461E+04  0.26043433772E+04  0.24003658451E+04 0.  0.
        4    1    3    3  502    0 -0.47190630720E+03 -0.68711892557E+03 -0.43167873623E+03  0.93870981931E+03  0.12699999809E+01 0.  1.
       -4    1    3    3    0  502  0.47190630720E+03  0.68711892557E+03  0.14420490823E+04  0.16656335579E+04  0.12699999809E+01 0. -1.
</event>
<event>
 5   0  0.2080257E-05  0.2381047E+04  0.7818609E-02  0.8446634E-01
        2   -1    0    0  501    0  0.00000000000E+00  0.00000000000E+00  0.13410704173E+04  0.13410704173E+04  0.25500000920E-02 0. -1.
       -2   -1    0    0    0  501  0.00000000000E+00  0.00000000000E+00 -0.10568766987E+04  0.10568766987E+04  0.25500000920E-02 0.  1.
    10030    2    1    2    0    0  0.00000000000E+00  0.00000000000E+00  0.28419371867E+03  0.23979471160E+04  0.23810468919E+04 0.  0.
        1    1    3    3  502    0 -0.60382041121E+03  0.56488678995E+03 -0.72051631009E+03  0.10967405927E+04  0.50400001928E-02 0.  1.
       -1    1    3    3    0  502  0.60382041121E+03 -0.56488678995E+03  0.10047100288E+04  0.13012065233E+04  0.50400001928E-02 0. -1.
</event>
<event>
 5   0  0.2122194E-05  0.2378288E+04  0.7818609E-02  0.8447677E-01
       -2   -1    0    0    0  501  0.00000000000E+00  0.00000000000E+00  0.97160333553E+03  0.97160333553E+03  0.25500000920E-02 0.  1.
        2   -1    0    0  501    0  0.00000000000E+00  0.00000000000E+00 -0.14553915817E+04  0.14553915817E+04  0.25500000920E-02 0. -1.
    10030    2    1    2    0    0  0.00000000000E+00  0.00000000000E+00 -0.48378824621E+03  0.24269949173E+04  0.23782878844E+04 0.  0.
        3    1    3    3  502    0 -0.10259745877E+04  0.37574087886E+03  0.23703420734E+03  0.11180296456E+04  0.10100000352E+00 0.  1.
       -3    1    3    3    0  502  0.10259745877E+04 -0.37574087886E+03 -0.72082245355E+03  0.13089652717E+04  0.10100000352E+00 0. -1.
</event>
<event>
 5   0  0.2087882E-05  0.2400999E+04  0.7818609E-02  0.8439130E-01
       -2   -1    0    0    0  501  0.00000000000E+00  0.00000000000E+00  0.56657715577E+03  0.56657715577E+03  0.25500000920E-02 0. -1.
        2   -1    0    0  501    0  0.00000000000E+00  0.00000000000E+00 -0.25436932635E+04  0.25436932635E+04  0.25500000920E-02 0.  1.
    10030    2    1    2    0    0  0.00000000000E+00  0.00000000000E+00 -0.19771161078E+04  0.31102704193E+04  0.24009985376E+04 0.  0.
        2    1    3    3  502    0 -0.11833012567E+04  0.69214158229E+02 -0.12350465822E+04  0.17118214054E+04  0.25500000920E-02 0.  1.
       -2    1    3    3    0  502  0.11833012567E+04 -0.69214158229E+02 -0.74206952556E+03  0.13984490139E+04  0.25500000920E-02 0. -1.
</event>
<event>
 5   0  0.2080257E-05  0.2404879E+04  0.7818609E-02  0.8437679E-01
        2   -1    0    0  501    0  0.00000000000E+00  0.00000000000E+00  0.16287257515E+04  0.16287257515E+04  0.25500000920E-02 0. -1.
       -2   -1    0    0    0  501  0.00000000000E+00  0.00000000000E+00 -0.88772506161E+03  0.88772506162E+03  0.25500000920E-02 0.  1.
    10030    2    1    2    0    0  0.00000000000E+00  0.00000000000E+00  0.74100068987E+03  0.25164508131E+04  0.24048789309E+04 0.  0.
        1    1    3    3  502    0  0.36343802576E+03  0.44648012295E+03 -0.73414133282E+03  0.93294972820E+03  0.50400001928E-02 0.  1.
       -1    1    3    3    0  502 -0.36343802576E+03 -0.44648012295E+03  0.14751420227E+04  0.15835010849E+04  0.50400001928E-02 0. -1.
</event>
<event>
 5   0  0.2087882E-05  0.2392880E+04  0.7818609E-02  0.8442174E-01
        2   -1    0    0  501    0  0.00000000000E+00  0.00000000000E+00  0.87212303853E+03  0.87212303853E+03  0.25500000920E-02 0.  1.
       -2   -1    0    0    0  501  0.00000000000E+00  0.00000000000E+00 -0.16413611889E+04  0.16413611889E+04  0.25500000920E-02 0. -1.
    10030    2    1    2    0    0  0.00000000000E+00  0.00000000000E+00 -0.76923815036E+03  0.25134842274E+04  0.23928801954E+04 0.  0.
        2    1    3    3  502    0  0.11902072678E+04  0.18728308671E+02 -0.51121232608E+03  0.12954852883E+04  0.25500000920E-02 0.  1.
       -2    1    3    3    0  502 -0.11902072678E+04 -0.18728308671E+02 -0.25802582429E+03  0.12179989392E+04  0.25500000920E-02 0. -1.
</event>
<event>
 5   0  0.9038897E-06  0.2385250E+04  0.7818609E-02  0.8445046E-01
        1   -1    0    0  501    0  0.00000000000E+00  0.00000000000E+00  0.17930772887E+04  0.17930772887E+04  0.50400001928E-02 0.  1.
       -1   -1    0    0    0  501  0.00000000000E+00  0.00000000000E+00 -0.79324787395E+03  0.79324787397E+03  0.50400001928E-02 0. -1.
    10030    2    1    2    0    0  0.00000000000E+00  0.00000000000E+00  0.99982941471E+03  0.25863251626E+04  0.23852502989E+04 0.  0.
        1    1    3    3  502    0 -0.40713984816E+03  0.38970867617E+03 -0.63974471525E+03  0.85258958999E+03  0.50400001928E-02 0. -1.
       -1    1    3    3    0  502  0.40713984816E+03 -0.38970867617E+03  0.16395741300E+04  0.17337355727E+04  0.50400001928E-02 0.  1.
</event>
<event>
 5   0  0.9083687E-06  0.2392419E+04  0.7818609E-02  0.8442347E-01
       -1   -1    0    0    0  501  0.00000000000E+00  0.00000000000E+00  0.22124289280E+04  0.22124289280E+04  0.50400001928E-02 0. -1.
        1   -1    0    0  501    0  0.00000000000E+00  0.00000000000E+00 -0.64676283261E+03  0.64676283263E+03  0.50400001928E-02 0.  1.
    10030    2    1    2    0    0  0.00000000000E+00  0.00000000000E+00  0.15656660954E+04  0.28591917607E+04  0.23924186929E+04 0.  0.
        2    1    3    3  502    0  0.30562997304E+03  0.91749430557E+03  0.16242679349E+04  0.18903575867E+04  0.25500000920E-02 0. -1.
       -2    1    3    3    0  502 -0.30562997304E+03 -0.91749430557E+03 -0.58601839439E+02  0.96883417403E+03  0.25500000920E-02 0.  1.
</event>
<event>
 5   0  0.8528103E-06  0.2393603E+04  0.7818609E-02  0.8441902E-01
        1   -1    0    0  501    0  0.00000000000E+00  0.00000000000E+00  0.26795680381E+04  0.26795680381E+04  0.50400001928E-02 0.  1.
       -1   -1    0    0    0  501  0.00000000000E+00  0.00000000000E+00 -0.53453908606E+03  0.53453908609E+03  0.50400001928E-02 0. -1.
    10030    2    1    2    0    0  0.00000000000E+00  0.00000000000E+00  0.21450289520E+04  0.32141071242E+04  0.23936030165E+04 0.  0.
        4    1    3    3  502    0  0.45062880377E+03  0.68148349158E+03 -0.10182935803E+03  0.82332065390E+03  0.12699999809E+01 0. -1.
       -4    1    3    3    0  502 -0.45062880377E+03 -0.68148349158E+03  0.22468583100E+04  0.23907864703E+04  0.12699999809E+01 0.  1.
</event>
<event>
 5   0  0.8898848E-06  0.2393451E+04  0.7818609E-02  0.8441959E-01
       -1   -1    0    0    0  501  0.00000000000E+00  0.00000000000E+00  0.14266624049E+04  0.14266624049E+04  0.50400001928E-02 0. -1.
        1   -1    0    0  501    0  0.00000000000E+00  0.00000000000E+00 -0.10038478773E+04  0.10038478774E+04  0.50400001928E-02 0.  1.
    10030    2    1    2    0    0  0.00000000000E+00  0.00000000000E+00  0.42281452751E+03  0.24305102822E+04  0.23934510873E+04 0.  0.
        5    1    3    3  502    0  0.12553200676E+03  0.20279485976E+02  0.14197731583E+04  0.14254639431E+04  0.46999998093E+01 0. -1.
       -5    1    3    3    0  502 -0.12553200676E+03 -0.20279485976E+02 -0.99695863075E+03  0.10050463391E+04  0.46999998093E+01 0.  1.
</event>
<event>
 5   0  0.2122194E-05  0.2437436E+04  0.7818609E-02  0.8425620E-01
       -2   -1    0    0    0  501  0.00000000000E+00  0.00000000000E+00  0.83270548957E+03  0.83270548957E+03  0.25500000920E-02 0. -1.
        2   -1    0    0  501    0  0.00000000000E+00  0.00000000000E+00 -0.17836721656E+04  0.17836721656E+04  0.25500000920E-02 0.  1.
    10030    2    1    2    0    0  0.00000000000E+00  0.00000000000E+00 -0.95096667603E+03  0.26163776552E+04  0.24374360331E+04 0.  0.
        3    1    3    3  502    0 -0.63996983256E+03 -0.98574262067E+03 -0.12927833622E+03  0.11823547688E+04  0.10100000352E+00 0. -1.
       -3    1    3    3    0  502  0.63996983256E+03  0.98574262067E+03 -0.82168833981E+03  0.14340228864E+04  0.10100000352E+00 0.  1.
</event>
<event>
 5   0  0.2122194E-05  0.2412453E+04  0.7818609E-02  0.8434856E-01
        2   -1    0    0  501    0  0.00000000000E+00  0.00000000000E+00  0.16117697923E+04  0.16117697923E+04  0.25500000920E-02 0.  1.
       -2   -1    0    0    0  501  0.00000000000E+00  0.00000000000E+00 -0.90272314545E+03  0.90272314545E+03  0.25500000920E-02 0. -1.
    10030    2    1    2    0    0  0.00000000000E+00  0.00000000000E+00  0.70904664684E+03  0.25144929377E+04  0.24124526082E+04 0.  0.
        3    1    3    3  502    0 -0.90206194405E+03  0.79907244790E+03  0.29987116480E+03  0.12418354374E+04  0.10100000352E+00 0.  1.
       -3    1    3    3    0  502  0.90206194405E+03 -0.79907244790E+03  0.40917548205E+03  0.12726575004E+04  0.10100000352E+00 0. -1.
</event>
<event>
 5   0  0.9176817E-06  0.2351856E+04  0.7818609E-02  0.8457751E-01
        1   -1    0    0  501    0  0.00000000000E+00  0.00000000000E+00  0.13184847632E+04  0.13184847632E+04  0.50400001928E-02 0. -1.
       -1   -1    0    0    0  501  0.00000000000E+00  0.00000000000E+00 -0.10487847550E+04  0.10487847550E+04  0.50400001928E-02 0.  1.
    10030    2    1    2    0    0  0.00000000000E+00  0.00000000000E+00  0.26970000821E+03  0.23672695183E+04  0.23518560495E+04 0.  0.
        3    1    3    3  502    0 -0.66111077275E+03 -0.96272197371E+03 -0.35489644488E+01  0.11678671405E+04  0.10100000352E+00 0.  1.
       -3    1    3    3    0  502  0.66111077275E+03  0.96272197371E+03  0.27324897266E+03  0.11994023778E+04  0.10100000352E+00 0. -1.
</event>
<event>
 5   0  0.8528103E-06  0.2397539E+04  0.7818609E-02  0.8440426E-01
       -1   -1    0    0    0  501  0.00000000000E+00  0.00000000000E+00  0.99769296162E+03  0.99769296163E+03  0.50400001928E-02 0.  1.
        1   -1    0    0  501    0  0.00000000000E+00  0.00000000000E+00 -0.14403709865E+04  0.14403709865E+04  0.50400001928E-02 0. -1.
    10030    2    1    2    0    0  0.00000000000E+00  0.00000000000E+00 -0.44267802484E+03  0.24380639481E+04  0.23975387341E+04 0.  0.
        4    1    3    3  502    0  0.33664117298E+03  0.82083628018E+03 -0.10411588068E+04  0.13678862351E+04  0.12699999809E+01 0. -1.
       -4    1    3    3    0  502 -0.33664117298E+03 -0.82083628018E+03  0.59848078196E+03  0.10701777130E+04  0.12699999809E+01 0.  1.
</event>
<event>
 5   0  0.8898848E-06  0.2402880E+04  0.7818609E-02  0.8438426E-01
       -1   -1    0    0    0  501  0.00000000000E+00  0.00000000000E+00  0.89655481501E+03  0.89655481502E+03  0.50400001928E-02 0. -1.
        1   -1    0    0  501    0  0.00000000000E+00  0.00000000000E+00 -0.16100058408E+04  0.16100058409E+04  0.50400001928E-02 0.  1.
    10030    2    1    2    0    0  0.00000000000E+00  0.00000000000E+00 -0.71345102584E+03  0.25065606559E+04  0.24028803456E+04 0.  0.
        5    1    3    3  502    0 -0.85873520730E+03  0.40078312952E+03  0.41364015836E+03  0.10340084834E+04  0.46999998093E+01 0. -1.
       -5    1    3    3    0  502  0.85873520730E+03 -0.40078312952E+03 -0.11270911842E+04  0.14725521725E+04  0.46999998093E+01 0.  1.
</event>
<event>
 5   0  0.2025353E-05  0.2327113E+04  0.7818609E-02  0.8467307E-01
        2   -1    0    0  501    0  0.00000000000E+00  0.00000000000E+00  0.14077318510E+04  0.14077318510E+04  0.25500000920E-02 0. -1.
       -2   -1    0    0    0  501  0.00000000000E+00  0.00000000000E+00 -0.96173435474E+03  0.96173435474E+03  0.25500000920E-02 0.  1.
    10030    2    1    2    0    0  0.00000000000E+00  0.00000000000E+00  0.44599749626E+03  0.23694662057E+04  0.23271133048E+04 0.  0.
        4    1    3    3  502    0 -0.38040459574E+02  0.58857543254E+03 -0.79824817604E+03  0.99250686637E+03  0.12699999809E+01 0.  1.
       -4    1    3    3    0  502  0.38040459574E+02 -0.58857543254E+03  0.12442456723E+04  0.13769593394E+04  0.12699999809E+01 0. -1.
</event>
<event>
 5   0  0.2025353E-05  0.2404242E+04  0.7818609E-02  0.8437917E-01
        2   -1    0    0  501    0  0.00000000000E+00  0.00000000000E+00  0.23824545262E+04  0.23824545262E+04  0.25500000920E-02 0. -1.
       -2   -1    0    0    0  501  0.00000000000E+00  0.00000000000E+00 -0.60655711748E+03  0.60655711748E+03  0.25500000920E-02 0.  1.
    10030    2    1    2    0    0  0.00000000000E+00  0.00000000000E+00  0.17758974087E+04  0.29890116437E+04  0.24042418763E+04 0.  0.
        4    1    3    3  502    0 -0.28996453755E+03 -0.84371283103E+03 -0.11372463730E+03  0.89936960161E+03  0.12699999809E+01 0.  1.
       -4    1    3    3    0  502  0.28996453755E+03  0.84371283103E+03  0.18896220460E+04  0.20896420420E+04  0.12699999809E+01 0. -1.
</event>
<event>
 5   0  0.2122194E-05  0.2395684E+04  0.7818609E-02  0.8441121E-01
       -2   -1    0    0    0  501  0.00000000000E+00  0.00000000000E+00  0.10331567659E+04  0.10331567659E+04  0.25500000920E-02 0.  1.
        2   -1    0    0  501    0  0.00000000000E+00  0.00000000000E+00 -0.13887781910E+04  0.13887781910E+04  0.25500000920E-02 0. -1.
    10030    2    1    2    0    0  0.00000000000E+00  0.00000000000E+00 -0.35562142509E+03  0.24219349568E+04  0.23956841063E+04 0.  0.
        3    1    3    3  502    0  0.59801575434E+03 -0.30360065047E+03  0.82555097838E+03  0.10636402707E+04  0.10100000352E+00 0.  1.
       -3    1    3    3    0  502 -0.59801575434E+03  0.30360065047E+03 -0.11811724035E+04  0.13582946861E+04  0.10100000352E+00 0. -1.
</event>
<event>
 5   0  0.9038897E-06  0.2452105E+04  0.7818609E-02  0.8420250E-01
       -1   -1    0    0    0  501  0.00000000000E+00  0.00000000000E+00  0.71925233523E+03  0.71925233525E+03  0.50400001928E-02 0.  1.
        1   -1    0    0  501    0  0.00000000000E+00  0.00000000000E+00 -0.20899539747E+04  0.20899539747E+04  0.50400001928E-02 0. -1.
    10030    2    1    2    0    0  0.00000000000E+00  0.00000000000E+00 -0.13707016395E+04  0.28092063100E+04  0.24521046282E+04 0.  0.
        1    1    3    3  502    0 -0.21794707398E+02  0.11212880572E+04 -0.12529207748E+04  0.16815386955E+04  0.50400001928E-02 0. -1.
       -1    1    3    3    0  502  0.21794707398E+02 -0.11212880572E+04 -0.11778086466E+03  0.11276676144E+04  0.50400001928E-02 0.  1.
</event>
<event>
 5   0  0.2025353E-05  0.2404591E+04  0.7818609E-02  0.8437787E-01
       -2   -1    0    0    0  501  0.00000000000E+00  0.00000000000E+00  0.19976642992E+04  0.19976642992E+04  0.25500000920E-02 0.  1.
        2   -1    0    0  501    0  0.00000000000E+00  0.00000000000E+00 -0.72360199379E+03  0.72360199380E+03  0.25500000920E-02 0. -1.
    10030    2    1    2    0    0  0.00000000000E+00  0.00000000000E+00  0.12740623054E+04  0.27212662930E+04  0.24045905014E+04 0.  0.
        4    1    3    3  502    0 -0.16345831071E+03  0.54404516015E+03  0.18362066919E+04  0.19220718987E+04  0.12699999809E+01 0.  1.
       -4    1    3    3    0  502  0.16345831071E+03 -0.54404516015E+03 -0.56214438651E+03  0.79919439425E+03  0.12699999809E+01 0. -1.
</event>
<event>
 5   0  0.8528103E-06  0.2391869E+04  0.7818609E-02  0.8442554E-01
        1   -1    0    0  501    0  0.00000000000E+00  0.00000000000E+00  0.16255377114E+04  0.16255377114E+04  0.50400001928E-02 0.  1.
       -1   -1    0    0    0  501  0.00000000000E+00  0.00000000000E+00 -0.87986811030E+03  0.87986811031E+03  0.50400001928E-02 0. -1.
    10030    2    1    2    0    0  0.00000000000E+00  0.00000000000E+00  0.74566960114E+03  0.25054058218E+04  0.23918685536E+04 0.  0.
        4    1    3    3  502    0 -0.60102995857E+03  0.66454204232E+03  0.12025220771E+04  0.14996379883E+04  0.12699999809E+01 0.  1.
       -4    1    3    3    0  502  0.60102995857E+03 -0.66454204232E+03 -0.45685247598E+03  0.10057678335E+04  0.12699999809E+01 0. -1.
</event>
<event>
 5   0  0.2080257E-05  0.2366890E+04  0.7818609E-02  0.8452004E-01
       -2   -1    0    0    0  501  0.00000000000E+00  0.00000000000E+00  0.14568043870E+04  0.14568043870E+04  0.25500000920E-02 0.  1.
        2   -1    0    0  501    0  0.00000000000E+00  0.00000000000E+00 -0.96137978010E+03  0.96137978010E+03  0.25500000920E-02 0. -1.
    10030    2    1    2    0    0  0.00000000000E+00  0.00000000000E+00  0.49542460694E+03  0.24181841671E+04  0.23668901802E+04 0.  0.
        1    1    3    3  502    0  0.97370691647E+03  0.41874283497E+03  0.78551492456E+03  0.13192742011E+04  0.50400001928E-02 0.  1.
       -1    1    3    3    0  502 -0.97370691647E+03 -0.41874283497E+03 -0.29009031762E+03  0.10989099660E+04  0.50400001928E-02 0. -1.
</event>
<event>
 5   0  0.2048028E-05  0.2394698E+04  0.7818609E-02  0.8441491E-01
        2   -1    0    0  501    0  0.00000000000E+00  0.00000000000E+00  0.14225608445E+04  0.14225608445E+04  0.25500000920E-02 0.  1.
       -2   -1    0    0    0  501  0.00000000000E+00  0.00000000000E+00 -0.10077912433E+04  0.10077912433E+04  0.25500000920E-02 0. -1.
    10030    2    1    2    0    0  0.00000000000E+00  0.00000000000E+00  0.41476960119E+03  0.24303520878E+04  0.23946977781E+04 0.  0.
        5    1    3    3  502    0 -0.73701673504E+03 -0.34983943687E+03  0.10968125565E+04  0.13669678758E+04  0.46999998093E+01 0.  1.
       -5    1    3    3    0  502  0.73701673504E+03  0.34983943687E+03 -0.68204295533E+03  0.10633842120E+04  0.46999998093E+01 0. -1.
</event>
<event>
 5   0  0.8528103E-06  0.2188223E+04  0.7818609E-02  0.8523346E-01
        1   -1    0    0  501    0  0.00000000000E+00  0.00000000000E+00  0.12860392270E+04  0.12860392270E+04  0.50400001928E-02 0.  1.
       -1   -1    0    0    0  501  0.00000000000E+00  0.00000000000E+00 -0.93082662537E+03  0.93082662538E+03  0.50400001928E-02 0. -1.
    10030    2    1    2    0    0  0.00000000000E+00  0.00000000000E+00  0.35521260159E+03  0.22168658524E+04  0.21882226155E+04 0.  0.
        4    1    3    3  502    0 -0.43140779821E+03 -0.65669850159E+03 -0.59374848875E+03  0.98483729171E+03  0.12699999809E+01 0. -1.
       -4    1    3    3    0  502  0.43140779821E+03  0.65669850159E+03  0.94896109034E+03  0.12320285606E+04  0.12699999809E+01 0.  1.
</event>
<event>
 5   0  0.9038897E-06  0.2403256E+04  0.7818609E-02  0.8438285E-01
       -1   -1    0    0    0  501  0.00000000000E+00  0.00000000000E+00  0.69846021435E+03  0.69846021436E+03  0.50400001928E-02 0. -1.
        1   -1    0    0  501    0  0.00000000000E+00  0.00000000000E+00 -0.20672763656E+04  0.20672763657E+04  0.50400001928E-02 0.  1.
    10030    2    1    2    0    0  0.00000000000E+00  0.00000000000E+00 -0.13688161513E+04  0.27657365800E+04  0.24032563688E+04 0.  0.
        1    1    3    3  502    0  0.56623012077E+03 -0.24450161322E+03 -0.18712204151E+04  0.19702445104E+04  0.50400001928E-02 0.  1.
       -1    1    3    3    0  502 -0.56623012077E+03  0.24450161322E+03  0.50240426384E+03  0.79549206966E+03  0.50400001928E-02 0. -1.
</event>
<event>
 5   0  0.8528103E-06  0.2431260E+04  0.7818609E-02  0.8427892E-01
        1   -1    0    0  501    0  0.00000000000E+00  0.00000000000E+00  0.11384673860E+04  0.11384673860E+04  0.50400001928E-02 0.  1.
       -1   -1    0    0    0  501  0.00000000000E+00  0.00000000000E+00 -0.12980229826E+04  0.12980229826E+04  0.50400001928E-02 0. -1.
    10030    2    1    2    0    0  0.00000000000E+00  0.00000000000E+00 -0.15955559662E+03  0.24364903686E+04  0.24312604401E+04 0.  0.
        4    1    3    3  502    0 -0.10849069026E+04  0.22336859061E+03  0.42213756561E+03  0.11853768396E+04  0.12699999809E+01 0.  1.
       -4    1    3    3    0  502  0.10849069026E+04 -0.22336859061E+03 -0.58169316223E+03  0.12511135290E+04  0.12699999809E+01 0. -1.
</event>
<event>
 5   0  0.2025353E-05  0.2379334E+04  0.7818609E-02  0.8447282E-01
        2   -1    0    0  501    0  0.00000000000E+00  0.00000000000E+00  0.17716962687E+04  0.17716962687E+04  0.25500000920E-02 0. -1.
       -2   -1    0    0    0  501  0.00000000000E+00  0.00000000000E+00 -0.79884292327E+03  0.79884292327E+03  0.25500000920E-02 0.  1.
    10030    2    1    2    0    0  0.00000000000E+00  0.00000000000E+00  0.97285334545E+03  0.25705391920E+04  0.23793335424E+04 0.  0.
        4    1    3    3  502    0 -0.60585139884E+03 -0.72451320266E+03  0.12679766707E+04  0.15810571617E+04  0.12699999809E+01 0. -1.
       -4    1    3    3    0  502  0.60585139884E+03  0.72451320266E+03 -0.29512332521E+03  0.98948203030E+03  0.12699999809E+01 0.  1.
</event>
<event>
 5   0  0.9038897E-06  0.2396170E+04  0.7818609E-02  0.8440939E-01
       -1   -1    0    0    0  501  0.00000000000E+00  0.00000000000E+00  0.82851440797E+03  0.82851440798E+03  0.50400001928E-02 0.  1.
        1   -1    0    0  501    0  0.00000000000E+00  0.00000000000E+00 -0.17325075841E+04  0.17325075841E+04  0.50400001928E-02 0. -1.
    10030    2    1    2    0    0  0.00000000000E+00  0.00000000000E+00 -0.90399317614E+03  0.25610219921E+04  0.23961698566E+04 0.  0.
        1    1    3    3  502    0 -0.11116247126E+04 -0.79877839350E+02  0.17931409025E+02  0.11146351449E+04  0.50400001928E-02 0. -1.
       -1    1    3    3    0  502  0.11116247126E+04  0.79877839350E+02 -0.92192458517E+03  0.14463868472E+04  0.50400001928E-02 0.  1.
</event>
<event>
 5   0  0.2080257E-05  0.2395270E+04  0.7818609E-02  0.8441276E-01
        2   -1    0    0  501    0  0.00000000000E+00  0.00000000000E+00  0.10106751478E+04  0.10106751478E+04  0.25500000920E-02 0. -1.
       -2   -1    0    0    0  501  0.00000000000E+00  0.00000000000E+00 -0.14191799271E+04  0.14191799271E+04  0.25500000920E-02 0.  1.
    10030    2    1    2    0    0  0.00000000000E+00  0.00000000000E+00 -0.40850477931E+03  0.24298550748E+04  0.23952702415E+04 0.  0.
        1    1    3    3  502    0 -0.26453256797E+03 -0.11588813831E+04 -0.35246583173E+03  0.12398450315E+04  0.50400001928E-02 0.  1.
       -1    1    3    3    0  502  0.26453256797E+03  0.11588813831E+04 -0.56038947577E+02  0.11900100433E+04  0.50400001928E-02 0. -1.
</event>
<event>
 5   0  0.7233625E-06  0.2408343E+04  0.7818609E-02  0.8436387E-01
        3   -1    0    0  501    0  0.00000000000E+00  0.00000000000E+00  0.14376269660E+04  0.14376269695E+04  0.10100000352E+00 0. -1.
       -3   -1    0    0    0  501  0.00000000000E+00  0.00000000000E+00 -0.10086263865E+04  0.10086263916E+04  0.10100000352E+00 0.  1.
    10030    2    1    2    0    0  0.00000000000E+00  0.00000000000E+00  0.42900057944E+03  0.24462533611E+04  0.24083425856E+04 0.  0.
        3    1    3    3  502    0  0.27630068822E+03  0.31660771851E+03 -0.93173409599E+03  0.10221110280E+04  0.10100000352E+00 0.  1.
       -3    1    3    3    0  502 -0.27630068822E+03 -0.31660771851E+03  0.13607346754E+04  0.14241423331E+04  0.10100000352E+00 0. -1.
</event>
<event>
 5   0  0.8898848E-06  0.2395857E+04  0.7818609E-02  0.8441056E-01
       -1   -1    0    0    0  501  0.00000000000E+00  0.00000000000E+00  0.11214736550E+04  0.11214736550E+04  0.50400001928E-02 0. -1.
        1   -1    0    0  501    0  0.00000000000E+00  0.00000000000E+00 -0.12795953407E+04  0.12795953407E+04  0.50400001928E-02 0.  1.
    10030    2    1    2    0    0  0.00000000000E+00  0.00000000000E+00 -0.15812168571E+03  0.24010689956E+04  0.23958568101E+04 0.  0.
        5    1    3    3  502    0 -0.17676459110E+03  0.84850561836E+03 -0.90778355316E+03  0.12551097858E+04  0.46999998093E+01 0.  1.
       -5    1    3    3    0  502  0.17676459110E+03 -0.84850561836E+03  0.74966186745E+03  0.11459592098E+04  0.46999998093E+01 0. -1.
</event>
<event>
 5   0  0.2122194E-05  0.2394824E+04  0.7818609E-02  0.8441444E-01
       -2   -1    0    0    0  501  0.00000000000E+00  0.00000000000E+00  0.88652701073E+03  0.88652701074E+03  0.25500000920E-02 0.  1.
        2   -1    0    0  501    0  0.00000000000E+00  0.00000000000E+00 -0.16173170356E+04  0.16173170356E+04  0.25500000920E-02 0. -1.
    10030    2    1    2    0    0  0.00000000000E+00  0.00000000000E+00 -0.73079002484E+03  0.25038440463E+04  0.23948237822E+04 0.  0.
        3    1    3    3  502    0  0.86082509512E+03 -0.50711858023E+03  0.32465521450E+03  0.10505189752E+04  0.10100000352E+00 0.  1.
       -3    1    3    3    0  502 -0.86082509512E+03  0.50711858023E+03 -0.10554452393E+04  0.14533250711E+04  0.10100000352E+00 0. -1.
</event>
<event>
 5   0  0.9038897E-06  0.2403497E+04  0.7818609E-02  0.8438195E-01
        1   -1    0    0  501    0  0.00000000000E+00  0.00000000000E+00  0.23867419655E+04  0.23867419655E+04  0.50400001928E-02 0.  1.
       -1   -1    0    0    0  501  0.00000000000E+00  0.00000000000E+00 -0.60509266241E+03  0.60509266244E+03  0.50400001928E-02 0. -1.
    10030    2    1    2    0    0  0.00000000000E+00  0.00000000000E+00  0.17816493031E+04  0.29918346279E+04  0.24034974936E+04 0.  0.
        1    1    3    3  502    0 -0.32786592877E+03  0.63322734979E+03 -0.31329187225E+03  0.77886118212E+03  0.50400001928E-02 0. -1.
       -1    1    3    3    0  502  0.32786592877E+03 -0.63322734979E+03  0.20949411753E+04  0.22129734458E+04  0.50400001928E-02 0.  1.
</event>
<event>
 5   0  0.8898848E-06  0.2420079E+04  0.7818609E-02  0.8432024E-01
       -1   -1    0    0    0  501  0.00000000000E+00  0.00000000000E+00  0.15942503800E+04  0.15942503800E+04  0.50400001928E-02 0. -1.
        1   -1    0    0  501    0  0.00000000000E+00  0.00000000000E+00 -0.91842283760E+03  0.91842283762E+03  0.50400001928E-02 0.  1.
    10030    2    1    2    0    0  0.00000000000E+00  0.00000000000E+00  0.67582754237E+03  0.25126732176E+04  0.24200793027E+04 0.  0.
        5    1    3    3  502    0 -0.74460663518E+03  0.86754414210E+03  0.74943974745E+03  0.13670237396E+04  0.46999998093E+01 0. -1.
       -5    1    3    3    0  502  0.74460663518E+03 -0.86754414210E+03 -0.73612205079E+02  0.11456494780E+04  0.46999998093E+01 0.  1.
</event>
<event>
 5   0  0.2048028E-05  0.2411068E+04  0.7818609E-02  0.8435372E-01
       -2   -1    0    0    0  501  0.00000000000E+00  0.00000000000E+00  0.78165593434E+03  0.78165593435E+03  0.25500000920E-02 0.  1.
        2   -1    0    0  501    0  0.00000000000E+00  0.00000000000E+00 -0.18592734443E+04  0.18592734443E+04  0.25500000920E-02 0. -1.
    10030    2    1    2    0    0  0.00000000000E+00  0.00000000000E+00 -0.10776175100E+04  0.26409293787E+04  0.24110679139E+04 0.  0.
        5    1    3    3  502    0 -0.46925457240E+03  0.80959125544E+03 -0.13713016802E+04  0.16601591016E+04  0.46999998093E+01 0. -1.
       -5    1    3    3    0  502  0.46925457240E+03 -0.80959125544E+03  0.29368417017E+03  0.98077027709E+03  0.46999998093E+01 0.  1.
</event>
<event>
 5   0  0.9038897E-06  0.2419712E+04  0.7818609E-02  0.8432160E-01
        1   -1    0    0  501    0  0.00000000000E+00  0.00000000000E+00  0.13151370158E+04  0.13151370158E+04  0.50400001928E-02 0. -1.
       -1   -1    0    0    0  501  0.00000000000E+00  0.00000000000E+00 -0.11130030067E+04  0.11130030068E+04  0.50400001928E-02 0.  1.
    10030    2    1    2    0    0  0.00000000000E+00  0.00000000000E+00  0.20213400908E+03  0.24281400226E+04  0.24197119274E+04 0.  0.
        1    1    3    3  502    0  0.40324791209E+03  0.11325576563E+04  0.23739205552E+03  0.12254185863E+04  0.50400001928E-02 0. -1.
       -1    1    3    3    0  502 -0.40324791209E+03 -0.11325576563E+04 -0.35258046437E+02  0.12027214363E+04  0.50400001928E-02 0.  1.
</event>
<event>
 5   0  0.8898848E-06  0.2392456E+04  0.7818609E-02  0.8442333E-01
        1   -1    0    0  501    0  0.00000000000E+00  0.00000000000E+00  0.11252388408E+04  0.11252388408E+04  0.50400001928E-02 0. -1.
       -1   -1    0    0    0  501  0.00000000000E+00  0.00000000000E+00 -0.12716953321E+04  0.12716953321E+04  0.50400001928E-02 0.  1.
    10030    2    1    2    0    0  0.00000000000E+00  0.00000000000E+00 -0.14645649129E+03  0.23969341729E+04  0.23924556267E+04 0.  0.
        5    1    3    3  502    0 -0.34872621133E+03 -0.41226954159E+03 -0.11426357396E+04  0.12638095857E+04  0.46999998093E+01 0.  1.
       -5    1    3    3    0  502  0.34872621133E+03  0.41226954159E+03  0.99617924835E+03  0.11331245873E+04  0.46999998093E+01 0. -1.
</event>
<event>
 5   0  0.9176817E-06  0.2402621E+04  0.7818609E-02  0.8438523E-01
        1   -1    0    0  501    0  0.00000000000E+00  0.00000000000E+00  0.11534479899E+04  0.11534479899E+04  0.50400001928E-02 0.  1.
       -1   -1    0    0    0  501  0.00000000000E+00  0.00000000000E+00 -0.12511592136E+04  0.12511592136E+04  0.50400001928E-02 0. -1.
    10030    2    1    2    0    0  0.00000000000E+00  0.00000000000E+00 -0.97711223732E+02  0.24046072035E+04  0.24026211354E+04 0.  0.
        3    1    3    3  502    0 -0.11689354985E+04 -0.27476723292E+03 -0.13615172210E+02  0.12008716064E+04  0.10100000352E+00 0. -1.
       -3    1    3    3    0  502  0.11689354985E+04  0.27476723292E+03 -0.84096051521E+02  0.12037355972E+04  0.10100000352E+00 0.  1.
</event>
<event>
 5   0  0.2025353E-05  0.2395914E+04  0.7818609E-02  0.8441035E-01
       -2   -1    0    0    0  501  0.00000000000E+00  0.00000000000E+00  0.98287399435E+03  0.98287399435E+03  0.25500000920E-02 0.  1.
        2   -1    0    0  501    0  0.00000000000E+00  0.00000000000E+00 -0.14601069192E+04  0.14601069192E+04  0.25500000920E-02 0. -1.
    10030    2    1    2    0    0  0.00000000000E+00  0.00000000000E+00 -0.47723292486E+03  0.24429809136E+04  0.23959141219E+04 0.  0.
        4    1    3    3  502    0  0.60636999080E+03 -0.60755785946E+03  0.61343580572E+03  0.10550432309E+04  0.12699999809E+01 0.  1.
       -4    1    3    3    0  502 -0.60636999080E+03  0.60755785946E+03 -0.10906687306E+04  0.13879376827E+04  0.12699999809E+01 0. -1.
</event>
<event>
 5   0  0.9083687E-06  0.2401265E+04  0.7818609E-02  0.8439030E-01
        1   -1    0    0  501    0  0.00000000000E+00  0.00000000000E+00  0.84254144055E+03  0.84254144056E+03  0.50400001928E-02 0. -1.
       -1   -1    0    0    0  501  0.00000000000E+00  0.00000000000E+00 -0.17109162330E+04  0.17109162330E+04  0.50400001928E-02 0.  1.
    10030    2    1    2    0    0  0.00000000000E+00  0.00000000000E+00 -0.86837479246E+03  0.25534576736E+04  0.24012645232E+04 0.  0.
        2    1    3    3  502    0 -0.11125396666E+04  0.45069663748E+03 -0.40716290978E+03  0.12675384033E+04  0.25500000920E-02 0.  1.
       -2    1    3    3    0  502  0.11125396666E+04 -0.45069663748E+03 -0.46121188268E+03  0.12859192702E+04  0.25500000920E-02 0. -1.
</event>
<event>
 5   0  0.7233625E-06  0.2368070E+04  0.7818609E-02  0.8451555E-01
        3   -1    0    0  501    0  0.00000000000E+00  0.00000000000E+00  0.88146396844E+03  0.88146397423E+03  0.10100000352E+00 0. -1.
       -3   -1    0    0    0  501  0.00000000000E+00  0.00000000000E+00 -0.15904662584E+04  0.15904662616E+04  0.10100000352E+00 0.  1.
    10030    2    1    2    0    0  0.00000000000E+00  0.00000000000E+00 -0.70900228996E+03  0.24719302358E+04  0.23680698562E+04 0.  0.
        4    1    3    3  502    0 -0.40877580283E+03 -0.85360673774E+02  0.80204196449E+03  0.90424389814E+03  0.12699999809E+01 0. -1.
       -4    1    3    3    0  502  0.40877580283E+03  0.85360673774E+02 -0.15110442545E+04  0.15676863377E+04  0.12699999809E+01 0.  1.
</event>
<event>
 5   0  0.2080257E-05  0.2412047E+04  0.7818609E-02  0.8435007E-01
        2   -1    0    0  501    0  0.00000000000E+00  0.00000000000E+00  0.15718973121E+04  0.15718973121E+04  0.25500000920E-02 0.  1.
       -2   -1    0    0    0  501  0.00000000000E+00  0.00000000000E+00 -0.92531033564E+03  0.92531033564E+03  0.25500000920E-02 0. -1.
    10030    2    1    2    0    0  0.00000000000E+00  0.00000000000E+00  0.64658697642E+03  0.24972076477E+04  0.24120471218E+04 0.  0.
        1    1    3    3  502    0 -0.44499475165E+03  0.70652075099E+03  0.12242485158E+04  0.14818826974E+04  0.50400001928E-02 0.  1.
       -1    1    3    3    0  502  0.44499475165E+03 -0.70652075099E+03 -0.57766153934E+03  0.10153249503E+04  0.50400001928E-02 0. -1.
</event>
<event>
 5   0  0.2025353E-05  0.2377763E+04  0.7818609E-02  0.8447876E-01
       -2   -1    0    0    0  501  0.00000000000E+00  0.00000000000E+00  0.54750305895E+03  0.54750305896E+03  0.25500000920E-02 0.  1.
        2   -1    0    0  501    0  0.00000000000E+00  0.00000000000E+00 -0.25816103603E+04  0.25816103603E+04  0.25500000920E-02 0. -1.
    10030    2    1    2    0    0  0.00000000000E+00  0.00000000000E+00 -0.20341073013E+04  0.31291134192E+04  0.23777632929E+04 0.  0.
        4    1    3    3  502    0  0.35334264931E+03 -0.72161398472E+03 -0.21702247817E+04  0.23141855990E+04  0.12699999809E+01 0. -1.
       -4    1    3    3    0  502 -0.35334264931E+03  0.72161398472E+03  0.13611748038E+03  0.81492782020E+03  0.12699999809E+01 0.  1.
</event>
<event>
 5   0  0.2025353E-05  0.2382205E+04  0.7818609E-02  0.8446196E-01
       -2   -1    0    0    0  501  0.00000000000E+00  0.00000000000E+00  0.98907771775E+03  0.98907771775E+03  0.25500000920E-02 0. -1.
        2   -1    0    0  501    0  0.00000000000E+00  0.00000000000E+00 -0.14343919687E+04  0.14343919687E+04  0.25500000920E-02 0.  1.
    10030    2    1    2    0    0  0.00000000000E+00  0.00000000000E+00 -0.44531425095E+03  0.24234696865E+04  0.23822049742E+04 0.  0.
        4    1    3    3  502    0 -0.97102174657E+03 -0.49878329315E+02 -0.92258094831E+03  0.13403463355E+04  0.12699999809E+01 0.  1.
       -4    1    3    3    0  502  0.97102174657E+03  0.49878329315E+02  0.47726669736E+03  0.10831233509E+04  0.12699999809E+01 0. -1.
</event>
<event>
 5   0  0.2087882E-05  0.2375840E+04  0.7818609E-02  0.8448604E-01
       -2   -1    0    0    0  501  0.00000000000E+00  0.00000000000E+00  0.80403124929E+03  0.80403124930E+03  0.25500000920E-02 0. -1.
        2   -1    0    0  501    0  0.00000000000E+00  0.00000000000E+00 -0.17550983973E+04  0.17550983973E+04  0.25500000920E-02 0.  1.
    10030    2    1    2    0    0  0.00000000000E+00  0.00000000000E+00 -0.95106714801E+03  0.25591296466E+04  0.23758400258E+04 0.  0.
        2    1    3    3  502    0  0.58988366234E+03  0.92737711331E+02 -0.15816914378E+04  0.16906539630E+04  0.25500000920E-02 0.  1.
       -2    1    3    3    0  502 -0.58988366234E+03 -0.92737711331E+02  0.63062428977E+03  0.86847568362E+03  0.25500000920E-02 0. -1.
</event>
<event>
 5   0  0.2122194E-05  0.2400680E+04  0.7818609E-02  0.8439249E-01
       -2   -1    0    0    0  501  0.00000000000E+00  0.00000000000E+00  0.14864469077E+04  0.14864469077E+04  0.25500000920E-02 0. -1.
        2   -1    0    0  501    0  0.00000000000E+00  0.00000000000E+00 -0.96930180020E+03  0.96930180020E+03  0.25500000920E-02 0.  1.
    10030    2    1    2    0    0  0.00000000000E+00  0.00000000000E+00  0.51714510749E+03  0.24557487079E+04  0.24006796234E+04 0.  0.
        3    1    3    3  502    0  0.10879792102E+04 -0.34454494591E+03 -0.12199053362E+03  0.11477332800E+04  0.10100000352E+00 0.  1.
       -3    1    3    3    0  502 -0.10879792102E+04  0.34454494591E+03  0.63913564111E+03  0.13080154279E+04  0.10100000352E+00 0. -1.
</event>
<event>
 5   0  0.9176817E-06  0.2470860E+04  0.7818609E-02  0.8413441E-01
        1   -1    0    0  501    0  0.00000000000E+00  0.00000000000E+00  0.83736398770E+03  0.83736398771E+03  0.50400001928E-02 0. -1.
       -1   -1    0    0    0  501  0.00000000000E+00  0.00000000000E+00 -0.18227286956E+04  0.18227286956E+04  0.50400001928E-02 0.  1.
    10030    2    1    2    0    0  0.00000000000E+00  0.00000000000E+00 -0.98536470793E+03  0.26600926833E+04  0.24708600681E+04 0.  0.
        3    1    3    3  502    0 -0.39401955942E+03 -0.10897644309E+04 -0.31569953029E+02  0.11592388021E+04  0.10100000352E+00 0. -1.
       -3    1    3    3    0  502  0.39401955942E+03  0.10897644309E+04 -0.95379475490E+03  0.15008538812E+04  0.10100000352E+00 0.  1.
</event>
<event>
 5   0  0.8528103E-06  0.2393789E+04  0.7818609E-02  0.8441833E-01
       -1   -1    0    0    0  501  0.00000000000E+00  0.00000000000E+00  0.99971458204E+03  0.99971458205E+03  0.50400001928E-02 0.  1.
        1   -1    0    0  501    0  0.00000000000E+00  0.00000000000E+00 -0.14329654104E+04  0.14329654105E+04  0.50400001928E-02 0. -1.
    10030    2    1    2    0    0  0.00000000000E+00  0.00000000000E+00 -0.43325082841E+03  0.24326799925E+04  0.23937889768E+04 0.  0.
        4    1    3    3  502    0  0.40464041260E+03  0.85045874331E+03 -0.96723268153E+03  0.13500202260E+04  0.12699999809E+01 0. -1.
       -4    1    3    3    0  502 -0.40464041260E+03 -0.85045874331E+03  0.53398185312E+03  0.10826597665E+04  0.12699999809E+01 0.  1.
</event>
<event>
 5   0  0.2122194E-05  0.2425517E+04  0.7818609E-02  0.8430012E-01
       -2   -1    0    0    0  501  0.00000000000E+00  0.00000000000E+00  0.90010145554E+03  0.90010145554E+03  0.25500000920E-02 0.  1.
        2   -1    0    0  501    0  0.00000000000E+00  0.00000000000E+00 -0.16340191822E+04  0.16340191822E+04  0.25500000920E-02 0. -1.
    10030    2    1    2    0    0  0.00000000000E+00  0.00000000000E+00 -0.73391772670E+03  0.25341206378E+04  0.24255168887E+04 0.  0.
        3    1    3    3  502    0 -0.47251265677E+03 -0.11168040805E+04 -0.35000035081E+03  0.12621488901E+04  0.10100000352E+00 0. -1.
       -3    1    3    3    0  502  0.47251265677E+03  0.11168040805E+04 -0.38391737589E+03  0.12719717476E+04  0.10100000352E+00 0.  1.
</event>
<event>
 5   0  0.2087882E-05  0.2401024E+04  0.7818609E-02  0.8439120E-01
       -2   -1    0    0    0  501  0.00000000000E+00  0.00000000000E+00  0.61623838459E+03  0.61623838459E+03  0.25500000920E-02 0. -1.
        2   -1    0    0  501    0  0.00000000000E+00  0.00000000000E+00 -0.23387532753E+04  0.23387532753E+04  0.25500000920E-02 0.  1.
    10030    2    1    2    0    0  0.00000000000E+00  0.00000000000E+00 -0.17225148907E+04  0.29549916599E+04  0.24010243983E+04 0.  0.
        2    1    3    3  502    0 -0.85990586146E+03  0.19163839784E+03  0.14241526556E+03  0.89243793844E+03  0.25500000920E-02 0. -1.
       -2    1    3    3    0  502  0.85990586146E+03 -0.19163839784E+03 -0.18649301563E+04  0.20625537215E+04  0.25500000920E-02 0.  1.
</event>
<event>
 5   0  0.9038897E-06  0.2398111E+04  0.7818609E-02  0.8440211E-01
       -1   -1    0    0    0  501  0.00000000000E+00  0.00000000000E+00  0.82221566112E+03  0.82221566114E+03  0.50400001928E-02 0. -1.
        1   -1    0    0  501    0  0.00000000000E+00  0.00000000000E+00 -0.17486099113E+04  0.17486099113E+04  0.50400001928E-02 0.  1.
    10030    2    1    2    0    0  0.00000000000E+00  0.00000000000E+00 -0.92639425017E+03  0.25708255724E+04  0.23981113021E+04 0.  0.
        1    1    3    3  502    0  0.93922403786E+03 -0.70777362762E+03 -0.21258908902E+03  0.11951064480E+04  0.50400001928E-02 0. -1.
       -1    1    3    3    0  502 -0.93922403786E+03  0.70777362762E+03 -0.71380516115E+03  0.13757191244E+04  0.50400001928E-02 0.  1.
</event>
<event>
 5   0  0.2080257E-05  0.2395911E+04  0.7818609E-02  0.8441036E-01
        2   -1    0    0  501    0  0.00000000000E+00  0.00000000000E+00  0.13450188453E+04  0.13450188453E+04  0.25500000920E-02 0.  1.
       -2   -1    0    0    0  501  0.00000000000E+00  0.00000000000E+00 -0.10669721758E+04  0.10669721758E+04  0.25500000920E-02 0. -1.
    10030    2    1    2    0    0  0.00000000000E+00  0.00000000000E+00  0.27804666953E+03  0.24119910211E+04  0.23959112537E+04 0.  0.
        1    1    3    3  502    0 -0.94547956071E+03  0.71444700369E+03  0.31550406175E+03  0.12263396486E+04  0.50400001928E-02 0.  1.
       -1    1    3    3    0  502  0.94547956071E+03 -0.71444700369E+03 -0.37457392219E+02  0.11856513725E+04  0.50400001928E-02 0. -1.
</event>
<event>
 5   0  0.9083687E-06  0.2351144E+04  0.7818609E-02  0.8458024E-01
        1   -1    0    0  501    0  0.00000000000E+00  0.00000000000E+00  0.16062400777E+04  0.16062400778E+04  0.50400001928E-02 0.  1.
       -1   -1    0    0    0  501  0.00000000000E+00  0.00000000000E+00 -0.86037528530E+03  0.86037528531E+03  0.50400001928E-02 0. -1.
    10030    2    1    2    0    0  0.00000000000E+00  0.00000000000E+00  0.74586479245E+03  0.24666153631E+04  0.23511437771E+04 0.  0.
        2    1    3    3  502    0  0.33306972792E+03 -0.10332512062E+04  0.84611113758E+03  0.13763893184E+04  0.25500000920E-02 0. -1.
       -2    1    3    3    0  502 -0.33306972792E+03  0.10332512062E+04 -0.10024634512E+03  0.10902260446E+04  0.25500000920E-02 0.  1.
</event>
<event>
 5   0  0.2048028E-05  0.2357907E+04  0.7818609E-02  0.8455433E-01
       -2   -1    0    0    0  501  0.00000000000E+00  0.00000000000E+00  0.75594254173E+03  0.75594254174E+03  0.25500000920E-02 0.  1.
        2   -1    0    0  501    0  0.00000000000E+00  0.00000000000E+00 -0.18386733709E+04  0.18386733709E+04  0.25500000920E-02 0. -1.
    10030    2    1    2    0    0  0.00000000000E+00  0.00000000000E+00 -0.10827308292E+04  0.25946159127E+04  0.23579070562E+04 0.  0.
        5    1    3    3  502    0 -0.14076227914E+03 -0.10342205310E+04 -0.11445586980E+04  0.15490199576E+04  0.46999998093E+01 0. -1.
       -5    1    3    3    0  502  0.14076227914E+03  0.10342205310E+04  0.61827868796E+02  0.10455959551E+04  0.46999998093E+01 0.  1.
</event>
<event>
 5   0  0.9083687E-06  0.2419297E+04  0.7818609E-02  0.8432314E-01
        1   -1    0    0  501    0  0.00000000000E+00  0.00000000000E+00  0.20377659648E+04  0.20377659648E+04  0.50400001928E-02 0. -1.
       -1   -1    0    0    0  501  0.00000000000E+00  0.00000000000E+00 -0.71806579408E+03  0.71806579410E+03  0.50400001928E-02 0.  1.
    10030    2    1    2    0    0  0.00000000000E+00  0.00000000000E+00  0.13197001707E+04  0.27558317589E+04  0.24192974482E+04 0.  0.
        2    1    3    3  502    0 -0.59666602766E+03 -0.10037917855E+04  0.30027956264E+03  0.12057263840E+04  0.25500000920E-02 0.  1.
       -2    1    3    3    0  502  0.59666602766E+03  0.10037917855E+04  0.10194206081E+04  0.15501053750E+04  0.25500000920E-02 0. -1.
</event>
<event>
 5   0  0.9176817E-06  0.2390358E+04  0.7818609E-02  0.8443122E-01
       -1   -1    0    0    0  501  0.00000000000E+00  0.00000000000E+00  0.92272408515E+03  0.92272408517E+03  0.50400001928E-02 0. -1.
        1   -1    0    0  501    0  0.00000000000E+00  0.00000000000E+00 -0.15480829213E+04  0.15480829213E+04  0.50400001928E-02 0.  1.
    10030    2    1    2    0    0  0.00000000000E+00  0.00000000000E+00 -0.62535883614E+03  0.24708070065E+04  0.23903584646E+04 0.  0.
        3    1    3    3  502    0  0.66237657899E+03  0.32862184754E+03  0.65792156441E+03  0.98974534411E+03  0.10100000352E+00 0. -1.
       -3    1    3    3    0  502 -0.66237657899E+03 -0.32862184754E+03 -0.12832804006E+04  0.14810616624E+04  0.10100000352E+00 0.  1.
</event>
<event>
 5   0  0.8898848E-06  0.2304427E+04  0.7818609E-02  0.8476178E-01
       -1   -1    0    0    0  501  0.00000000000E+00  0.00000000000E+00  0.79344567334E+03  0.79344567335E+03  0.50400001928E-02 0. -1.
        1   -1    0    0  501    0  0.00000000000E+00  0.00000000000E+00 -0.16732037431E+04  0.16732037431E+04  0.50400001928E-02 0.  1.
    10030    2    1    2    0    0  0.00000000000E+00  0.00000000000E+00 -0.87975806976E+03  0.24666494165E+04  0.23044272786E+04 0.  0.
        5    1    3    3  502    0  0.58451422810E+03 -0.51853755119E+03  0.46651060463E+03  0.91005071786E+03  0.46999998093E+01 0. -1.
       -5    1    3    3    0  502 -0.58451422810E+03  0.51853755119E+03 -0.13462686744E+04  0.15565986986E+04  0.46999998093E+01 0.  1.
</event>
<event>
 5   0  0.2080257E-05  0.2401417E+04  0.7818609E-02  0.8438973E-01
       -2   -1    0    0    0  501  0.00000000000E+00  0.00000000000E+00  0.98466943660E+03  0.98466943660E+03  0.25500000920E-02 0. -1.
        2   -1    0    0  501    0  0.00000000000E+00  0.00000000000E+00 -0.14641470892E+04  0.14641470892E+04  0.25500000920E-02 0.  1.
    10030    2    1    2    0    0  0.00000000000E+00  0.00000000000E+00 -0.47947765259E+03  0.24488165258E+04  0.24014169895E+04 0.  0.
        1    1    3    3  502    0 -0.15734799803E+03  0.11895991085E+04 -0.19651758954E+03  0.12159455557E+04  0.50400001928E-02 0.  1.
       -1    1    3    3    0  502  0.15734799803E+03 -0.11895991085E+04 -0.28296006305E+03  0.12328709701E+04  0.50400001928E-02 0. -1.
</event>
<event>
 5   0  0.9176817E-06  0.2400497E+04  0.7818609E-02  0.8439317E-01
       -1   -1    0    0    0  501  0.00000000000E+00  0.00000000000E+00  0.12550997532E+04  0.12550997532E+04  0.50400001928E-02 0. -1.
        1   -1    0    0  501    0  0.00000000000E+00  0.00000000000E+00 -0.11477948343E+04  0.11477948343E+04  0.50400001928E-02 0.  1.
    10030    2    1    2    0    0  0.00000000000E+00  0.00000000000E+00  0.10730491889E+03  0.24028945876E+04  0.24004974595E+04 0.  0.
        3    1    3    3  502    0 -0.71583434276E+02  0.11977912987E+04  0.25897170555E+02  0.12002078391E+04  0.10100000352E+00 0.  1.
       -3    1    3    3    0  502  0.71583434276E+02 -0.11977912987E+04  0.81407748331E+02  0.12026867485E+04  0.10100000352E+00 0. -1.
</event>
<event>
 5   0  0.2087882E-05  0.2380224E+04  0.7818609E-02  0.8446945E-01
        2   -1    0    0  501    0  0.00000000000E+00  0.00000000000E+00  0.14545466969E+04  0.14545466969E+04  0.25500000920E-02 0.  1.
       -2   -1    0    0    0  501  0.00000000000E+00  0.00000000000E+00 -0.97375157074E+03  0.97375157074E+03  0.25500000920E-02 0. -1.
    10030    2    1    2    0    0  0.00000000000E+00  0.00000000000E+00  0.48079512619E+03  0.24282982677E+04  0.23802244691E+04 0.  0.
        2    1    3    3  502    0  0.13951582351E+03  0.72704481732E+03 -0.71025339577E+03  0.10259233488E+04  0.25500000920E-02 0. -1.
       -2    1    3    3    0  502 -0.13951582351E+03 -0.72704481732E+03  0.11910485220E+04  0.14023749189E+04  0.25500000920E-02 0.  1.
</event>
<event>
 5   0  0.8528103E-06  0.2403339E+04  0.7818609E-02  0.8438255E-01
        1   -1    0    0  501    0  0.00000000000E+00  0.00000000000E+00  0.21019967345E+04  0.21019967345E+04  0.50400001928E-02 0. -1.
       -1   -1    0    0    0  501  0.00000000000E+00  0.00000000000E+00 -0.68697018452E+03  0.68697018454E+03  0.50400001928E-02 0.  1.
    10030    2    1    2    0    0  0.00000000000E+00  0.00000000000E+00  0.14150265500E+04  0.27889669191E+04  0.24033385817E+04 0.  0.
        4    1    3    3  502    0  0.85357631402E+02  0.93829579204E+03 -0.15803588211E+03  0.95533338240E+03  0.12699999809E+01 0.  1.
       -4    1    3    3    0  502 -0.85357631402E+02 -0.93829579204E+03  0.15730624321E+04  0.18336335367E+04  0.12699999809E+01 0. -1.
</event>
<event>
 5   0  0.8898848E-06  0.2419585E+04  0.7818609E-02  0.8432207E-01
        1   -1    0    0  501    0  0.00000000000E+00  0.00000000000E+00  0.14603501228E+04  0.14603501228E+04  0.50400001928E-02 0.  1.
       -1   -1    0    0    0  501  0.00000000000E+00  0.00000000000E+00 -0.10022238935E+04  0.10022238935E+04  0.50400001928E-02 0. -1.
    10030    2    1    2    0    0  0.00000000000E+00  0.00000000000E+00  0.45812622930E+03  0.24625740162E+04  0.24195849114E+04 0.  0.
        5    1    3    3  502    0  0.66331607326E+03  0.91241346010E+03 -0.21584102997E+03  0.11485190357E+04  0.46999998093E+01 0. -1.
       -5    1    3    3    0  502 -0.66331607326E+03 -0.91241346010E+03  0.67396725927E+03  0.13140549805E+04  0.46999998093E+01 0.  1.
</event>
<event>
 5   0  0.2048028E-05  0.2401778E+04  0.7818609E-02  0.8438838E-01
       -2   -1    0    0    0  501  0.00000000000E+00  0.00000000000E+00  0.97548257013E+03  0.97548257014E+03  0.25500000920E-02 0. -1.
        2   -1    0    0  501    0  0.00000000000E+00  0.00000000000E+00 -0.14783806295E+04  0.14783806295E+04  0.25500000920E-02 0.  1.
    10030    2    1    2    0    0  0.00000000000E+00  0.00000000000E+00 -0.50289805932E+03  0.24538631996E+04  0.24017781214E+04 0.  0.
        5    1    3    3  502    0 -0.10274094174E+04  0.29887427237E+03  0.30554934038E+03  0.11127795968E+04  0.46999998093E+01 0. -1.
       -5    1    3    3    0  502  0.10274094174E+04 -0.29887427237E+03 -0.80844739970E+03  0.13410836028E+04  0.46999998093E+01 0.  1.
</event>
<event>
 5   0  0.8898848E-06  0.2403137E+04  0.7818609E-02  0.8438330E-01
        1   -1    0    0  501    0  0.00000000000E+00  0.00000000000E+00  0.75511295554E+03  0.75511295556E+03  0.50400001928E-02 0. -1.
       -1   -1    0    0    0  501  0.00000000000E+00  0.00000000000E+00 -0.19119876394E+04  0.19119876394E+04  0.50400001928E-02 0.  1.
    10030    2    1    2    0    0  0.00000000000E+00  0.00000000000E+00 -0.11568746839E+04  0.26671005950E+04  0.24031368146E+04 0.  0.
        5    1    3    3  502    0  0.11359610556E+04  0.14498963750E+03 -0.98214361114E+03  0.15086608889E+04  0.46999998093E+01 0. -1.
       -5    1    3    3    0  502 -0.11359610556E+04 -0.14498963750E+03 -0.17473107273E+03  0.11584397061E+04  0.46999998093E+01 0.  1.
</event>
<event>
 5   0  0.9083687E-06  0.2393942E+04  0.7818609E-02  0.8441775E-01
       -1   -1    0    0    0  501  0.00000000000E+00  0.00000000000E+00  0.75332121127E+03  0.75332121129E+03  0.50400001928E-02 0.  1.
        1   -1    0    0  501    0  0.00000000000E+00  0.00000000000E+00 -0.19018979765E+04  0.19018979765E+04  0.50400001928E-02 0. -1.
    10030    2    1    2    0    0  0.00000000000E+00  0.00000000000E+00 -0.11485767653E+04  0.26552191878E+04  0.23939424282E+04 0.  0.
        2    1    3    3  502    0  0.22021162722E+03  0.48615834260E+03 -0.17626213206E+04  0.18416506223E+04  0.25500000920E-02 0. -1.
       -2    1    3    3    0  502 -0.22021162722E+03 -0.48615834260E+03  0.61404455533E+03  0.81356856551E+03  0.25500000920E-02 0.  1.
</event>
<event>
 5   0  0.2080257E-05  0.2399191E+04  0.7818609E-02  0.8439807E-01
        2   -1    0    0  501    0  0.00000000000E+00  0.00000000000E+00  0.79318337977E+03  0.79318337978E+03  0.25500000920E-02 0. -1.
       -2   -1    0    0    0  501  0.00000000000E+00  0.00000000000E+00 -0.18142453150E+04  0.18142453151E+04  0.25500000920E-02 0.  1.
    10030    2    1    2    0    0  0.00000000000E+00  0.00000000000E+00 -0.10210619353E+04  0.26074286948E+04  0.23991908892E+04 0.  0.
        1    1    3    3  502    0  0.17308199961E+03  0.11374559864E+04 -0.87950664773E+03  0.14482042131E+04  0.50400001928E-02 0.  1.
       -1    1    3    3    0  502 -0.17308199961E+03 -0.11374559864E+04 -0.14155528755E+03  0.11592244817E+04  0.50400001928E-02 0. -1.
</event>
<event>
 5   0  0.8528103E-06  0.2368663E+04  0.7818609E-02  0.8451330E-01
       -1   -1    0    0    0  501  0.00000000000E+00  0.00000000000E+00  0.76216974838E+03  0.76216974840E+03  0.50400001928E-02 0. -1.
        1   -1    0    0  501    0  0.00000000000E+00  0.00000000000E+00 -0.18403267302E+04  0.18403267302E+04  0.50400001928E-02 0.  1.
    10030    2    1    2    0    0  0.00000000000E+00  0.00000000000E+00 -0.10781569818E+04  0.26024964786E+04  0.23686632187E+04 0.  0.
        4    1    3    3  502    0 -0.31871330703E+03 -0.21095140407E+03  0.69254690806E+03  0.79101295799E+03  0.12699999809E+01 0. -1.
       -4    1    3    3    0  502  0.31871330703E+03  0.21095140407E+03 -0.17707038899E+04  0.18114835206E+04  0.12699999809E+01 0.  1.
</event>
<event>
 5   0  0.2080257E-05  0.2401581E+04  0.7818609E-02  0.8438912E-01
       -2   -1    0    0    0  501  0.00000000000E+00  0.00000000000E+00  0.95559098042E+03  0.95559098042E+03  0.25500000920E-02 0. -1.
        2   -1    0    0  501    0  0.00000000000E+00  0.00000000000E+00 -0.15089063783E+04  0.15089063783E+04  0.25500000920E-02 0.  1.
    10030    2    1    2    0    0  0.00000000000E+00  0.00000000000E+00 -0.55331539789E+03  0.24644973587E+04  0.24015805840E+04 0.  0.
        1    1    3    3  502    0  0.18779923175E+02 -0.11353182878E+03 -0.15032349364E+04  0.15076330573E+04  0.50400001928E-02 0.  1.
       -1    1    3    3    0  502 -0.18779923175E+02  0.11353182878E+03  0.94991953848E+03  0.95686430139E+03  0.50400001928E-02 0. -1.
</event>
<event>
 5   0  0.2080257E-05  0.2388168E+04  0.7818609E-02  0.8443947E-01
        2   -1    0    0  501    0  0.00000000000E+00  0.00000000000E+00  0.22153123139E+04  0.22153123139E+04  0.25500000920E-02 0. -1.
       -2   -1    0    0    0  501  0.00000000000E+00  0.00000000000E+00 -0.64362779631E+03  0.64362779632E+03  0.25500000920E-02 0.  1.
    10030    2    1    2    0    0  0.00000000000E+00  0.00000000000E+00  0.15716845175E+04  0.28589401102E+04  0.23881679863E+04 0.  0.
        1    1    3    3  502    0 -0.43583203509E+03 -0.10814696200E+04  0.47757225028E+03  0.12600005381E+04  0.50400001928E-02 0. -1.
       -1    1    3    3    0  502  0.43583203509E+03  0.10814696200E+04  0.10941122673E+04  0.15989395721E+04  0.50400001928E-02 0.  1.
</event>
<event>
 5   0  0.8528103E-06  0.2410210E+04  0.7818609E-02  0.8435691E-01
       -1   -1    0    0    0  501  0.00000000000E+00  0.00000000000E+00  0.14149731759E+04  0.14149731759E+04  0.50400001928E-02 0. -1.
        1   -1    0    0  501    0  0.00000000000E+00  0.00000000000E+00 -0.10263641758E+04  0.10263641758E+04  0.50400001928E-02 0.  1.
    10030    2    1    2    0    0  0.00000000000E+00  0.00000000000E+00  0.38860900014E+03  0.24413373517E+04  0.24102097647E+04 0.  0.
        4    1    3    3  502    0 -0.58645000064E+03  0.87881474780E+03 -0.39286925142E+03  0.11272030987E+04  0.12699999809E+01 0.  1.
       -4    1    3    3    0  502  0.58645000064E+03 -0.87881474780E+03  0.78147825156E+03  0.13141342529E+04  0.12699999809E+01 0. -1.
</event>
<event>
 5   0  0.9176817E-06  0.2405447E+04  0.7818609E-02  0.8437467E-01
        1   -1    0    0  501    0  0.00000000000E+00  0.00000000000E+00  0.11133363188E+04  0.11133363188E+04  0.50400001928E-02 0.  1.
       -1   -1    0    0    0  501  0.00000000000E+00  0.00000000000E+00 -0.12992868348E+04  0.12992868348E+04  0.50400001928E-02 0. -1.
    10030    2    1    2    0    0  0.00000000000E+00  0.00000000000E+00 -0.18595051601E+03  0.24126231535E+04  0.24054465046E+04 0.  0.
        3    1    3    3  502    0  0.45478899948E+03 -0.45951961669E+03 -0.11101765278E+04  0.12847113470E+04  0.10100000352E+00 0. -1.
       -3    1    3    3    0  502 -0.45478899948E+03  0.45951961669E+03  0.92422601178E+03  0.11279118065E+04  0.10100000352E+00 0.  1.
</event>
<event>
 5   0  0.2025353E-05  0.2395882E+04  0.7818609E-02  0.8441047E-01
       -2   -1    0    0    0  501  0.00000000000E+00  0.00000000000E+00  0.84528084906E+03  0.84528084906E+03  0.25500000920E-02 0. -1.
        2   -1    0    0  501    0  0.00000000000E+00  0.00000000000E+00 -0.16977352650E+04  0.16977352650E+04  0.25500000920E-02 0.  1.
    10030    2    1    2    0    0  0.00000000000E+00  0.00000000000E+00 -0.85245441594E+03  0.25430161141E+04  0.23958823897E+04 0.  0.
        4    1    3    3  502    0 -0.90962352786E+03  0.34815493387E+03 -0.11665069734E+04  0.15196601437E+04  0.12699999809E+01 0.  1.
       -4    1    3    3    0  502  0.90962352786E+03 -0.34815493387E+03  0.31405255744E+03  0.10233559704E+04  0.12699999809E+01 0. -1.
</event>
<event>
 5   0  0.8528103E-06  0.2407452E+04  0.7818609E-02  0.8436719E-01
        1   -1    0    0  501    0  0.00000000000E+00  0.00000000000E+00  0.13964042806E+04  0.13964042806E+04  0.50400001928E-02 0. -1.
       -1   -1    0    0    0  501  0.00000000000E+00  0.00000000000E+00 -0.10376336053E+04  0.10376336053E+04  0.50400001928E-02 0.  1.
    10030    2    1    2    0    0  0.00000000000E+00  0.00000000000E+00  0.35877067534E+03  0.24340378859E+04  0.24074517716E+04 0.  0.
        4    1    3    3  502    0 -0.86154646499E+02 -0.54372341105E+03 -0.90290170273E+03  0.10574927274E+04  0.12699999809E+01 0.  1.
       -4    1    3    3    0  502  0.86154646499E+02  0.54372341105E+03  0.12616723781E+04  0.13765451585E+04  0.12699999809E+01 0. -1.
</event>
<event>
 5   0  0.9038897E-06  0.2442476E+04  0.7818609E-02  0.8423770E-01
       -1   -1    0    0    0  501  0.00000000000E+00  0.00000000000E+00  0.10065589263E+04  0.10065589264E+04  0.50400001928E-02 0. -1.
        1   -1    0    0  501    0  0.00000000000E+00  0.00000000000E+00 -0.14817040566E+04  0.14817040566E+04  0.50400001928E-02 0.  1.
    10030    2    1    2    0    0  0.00000000000E+00  0.00000000000E+00 -0.47514513029E+03  0.24882629830E+04  0.24424761570E+04 0.  0.
        1    1    3    3  502    0 -0.40777014993E+03 -0.10049858305E+04  0.33433284981E+03  0.11349235522E+04  0.50400001928E-02 0. -1.
       -1    1    3    3    0  502  0.40777014993E+03  0.10049858305E+04 -0.80947798009E+03  0.13533394308E+04  0.50400001928E-02 0.  1.
</event>
<event>
 5   0  0.8898848E-06  0.2342130E+04  0.7818609E-02  0.8461493E-01
        1   -1    0    0  501    0  0.00000000000E+00  0.00000000000E+00  0.18633419696E+04  0.18633419696E+04  0.50400001928E-02 0.  1.
       -1   -1    0    0    0  501  0.00000000000E+00  0.00000000000E+00 -0.73598564635E+03  0.73598564637E+03  0.50400001928E-02 0. -1.
    10030    2    1    2    0    0  0.00000000000E+00  0.00000000000E+00  0.11273563233E+04  0.25993276160E+04  0.23421297521E+04 0.  0.
        5    1    3    3  502    0  0.40694613169E+03 -0.10325572908E+04  0.97832561116E+03  0.14795008633E+04  0.46999998093E+01 0.  1.
       -5    1    3    3    0  502 -0.40694613169E+03  0.10325572908E+04  0.14903071211E+03  0.11198267527E+04  0.46999998093E+01 0. -1.
</event>
<event>
 5   0  0.2025353E-05  0.2417347E+04  0.7818609E-02  0.8433038E-01
       -2   -1    0    0    0  501  0.00000000000E+00  0.00000000000E+00  0.67689883288E+03  0.67689883288E+03  0.25500000920E-02 0.  1.
        2   -1    0    0  501    0  0.00000000000E+00  0.00000000000E+00 -0.21582125943E+04  0.21582125943E+04  0.25500000920E-02 0. -1.
    10030    2    1    2    0    0  0.00000000000E+00  0.00000000000E+00 -0.14813137614E+04  0.28351114271E+04  0.24173469641E+04 0.  0.
        4    1    3    3  502    0 -0.38784794728E+03  0.22955433309E+03 -0.20559772423E+04  0.21047957753E+04  0.12699999809E+01 0. -1.
       -4    1    3    3    0  502  0.38784794728E+03 -0.22955433309E+03  0.57466348094E+03  0.73031565181E+03  0.12699999809E+01 0.  1.
</event>
<event>
 5   0  0.2087882E-05  0.2325726E+04  0.7818609E-02  0.8467846E-01
       -2   -1    0    0    0  501  0.00000000000E+00  0.00000000000E+00  0.99465007789E+03  0.99465007790E+03  0.25500000920E-02 0. -1.
        2   -1    0    0  501    0  0.00000000000E+00  0.00000000000E+00 -0.13595238298E+04  0.13595238298E+04  0.25500000920E-02 0.  1.
    10030    2    1    2    0    0  0.00000000000E+00  0.00000000000E+00 -0.36487375188E+03  0.23541739077E+04  0.23257261087E+04 0.  0.
        2    1    3    3  502    0 -0.29088659166E+03  0.46038050702E+03  0.85759632396E+03  0.10158920589E+04  0.25500000920E-02 0. -1.
       -2    1    3    3    0  502  0.29088659166E+03 -0.46038050702E+03 -0.12224700758E+04  0.13382818488E+04  0.25500000920E-02 0.  1.
</event>
<event>
 5   0  0.8898848E-06  0.2410414E+04  0.7818609E-02  0.8435615E-01
        1   -1    0    0  501    0  0.00000000000E+00  0.00000000000E+00  0.11220655604E+04  0.11220655604E+04  0.50400001928E-02 0. -1.
       -1   -1    0    0    0  501  0.00000000000E+00  0.00000000000E+00 -0.12945093110E+04  0.12945093110E+04  0.50400001928E-02 0.  1.
    10030    2    1    2    0    0  0.00000000000E+00  0.00000000000E+00 -0.17244375068E+03  0.24165748714E+04  0.24104143341E+04 0.  0.
        5    1    3    3  502    0  0.40812551326E+03  0.87055561478E+03  0.64231874679E+03  0.11562996910E+04  0.46999998093E+01 0. -1.
       -5    1    3    3    0  502 -0.40812551326E+03 -0.87055561478E+03 -0.81476249746E+03  0.12602751804E+04  0.46999998093E+01 0.  1.
</event>
<event>
 5   0  0.9038897E-06  0.2402064E+04  0.7818609E-02  0.8438731E-01
        1   -1    0    0  501    0  0.00000000000E+00  0.00000000000E+00  0.17726119801E+04  0.17726119801E+04  0.50400001928E-02 0. -1.
       -1   -1    0    0    0  501  0.00000000000E+00  0.00000000000E+00 -0.81375828369E+03  0.81375828371E+03  0.50400001928E-02 0.  1.
    10030    2    1    2    0    0  0.00000000000E+00  0.00000000000E+00  0.95885369637E+03  0.25863702638E+04  0.24020638481E+04 0.  0.
        1    1    3    3  502    0  0.16942303747E+03 -0.21339670958E+03  0.17388931632E+04  0.17601112904E+04  0.50400001928E-02 0. -1.
       -1    1    3    3    0  502 -0.16942303747E+03  0.21339670958E+03 -0.78003946686E+03  0.82625897342E+03  0.50400001928E-02 0.  1.
</event>
<event>
 5   0  0.2122194E-05  0.2336553E+04  0.7818609E-02  0.8463646E-01
       -2   -1    0    0    0  501  0.00000000000E+00  0.00000000000E+00  0.14765337828E+04  0.14765337828E+04  0.25500000920E-02 0. -1.
        2   -1    0    0  501    0  0.00000000000E+00  0.00000000000E+00 -0.92437468534E+03  0.92437468534E+03  0.25500000920E-02 0.  1.
    10030    2    1    2    0    0  0.00000000000E+00  0.00000000000E+00  0.55215909743E+03  0.24009084681E+04  0.23365534026E+04 0.  0.
        3    1    3    3  502    0 -0.13366037654E+03 -0.62210978014E+03 -0.73069461646E+03  0.96891707979E+03  0.10100000352E+00 0.  1.
       -3    1    3    3    0  502  0.13366037654E+03  0.62210978014E+03  0.12828537139E+04  0.14319913883E+04  0.10100000352E+00 0. -1.
</event>
<event>
 5   0  0.2025353E-05  0.2384468E+04  0.7818609E-02  0.8445341E-01
        2   -1    0    0  501    0  0.00000000000E+00  0.00000000000E+00  0.12959995167E+04  0.12959995167E+04  0.25500000920E-02 0.  1.
       -2   -1    0    0    0  501  0.00000000000E+00  0.00000000000E+00 -0.10967766800E+04  0.10967766800E+04  0.25500000920E-02 0. -1.
    10030    2    1    2    0    0  0.00000000000E+00  0.00000000000E+00  0.19922283677E+03  0.23927761967E+04  0.23844681145E+04 0.  0.
        4    1    3    3  502    0  0.45112500445E+02 -0.86916285567E+03 -0.71805352597E+03  0.11283092158E+04  0.12699999809E+01 0. -1.
       -4    1    3    3    0  502 -0.45112500445E+02  0.86916285567E+03  0.91727636274E+03  0.12644669809E+04  0.12699999809E+01 0.  1.
</event>
<event>
 5   0  0.2025353E-05  0.2304603E+04  0.7818609E-02  0.8476108E-01
        2   -1    0    0  501    0  0.00000000000E+00  0.00000000000E+00  0.13583748918E+04  0.13583748918E+04  0.25500000920E-02 0. -1.
       -2   -1    0    0    0  501  0.00000000000E+00  0.00000000000E+00 -0.97749059818E+03  0.97749059819E+03  0.25500000920E-02 0.  1.
    10030    2    1    2    0    0  0.00000000000E+00  0.00000000000E+00  0.38088429360E+03  0.23358654900E+04  0.23046029467E+04 0.  0.
        4    1    3    3  502    0  0.83437413099E+03 -0.25262503322E+03 -0.57330296907E+03  0.10433970985E+04  0.12699999809E+01 0. -1.
       -4    1    3    3    0  502 -0.83437413099E+03  0.25262503322E+03  0.95418726267E+03  0.12924683915E+04  0.12699999809E+01 0.  1.
</event>
<event>
 5   0  0.9176817E-06  0.2404627E+04  0.7818609E-02  0.8437773E-01
        1   -1    0    0  501    0  0.00000000000E+00  0.00000000000E+00  0.22878739493E+04  0.22878739493E+04  0.50400001928E-02 0.  1.
       -1   -1    0    0    0  501  0.00000000000E+00  0.00000000000E+00 -0.63183428530E+03  0.63183428532E+03  0.50400001928E-02 0. -1.
    10030    2    1    2    0    0  0.00000000000E+00  0.00000000000E+00  0.16560396640E+04  0.29197082346E+04  0.24046265420E+04 0.  0.
        3    1    3    3  502    0 -0.18537340846E+03  0.92156707099E+03 -0.82154189060E+02  0.94360928772E+03  0.10100000352E+00 0. -1.
       -3    1    3    3    0  502  0.18537340846E+03 -0.92156707099E+03  0.17381938530E+04  0.19760989469E+04  0.10100000352E+00 0.  1.
</event>
<event>
 5   0  0.9176817E-06  0.2407819E+04  0.7818609E-02  0.8436582E-01
       -1   -1    0    0    0  501  0.00000000000E+00  0.00000000000E+00  0.82515978101E+03  0.82515978102E+03  0.50400001928E-02 0.  1.
        1   -1    0    0  501    0  0.00000000000E+00  0.00000000000E+00 -0.17565057585E+04  0.17565057585E+04  0.50400001928E-02 0. -1.
    10030    2    1    2    0    0  0.00000000000E+00  0.00000000000E+00 -0.93134597746E+03  0.25816655395E+04  0.24078188528E+04 0.  0.
        3    1    3    3  502    0 -0.83048931133E+03 -0.79659941556E+03 -0.84492724294E+03  0.14276502307E+04  0.10100000352E+00 0. -1.
       -3    1    3    3    0  502  0.83048931133E+03  0.79659941556E+03 -0.86418734518E+02  0.11540153088E+04  0.10100000352E+00 0.  1.
</event>
<event>
 5   0  0.9038897E-06  0.2389374E+04  0.7818609E-02  0.8443493E-01
       -1   -1    0    0    0  501  0.00000000000E+00  0.00000000000E+00  0.13929867151E+04  0.13929867151E+04  0.50400001928E-02 0.  1.
        1   -1    0    0  501    0  0.00000000000E+00  0.00000000000E+00 -0.10246162859E+04  0.10246162859E+04  0.50400001928E-02 0. -1.
    10030    2    1    2    0    0  0.00000000000E+00  0.00000000000E+00  0.36837042918E+03  0.24176030010E+04  0.23893738714E+04 0.  0.
        1    1    3    3  502    0 -0.85905036184E+03  0.29748650592E+03  0.96846290308E+03  0.13283019762E+04  0.50400001928E-02 0.  1.
       -1    1    3    3    0  502  0.85905036184E+03 -0.29748650592E+03 -0.60009247389E+03  0.10893010248E+04  0.50400001928E-02 0. -1.
</event>
<event>
 5   0  0.9083687E-06  0.2462977E+04  0.7818609E-02  0.8416295E-01
       -1   -1    0    0    0  501  0.00000000000E+00  0.00000000000E+00  0.58541108843E+03  0.58541108845E+03  0.50400001928E-02 0.  1.
        1   -1    0    0  501    0  0.00000000000E+00  0.00000000000E+00 -0.25905969829E+04  0.25905969830E+04  0.50400001928E-02 0. -1.
    10030    2    1    2    0    0  0.00000000000E+00  0.00000000000E+00 -0.20051858945E+04  0.31760080714E+04  0.24629772224E+04 0.  0.
        2    1    3    3  502    0  0.11914948840E+04  0.18553850767E+03 -0.68027066256E+03  0.13845045218E+04  0.25500000920E-02 0.  1.
       -2    1    3    3    0  502 -0.11914948840E+04 -0.18553850767E+03 -0.13249152320E+04  0.17915035496E+04  0.25500000920E-02 0. -1.
</event>
<event>
 5   0  0.2122194E-05  0.2357634E+04  0.7818609E-02  0.8455537E-01
       -2   -1    0    0    0  501  0.00000000000E+00  0.00000000000E+00  0.12242601163E+04  0.12242601163E+04  0.25500000920E-02 0. -1.
        2   -1    0    0  501    0  0.00000000000E+00  0.00000000000E+00 -0.11350608302E+04  0.11350608302E+04  0.25500000920E-02 0.  1.
    10030    2    1    2    0    0  0.00000000000E+00  0.00000000000E+00  0.89199286127E+02  0.23593209464E+04  0.23576341564E+04 0.  0.
        3    1    3    3  502    0 -0.62287034473E+03  0.86748113656E+03 -0.45487538225E+03  0.11607767280E+04  0.10100000352E+00 0.  1.
       -3    1    3    3    0  502  0.62287034473E+03 -0.86748113656E+03  0.54407466838E+03  0.11985442185E+04  0.10100000352E+00 0. -1.
</event>
<event>
 5   0  0.2122194E-05  0.2422911E+04  0.7818609E-02  0.8430976E-01
        2   -1    0    0  501    0  0.00000000000E+00  0.00000000000E+00  0.24020729926E+04  0.24020729926E+04  0.25500000920E-02 0. -1.
       -2   -1    0    0    0  501  0.00000000000E+00  0.00000000000E+00 -0.61098242808E+03  0.61098242809E+03  0.25500000920E-02 0.  1.
    10030    2    1    2    0    0  0.00000000000E+00  0.00000000000E+00  0.17910905646E+04  0.30130554207E+04  0.24229109678E+04 0.  0.
        3    1    3    3  502    0  0.11215184136E+03  0.11927197832E+04  0.67147558040E+03  0.13733309805E+04  0.10100000352E+00 0.  1.
       -3    1    3    3    0  502 -0.11215184136E+03 -0.11927197832E+04  0.11196149842E+04  0.16397244402E+04  0.10100000352E+00 0. -1.
</event>
<event>
 5   0  0.9176817E-06  0.2399469E+04  0.7818609E-02  0.8439702E-01
        1   -1    0    0  501    0  0.00000000000E+00  0.00000000000E+00  0.73354682710E+03  0.73354682711E+03  0.50400001928E-02 0. -1.
       -1   -1    0    0    0  501  0.00000000000E+00  0.00000000000E+00 -0.19621970152E+04  0.19621970152E+04  0.50400001928E-02 0.  1.
    10030    2    1    2    0    0  0.00000000000E+00  0.00000000000E+00 -0.12286501881E+04  0.26957438424E+04  0.23994694369E+04 0.  0.
        3    1    3    3  502    0  0.26992181432E+03 -0.96190771134E+02 -0.19231868978E+04  0.19444172146E+04  0.10100000352E+00 0.  1.
       -3    1    3    3    0  502 -0.26992181432E+03  0.96190771134E+02  0.69453670967E+03  0.75132662776E+03  0.10100000352E+00 0. -1.
</event>
<event>
 5   0  0.2087882E-05  0.2414602E+04  0.7818609E-02  0.8434057E-01
        2   -1    0    0  501    0  0.00000000000E+00  0.00000000000E+00  0.18422971531E+04  0.18422971531E+04  0.25500000920E-02 0. -1.
       -2   -1    0    0    0  501  0.00000000000E+00  0.00000000000E+00 -0.79117298867E+03  0.79117298867E+03  0.25500000920E-02 0.  1.
    10030    2    1    2    0    0  0.00000000000E+00  0.00000000000E+00  0.10511241644E+04  0.26334701417E+04  0.24146020331E+04 0.  0.
        2    1    3    3  502    0 -0.70905610380E+03  0.73974254522E+03 -0.17074029028E+03  0.10388127061E+04  0.25500000920E-02 0.  1.
       -2    1    3    3    0  502  0.70905610380E+03 -0.73974254522E+03  0.12218644547E+04  0.15946574357E+04  0.25500000920E-02 0. -1.
</event>
<event>
 5   0  0.2080257E-05  0.2396760E+04  0.7818609E-02  0.8440718E-01
       -2   -1    0    0    0  501  0.00000000000E+00  0.00000000000E+00  0.66648551938E+03  0.66648551939E+03  0.25500000920E-02 0.  1.
        2   -1    0    0  501    0  0.00000000000E+00  0.00000000000E+00 -0.21547574816E+04  0.21547574816E+04  0.25500000920E-02 0. -1.
    10030    2    1    2    0    0  0.00000000000E+00  0.00000000000E+00 -0.14882719622E+04  0.28212430010E+04  0.23967600291E+04 0.  0.
        1    1    3    3  502    0  0.13199203101E+03  0.77656046514E+03  0.31894649260E+03  0.84982052072E+03  0.50400001928E-02 0.  1.
       -1    1    3    3    0  502 -0.13199203101E+03 -0.77656046514E+03 -0.18072184548E+04  0.19714224803E+04  0.50400001928E-02 0. -1.
</event>
<event>
 5   0  0.2025353E-05  0.2394218E+04  0.7818609E-02  0.8441671E-01
       -2   -1    0    0    0  501  0.00000000000E+00  0.00000000000E+00  0.14709861744E+04  0.14709861744E+04  0.25500000920E-02 0. -1.
        2   -1    0    0  501    0  0.00000000000E+00  0.00000000000E+00 -0.97422429268E+03  0.97422429269E+03  0.25500000920E-02 0.  1.
    10030    2    1    2    0    0  0.00000000000E+00  0.00000000000E+00  0.49676188173E+03  0.24452104671E+04  0.23942184239E+04 0.  0.
        4    1    3    3  502    0 -0.22152673131E+03 -0.52666617616E+03  0.13227444385E+04  0.14408698124E+04  0.12699999809E+01 0. -1.
       -4    1    3    3    0  502  0.22152673131E+03  0.52666617616E+03 -0.82598255675E+03  0.10043406547E+04  0.12699999809E+01 0.  1.
</event>
<event>
 5   0  0.8898848E-06  0.2381335E+04  0.7818609E-02  0.8446525E-01
       -1   -1    0    0    0  501  0.00000000000E+00  0.00000000000E+00  0.85290150990E+03  0.85290150992E+03  0.50400001928E-02 0. -1.
        1   -1    0    0  501    0  0.00000000000E+00  0.00000000000E+00 -0.16621949875E+04  0.16621949875E+04  0.50400001928E-02 0.  1.
    10030    2    1    2    0    0  0.00000000000E+00  0.00000000000E+00 -0.80929347757E+03  0.25150964974E+04  0.23813345961E+04 0.  0.
        5    1    3    3  502    0 -0.57150705421E+03 -0.57714025818E+03  0.51486237417E+03  0.96167382462E+03  0.46999998093E+01 0. -1.
       -5    1    3    3    0  502  0.57150705421E+03  0.57714025818E+03 -0.13241558517E+04  0.15534226728E+04  0.46999998093E+01 0.  1.
</event>
<event>
 5   0  0.2080257E-05  0.2308895E+04  0.7818609E-02  0.8474422E-01
        2   -1    0    0  501    0  0.00000000000E+00  0.00000000000E+00  0.10759893793E+04  0.10759893793E+04  0.25500000920E-02 0.  1.
       -2   -1    0    0    0  501  0.00000000000E+00  0.00000000000E+00 -0.12386268148E+04  0.12386268148E+04  0.25500000920E-02 0. -1.
    10030    2    1    2    0    0  0.00000000000E+00  0.00000000000E+00 -0.16263743553E+03  0.23146161941E+04  0.23088952317E+04 0.  0.
        1    1    3    3  502    0 -0.21458843750E+03 -0.29701948633E+03 -0.11787826371E+04  0.12344218397E+04  0.50400001928E-02 0. -1.
       -1    1    3    3    0  502  0.21458843750E+03  0.29701948633E+03  0.10161452015E+04  0.10801943545E+04  0.50400001928E-02 0.  1.
</event>
<event>
 5   0  0.2122194E-05  0.2410201E+04  0.7818609E-02  0.8435694E-01
       -2   -1    0    0    0  501  0.00000000000E+00  0.00000000000E+00  0.14897282257E+04  0.14897282257E+04  0.25500000920E-02 0.  1.
        2   -1    0    0  501    0  0.00000000000E+00  0.00000000000E+00 -0.97485396949E+03  0.97485396950E+03  0.25500000920E-02 0. -1.
    10030    2    1    2    0    0  0.00000000000E+00  0.00000000000E+00  0.51487425622E+03  0.24645821952E+04  0.24102012151E+04 0.  0.
        3    1    3    3  502    0  0.54047642450E+03 -0.51045717013E+03 -0.71242810670E+03  0.10296771850E+04  0.10100000352E+00 0. -1.
       -3    1    3    3    0  502 -0.54047642450E+03  0.51045717013E+03  0.12273023629E+04  0.14349050102E+04  0.10100000352E+00 0.  1.
</event>
<event>
 5   0  0.8528103E-06  0.2384895E+04  0.7818609E-02  0.8445180E-01
       -1   -1    0    0    0  501  0.00000000000E+00  0.00000000000E+00  0.12982976683E+04  0.12982976683E+04  0.50400001928E-02 0. -1.
        1   -1    0    0  501    0  0.00000000000E+00  0.00000000000E+00 -0.10952274246E+04  0.10952274246E+04  0.50400001928E-02 0.  1.
    10030    2    1    2    0    0  0.00000000000E+00  0.00000000000E+00  0.20307024363E+03  0.23935250929E+04  0.23848951437E+04 0.  0.
        4    1    3    3  502    0 -0.43694200619E+03 -0.92638837190E+03  0.71433107557E+03  0.12487530704E+04  0.12699999809E+01 0. -1.
       -4    1    3    3    0  502  0.43694200619E+03  0.92638837190E+03 -0.51126083194E+03  0.11447720225E+04  0.12699999809E+01 0.  1.
</event>
<event>
 5   0  0.2048028E-05  0.2406683E+04  0.7818609E-02  0.8437006E-01
       -2   -1    0    0    0  501  0.00000000000E+00  0.00000000000E+00  0.88715092710E+03  0.88715092711E+03  0.25500000920E-02 0. -1.
        2   -1    0    0  501    0  0.00000000000E+00  0.00000000000E+00 -0.16322263109E+04  0.16322263109E+04  0.25500000920E-02 0.  1.
    10030    2    1    2    0    0  0.00000000000E+00  0.00000000000E+00 -0.74507538378E+03  0.25193772380E+04  0.24066832654E+04 0.  0.
        5    1    3    3  502    0  0.66033734743E+03 -0.80159872404E+03 -0.10087828821E+04  0.14478504481E+04  0.46999998093E+01 0.  1.
       -5    1    3    3    0  502 -0.66033734743E+03  0.80159872404E+03  0.26370749834E+03  0.10715267899E+04  0.46999998093E+01 0. -1.
</event>
<event>
 5   0  0.2087882E-05  0.2383448E+04  0.7818609E-02  0.8445726E-01
       -2   -1    0    0    0  501  0.00000000000E+00  0.00000000000E+00  0.66741239207E+03  0.66741239208E+03  0.25500000920E-02 0. -1.
        2   -1    0    0  501    0  0.00000000000E+00  0.00000000000E+00 -0.21279291212E+04  0.21279291212E+04  0.25500000920E-02 0.  1.
    10030    2    1    2    0    0  0.00000000000E+00  0.00000000000E+00 -0.14605167291E+04  0.27953415133E+04  0.23834481450E+04 0.  0.
        2    1    3    3  502    0 -0.24075694170E+03  0.11630252584E+04 -0.61525912665E+03  0.13375856794E+04  0.25500000920E-02 0. -1.
       -2    1    3    3    0  502  0.24075694170E+03 -0.11630252584E+04 -0.84525760248E+03  0.14577558339E+04  0.25500000920E-02 0.  1.
</event>
<event>
 5   0  0.2087882E-05  0.2504373E+04  0.7818609E-02  0.8401429E-01
        2   -1    0    0  501    0  0.00000000000E+00  0.00000000000E+00  0.12833320642E+04  0.12833320642E+04  0.25500000920E-02 0.  1.
       -2   -1    0    0    0  501  0.00000000000E+00  0.00000000000E+00 -0.12217963632E+04  0.12217963632E+04  0.25500000920E-02 0. -1.
    10030    2    1    2    0    0  0.00000000000E+00  0.00000000000E+00  0.61535700994E+02  0.25051284274E+04  0.25043725353E+04 0.  0.
        2    1    3    3  502    0  0.62054247555E+03  0.25083015493E+03  0.10893791607E+04  0.12785678263E+04  0.25500000920E-02 0.  1.
       -2    1    3    3    0  502 -0.62054247555E+03 -0.25083015493E+03 -0.10278434597E+04  0.12265606012E+04  0.25500000920E-02 0. -1.
</event>
<event>
 5   0  0.9176817E-06  0.2417650E+04  0.7818609E-02  0.8432925E-01
       -1   -1    0    0    0  501  0.00000000000E+00  0.00000000000E+00  0.87218286081E+03  0.87218286082E+03  0.50400001928E-02 0.  1.
        1   -1    0    0  501    0  0.00000000000E+00  0.00000000000E+00 -0.16754034858E+04  0.16754034858E+04  0.50400001928E-02 0. -1.
    10030    2    1    2    0    0  0.00000000000E+00  0.00000000000E+00 -0.80322062501E+03  0.25475863467E+04  0.24176502686E+04 0.  0.
        3    1    3    3  502    0  0.87259080782E+03 -0.10943942344E+03 -0.12755621746E+04  0.15493387547E+04  0.10100000352E+00 0. -1.
       -3    1    3    3    0  502 -0.87259080782E+03  0.10943942344E+03  0.47234154955E+03  0.99824759200E+03  0.10100000352E+00 0.  1.
</event>
<event>
 5   0  0.9083687E-06  0.2314488E+04  0.7818609E-02  0.8472231E-01
        1   -1    0    0  501    0  0.00000000000E+00  0.00000000000E+00  0.13312642576E+04  0.13312642576E+04  0.50400001928E-02 0.  1.
       -1   -1    0    0    0  501  0.00000000000E+00  0.00000000000E+00 -0.10059710032E+04  0.10059710032E+04  0.50400001928E-02 0. -1.
    10030    2    1    2    0    0  0.00000000000E+00  0.00000000000E+00  0.32529325444E+03  0.23372352608E+04  0.23144876242E+04 0.  0.
        2    1    3    3  502    0 -0.26395603318E+03  0.28876553295E+03 -0.93716491735E+03  0.10155473415E+04  0.25500000920E-02 0. -1.
       -2    1    3    3    0  502  0.26395603318E+03 -0.28876553295E+03  0.12624581718E+04  0.13216879193E+04  0.25500000920E-02 0.  1.
</event>
<event>
 5   0  0.2080257E-05  0.2386899E+04  0.7818609E-02  0.8444425E-01
       -2   -1    0    0    0  501  0.00000000000E+00  0.00000000000E+00  0.60177193731E+03  0.60177193731E+03  0.25500000920E-02 0.  1.
        2   -1    0    0  501    0  0.00000000000E+00  0.00000000000E+00 -0.23668786932E+04  0.23668786932E+04  0.25500000920E-02 0. -1.
    10030    2    1    2    0    0  0.00000000000E+00  0.00000000000E+00 -0.17651067559E+04  0.29686506305E+04  0.23868985539E+04 0.  0.
        1    1    3    3  502    0 -0.45579919654E+03  0.10999239559E+04 -0.78048011688E+03  0.14236343734E+04  0.50400001928E-02 0. -1.
       -1    1    3    3    0  502  0.45579919654E+03 -0.10999239559E+04 -0.98462663905E+03  0.15450162571E+04  0.50400001928E-02 0.  1.
</event>
<event>
 5   0  0.7233625E-06  0.2397883E+04  0.7818609E-02  0.8440296E-01
        4   -1    0    0  501    0  0.00000000000E+00  0.00000000000E+00  0.65221285762E+03  0.65221409410E+03  0.12699999809E+01 0.  1.
       -4   -1    0    0    0  501  0.00000000000E+00  0.00000000000E+00 -0.22039721766E+04  0.22039725425E+04  0.12699999809E+01 0. -1.
    10030    2    1    2    0    0  0.00000000000E+00  0.00000000000E+00 -0.15517593190E+04  0.28561866366E+04  0.23978834665E+04 0.  0.
        5    1    3    3  502    0 -0.10594005962E+04  0.55572721337E+03 -0.87024852288E+03  0.14793636944E+04  0.46999998093E+01 0. -1.
       -5    1    3    3    0  502  0.10594005962E+04 -0.55572721337E+03 -0.68151079610E+03  0.13768229422E+04  0.46999998093E+01 0.  1.
</event>
<event>
 5   0  0.8898848E-06  0.2401450E+04  0.7818609E-02  0.8438961E-01
        1   -1    0    0  501    0  0.00000000000E+00  0.00000000000E+00  0.87933416272E+03  0.87933416274E+03  0.50400001928E-02 0. -1.
       -1   -1    0    0    0  501  0.00000000000E+00  0.00000000000E+00 -0.16395826947E+04  0.16395826947E+04  0.50400001928E-02 0.  1.
    10030    2    1    2    0    0  0.00000000000E+00  0.00000000000E+00 -0.76024853199E+03  0.25189168575E+04  0.24014504585E+04 0.  0.
        5    1    3    3  502    0  0.22115162112E+02  0.49071058658E+03  0.76911159347E+03  0.91260105927E+03  0.46999998093E+01 0. -1.
       -5    1    3    3    0  502 -0.22115162112E+02 -0.49071058658E+03 -0.15293601255E+04  0.16063157982E+04  0.46999998093E+01 0.  1.
</event>
<event>
 5   0  0.2048028E-05  0.2407346E+04  0.7818609E-02  0.8436759E-01
        2   -1    0    0  501    0  0.00000000000E+00  0.00000000000E+00  0.14993835135E+04  0.14993835135E+04  0.25500000920E-02 0. -1.
       -2   -1    0    0    0  501  0.00000000000E+00  0.00000000000E+00 -0.96628254465E+03  0.96628254466E+03  0.25500000920E-02 0.  1.
    10030    2    1    2    0    0  0.00000000000E+00  0.00000000000E+00  0.53310096882E+03  0.24656660581E+04  0.24073455230E+04 0.  0.
        5    1    3    3  502    0 -0.15469485959E+03 -0.11322200496E+04 -0.12070083011E+03  0.11491055307E+04  0.46999998093E+01 0.  1.
       -5    1    3    3    0  502  0.15469485959E+03  0.11322200496E+04  0.65380179892E+03  0.13165605275E+04  0.46999998093E+01 0. -1.
</event>
<event>
 5   0  0.9083687E-06  0.2395900E+04  0.7818609E-02  0.8441040E-01
       -1   -1    0    0    0  501  0.00000000000E+00  0.00000000000E+00  0.66814101129E+03  0.66814101131E+03  0.50400001928E-02 0.  1.
        1   -1    0    0  501    0  0.00000000000E+00  0.00000000000E+00 -0.21478755460E+04  0.21478755460E+04  0.50400001928E-02 0. -1.
    10030    2    1    2    0    0  0.00000000000E+00  0.00000000000E+00 -0.14797345347E+04  0.28160165573E+04  0.23958996135E+04 0.  0.
        2    1    3    3  502    0  0.44220600842E+03  0.73127040874E+03  0.24685228529E+03  0.88951594440E+03  0.25500000920E-02 0.  1.
       -2    1    3    3    0  502 -0.44220600842E+03 -0.73127040874E+03 -0.17265868200E+04  0.19265006129E+04  0.25500000920E-02 0. -1.
</event>
<event>
 5   0  0.9176817E-06  0.2382758E+04  0.7818609E-02  0.8445987E-01
        1   -1    0    0  501    0  0.00000000000E+00  0.00000000000E+00  0.13872252337E+04  0.13872252337E+04  0.50400001928E-02 0. -1.
       -1   -1    0    0    0  501  0.00000000000E+00  0.00000000000E+00 -0.10231822127E+04  0.10231822127E+04  0.50400001928E-02 0.  1.
    10030    2    1    2    0    0  0.00000000000E+00  0.00000000000E+00  0.36404302102E+03  0.24104074465E+04  0.23827582204E+04 0.  0.
        3    1    3    3  502    0 -0.13775004110E+03  0.26894063736E+03 -0.98377461500E+03  0.10291339289E+04  0.10100000352E+00 0.  1.
       -3    1    3    3    0  502  0.13775004110E+03 -0.26894063736E+03  0.13478176360E+04  0.13812735176E+04  0.10100000352E+00 0. -1.
</event>
<event>
 5   0  0.8898848E-06  0.2394459E+04  0.7818609E-02  0.8441581E-01
        1   -1    0    0  501    0  0.00000000000E+00  0.00000000000E+00  0.10812502829E+04  0.10812502829E+04  0.50400001928E-02 0.  1.
       -1   -1    0    0    0  501  0.00000000000E+00  0.00000000000E+00 -0.13256491766E+04  0.13256491767E+04  0.50400001928E-02 0. -1.
    10030    2    1    2    0    0  0.00000000000E+00  0.00000000000E+00 -0.24439889378E+03  0.24068994595E+04  0.23944590598E+04 0.  0.
        5    1    3    3  502    0  0.15842287764E+03 -0.12675007400E+03  0.10638345758E+04  0.10830186906E+04  0.46999998093E+01 0.  1.
       -5    1    3    3    0  502 -0.15842287764E+03  0.12675007400E+03 -0.13082334696E+04  0.13238807690E+04  0.46999998093E+01 0. -1.
</event>
<event>
 5   0  0.2087882E-05  0.2397197E+04  0.7818609E-02  0.8440554E-01
       -2   -1    0    0    0  501  0.00000000000E+00  0.00000000000E+00  0.57667920639E+03  0.57667920640E+03  0.25500000920E-02 0. -1.
        2   -1    0    0  501    0  0.00000000000E+00  0.00000000000E+00 -0.24912264299E+04  0.24912264299E+04  0.25500000920E-02 0.  1.
    10030    2    1    2    0    0  0.00000000000E+00  0.00000000000E+00 -0.19145472235E+04  0.30679056363E+04  0.23971970971E+04 0.  0.
        2    1    3    3  502    0  0.11190505551E+04  0.25156413589E+03 -0.51195162308E+03  0.12560466248E+04  0.25500000920E-02 0. -1.
       -2    1    3    3    0  502 -0.11190505551E+04 -0.25156413589E+03 -0.14025956005E+04  0.18118590115E+04  0.25500000920E-02 0.  1.
</event>
<event>
 5   0  0.2080257E-05  0.2398288E+04  0.7818609E-02  0.8440145E-01
        2   -1    0    0  501    0  0.00000000000E+00  0.00000000000E+00  0.10452567224E+04  0.10452567224E+04  0.25500000920E-02 0.  1.
       -2   -1    0    0    0  501  0.00000000000E+00  0.00000000000E+00 -0.13756876222E+04  0.13756876222E+04  0.25500000920E-02 0. -1.
    10030    2    1    2    0    0  0.00000000000E+00  0.00000000000E+00 -0.33043089974E+03  0.24209443446E+04  0.23982883355E+04 0.  0.
        1    1    3    3  502    0 -0.11063001273E+04  0.74568031410E+02 -0.62613194033E+03  0.12733819418E+04  0.50400001928E-02 0. -1.
       -1    1    3    3    0  502  0.11063001273E+04 -0.74568031410E+02  0.29570104058E+03  0.11475624028E+04  0.50400001928E-02 0.  1.
</event>
<event>
 5   0  0.9176817E-06  0.2398599E+04  0.7818609E-02  0.8440028E-01
       -1   -1    0    0    0  501  0.00000000000E+00  0.00000000000E+00  0.84573865069E+03  0.84573865070E+03  0.50400001928E-02 0.  1.
        1   -1    0    0  501    0  0.00000000000E+00  0.00000000000E+00 -0.17006660679E+04  0.17006660679E+04  0.50400001928E-02 0. -1.
    10030    2    1    2    0    0  0.00000000000E+00  0.00000000000E+00 -0.85492741720E+03  0.25464047186E+04  0.23985987789E+04 0.  0.
        3    1    3    3  502    0  0.33676087615E+03 -0.55702283065E+03 -0.14968265876E+04  0.16322292011E+04  0.10100000352E+00 0. -1.
       -3    1    3    3    0  502 -0.33676087615E+03  0.55702283065E+03  0.64189917039E+03  0.91417551745E+03  0.10100000352E+00 0.  1.
</event>
<event>
 5   0  0.2080257E-05  0.2401879E+04  0.7818609E-02  0.8438800E-01
       -2   -1    0    0    0  501  0.00000000000E+00  0.00000000000E+00  0.72512892537E+03  0.72512892537E+03  0.25500000920E-02 0.  1.
        2   -1    0    0  501    0  0.00000000000E+00  0.00000000000E+00 -0.19889647621E+04  0.19889647621E+04  0.25500000920E-02 0. -1.
    10030    2    1    2    0    0  0.00000000000E+00  0.00000000000E+00 -0.12638358367E+04  0.27140936874E+04  0.24018791647E+04 0.  0.
        1    1    3    3  502    0  0.15581065172E+03  0.28948477769E+03  0.67329235583E+03  0.74926696988E+03  0.50400001928E-02 0.  1.
       -1    1    3    3    0  502 -0.15581065172E+03 -0.28948477769E+03 -0.19371281925E+04  0.19648267176E+04  0.50400001928E-02 0. -1.
</event>
<event>
 5   0  0.2080257E-05  0.2379337E+04  0.7818609E-02  0.8447280E-01
        2   -1    0    0  501    0  0.00000000000E+00  0.00000000000E+00  0.14700262942E+04  0.14700262942E+04  0.25500000920E-02 0.  1.
       -2   -1    0    0    0  501  0.00000000000E+00  0.00000000000E+00 -0.96277969862E+03  0.96277969862E+03  0.25500000920E-02 0. -1.
    10030    2    1    2    0    0  0.00000000000E+00  0.00000000000E+00  0.50724659559E+03  0.24328059928E+04  0.23793372796E+04 0.  0.
        1    1    3    3  502    0  0.70769730300E+02  0.10954941466E+04  0.72239714412E+03  0.13141436047E+04  0.50400001928E-02 0.  1.
       -1    1    3    3    0  502 -0.70769730300E+02 -0.10954941466E+04 -0.21515054853E+03  0.11186623881E+04  0.50400001928E-02 0. -1.
</event>
<event>
 5   0  0.2048028E-05  0.2337206E+04  0.7818609E-02  0.8463394E-01
        2   -1    0    0  501    0  0.00000000000E+00  0.00000000000E+00  0.12004977952E+04  0.12004977952E+04  0.25500000920E-02 0.  1.
       -2   -1    0    0    0  501  0.00000000000E+00  0.00000000000E+00 -0.11375552632E+04  0.11375552632E+04  0.25500000920E-02 0. -1.
    10030    2    1    2    0    0  0.00000000000E+00  0.00000000000E+00  0.62942532008E+02  0.23380530583E+04  0.23372056694E+04 0.  0.
        5    1    3    3  502    0 -0.39827320078E+03 -0.25461720811E+02 -0.10672623532E+04  0.11394476127E+04  0.46999998093E+01 0. -1.
       -5    1    3    3    0  502  0.39827320078E+03  0.25461720811E+02  0.11302048852E+04  0.11986054456E+04  0.46999998093E+01 0.  1.
</event>
<event>
 5   0  0.2080257E-05  0.2397277E+04  0.7818609E-02  0.8440524E-01
       -2   -1    0    0    0  501  0.00000000000E+00  0.00000000000E+00  0.86379491598E+03  0.86379491599E+03  0.25500000920E-02 0. -1.
        2   -1    0    0  501    0  0.00000000000E+00  0.00000000000E+00 -0.16632813045E+04  0.16632813045E+04  0.25500000920E-02 0.  1.
    10030    2    1    2    0    0  0.00000000000E+00  0.00000000000E+00 -0.79948638851E+03  0.25270762205E+04  0.23972767339E+04 0.  0.
        1    1    3    3  502    0  0.65310624337E+03  0.40363008037E+03  0.57056748318E+03  0.95656273176E+03  0.50400001928E-02 0. -1.
       -1    1    3    3    0  502 -0.65310624337E+03 -0.40363008037E+03 -0.13700538717E+04  0.15705134887E+04  0.50400001928E-02 0.  1.
</event>
<event>
 5   0  0.9038897E-06  0.2402137E+04  0.7818609E-02  0.8438704E-01
        1   -1    0    0  501    0  0.00000000000E+00  0.00000000000E+00  0.13912926234E+04  0.13912926234E+04  0.50400001928E-02 0.  1.
       -1   -1    0    0    0  501  0.00000000000E+00  0.00000000000E+00 -0.10368528351E+04  0.10368528352E+04  0.50400001928E-02 0. -1.
    10030    2    1    2    0    0  0.00000000000E+00  0.00000000000E+00  0.35443978827E+03  0.24281454586E+04  0.24021371328E+04 0.  0.
        1    1    3    3  502    0  0.11001687058E+04 -0.44502502277E+03  0.36401038531E+03  0.12413387985E+04  0.50400001928E-02 0.  1.
       -1    1    3    3    0  502 -0.11001687058E+04  0.44502502277E+03 -0.95705970367E+01  0.11868066601E+04  0.50400001928E-02 0. -1.
</event>
<event>
 5   0  0.9038897E-06  0.2393431E+04  0.7818609E-02  0.8441967E-01
        1   -1    0    0  501    0  0.00000000000E+00  0.00000000000E+00  0.16734142696E+04  0.16734142696E+04  0.50400001928E-02 0.  1.
       -1   -1    0    0    0  501  0.00000000000E+00  0.00000000000E+00 -0.85581189662E+03  0.85581189663E+03  0.50400001928E-02 0. -1.
    10030    2    1    2    0    0  0.00000000000E+00  0.00000000000E+00  0.81760237294E+03  0.25292261662E+04  0.23934308763E+04 0.  0.
        1    1    3    3  502    0 -0.12549000331E+03 -0.35947530960E+03  0.16077003016E+04  0.16521714496E+04  0.50400001928E-02 0.  1.
       -1    1    3    3    0  502  0.12549000331E+03  0.35947530960E+03 -0.79009792861E+03  0.87705471663E+03  0.50400001928E-02 0. -1.
</event>
<event>
 5   0  0.9038897E-06  0.2148082E+04  0.7818609E-02  0.8540354E-01
       -1   -1    0    0    0  501  0.00000000000E+00  0.00000000000E+00  0.65852518082E+03  0.65852518084E+03  0.50400001928E-02 0. -1.
        1   -1    0    0  501    0  0.00000000000E+00  0.00000000000E+00 -0.17517383811E+04  0.17517383811E+04  0.50400001928E-02 0.  1.
    10030    2    1    2    0    0  0.00000000000E+00  0.00000000000E+00 -0.10932132003E+04  0.24102635620E+04  0.21480817808E+04 0.  0.
        1    1    3    3  502    0  0.22423394867E+03 -0.84128435690E+03  0.15906058974E+03  0.88506525416E+03  0.50400001928E-02 0.  1.
       -1    1    3    3    0  502 -0.22423394867E+03  0.84128435690E+03 -0.12522737900E+04  0.15251983078E+04  0.50400001928E-02 0. -1.
</event>
<event>
 5   0  0.2048028E-05  0.2355580E+04  0.7818609E-02  0.8456323E-01
        2   -1    0    0  501    0  0.00000000000E+00  0.00000000000E+00  0.25441098226E+04  0.25441098226E+04  0.25500000920E-02 0. -1.
       -2   -1    0    0    0  501  0.00000000000E+00  0.00000000000E+00 -0.54525525177E+03  0.54525525178E+03  0.25500000920E-02 0.  1.
    10030    2    1    2    0    0  0.00000000000E+00  0.00000000000E+00  0.19988545709E+04  0.30893650744E+04  0.23555799642E+04 0.  0.
        5    1    3    3  502    0 -0.54198139373E+03  0.81130471082E+03  0.18646338568E+04  0.21044810939E+04  0.46999998093E+01 0. -1.
       -5    1    3    3    0  502  0.54198139373E+03 -0.81130471082E+03  0.13422071412E+03  0.98488398050E+03  0.46999998093E+01 0.  1.
</event>
<event>
 5   0  0.2080257E-05  0.2393307E+04  0.7818609E-02  0.8442014E-01
       -2   -1    0    0    0  501  0.00000000000E+00  0.00000000000E+00  0.84644200189E+03  0.84644200189E+03  0.25500000920E-02 0.  1.
        2   -1    0    0  501    0  0.00000000000E+00  0.00000000000E+00 -0.16917633052E+04  0.16917633052E+04  0.25500000920E-02 0. -1.
    10030    2    1    2    0    0  0.00000000000E+00  0.00000000000E+00 -0.84532130329E+03  0.25382053071E+04  0.23933069329E+04 0.  0.
        1    1    3    3  502    0 -0.29427015468E+03 -0.81817675282E+02  0.80440679204E+03  0.86044136525E+03  0.50400001928E-02 0.  1.
       -1    1    3    3    0  502  0.29427015468E+03  0.81817675282E+02 -0.16497280953E+04  0.16777639418E+04  0.50400001928E-02 0. -1.
</event>
<event>
 5   0  0.8898848E-06  0.2417013E+04  0.7818609E-02  0.8433161E-01
       -1   -1    0    0    0  501  0.00000000000E+00  0.00000000000E+00  0.11582108234E+04  0.11582108234E+04  0.50400001928E-02 0. -1.
        1   -1    0    0  501    0  0.00000000000E+00  0.00000000000E+00 -0.12609867256E+04  0.12609867256E+04  0.50400001928E-02 0.  1.
    10030    2    1    2    0    0  0.00000000000E+00  0.00000000000E+00 -0.10277590222E+03  0.24191975490E+04  0.24170134246E+04 0.  0.
        5    1    3    3  502    0  0.70957516791E+03  0.32904290136E+03  0.87069381093E+03  0.11704255432E+04  0.46999998093E+01 0. -1.
       -5    1    3    3    0  502 -0.70957516791E+03 -0.32904290136E+03 -0.97346971315E+03  0.12487720057E+04  0.46999998093E+01 0.  1.
</event>
<event>
 5   0  0.9176817E-06  0.2228357E+04  0.7818609E-02  0.8506717E-01
       -1   -1    0    0    0  501  0.00000000000E+00  0.00000000000E+00  0.11176566013E+04  0.11176566013E+04  0.50400001928E-02 0.  1.
        1   -1    0    0  501    0  0.00000000000E+00  0.00000000000E+00 -0.11107109851E+04  0.11107109851E+04  0.50400001928E-02 0. -1.
    10030    2    1    2    0    0  0.00000000000E+00  0.00000000000E+00  0.69456161633E+01  0.22283675864E+04  0.22283567619E+04 0.  0.
        3    1    3    3  502    0  0.74557838655E+03  0.80428964539E+03  0.20000490594E+03  0.11147963656E+04  0.10100000352E+00 0. -1.
       -3    1    3    3    0  502 -0.74557838655E+03 -0.80428964539E+03 -0.19305928978E+03  0.11135712208E+04  0.10100000352E+00 0.  1.
</event>
<event>
 5   0  0.2080257E-05  0.2393716E+04  0.7818609E-02  0.8441860E-01
       -2   -1    0    0    0  501  0.00000000000E+00  0.00000000000E+00  0.14977057169E+04  0.14977057169E+04  0.25500000920E-02 0. -1.
        2   -1    0    0  501    0  0.00000000000E+00  0.00000000000E+00 -0.95644257734E+03  0.95644257735E+03  0.25500000920E-02 0.  1.
    10030    2    1    2    0    0  0.00000000000E+00  0.00000000000E+00  0.54126313958E+03  0.24541482943E+04  0.23937163708E+04 0.  0.
        1    1    3    3  502    0 -0.11064357063E+04 -0.36844367554E+03  0.54672331489E+03  0.12879662640E+04  0.50400001928E-02 0. -1.
       -1    1    3    3    0  502  0.11064357063E+04  0.36844367554E+03 -0.54601753184E+01  0.11661820303E+04  0.50400001928E-02 0.  1.
</event>
<event>
 5   0  0.9038897E-06  0.2414423E+04  0.7818609E-02  0.8434123E-01
        1   -1    0    0  501    0  0.00000000000E+00  0.00000000000E+00  0.23298986015E+04  0.23298986015E+04  0.50400001928E-02 0. -1.
       -1   -1    0    0    0  501  0.00000000000E+00  0.00000000000E+00 -0.62550369044E+03  0.62550369046E+03  0.50400001928E-02 0.  1.
    10030    2    1    2    0    0  0.00000000000E+00  0.00000000000E+00  0.17043949110E+04  0.29554022919E+04  0.24144234704E+04 0.  0.
        1    1    3    3  502    0  0.63294206887E+03  0.26661514992E+03 -0.36305615516E+03  0.77685846364E+03  0.50400001928E-02 0.  1.
       -1    1    3    3    0  502 -0.63294206887E+03 -0.26661514992E+03  0.20674510662E+04  0.21785438283E+04  0.50400001928E-02 0. -1.
</event>
<event>
 5   0  0.9083687E-06  0.2375295E+04  0.7818609E-02  0.8448811E-01
       -1   -1    0    0    0  501  0.00000000000E+00  0.00000000000E+00  0.15786044028E+04  0.15786044028E+04  0.50400001928E-02 0.  1.
        1   -1    0    0  501    0  0.00000000000E+00  0.00000000000E+00 -0.89351466966E+03  0.89351466967E+03  0.50400001928E-02 0. -1.
    10030    2    1    2    0    0  0.00000000000E+00  0.00000000000E+00  0.68508973311E+03  0.24721190724E+04  0.23752946693E+04 0.  0.
        2    1    3    3  502    0 -0.15418639322E+02  0.62707037917E+03 -0.70705386861E+03  0.94518790089E+03  0.25500000920E-02 0. -1.
       -2    1    3    3    0  502  0.15418639322E+02 -0.62707037917E+03  0.13921436017E+04  0.15269311716E+04  0.25500000920E-02 0.  1.
</event>
<event>
 5   0  0.8528103E-06  0.2389701E+04  0.7818609E-02  0.8443369E-01
       -1   -1    0    0    0  501  0.00000000000E+00  0.00000000000E+00  0.10773859941E+04  0.10773859941E+04  0.50400001928E-02 0. -1.
        1   -1    0    0  501    0  0.00000000000E+00  0.00000000000E+00 -0.13251223148E+04  0.13251223148E+04  0.50400001928E-02 0.  1.
    10030    2    1    2    0    0  0.00000000000E+00  0.00000000000E+00 -0.24773632067E+03  0.24025083089E+04  0.23897014228E+04 0.  0.
        4    1    3    3  502    0 -0.40720128692E+03 -0.78460094351E+03 -0.93207633997E+03  0.12845931049E+04  0.12699999809E+01 0.  1.
       -4    1    3    3    0  502  0.40720128692E+03  0.78460094351E+03  0.68434001930E+03  0.11179152041E+04  0.12699999809E+01 0. -1.
</event>
<event>
 5   0  0.8528103E-06  0.2404727E+04  0.7818609E-02  0.8437736E-01
        1   -1    0    0  501    0  0.00000000000E+00  0.00000000000E+00  0.58748676318E+03  0.58748676320E+03  0.50400001928E-02 0.  1.
       -1   -1    0    0    0  501  0.00000000000E+00  0.00000000000E+00 -0.24607839150E+04  0.24607839150E+04  0.50400001928E-02 0. -1.
    10030    2    1    2    0    0  0.00000000000E+00  0.00000000000E+00 -0.18732971518E+04  0.30482706782E+04  0.24047269925E+04 0.  0.
        4    1    3    3  502    0 -0.49034353851E+03 -0.11123960955E+03 -0.23211182842E+04  0.23749532077E+04  0.12699999809E+01 0. -1.
       -4    1    3    3    0  502  0.49034353851E+03  0.11123960955E+03  0.44782113243E+03  0.67331747047E+03  0.12699999809E+01 0.  1.
</event>
<event>
 5   0  0.9038897E-06  0.2412846E+04  0.7818609E-02  0.8434710E-01
       -1   -1    0    0    0  501  0.00000000000E+00  0.00000000000E+00  0.11558265983E+04  0.11558265983E+04  0.50400001928E-02 0.  1.
        1   -1    0    0  501    0  0.00000000000E+00  0.00000000000E+00 -0.12592346135E+04  0.12592346135E+04  0.50400001928E-02 0. -1.
    10030    2    1    2    0    0  0.00000000000E+00  0.00000000000E+00 -0.10340801519E+03  0.24150612118E+04  0.24128463356E+04 0.  0.
        1    1    3    3  502    0  0.23472733609E+03  0.40627953347E+03 -0.11641633572E+04  0.12551638554E+04  0.50400001928E-02 0. -1.
       -1    1    3    3    0  502 -0.23472733609E+03 -0.40627953347E+03  0.10607553420E+04  0.11598973564E+04  0.50400001928E-02 0.  1.
</event>
<event>
 5   0  0.9176817E-06  0.2400694E+04  0.7818609E-02  0.8439244E-01
        1   -1    0    0  501    0  0.00000000000E+00  0.00000000000E+00  0.14777015442E+04  0.14777015442E+04  0.50400001928E-02 0.  1.
       -1   -1    0    0    0  501  0.00000000000E+00  0.00000000000E+00 -0.97504979639E+03  0.97504979641E+03  0.50400001928E-02 0. -1.
    10030    2    1    2    0    0  0.00000000000E+00  0.00000000000E+00  0.50265174782E+03  0.24527513406E+04  0.24006937246E+04 0.  0.
        3    1    3    3  502    0  0.99328792091E+03 -0.24751226488E+03  0.89177562314E+03  0.13576254960E+04  0.10100000352E+00 0. -1.
       -3    1    3    3    0  502 -0.99328792091E+03  0.24751226488E+03 -0.38912387532E+03  0.10951258447E+04  0.10100000352E+00 0.  1.
</event>
<event>
 5   0  0.8528103E-06  0.2405396E+04  0.7818609E-02  0.8437486E-01
       -1   -1    0    0    0  501  0.00000000000E+00  0.00000000000E+00  0.95424932401E+03  0.95424932403E+03  0.50400001928E-02 0. -1.
        1   -1    0    0  501    0  0.00000000000E+00  0.00000000000E+00 -0.15158330436E+04  0.15158330436E+04  0.50400001928E-02 0.  1.
    10030    2    1    2    0    0  0.00000000000E+00  0.00000000000E+00 -0.56158371959E+03  0.24700823676E+04  0.24053961480E+04 0.  0.
        4    1    3    3  502    0  0.96168404681E+03 -0.27997603212E+03 -0.96447243831E+03  0.13904788677E+04  0.12699999809E+01 0.  1.
       -4    1    3    3    0  502 -0.96168404681E+03  0.27997603212E+03  0.40288871871E+03  0.10796034999E+04  0.12699999809E+01 0. -1.
</event>
<event>
 5   0  0.2122194E-05  0.2436793E+04  0.7818609E-02  0.8425856E-01
        2   -1    0    0  501    0  0.00000000000E+00  0.00000000000E+00  0.20851362064E+04  0.20851362064E+04  0.25500000920E-02 0.  1.
       -2   -1    0    0    0  501  0.00000000000E+00  0.00000000000E+00 -0.71193917637E+03  0.71193917638E+03  0.25500000920E-02 0. -1.
    10030    2    1    2    0    0  0.00000000000E+00  0.00000000000E+00  0.13731970301E+04  0.27970753828E+04  0.24367931003E+04 0.  0.
        3    1    3    3  502    0 -0.36351248074E+02  0.35436245656E+03 -0.65083063995E+03  0.74193981964E+03  0.10100000352E+00 0. -1.
       -3    1    3    3    0  502  0.36351248074E+02 -0.35436245656E+03  0.20240276700E+04  0.20551355632E+04  0.10100000352E+00 0.  1.
</event>
<event>
 5   0  0.9083687E-06  0.2396149E+04  0.7818609E-02  0.8440947E-01
       -1   -1    0    0    0  501  0.00000000000E+00  0.00000000000E+00  0.12551783536E+04  0.12551783536E+04  0.50400001928E-02 0.  1.
        1   -1    0    0  501    0  0.00000000000E+00  0.00000000000E+00 -0.11435683045E+04  0.11435683045E+04  0.50400001928E-02 0. -1.
    10030    2    1    2    0    0  0.00000000000E+00  0.00000000000E+00  0.11161004910E+03  0.23987466582E+04  0.23961487281E+04 0.  0.
        2    1    3    3  502    0  0.44554616501E+03  0.10615984352E+04 -0.27603522808E+03  0.11839333047E+04  0.25500000920E-02 0. -1.
       -2    1    3    3    0  502 -0.44554616501E+03 -0.10615984352E+04  0.38764527718E+03  0.12148133535E+04  0.25500000920E-02 0.  1.
</event>
<event>
 5   0  0.9176817E-06  0.2415769E+04  0.7818609E-02  0.8433623E-01
        1   -1    0    0  501    0  0.00000000000E+00  0.00000000000E+00  0.11309323924E+04  0.11309323924E+04  0.50400001928E-02 0.  1.
       -1   -1    0    0    0  501  0.00000000000E+00  0.00000000000E+00 -0.12900729692E+04  0.12900729692E+04  0.50400001928E-02 0. -1.
    10030    2    1    2    0    0  0.00000000000E+00  0.00000000000E+00 -0.15914057684E+03  0.24210053616E+04  0.24157692848E+04 0.  0.
        3    1    3    3  502    0  0.82214624708E+03  0.75117879491E+03  0.38919482865E+03  0.11796892211E+04  0.10100000352E+00 0.  1.
       -3    1    3    3    0  502 -0.82214624708E+03 -0.75117879491E+03 -0.54833540549E+03  0.12413161405E+04  0.10100000352E+00 0. -1.
</event>
<event>
 5   0  0.9083687E-06  0.2388200E+04  0.7818609E-02  0.8443935E-01
        1   -1    0    0  501    0  0.00000000000E+00  0.00000000000E+00  0.18699062094E+04  0.18699062094E+04  0.50400001928E-02 0.  1.
       -1   -1    0    0    0  501  0.00000000000E+00  0.00000000000E+00 -0.76253815427E+03  0.76253815429E+03  0.50400001928E-02 0. -1.
    10030    2    1    2    0    0  0.00000000000E+00  0.00000000000E+00  0.11073680551E+04  0.26324443637E+04  0.23882000164E+04 0.  0.
        2    1    3    3  502    0  0.70838892881E+02  0.36664859077E+03  0.18038878516E+04  0.18421348265E+04  0.25500000920E-02 0.  1.
       -2    1    3    3    0  502 -0.70838892881E+02 -0.36664859077E+03 -0.69651979642E+03  0.79030953725E+03  0.25500000920E-02 0. -1.
</event>
<event>
 5   0  0.2080257E-05  0.2382720E+04  0.7818609E-02  0.8446001E-01
       -2   -1    0    0    0  501  0.00000000000E+00  0.00000000000E+00  0.14144705283E+04  0.14144705283E+04  0.25500000920E-02 0.  1.
        2   -1    0    0  501    0  0.00000000000E+00  0.00000000000E+00 -0.10034416041E+04  0.10034416041E+04  0.25500000920E-02 0. -1.
    10030    2    1    2    0    0  0.00000000000E+00  0.00000000000E+00  0.41102892425E+03  0.24179121324E+04  0.23827199381E+04 0.  0.
        1    1    3    3  502    0 -0.11129747679E+04  0.28177251552E+03 -0.11735139070E+03  0.11540710262E+04  0.50400001928E-02 0. -1.
       -1    1    3    3    0  502  0.11129747679E+04 -0.28177251552E+03  0.52838031495E+03  0.12638411062E+04  0.50400001928E-02 0.  1.
</event>
<event>
 5   0  0.9038897E-06  0.2348077E+04  0.7818609E-02  0.8459203E-01
       -1   -1    0    0    0  501  0.00000000000E+00  0.00000000000E+00  0.16381559503E+04  0.16381559503E+04  0.50400001928E-02 0.  1.
        1   -1    0    0  501    0  0.00000000000E+00  0.00000000000E+00 -0.84141328426E+03  0.84141328427E+03  0.50400001928E-02 0. -1.
    10030    2    1    2    0    0  0.00000000000E+00  0.00000000000E+00  0.79674266600E+03  0.24795692345E+04  0.23480768116E+04 0.  0.
        1    1    3    3  502    0 -0.11162076592E+04  0.17042254075E+03  0.58800732032E+02  0.11306727675E+04  0.50400001928E-02 0. -1.
       -1    1    3    3    0  502  0.11162076592E+04 -0.17042254075E+03  0.73794193397E+03  0.13488964671E+04  0.50400001928E-02 0.  1.
</event>
<event>
 5   0  0.2087882E-05  0.2409084E+04  0.7818609E-02  0.8436110E-01
       -2   -1    0    0    0  501  0.00000000000E+00  0.00000000000E+00  0.75103020902E+03  0.75103020902E+03  0.25500000920E-02 0. -1.
        2   -1    0    0  501    0  0.00000000000E+00  0.00000000000E+00 -0.19319086724E+04  0.19319086724E+04  0.25500000920E-02 0.  1.
    10030    2    1    2    0    0  0.00000000000E+00  0.00000000000E+00 -0.11808784634E+04  0.26829388814E+04  0.24090842858E+04 0.  0.
        2    1    3    3  502    0  0.34834386512E+03  0.58716864336E+03 -0.16956250370E+04  0.18279099350E+04  0.25500000920E-02 0.  1.
       -2    1    3    3    0  502 -0.34834386512E+03 -0.58716864336E+03  0.51474657368E+03  0.85502894643E+03  0.25500000920E-02 0. -1.
</event>
<event>
 5   0  0.8898848E-06  0.2403080E+04  0.7818609E-02  0.8438351E-01
        1   -1    0    0  501    0  0.00000000000E+00  0.00000000000E+00  0.12267187300E+04  0.12267187300E+04  0.50400001928E-02 0. -1.
       -1   -1    0    0    0  501  0.00000000000E+00  0.00000000000E+00 -0.11768778580E+04  0.11768778580E+04  0.50400001928E-02 0.  1.
    10030    2    1    2    0    0  0.00000000000E+00  0.00000000000E+00  0.49840872030E+02  0.24035965880E+04  0.24030797834E+04 0.  0.
        5    1    3    3  502    0 -0.16951503815E+03 -0.59232478029E+03 -0.10068497723E+04  0.11804035528E+04  0.46999998093E+01 0.  1.
       -5    1    3    3    0  502  0.16951503815E+03  0.59232478029E+03  0.10566906443E+04  0.12231930352E+04  0.46999998093E+01 0. -1.
</event>
<event>
 5   0  0.8528103E-06  0.2409130E+04  0.7818609E-02  0.8436093E-01
        1   -1    0    0  501    0  0.00000000000E+00  0.00000000000E+00  0.96235152489E+03  0.96235152490E+03  0.50400001928E-02 0.  1.
       -1   -1    0    0    0  501  0.00000000000E+00  0.00000000000E+00 -0.15077407809E+04  0.15077407809E+04  0.50400001928E-02 0. -1.
    10030    2    1    2    0    0  0.00000000000E+00  0.00000000000E+00 -0.54538925597E+03  0.24700923058E+04  0.24091298343E+04 0.  0.
        4    1    3    3  502    0 -0.88415880057E+03 -0.67475510723E+03 -0.74693968916E+03  0.13397580944E+04  0.12699999809E+01 0. -1.
       -4    1    3    3    0  502  0.88415880057E+03  0.67475510723E+03  0.20155043319E+03  0.11303342114E+04  0.12699999809E+01 0.  1.
</event>
<event>
 5   0  0.9176817E-06  0.2408467E+04  0.7818609E-02  0.8436340E-01
        1   -1    0    0  501    0  0.00000000000E+00  0.00000000000E+00  0.16158092984E+04  0.16158092984E+04  0.50400001928E-02 0. -1.
       -1   -1    0    0    0  501  0.00000000000E+00  0.00000000000E+00 -0.89749348407E+03  0.89749348408E+03  0.50400001928E-02 0.  1.
    10030    2    1    2    0    0  0.00000000000E+00  0.00000000000E+00  0.71831581434E+03  0.25133027825E+04  0.24084669953E+04 0.  0.
        3    1    3    3  502    0  0.90233296231E+03 -0.15253063408E+02  0.11911978600E+04  0.14944530045E+04  0.10100000352E+00 0. -1.
       -3    1    3    3    0  502 -0.90233296231E+03  0.15253063408E+02 -0.47288204565E+03  0.10188497780E+04  0.10100000352E+00 0.  1.
</event>
<event>
 5   0  0.2122194E-05  0.2403802E+04  0.7818609E-02  0.8438082E-01
       -2   -1    0    0    0  501  0.00000000000E+00  0.00000000000E+00  0.90043484125E+03  0.90043484126E+03  0.25500000920E-02 0.  1.
        2   -1    0    0  501    0  0.00000000000E+00  0.00000000000E+00 -0.16042981186E+04  0.16042981186E+04  0.25500000920E-02 0. -1.
    10030    2    1    2    0    0  0.00000000000E+00  0.00000000000E+00 -0.70386327736E+03  0.25047329599E+04  0.24038019234E+04 0.  0.
        3    1    3    3  502    0 -0.65296079105E+03  0.29238180256E+03  0.65439421291E+03  0.96957553043E+03  0.10100000352E+00 0.  1.
       -3    1    3    3    0  502  0.65296079105E+03 -0.29238180256E+03 -0.13582574903E+04  0.15351574294E+04  0.10100000352E+00 0. -1.
</event>
<event>
 5   0  0.2025353E-05  0.2241771E+04  0.7818609E-02  0.8501241E-01
        2   -1    0    0  501    0  0.00000000000E+00  0.00000000000E+00  0.18562562877E+04  0.18562562877E+04  0.25500000920E-02 0. -1.
       -2   -1    0    0    0  501  0.00000000000E+00  0.00000000000E+00 -0.67683746410E+03  0.67683746410E+03  0.25500000920E-02 0.  1.
    10030    2    1    2    0    0  0.00000000000E+00  0.00000000000E+00  0.11794188236E+04  0.25330937518E+04  0.22417705489E+04 0.  0.
        4    1    3    3  502    0 -0.86168413183E+03  0.65070487396E+02 -0.21695977582E+03  0.89095839891E+03  0.12699999809E+01 0.  1.
       -4    1    3    3    0  502  0.86168413183E+03 -0.65070487396E+02  0.13963785994E+04  0.16421353529E+04  0.12699999809E+01 0. -1.
</event>
<event>
 5   0  0.8528103E-06  0.2399646E+04  0.7818609E-02  0.8439636E-01
       -1   -1    0    0    0  501  0.00000000000E+00  0.00000000000E+00  0.80231826219E+03  0.80231826221E+03  0.50400001928E-02 0. -1.
        1   -1    0    0  501    0  0.00000000000E+00  0.00000000000E+00 -0.17942702437E+04  0.17942702437E+04  0.50400001928E-02 0.  1.
    10030    2    1    2    0    0  0.00000000000E+00  0.00000000000E+00 -0.99195198152E+03  0.25965885059E+04  0.23996464605E+04 0.  0.
        4    1    3    3  502    0  0.71040312119E+03  0.74262720399E+03 -0.11659925779E+04  0.15542548258E+04  0.12699999809E+01 0.  1.
       -4    1    3    3    0  502 -0.71040312119E+03 -0.74262720399E+03  0.17404059642E+03  0.10423336802E+04  0.12699999809E+01 0. -1.
</event>
<event>
 5   0  0.8898848E-06  0.2398680E+04  0.7818609E-02  0.8439998E-01
        1   -1    0    0  501    0  0.00000000000E+00  0.00000000000E+00  0.11295471494E+04  0.11295471494E+04  0.50400001928E-02 0.  1.
       -1   -1    0    0    0  501  0.00000000000E+00  0.00000000000E+00 -0.12734455827E+04  0.12734455827E+04  0.50400001928E-02 0. -1.
    10030    2    1    2    0    0  0.00000000000E+00  0.00000000000E+00 -0.14389843328E+03  0.24029927321E+04  0.23986803270E+04 0.  0.
        5    1    3    3  502    0  0.80229789013E+03 -0.58074249455E+03  0.60561797534E+03  0.11609216044E+04  0.46999998093E+01 0.  1.
       -5    1    3    3    0  502 -0.80229789013E+03  0.58074249455E+03 -0.74951640862E+03  0.12420711277E+04  0.46999998093E+01 0. -1.
</event>
<event>
 5   0  0.2122194E-05  0.2399821E+04  0.7818609E-02  0.8439571E-01
       -2   -1    0    0    0  501  0.00000000000E+00  0.00000000000E+00  0.49317485770E+03  0.49317485771E+03  0.25500000920E-02 0.  1.
        2   -1    0    0  501    0  0.00000000000E+00  0.00000000000E+00 -0.29194207986E+04  0.29194207986E+04  0.25500000920E-02 0. -1.
    10030    2    1    2    0    0  0.00000000000E+00  0.00000000000E+00 -0.24262459409E+04  0.34125956563E+04  0.23998207741E+04 0.  0.
        3    1    3    3  502    0 -0.91777307879E+02  0.11311250585E+03  0.48055568666E+03  0.50214668315E+03  0.10100000352E+00 0.  1.
       -3    1    3    3    0  502  0.91777307879E+02 -0.11311250585E+03 -0.29068016276E+04  0.29104489732E+04  0.10100000352E+00 0. -1.
</event>
<event>
 5   0  0.8528103E-06  0.2421562E+04  0.7818609E-02  0.8431475E-01
        1   -1    0    0  501    0  0.00000000000E+00  0.00000000000E+00  0.16210362082E+04  0.16210362082E+04  0.50400001928E-02 0.  1.
       -1   -1    0    0    0  501  0.00000000000E+00  0.00000000000E+00 -0.90435394288E+03  0.90435394289E+03  0.50400001928E-02 0. -1.
    10030    2    1    2    0    0  0.00000000000E+00  0.00000000000E+00  0.71668226528E+03  0.25253901511E+04  0.24215618814E+04 0.  0.
        4    1    3    3  502    0 -0.89354338103E+03  0.45350139114E+03 -0.35043570863E+03  0.10615507922E+04  0.12699999809E+01 0. -1.
       -4    1    3    3    0  502  0.89354338103E+03 -0.45350139114E+03  0.10671179739E+04  0.14638393589E+04  0.12699999809E+01 0.  1.
</event>
<event>
 5   0  0.2122194E-05  0.2409056E+04  0.7818609E-02  0.8436121E-01
        2   -1    0    0  501    0  0.00000000000E+00  0.00000000000E+00  0.18678710020E+04  0.18678710020E+04  0.25500000920E-02 0. -1.
       -2   -1    0    0    0  501  0.00000000000E+00  0.00000000000E+00 -0.77676034329E+03  0.77676034330E+03  0.25500000920E-02 0.  1.
    10030    2    1    2    0    0  0.00000000000E+00  0.00000000000E+00  0.10911106587E+04  0.26446313453E+04  0.24090563470E+04 0.  0.
        3    1    3    3  502    0  0.74756795542E+03 -0.77267216880E+03 -0.50703834121E+02  0.10763136241E+04  0.10100000352E+00 0.  1.
       -3    1    3    3    0  502 -0.74756795542E+03  0.77267216880E+03  0.11418144929E+04  0.15683177212E+04  0.10100000352E+00 0. -1.
</event>
<event>
 5   0  0.8898848E-06  0.2391368E+04  0.7818609E-02  0.8442742E-01
       -1   -1    0    0    0  501  0.00000000000E+00  0.00000000000E+00  0.80837859063E+03  0.80837859064E+03  0.50400001928E-02 0. -1.
        1   -1    0    0  501    0  0.00000000000E+00  0.00000000000E+00 -0.17685531006E+04  0.17685531006E+04  0.50400001928E-02 0.  1.
    10030    2    1    2    0    0  0.00000000000E+00  0.00000000000E+00 -0.96017450993E+03  0.25769316912E+04  0.23913681966E+04 0.  0.
        5    1    3    3  502    0 -0.39249778229E+02 -0.74268215462E+03 -0.14889628844E+04  0.16643767269E+04  0.46999998093E+01 0.  1.
       -5    1    3    3    0  502  0.39249778229E+02  0.74268215462E+03  0.52878837449E+03  0.91255496430E+03  0.46999998093E+01 0. -1.
</event>
<event>
 5   0  0.9083687E-06  0.2394328E+04  0.7818609E-02  0.8441630E-01
        1   -1    0    0  501    0  0.00000000000E+00  0.00000000000E+00  0.12211990465E+04  0.12211990465E+04  0.50400001928E-02 0. -1.
       -1   -1    0    0    0  501  0.00000000000E+00  0.00000000000E+00 -0.11736023963E+04  0.11736023963E+04  0.50400001928E-02 0.  1.
    10030    2    1    2    0    0  0.00000000000E+00  0.00000000000E+00  0.47596650276E+02  0.23948014428E+04  0.23943284047E+04 0.  0.
        2    1    3    3  502    0  0.11704324577E+04  0.14203760268E+03  0.23148160969E+03  0.12015284242E+04  0.25500000920E-02 0. -1.
       -2    1    3    3    0  502 -0.11704324577E+04 -0.14203760268E+03 -0.18388495941E+03  0.11932730186E+04  0.25500000920E-02 0.  1.
</event>
<event>
 5   0  0.2048028E-05  0.2395792E+04  0.7818609E-02  0.8441081E-01
       -2   -1    0    0    0  501  0.00000000000E+00  0.00000000000E+00  0.11432430009E+04  0.11432430009E+04  0.25500000920E-02 0. -1.
        2   -1    0    0  501    0  0.00000000000E+00  0.00000000000E+00 -0.12551620247E+04  0.12551620247E+04  0.25500000920E-02 0.  1.
    10030    2    1    2    0    0  0.00000000000E+00  0.00000000000E+00 -0.11191902381E+03  0.23984050255E+04  0.23957923112E+04 0.  0.
        5    1    3    3  502    0  0.39573481222E+03  0.30990296474E+03  0.10325565865E+04  0.11484080649E+04  0.46999998093E+01 0. -1.
       -5    1    3    3    0  502 -0.39573481222E+03 -0.30990296474E+03 -0.11444756103E+04  0.12499969607E+04  0.46999998093E+01 0.  1.
</event>
<event>
 5   0  0.9038897E-06  0.2406033E+04  0.7818609E-02  0.8437248E-01
       -1   -1    0    0    0  501  0.00000000000E+00  0.00000000000E+00  0.11992555092E+04  0.11992555092E+04  0.50400001928E-02 0. -1.
        1   -1    0    0  501    0  0.00000000000E+00  0.00000000000E+00 -0.12067889226E+04  0.12067889226E+04  0.50400001928E-02 0.  1.
    10030    2    1    2    0    0  0.00000000000E+00  0.00000000000E+00 -0.75334133262E+01  0.24060444318E+04  0.24060326381E+04 0.  0.
        1    1    3    3  502    0 -0.89569983517E+02 -0.65450936393E+03 -0.10091785050E+04  0.12061701971E+04  0.50400001928E-02 0.  1.
       -1    1    3    3    0  502  0.89569983517E+02  0.65450936393E+03  0.10016450917E+04  0.11998742347E+04  0.50400001928E-02 0. -1.
</event>
<event>
 5   0  0.9038897E-06  0.2393403E+04  0.7818609E-02  0.8441978E-01
        1   -1    0    0  501    0  0.00000000000E+00  0.00000000000E+00  0.19438059314E+04  0.19438059314E+04  0.50400001928E-02 0.  1.
       -1   -1    0    0    0  501  0.00000000000E+00  0.00000000000E+00 -0.73674757311E+03  0.73674757312E+03  0.50400001928E-02 0. -1.
    10030    2    1    2    0    0  0.00000000000E+00  0.00000000000E+00  0.12070583583E+04  0.26805535045E+04  0.23934028517E+04 0.  0.
        1    1    3    3  502    0 -0.24787520214E+03  0.10726899121E+03 -0.70216557704E+03  0.75231991195E+03  0.50400001928E-02 0. -1.
       -1    1    3    3    0  502  0.24787520214E+03 -0.10726899121E+03  0.19092239353E+04  0.19282335926E+04  0.50400001928E-02 0.  1.
</event>
<event>
 5   0  0.2122194E-05  0.2400414E+04  0.7818609E-02  0.8439348E-01
       -2   -1    0    0    0  501  0.00000000000E+00  0.00000000000E+00  0.13058680695E+04  0.13058680695E+04  0.25500000920E-02 0.  1.
        2   -1    0    0  501    0  0.00000000000E+00  0.00000000000E+00 -0.11030955698E+04  0.11030955698E+04  0.25500000920E-02 0. -1.
    10030    2    1    2    0    0  0.00000000000E+00  0.00000000000E+00  0.20277249972E+03  0.24089636393E+04  0.24004143661E+04 0.  0.
        3    1    3    3  502    0 -0.61136051940E+03  0.41715721097E+03 -0.84681506404E+03  0.11246677670E+04  0.10100000352E+00 0. -1.
       -3    1    3    3    0  502  0.61136051940E+03 -0.41715721097E+03  0.10495875638E+04  0.12842958723E+04  0.10100000352E+00 0.  1.
</event>
<event>
 5   0  0.8528103E-06  0.2379225E+04  0.7818609E-02  0.8447323E-01
        1   -1    0    0  501    0  0.00000000000E+00  0.00000000000E+00  0.10632417382E+04  0.10632417383E+04  0.50400001928E-02 0. -1.
       -1   -1    0    0    0  501  0.00000000000E+00  0.00000000000E+00 -0.13310029571E+04  0.13310029571E+04  0.50400001928E-02 0.  1.
    10030    2    1    2    0    0  0.00000000000E+00  0.00000000000E+00 -0.26776121888E+03  0.23942446954E+04  0.23792249980E+04 0.  0.
        4    1    3    3  502    0 -0.20395621547E+03 -0.50299717297E+03  0.93137272213E+03  0.10779893572E+04  0.12699999809E+01 0. -1.
       -4    1    3    3    0  502  0.20395621547E+03  0.50299717297E+03 -0.11991339410E+04  0.13162553382E+04  0.12699999809E+01 0.  1.
</event>
<event>
 5   0  0.9038897E-06  0.2400103E+04  0.7818609E-02  0.8439465E-01
       -1   -1    0    0    0  501  0.00000000000E+00  0.00000000000E+00  0.56794947197E+03  0.56794947199E+03  0.50400001928E-02 0. -1.
        1   -1    0    0  501    0  0.00000000000E+00  0.00000000000E+00 -0.25356535185E+04  0.25356535185E+04  0.50400001928E-02 0.  1.
    10030    2    1    2    0    0  0.00000000000E+00  0.00000000000E+00 -0.19677040465E+04  0.31036029905E+04  0.24001025619E+04 0.  0.
        1    1    3    3  502    0  0.64678314011E+03 -0.39832904923E+03  0.21751060703E+03  0.79012994247E+03  0.50400001928E-02 0. -1.
       -1    1    3    3    0  502 -0.64678314011E+03  0.39832904923E+03 -0.21852146535E+04  0.23134730480E+04  0.50400001928E-02 0.  1.
</event>
<event>
 5   0  0.2048028E-05  0.2380246E+04  0.7818609E-02  0.8446937E-01
       -2   -1    0    0    0  501  0.00000000000E+00  0.00000000000E+00  0.16834859164E+04  0.16834859164E+04  0.25500000920E-02 0.  1.
        2   -1    0    0  501    0  0.00000000000E+00  0.00000000000E+00 -0.84134483005E+03  0.84134483005E+03  0.25500000920E-02 0. -1.
    10030    2    1    2    0    0  0.00000000000E+00  0.00000000000E+00  0.84214108636E+03  0.25248307465E+04  0.23802455102E+04 0.  0.
        5    1    3    3  502    0 -0.34350857409E+02  0.11058968058E+04  0.88608587472E+03  0.14175182517E+04  0.46999998093E+01 0.  1.
       -5    1    3    3    0  502  0.34350857409E+02 -0.11058968058E+04 -0.43944788367E+02  0.11073124947E+04  0.46999998093E+01 0. -1.
</event>
<event>
 5   0  0.8898848E-06  0.2389436E+04  0.7818609E-02  0.8443469E-01
       -1   -1    0    0    0  501  0.00000000000E+00  0.00000000000E+00  0.10265691081E+04  0.10265691081E+04  0.50400001928E-02 0.  1.
        1   -1    0    0  501    0  0.00000000000E+00  0.00000000000E+00 -0.13904088425E+04  0.13904088425E+04  0.50400001928E-02 0. -1.
    10030    2    1    2    0    0  0.00000000000E+00  0.00000000000E+00 -0.36383973441E+03  0.24169779506E+04  0.23894357203E+04 0.  0.
        5    1    3    3  502    0 -0.35054750301E+03 -0.23664244039E+03  0.94829789211E+03  0.10383516642E+04  0.46999998093E+01 0.  1.
       -5    1    3    3    0  502  0.35054750301E+03  0.23664244039E+03 -0.13121376265E+04  0.13786262863E+04  0.46999998093E+01 0. -1.
</event>
<event>
 5   0  0.2122194E-05  0.2409130E+04  0.7818609E-02  0.8436093E-01
        2   -1    0    0  501    0  0.00000000000E+00  0.00000000000E+00  0.14446557554E+04  0.14446557554E+04  0.25500000920E-02 0. -1.
       -2   -1    0    0    0  501  0.00000000000E+00  0.00000000000E+00 -0.10043753132E+04  0.10043753132E+04  0.25500000920E-02 0.  1.
    10030    2    1    2    0    0  0.00000000000E+00  0.00000000000E+00  0.44028044214E+03  0.24490310686E+04  0.24091297821E+04 0.  0.
        3    1    3    3  502    0  0.85724674477E+02 -0.80206427243E+03 -0.68928320389E+03  0.10610217539E+04  0.10100000352E+00 0.  1.
       -3    1    3    3    0  502 -0.85724674477E+02  0.80206427243E+03  0.11295636460E+04  0.13880093147E+04  0.10100000352E+00 0. -1.
</event>
<event>
 5   0  0.9083687E-06  0.2378869E+04  0.7818609E-02  0.8447457E-01
       -1   -1    0    0    0  501  0.00000000000E+00  0.00000000000E+00  0.84816362188E+03  0.84816362189E+03  0.50400001928E-02 0.  1.
        1   -1    0    0  501    0  0.00000000000E+00  0.00000000000E+00 -0.16680212427E+04  0.16680212427E+04  0.50400001928E-02 0. -1.
    10030    2    1    2    0    0  0.00000000000E+00  0.00000000000E+00 -0.81985762084E+03  0.25161848646E+04  0.23788694278E+04 0.  0.
        2    1    3    3  502    0  0.32364807338E+03 -0.11158980432E+04 -0.14072133375E+03  0.11703755859E+04  0.25500000920E-02 0. -1.
       -2    1    3    3    0  502 -0.32364807338E+03  0.11158980432E+04 -0.67913628710E+03  0.13458092787E+04  0.25500000920E-02 0.  1.
</event>
<event>
 5   0  0.8528103E-06  0.2386319E+04  0.7818609E-02  0.8444643E-01
       -1   -1    0    0    0  501  0.00000000000E+00  0.00000000000E+00  0.74509002933E+03  0.74509002934E+03  0.50400001928E-02 0.  1.
        1   -1    0    0  501    0  0.00000000000E+00  0.00000000000E+00 -0.19106808563E+04  0.19106808563E+04  0.50400001928E-02 0. -1.
    10030    2    1    2    0    0  0.00000000000E+00  0.00000000000E+00 -0.11655908269E+04  0.26557708856E+04  0.23863187174E+04 0.  0.
        4    1    3    3  502    0 -0.59727043415E+03  0.63766394930E+03 -0.14871241825E+04  0.17247861406E+04  0.12699999809E+01 0. -1.
       -4    1    3    3    0  502  0.59727043415E+03 -0.63766394930E+03  0.32153335558E+03  0.93098474499E+03  0.12699999809E+01 0.  1.
</event>
<event>
 5   0  0.9038897E-06  0.2400411E+04  0.7818609E-02  0.8439350E-01
       -1   -1    0    0    0  501  0.00000000000E+00  0.00000000000E+00  0.75930434174E+03  0.75930434176E+03  0.50400001928E-02 0.  1.
        1   -1    0    0  501    0  0.00000000000E+00  0.00000000000E+00 -0.18971221284E+04  0.18971221284E+04  0.50400001928E-02 0. -1.
    10030    2    1    2    0    0  0.00000000000E+00  0.00000000000E+00 -0.11378177866E+04  0.26564264701E+04  0.24004108556E+04 0.  0.
        1    1    3    3  502    0  0.59343608550E+03  0.92759510082E+03 -0.40611251177E+02  0.11019293681E+04  0.50400001928E-02 0.  1.
       -1    1    3    3    0  502 -0.59343608550E+03 -0.92759510082E+03 -0.10972065355E+04  0.15544971020E+04  0.50400001928E-02 0. -1.
</event>
<event>
 5   0  0.8528103E-06  0.2410935E+04  0.7818609E-02  0.8435421E-01
        1   -1    0    0  501    0  0.00000000000E+00  0.00000000000E+00  0.88288244377E+03  0.88288244379E+03  0.50400001928E-02 0. -1.
       -1   -1    0    0    0  501  0.00000000000E+00  0.00000000000E+00 -0.16459184038E+04  0.16459184038E+04  0.50400001928E-02 0.  1.
    10030    2    1    2    0    0  0.00000000000E+00  0.00000000000E+00 -0.76303596000E+03  0.25288008476E+04  0.24109354721E+04 0.  0.
        4    1    3    3  502    0  0.70483697819E+03 -0.57516212925E+03 -0.12110975450E+04  0.15147163158E+04  0.12699999809E+01 0.  1.
       -4    1    3    3    0  502 -0.70483697819E+03  0.57516212925E+03  0.44806158503E+03  0.10140845318E+04  0.12699999809E+01 0. -1.
</event>
<event>
 5   0  0.2087882E-05  0.2396559E+04  0.7818609E-02  0.8440793E-01
        2   -1    0    0  501    0  0.00000000000E+00  0.00000000000E+00  0.24034681384E+04  0.24034681384E+04  0.25500000920E-02 0.  1.
       -2   -1    0    0    0  501  0.00000000000E+00  0.00000000000E+00 -0.59741756631E+03  0.59741756632E+03  0.25500000920E-02 0. -1.
    10030    2    1    2    0    0  0.00000000000E+00  0.00000000000E+00  0.18060505721E+04  0.30008857047E+04  0.23965592719E+04 0.  0.
        2    1    3    3  502    0  0.25239069381E+03  0.34256299330E+03  0.23056859653E+04  0.23446189961E+04  0.25500000920E-02 0.  1.
       -2    1    3    3    0  502 -0.25239069381E+03 -0.34256299330E+03 -0.49963539315E+03  0.65626670859E+03  0.25500000920E-02 0. -1.
</event>
<event>
 5   0  0.2080257E-05  0.2378630E+04  0.7818609E-02  0.8447548E-01
       -2   -1    0    0    0  501  0.00000000000E+00  0.00000000000E+00  0.61413182061E+03  0.61413182061E+03  0.25500000920E-02 0. -1.
        2   -1    0    0  501    0  0.00000000000E+00  0.00000000000E+00 -0.23032035822E+04  0.23032035822E+04  0.25500000920E-02 0.  1.
    10030    2    1    2    0    0  0.00000000000E+00  0.00000000000E+00 -0.16890717616E+04  0.29173354028E+04  0.23786303699E+04 0.  0.
        1    1    3    3  502    0  0.25376324868E+03  0.72579255419E+03  0.26831880329E+03  0.81434980096E+03  0.50400001928E-02 0. -1.
       -1    1    3    3    0  502 -0.25376324868E+03 -0.72579255419E+03 -0.19573905649E+04  0.21029856018E+04  0.50400001928E-02 0.  1.
</event>
<event>
 5   0  0.2122194E-05  0.2421754E+04  0.7818609E-02  0.8431404E-01
       -2   -1    0    0    0  501  0.00000000000E+00  0.00000000000E+00  0.56913591394E+03  0.56913591395E+03  0.25500000920E-02 0.  1.
        2   -1    0    0  501    0  0.00000000000E+00  0.00000000000E+00 -0.25762263231E+04  0.25762263231E+04  0.25500000920E-02 0. -1.
    10030    2    1    2    0    0  0.00000000000E+00  0.00000000000E+00 -0.20070904092E+04  0.31453622371E+04  0.24217538462E+04 0.  0.
        3    1    3    3  502    0 -0.43300735692E+02 -0.99083849807E+03 -0.10129187598E+03  0.99694329694E+03  0.10100000352E+00 0.  1.
       -3    1    3    3    0  502  0.43300735692E+02  0.99083849807E+03 -0.19057985332E+04  0.21484189401E+04  0.10100000352E+00 0. -1.
</event>
<event>
 5   0  0.2080257E-05  0.2382956E+04  0.7818609E-02  0.8445912E-01
       -2   -1    0    0    0  501  0.00000000000E+00  0.00000000000E+00  0.12681251804E+04  0.12681251804E+04  0.25500000920E-02 0. -1.
        2   -1    0    0  501    0  0.00000000000E+00  0.00000000000E+00 -0.11194631027E+04  0.11194631027E+04  0.25500000920E-02 0.  1.
    10030    2    1    2    0    0  0.00000000000E+00  0.00000000000E+00  0.14866207767E+03  0.23875882831E+04  0.23829556010E+04 0.  0.
        1    1    3    3  502    0 -0.10970163801E+04  0.12332613780E+03 -0.37483176327E+03  0.11658272279E+04  0.50400001928E-02 0.  1.
       -1    1    3    3    0  502  0.10970163801E+04 -0.12332613780E+03  0.52349384094E+03  0.12217610552E+04  0.50400001928E-02 0. -1.
</event>
<event>
 5   0  0.2025353E-05  0.2385469E+04  0.7818609E-02  0.8444964E-01
       -2   -1    0    0    0  501  0.00000000000E+00  0.00000000000E+00  0.11160634403E+04  0.11160634403E+04  0.25500000920E-02 0.  1.
        2   -1    0    0  501    0  0.00000000000E+00  0.00000000000E+00 -0.12746723065E+04  0.12746723065E+04  0.25500000920E-02 0. -1.
    10030    2    1    2    0    0  0.00000000000E+00  0.00000000000E+00 -0.15860886618E+03  0.23907357468E+04  0.23854686412E+04 0.  0.
        4    1    3    3  502    0  0.20966066710E+03 -0.11732664023E+04 -0.12525215094E+03  0.11984161883E+04  0.12699999809E+01 0. -1.
       -4    1    3    3    0  502 -0.20966066710E+03  0.11732664023E+04 -0.33356715239E+02  0.11923195585E+04  0.12699999809E+01 0.  1.
</event>
<event>
 5   0  0.9176817E-06  0.2400134E+04  0.7818609E-02  0.8439453E-01
       -1   -1    0    0    0  501  0.00000000000E+00  0.00000000000E+00  0.99165594678E+03  0.99165594680E+03  0.50400001928E-02 0. -1.
        1   -1    0    0  501    0  0.00000000000E+00  0.00000000000E+00 -0.14522789265E+04  0.14522789265E+04  0.50400001928E-02 0.  1.
    10030    2    1    2    0    0  0.00000000000E+00  0.00000000000E+00 -0.46062297968E+03  0.24439348733E+04  0.24001341911E+04 0.  0.
        3    1    3    3  502    0 -0.73051909284E+03  0.69519595610E+03 -0.89272584658E+03  0.13468166207E+04  0.10100000352E+00 0.  1.
       -3    1    3    3    0  502  0.73051909284E+03 -0.69519595610E+03  0.43210286690E+03  0.10971182526E+04  0.10100000352E+00 0. -1.
</event>
<event>
 5   0  0.9038897E-06  0.2389441E+04  0.7818609E-02  0.8443467E-01
        1   -1    0    0  501    0  0.00000000000E+00  0.00000000000E+00  0.17424022688E+04  0.17424022688E+04  0.50400001928E-02 0. -1.
       -1   -1    0    0    0  501  0.00000000000E+00  0.00000000000E+00 -0.81918923375E+03  0.81918923377E+03  0.50400001928E-02 0.  1.
    10030    2    1    2    0    0  0.00000000000E+00  0.00000000000E+00  0.92321303505E+03  0.25615915026E+04  0.23894410890E+04 0.  0.
        1    1    3    3  502    0 -0.12989591028E+03  0.63575761918E+03 -0.61380955637E+03  0.89320930882E+03  0.50400001928E-02 0.  1.
       -1    1    3    3    0  502  0.12989591028E+03 -0.63575761918E+03  0.15370225914E+04  0.16683821938E+04  0.50400001928E-02 0. -1.
</event>
<event>
 5   0  0.8898848E-06  0.2382255E+04  0.7818609E-02  0.8446177E-01
        1   -1    0    0  501    0  0.00000000000E+00  0.00000000000E+00  0.13304387233E+04  0.13304387233E+04  0.50400001928E-02 0. -1.
       -1   -1    0    0    0  501  0.00000000000E+00  0.00000000000E+00 -0.10664037790E+04  0.10664037790E+04  0.50400001928E-02 0.  1.
    10030    2    1    2    0    0  0.00000000000E+00  0.00000000000E+00  0.26403494428E+03  0.23968425023E+04  0.23822551352E+04 0.  0.
        5    1    3    3  502    0 -0.85974003118E+03 -0.43424152207E+03  0.83705381730E+03  0.12760876944E+04  0.46999998093E+01 0. -1.
       -5    1    3    3    0  502  0.85974003118E+03  0.43424152207E+03 -0.57301887302E+03  0.11207548079E+04  0.46999998093E+01 0.  1.
</event>
<event>
 5   0  0.9038897E-06  0.2384460E+04  0.7818609E-02  0.8445344E-01
        1   -1    0    0  501    0  0.00000000000E+00  0.00000000000E+00  0.12642800075E+04  0.12642800075E+04  0.50400001928E-02 0.  1.
       -1   -1    0    0    0  501  0.00000000000E+00  0.00000000000E+00 -0.11242863940E+04  0.11242863940E+04  0.50400001928E-02 0. -1.
    10030    2    1    2    0    0  0.00000000000E+00  0.00000000000E+00  0.13999361347E+03  0.23885664015E+04  0.23844603672E+04 0.  0.
        1    1    3    3  502    0  0.52582691267E+03  0.68030554935E+02 -0.99968597263E+03  0.11315892110E+04  0.50400001928E-02 0. -1.
       -1    1    3    3    0  502 -0.52582691267E+03 -0.68030554935E+02  0.11396795861E+04  0.12569771905E+04  0.50400001928E-02 0.  1.
</event>
<event>
 5   0  0.8528103E-06  0.2413682E+04  0.7818609E-02  0.8434399E-01
        1   -1    0    0  501    0  0.00000000000E+00  0.00000000000E+00  0.20477671378E+04  0.20477671378E+04  0.50400001928E-02 0.  1.
       -1   -1    0    0    0  501  0.00000000000E+00  0.00000000000E+00 -0.71124542172E+03  0.71124542174E+03  0.50400001928E-02 0. -1.
    10030    2    1    2    0    0  0.00000000000E+00  0.00000000000E+00  0.13365217161E+04  0.27590125596E+04  0.24136818362E+04 0.  0.
        4    1    3    3  502    0 -0.16294049056E+03 -0.10847672879E+04  0.93085704838E+02  0.11008797544E+04  0.12699999809E+01 0. -1.
       -4    1    3    3    0  502  0.16294049056E+03  0.10847672879E+04  0.12434360113E+04  0.16581328051E+04  0.12699999809E+01 0.  1.
</event>
<event>
 5   0  0.9176817E-06  0.2420637E+04  0.7818609E-02  0.8431817E-01
        1   -1    0    0  501    0  0.00000000000E+00  0.00000000000E+00  0.10186030960E+04  0.10186030960E+04  0.50400001928E-02 0. -1.
       -1   -1    0    0    0  501  0.00000000000E+00  0.00000000000E+00 -0.14381178124E+04  0.14381178124E+04  0.50400001928E-02 0.  1.
    10030    2    1    2    0    0  0.00000000000E+00  0.00000000000E+00 -0.41951471637E+03  0.24567209084E+04  0.24206373178E+04 0.  0.
        3    1    3    3  502    0 -0.87882309655E+03  0.44509347773E+03  0.50388369478E+03  0.11064976399E+04  0.10100000352E+00 0. -1.
       -3    1    3    3    0  502  0.87882309655E+03 -0.44509347773E+03 -0.92339841116E+03  0.13502232685E+04  0.10100000352E+00 0.  1.
</event>
<event>
 5   0  0.2025353E-05  0.2404559E+04  0.7818609E-02  0.8437799E-01
       -2   -1    0    0    0  501  0.00000000000E+00  0.00000000000E+00  0.80596127090E+03  0.80596127090E+03  0.25500000920E-02 0. -1.
        2   -1    0    0  501    0  0.00000000000E+00  0.00000000000E+00 -0.17934805072E+04  0.17934805072E+04  0.25500000920E-02 0.  1.
    10030    2    1    2    0    0  0.00000000000E+00  0.00000000000E+00 -0.98751923628E+03  0.25994417781E+04  0.24045588609E+04 0.  0.
        4    1    3    3  502    0  0.30379375258E+03  0.13726853242E+03  0.75499781017E+03  0.82532211915E+03  0.12699999809E+01 0. -1.
       -4    1    3    3    0  502 -0.30379375258E+03 -0.13726853242E+03 -0.17425170465E+04  0.17741196589E+04  0.12699999809E+01 0.  1.
</event>
<event>
 5   0  0.9083687E-06  0.2411045E+04  0.7818609E-02  0.8435380E-01
       -1   -1    0    0    0  501  0.00000000000E+00  0.00000000000E+00  0.85684063835E+03  0.85684063836E+03  0.50400001928E-02 0.  1.
        1   -1    0    0  501    0  0.00000000000E+00  0.00000000000E+00 -0.16960967263E+04  0.16960967263E+04  0.50400001928E-02 0. -1.
    10030    2    1    2    0    0  0.00000000000E+00  0.00000000000E+00 -0.83925608797E+03  0.25529373647E+04  0.24110450860E+04 0.  0.
        2    1    3    3  502    0  0.20347825782E+03 -0.52326546529E+03  0.70996020382E+03  0.90512631140E+03  0.25500000920E-02 0.  1.
       -2    1    3    3    0  502 -0.20347825782E+03  0.52326546529E+03 -0.15492162918E+04  0.16478110533E+04  0.25500000920E-02 0. -1.
</event>
<event>
 5   0  0.9176817E-06  0.2405945E+04  0.7818609E-02  0.8437281E-01
        1   -1    0    0  501    0  0.00000000000E+00  0.00000000000E+00  0.14695840860E+04  0.14695840860E+04  0.50400001928E-02 0.  1.
       -1   -1    0    0    0  501  0.00000000000E+00  0.00000000000E+00 -0.98472953485E+03  0.98472953486E+03  0.50400001928E-02 0. -1.
    10030    2    1    2    0    0  0.00000000000E+00  0.00000000000E+00  0.48485455118E+03  0.24543136209E+04  0.24059450147E+04 0.  0.
        3    1    3    3  502    0 -0.38609022071E+02  0.20051002278E+03 -0.96692196994E+03  0.98824745483E+03  0.10100000352E+00 0. -1.
       -3    1    3    3    0  502  0.38609022071E+02 -0.20051002278E+03  0.14517765211E+04  0.14660661661E+04  0.10100000352E+00 0.  1.
</event>
<event>
 5   0  0.2048028E-05  0.2530542E+04  0.7818609E-02  0.8392185E-01
       -2   -1    0    0    0  501  0.00000000000E+00  0.00000000000E+00  0.16599940169E+04  0.16599940169E+04  0.25500000920E-02 0.  1.
        2   -1    0    0  501    0  0.00000000000E+00  0.00000000000E+00 -0.96440762642E+03  0.96440762642E+03  0.25500000920E-02 0. -1.
    10030    2    1    2    0    0  0.00000000000E+00  0.00000000000E+00  0.69558639047E+03  0.26244016433E+04  0.25305421472E+04 0.  0.
        5    1    3    3  502    0 -0.11643102112E+04 -0.49398410019E+03  0.31112297573E+03  0.13024815374E+04  0.46999998093E+01 0. -1.
       -5    1    3    3    0  502  0.11643102112E+04  0.49398410019E+03  0.38446341474E+03  0.13219201059E+04  0.46999998093E+01 0.  1.
</event>
<event>
 5   0  0.9083687E-06  0.2417483E+04  0.7818609E-02  0.8432987E-01
       -1   -1    0    0    0  501  0.00000000000E+00  0.00000000000E+00  0.11465754909E+04  0.11465754909E+04  0.50400001928E-02 0.  1.
        1   -1    0    0  501    0  0.00000000000E+00  0.00000000000E+00 -0.12742778608E+04  0.12742778608E+04  0.50400001928E-02 0. -1.
    10030    2    1    2    0    0  0.00000000000E+00  0.00000000000E+00 -0.12770236992E+03  0.24208533517E+04  0.24174827932E+04 0.  0.
        2    1    3    3  502    0 -0.61953246065E+03 -0.74077718865E+03 -0.79183411722E+03  0.12488284839E+04  0.25500000920E-02 0. -1.
       -2    1    3    3    0  502  0.61953246065E+03  0.74077718865E+03  0.66413174730E+03  0.11720248678E+04  0.25500000920E-02 0.  1.
</event>
<event>
 5   0  0.8898848E-06  0.2390705E+04  0.7818609E-02  0.8442992E-01
        1   -1    0    0  501    0  0.00000000000E+00  0.00000000000E+00  0.16620410012E+04  0.16620410012E+04  0.50400001928E-02 0.  1.
       -1   -1    0    0    0  501  0.00000000000E+00  0.00000000000E+00 -0.85970685629E+03  0.85970685630E+03  0.50400001928E-02 0. -1.
    10030    2    1    2    0    0  0.00000000000E+00  0.00000000000E+00  0.80233414489E+03  0.25217478575E+04  0.23907053722E+04 0.  0.
        5    1    3    3  502    0  0.10050093091E+04  0.21419074350E+03  0.10453157223E+04  0.14658200556E+04  0.46999998093E+01 0.  1.
       -5    1    3    3    0  502 -0.10050093091E+04 -0.21419074350E+03 -0.24298157744E+03  0.10559278019E+04  0.46999998093E+01 0. -1.
</event>
<event>
 5   0  0.8898848E-06  0.2390283E+04  0.7818609E-02  0.8443150E-01
        1   -1    0    0  501    0  0.00000000000E+00  0.00000000000E+00  0.17722933321E+04  0.17722933321E+04  0.50400001928E-02 0. -1.
       -1   -1    0    0    0  501  0.00000000000E+00  0.00000000000E+00 -0.80594057326E+03  0.80594057327E+03  0.50400001928E-02 0.  1.
    10030    2    1    2    0    0  0.00000000000E+00  0.00000000000E+00  0.96635275883E+03  0.25782339054E+04  0.23902829155E+04 0.  0.
        5    1    3    3  502    0  0.11826898681E+04 -0.72051091726E+02  0.65164439352E+03  0.13522607698E+04  0.46999998093E+01 0. -1.
       -5    1    3    3    0  502 -0.11826898681E+04  0.72051091726E+02  0.31470836531E+03  0.12259731356E+04  0.46999998093E+01 0.  1.
</event>
<event>
 5   0  0.2087882E-05  0.2306423E+04  0.7818609E-02  0.8475393E-01
        2   -1    0    0  501    0  0.00000000000E+00  0.00000000000E+00  0.18761220601E+04  0.18761220601E+04  0.25500000920E-02 0. -1.
       -2   -1    0    0    0  501  0.00000000000E+00  0.00000000000E+00 -0.70885379681E+03  0.70885379682E+03  0.25500000920E-02 0.  1.
    10030    2    1    2    0    0  0.00000000000E+00  0.00000000000E+00  0.11672682633E+04  0.25849758570E+04  0.23064225507E+04 0.  0.
        2    1    3    3  502    0 -0.94658474630E+03 -0.13039334785E+02 -0.15446398776E+03  0.95919332238E+03  0.25500000920E-02 0.  1.
       -2    1    3    3    0  502  0.94658474630E+03  0.13039334785E+02  0.13217322511E+04  0.16257825346E+04  0.25500000920E-02 0. -1.
</event>
<event>
 5   0  0.2087882E-05  0.2402721E+04  0.7818609E-02  0.8438486E-01
       -2   -1    0    0    0  501  0.00000000000E+00  0.00000000000E+00  0.82632858779E+03  0.82632858779E+03  0.25500000920E-02 0.  1.
        2   -1    0    0  501    0  0.00000000000E+00  0.00000000000E+00 -0.17466020442E+04  0.17466020442E+04  0.25500000920E-02 0. -1.
    10030    2    1    2    0    0  0.00000000000E+00  0.00000000000E+00 -0.92027345645E+03  0.25729306320E+04  0.24027211246E+04 0.  0.
        2    1    3    3  502    0 -0.10368793999E+04 -0.60504560450E+03 -0.41143848117E+03  0.12690471612E+04  0.25500000920E-02 0. -1.
       -2    1    3    3    0  502  0.10368793999E+04  0.60504560450E+03 -0.50883497528E+03  0.13038834709E+04  0.25500000920E-02 0.  1.
</event>
<event>
 5   0  0.2122194E-05  0.2416087E+04  0.7818609E-02  0.8433505E-01
        2   -1    0    0  501    0  0.00000000000E+00  0.00000000000E+00  0.20653011509E+04  0.20653011509E+04  0.25500000920E-02 0. -1.
       -2   -1    0    0    0  501  0.00000000000E+00  0.00000000000E+00 -0.70661309406E+03  0.70661309407E+03  0.25500000920E-02 0.  1.
    10030    2    1    2    0    0  0.00000000000E+00  0.00000000000E+00  0.13586880569E+04  0.27719142450E+04  0.24160867836E+04 0.  0.
        3    1    3    3  502    0  0.24594827716E+03 -0.11375490870E+04  0.30783197956E+03  0.12038558960E+04  0.10100000352E+00 0.  1.
       -3    1    3    3    0  502 -0.24594827716E+03  0.11375490870E+04  0.10508560773E+04  0.15680583490E+04  0.10100000352E+00 0. -1.
</event>
<event>
 5   0  0.2025353E-05  0.2390267E+04  0.7818609E-02  0.8443156E-01
       -2   -1    0    0    0  501  0.00000000000E+00  0.00000000000E+00  0.98098603726E+03  0.98098603726E+03  0.25500000920E-02 0.  1.
        2   -1    0    0  501    0  0.00000000000E+00  0.00000000000E+00 -0.14560290532E+04  0.14560290532E+04  0.25500000920E-02 0. -1.
    10030    2    1    2    0    0  0.00000000000E+00  0.00000000000E+00 -0.47504301596E+03  0.24370150905E+04  0.23902670738E+04 0.  0.
        4    1    3    3  502    0  0.77451388900E+03 -0.46753432812E+03  0.55870174395E+03  0.10633011633E+04  0.12699999809E+01 0. -1.
       -4    1    3    3    0  502 -0.77451388900E+03  0.46753432812E+03 -0.10337447599E+04  0.13737139272E+04  0.12699999809E+01 0.  1.
</event>
<event>
 5   0  0.9038897E-06  0.2401799E+04  0.7818609E-02  0.8438830E-01
        1   -1    0    0  501    0  0.00000000000E+00  0.00000000000E+00  0.85385654703E+03  0.85385654705E+03  0.50400001928E-02 0. -1.
       -1   -1    0    0    0  501  0.00000000000E+00  0.00000000000E+00 -0.16889947590E+04  0.16889947590E+04  0.50400001928E-02 0.  1.
    10030    2    1    2    0    0  0.00000000000E+00  0.00000000000E+00 -0.83513821193E+03  0.25428513060E+04  0.24017986867E+04 0.  0.
        1    1    3    3  502    0  0.58200947849E+03 -0.95444271310E+03 -0.88203981851E+03  0.14239698617E+04  0.50400001928E-02 0.  1.
       -1    1    3    3    0  502 -0.58200947849E+03  0.95444271310E+03  0.46901606578E+02  0.11188814443E+04  0.50400001928E-02 0. -1.
</event>
<event>
 5   0  0.2025353E-05  0.2429209E+04  0.7818609E-02  0.8428649E-01
        2   -1    0    0  501    0  0.00000000000E+00  0.00000000000E+00  0.18595920631E+04  0.18595920631E+04  0.25500000920E-02 0. -1.
       -2   -1    0    0    0  501  0.00000000000E+00  0.00000000000E+00 -0.79332646078E+03  0.79332646078E+03  0.25500000920E-02 0.  1.
    10030    2    1    2    0    0  0.00000000000E+00  0.00000000000E+00  0.10662656023E+04  0.26529185239E+04  0.24292085871E+04 0.  0.
        4    1    3    3  502    0 -0.13568037744E+03 -0.11722982546E+04  0.21932102814E+03  0.12003314913E+04  0.12699999809E+01 0.  1.
       -4    1    3    3    0  502  0.13568037744E+03  0.11722982546E+04  0.84694457420E+03  0.14525870326E+04  0.12699999809E+01 0. -1.
</event>
<event>
 5   0  0.8528103E-06  0.2370313E+04  0.7818609E-02  0.8450702E-01
       -1   -1    0    0    0  501  0.00000000000E+00  0.00000000000E+00  0.74511679606E+03  0.74511679608E+03  0.50400001928E-02 0. -1.
        1   -1    0    0  501    0  0.00000000000E+00  0.00000000000E+00 -0.18850677658E+04  0.18850677658E+04  0.50400001928E-02 0.  1.
    10030    2    1    2    0    0  0.00000000000E+00  0.00000000000E+00 -0.11399509698E+04  0.26301845619E+04  0.23703127676E+04 0.  0.
        4    1    3    3  502    0 -0.50343337263E+03 -0.80333378080E+03  0.21919634938E+03  0.97305651251E+03  0.12699999809E+01 0. -1.
       -4    1    3    3    0  502  0.50343337263E+03  0.80333378080E+03 -0.13591473192E+04  0.16571280494E+04  0.12699999809E+01 0.  1.
</event>
<event>
 5   0  0.2080257E-05  0.2395697E+04  0.7818609E-02  0.8441116E-01
       -2   -1    0    0    0  501  0.00000000000E+00  0.00000000000E+00  0.76253843705E+03  0.76253843706E+03  0.25500000920E-02 0.  1.
        2   -1    0    0  501    0  0.00000000000E+00  0.00000000000E+00 -0.18816636937E+04  0.18816636937E+04  0.25500000920E-02 0. -1.
    10030    2    1    2    0    0  0.00000000000E+00  0.00000000000E+00 -0.11191252567E+04  0.26442021308E+04  0.23956968857E+04 0.  0.
        1    1    3    3  502    0  0.50243275709E+03  0.37066232569E+03 -0.16878594117E+04  0.17996384717E+04  0.50400001928E-02 0. -1.
       -1    1    3    3    0  502 -0.50243275709E+03 -0.37066232569E+03  0.56873415505E+03  0.84456365908E+03  0.50400001928E-02 0.  1.
</event>
<event>
 5   0  0.9176817E-06  0.2420616E+04  0.7818609E-02  0.8431825E-01
        1   -1    0    0  501    0  0.00000000000E+00  0.00000000000E+00  0.21472131615E+04  0.21472131615E+04  0.50400001928E-02 0.  1.
       -1   -1    0    0    0  501  0.00000000000E+00  0.00000000000E+00 -0.68220789826E+03  0.68220789828E+03  0.50400001928E-02 0. -1.
    10030    2    1    2    0    0  0.00000000000E+00  0.00000000000E+00  0.14650052632E+04  0.28294210598E+04  0.24206162670E+04 0.  0.
        3    1    3    3  502    0  0.69062163891E+03  0.92573894566E+03  0.11553981057E+04  0.16336754991E+04  0.10100000352E+00 0. -1.
       -3    1    3    3    0  502 -0.69062163891E+03 -0.92573894566E+03  0.30960715755E+03  0.11957455607E+04  0.10100000352E+00 0.  1.
</event>
<event>
 5   0  0.2122194E-05  0.2344718E+04  0.7818609E-02  0.8460495E-01
        2   -1    0    0  501    0  0.00000000000E+00  0.00000000000E+00  0.13098607887E+04  0.13098607887E+04  0.25500000920E-02 0. -1.
       -2   -1    0    0    0  501  0.00000000000E+00  0.00000000000E+00 -0.10492914603E+04  0.10492914603E+04  0.25500000920E-02 0.  1.
    10030    2    1    2    0    0  0.00000000000E+00  0.00000000000E+00  0.26056932840E+03  0.23591522491E+04  0.23447180981E+04 0.  0.
        3    1    3    3  502    0  0.93133821193E+03  0.13801709965E+03  0.83314507066E+03  0.12572073432E+04  0.10100000352E+00 0. -1.
       -3    1    3    3    0  502 -0.93133821193E+03 -0.13801709965E+03 -0.57257574226E+03  0.11019449059E+04  0.10100000352E+00 0.  1.
</event>
<event>
 5   0  0.8898848E-06  0.2415081E+04  0.7818609E-02  0.8433879E-01
        1   -1    0    0  501    0  0.00000000000E+00  0.00000000000E+00  0.11521871169E+04  0.11521871169E+04  0.50400001928E-02 0.  1.
       -1   -1    0    0    0  501  0.00000000000E+00  0.00000000000E+00 -0.12655532893E+04  0.12655532894E+04  0.50400001928E-02 0. -1.
    10030    2    1    2    0    0  0.00000000000E+00  0.00000000000E+00 -0.11336617243E+03  0.24177404063E+04  0.24150811131E+04 0.  0.
        5    1    3    3  502    0  0.78153179834E+03  0.24855492913E+03  0.83061142293E+03  0.11672655784E+04  0.46999998093E+01 0.  1.
       -5    1    3    3    0  502 -0.78153179834E+03 -0.24855492913E+03 -0.94397759536E+03  0.12504748279E+04  0.46999998093E+01 0. -1.
</event>
<event>
 5   0  0.2080257E-05  0.2406847E+04  0.7818609E-02  0.8436945E-01
        2   -1    0    0  501    0  0.00000000000E+00  0.00000000000E+00  0.17322324042E+04  0.17322324042E+04  0.25500000920E-02 0. -1.
       -2   -1    0    0    0  501  0.00000000000E+00  0.00000000000E+00 -0.83604709840E+03  0.83604709840E+03  0.25500000920E-02 0.  1.
    10030    2    1    2    0    0  0.00000000000E+00  0.00000000000E+00  0.89618530577E+03  0.25682795026E+04  0.24068467963E+04 0.  0.
        1    1    3    3  502    0  0.52371812338E+03  0.10804444036E+04  0.53469720917E+03  0.13143598775E+04  0.50400001928E-02 0. -1.
       -1    1    3    3    0  502 -0.52371812338E+03 -0.10804444036E+04  0.36148809661E+03  0.12539196251E+04  0.50400001928E-02 0.  1.
</event>
<event>
 5   0  0.2122194E-05  0.2393626E+04  0.7818609E-02  0.8441894E-01
       -2   -1    0    0    0  501  0.00000000000E+00  0.00000000000E+00  0.70736591850E+03  0.70736591850E+03  0.25500000920E-02 0.  1.
        2   -1    0    0  501    0  0.00000000000E+00  0.00000000000E+00 -0.20249219834E+04  0.20249219834E+04  0.25500000920E-02 0. -1.
    10030    2    1    2    0    0  0.00000000000E+00  0.00000000000E+00 -0.13175560649E+04  0.27322879019E+04  0.23936255335E+04 0.  0.
        3    1    3    3  502    0 -0.82086714026E+03 -0.32583834227E+03 -0.15807470830E+04  0.18107332321E+04  0.10100000352E+00 0. -1.
       -3    1    3    3    0  502  0.82086714026E+03  0.32583834227E+03  0.26319101808E+03  0.92155466981E+03  0.10100000352E+00 0.  1.
</event>
<event>
 5   0  0.8898848E-06  0.2408165E+04  0.7818609E-02  0.8436453E-01
       -1   -1    0    0    0  501  0.00000000000E+00  0.00000000000E+00  0.10244045278E+04  0.10244045278E+04  0.50400001928E-02 0.  1.
        1   -1    0    0  501    0  0.00000000000E+00  0.00000000000E+00 -0.14152751454E+04  0.14152751454E+04  0.50400001928E-02 0. -1.
    10030    2    1    2    0    0  0.00000000000E+00  0.00000000000E+00 -0.39087061756E+03  0.24396796732E+04  0.24081646680E+04 0.  0.
        5    1    3    3  502    0 -0.75371719509E+03 -0.88056940234E+03 -0.52573901968E+03  0.12727590853E+04  0.46999998093E+01 0. -1.
       -5    1    3    3    0  502  0.75371719509E+03  0.88056940234E+03  0.13486840212E+03  0.11669205879E+04  0.46999998093E+01 0.  1.
</event>
<event>
 5   0  0.8528103E-06  0.2398606E+04  0.7818609E-02  0.8440026E-01
       -1   -1    0    0    0  501  0.00000000000E+00  0.00000000000E+00  0.28133136805E+04  0.28133136805E+04  0.50400001928E-02 0. -1.
        1   -1    0    0  501    0  0.00000000000E+00  0.00000000000E+00 -0.51125762290E+03  0.51125762292E+03  0.50400001928E-02 0.  1.
    10030    2    1    2    0    0  0.00000000000E+00  0.00000000000E+00  0.23020560576E+04  0.33245713034E+04  0.23986063160E+04 0.  0.
        4    1    3    3  502    0  0.48531048661E+03  0.22742590618E+03  0.26380897275E+04  0.26919821386E+04  0.12699999809E+01 0. -1.
       -4    1    3    3    0  502 -0.48531048661E+03 -0.22742590618E+03 -0.33603366993E+03  0.63258916481E+03  0.12699999809E+01 0.  1.
</event>
<event>
 5   0  0.9083687E-06  0.2251727E+04  0.7818609E-02  0.8497201E-01
        1   -1    0    0  501    0  0.00000000000E+00  0.00000000000E+00  0.10975337284E+04  0.10975337284E+04  0.50400001928E-02 0.  1.
       -1   -1    0    0    0  501  0.00000000000E+00  0.00000000000E+00 -0.11549243608E+04  0.11549243608E+04  0.50400001928E-02 0. -1.
    10030    2    1    2    0    0  0.00000000000E+00  0.00000000000E+00 -0.57390632383E+02  0.22524580892E+04  0.22517268393E+04 0.  0.
        2    1    3    3  502    0  0.22534601156E+03 -0.83757235712E+03  0.68935404001E+03  0.11079337845E+04  0.25500000920E-02 0.  1.
       -2    1    3    3    0  502 -0.22534601156E+03  0.83757235712E+03 -0.74674467239E+03  0.11445243047E+04  0.25500000920E-02 0. -1.
</event>
<event>
 5   0  0.2025353E-05  0.2407287E+04  0.7818609E-02  0.8436780E-01
       -2   -1    0    0    0  501  0.00000000000E+00  0.00000000000E+00  0.81974964475E+03  0.81974964476E+03  0.25500000920E-02 0.  1.
        2   -1    0    0  501    0  0.00000000000E+00  0.00000000000E+00 -0.17673178810E+04  0.17673178810E+04  0.25500000920E-02 0. -1.
    10030    2    1    2    0    0  0.00000000000E+00  0.00000000000E+00 -0.94756823629E+03  0.25870675258E+04  0.24072874404E+04 0.  0.
        4    1    3    3  502    0  0.43442954234E+03  0.88487599985E+03  0.26846387595E+03  0.10216697255E+04  0.12699999809E+01 0.  1.
       -4    1    3    3    0  502 -0.43442954234E+03 -0.88487599985E+03 -0.12160321122E+04  0.15653978003E+04  0.12699999809E+01 0. -1.
</event>
<event>
 5   0  0.2080257E-05  0.2403075E+04  0.7818609E-02  0.8438353E-01
       -2   -1    0    0    0  501  0.00000000000E+00  0.00000000000E+00  0.10587299374E+04  0.10587299374E+04  0.25500000920E-02 0.  1.
        2   -1    0    0  501    0  0.00000000000E+00  0.00000000000E+00 -0.13636077638E+04  0.13636077638E+04  0.25500000920E-02 0. -1.
    10030    2    1    2    0    0  0.00000000000E+00  0.00000000000E+00 -0.30487782647E+03  0.24223377012E+04  0.24030749987E+04 0.  0.
        1    1    3    3  502    0  0.78258573816E+03  0.47198358685E+03  0.63386735442E+03  0.11122035636E+04  0.50400001928E-02 0.  1.
       -1    1    3    3    0  502 -0.78258573816E+03 -0.47198358685E+03 -0.93874518089E+03  0.13101341376E+04  0.50400001928E-02 0. -1.
</event>
<event>
 5   0  0.9038897E-06  0.2622825E+04  0.7818609E-02  0.8360489E-01
       -1   -1    0    0    0  501  0.00000000000E+00  0.00000000000E+00  0.12109952030E+04  0.12109952031E+04  0.50400001928E-02 0.  1.
        1   -1    0    0  501    0  0.00000000000E+00  0.00000000000E+00 -0.14201568416E+04  0.14201568416E+04  0.50400001928E-02 0. -1.
    10030    2    1    2    0    0  0.00000000000E+00  0.00000000000E+00 -0.20916163858E+03  0.26311520447E+04  0.26228252880E+04 0.  0.
        1    1    3    3  502    0  0.38566192054E+03 -0.79718286561E+03  0.86573730307E+03  0.12384412445E+04  0.50400001928E-02 0.  1.
       -1    1    3    3    0  502 -0.38566192054E+03  0.79718286561E+03 -0.10748989416E+04  0.13927108002E+04  0.50400001928E-02 0. -1.
</event>
<event>
 5   0  0.2048028E-05  0.2391649E+04  0.7818609E-02  0.8442637E-01
       -2   -1    0    0    0  501  0.00000000000E+00  0.00000000000E+00  0.22626360864E+04  0.22626360864E+04  0.25500000920E-02 0. -1.
        2   -1    0    0  501    0  0.00000000000E+00  0.00000000000E+00 -0.63200461860E+03  0.63200461860E+03  0.25500000920E-02 0.  1.
    10030    2    1    2    0    0  0.00000000000E+00  0.00000000000E+00  0.16306314678E+04  0.28946407050E+04  0.23916491856E+04 0.  0.
        5    1    3    3  502    0  0.64383101013E+02 -0.76112975053E+03  0.19288751920E+04  0.20746193090E+04  0.46999998093E+01 0. -1.
       -5    1    3    3    0  502 -0.64383101013E+02  0.76112975053E+03 -0.29824372424E+03  0.82002139599E+03  0.46999998093E+01 0.  1.
</event>
<event>
 5   0  0.8528103E-06  0.2411690E+04  0.7818609E-02  0.8435140E-01
        1   -1    0    0  501    0  0.00000000000E+00  0.00000000000E+00  0.83144217797E+03  0.83144217799E+03  0.50400001928E-02 0.  1.
       -1   -1    0    0    0  501  0.00000000000E+00  0.00000000000E+00 -0.17488433620E+04  0.17488433621E+04  0.50400001928E-02 0. -1.
    10030    2    1    2    0    0  0.00000000000E+00  0.00000000000E+00 -0.91740118407E+03  0.25802855400E+04  0.24116899750E+04 0.  0.
        4    1    3    3  502    0 -0.22579733380E+03 -0.49970740329E+03 -0.16077279035E+04  0.16986708185E+04  0.12699999809E+01 0. -1.
       -4    1    3    3    0  502  0.22579733380E+03  0.49970740329E+03  0.69032671944E+03  0.88161472159E+03  0.12699999809E+01 0.  1.
</event>
<event>
 5   0  0.9176817E-06  0.2410513E+04  0.7818609E-02  0.8435578E-01
       -1   -1    0    0    0  501  0.00000000000E+00  0.00000000000E+00  0.86655728443E+03  0.86655728445E+03  0.50400001928E-02 0. -1.
        1   -1    0    0  501    0  0.00000000000E+00  0.00000000000E+00 -0.16763386725E+04  0.16763386725E+04  0.50400001928E-02 0.  1.
    10030    2    1    2    0    0  0.00000000000E+00  0.00000000000E+00 -0.80978138810E+03  0.25428959570E+04  0.24105132133E+04 0.  0.
        3    1    3    3  502    0  0.41385654023E+03  0.31750236177E+03  0.74131570749E+03  0.90644027602E+03  0.10100000352E+00 0. -1.
       -3    1    3    3    0  502 -0.41385654023E+03 -0.31750236177E+03 -0.15510970956E+04  0.16364556810E+04  0.10100000352E+00 0.  1.
</event>
<event>
 5   0  0.9083687E-06  0.2396435E+04  0.7818609E-02  0.8440840E-01
       -1   -1    0    0    0  501  0.00000000000E+00  0.00000000000E+00  0.12869314875E+04  0.12869314875E+04  0.50400001928E-02 0. -1.
        1   -1    0    0  501    0  0.00000000000E+00  0.00000000000E+00 -0.11156188061E+04  0.11156188061E+04  0.50400001928E-02 0.  1.
    10030    2    1    2    0    0  0.00000000000E+00  0.00000000000E+00  0.17131268143E+03  0.24025502936E+04  0.23964348266E+04 0.  0.
        2    1    3    3  502    0  0.16067498547E+03  0.92761198049E+03 -0.65748050241E+03  0.11482861352E+04  0.25500000920E-02 0.  1.
       -2    1    3    3    0  502 -0.16067498547E+03 -0.92761198049E+03  0.82879318384E+03  0.12542641583E+04  0.25500000920E-02 0. -1.
</event>
<event>
 5   0  0.2025353E-05  0.2389351E+04  0.7818609E-02  0.8443501E-01
       -2   -1    0    0    0  501  0.00000000000E+00  0.00000000000E+00  0.13713864531E+04  0.13713864531E+04  0.25500000920E-02 0. -1.
        2   -1    0    0  501    0  0.00000000000E+00  0.00000000000E+00 -0.10407344907E+04  0.10407344907E+04  0.25500000920E-02 0.  1.
    10030    2    1    2    0    0  0.00000000000E+00  0.00000000000E+00  0.33065196239E+03  0.24121209438E+04  0.23893506915E+04 0.  0.
        4    1    3    3  502    0  0.65756670050E+03  0.31190135898E+03  0.11217569367E+04  0.13371674021E+04  0.12699999809E+01 0. -1.
       -4    1    3    3    0  502 -0.65756670050E+03 -0.31190135898E+03 -0.79110497433E+03  0.10749535416E+04  0.12699999809E+01 0.  1.
</event>
<event>
 5   0  0.9038897E-06  0.2401395E+04  0.7818609E-02  0.8438982E-01
       -1   -1    0    0    0  501  0.00000000000E+00  0.00000000000E+00  0.70710981116E+03  0.70710981118E+03  0.50400001928E-02 0. -1.
        1   -1    0    0  501    0  0.00000000000E+00  0.00000000000E+00 -0.20388264485E+04  0.20388264485E+04  0.50400001928E-02 0.  1.
    10030    2    1    2    0    0  0.00000000000E+00  0.00000000000E+00 -0.13317166374E+04  0.27459362597E+04  0.24013947489E+04 0.  0.
        1    1    3    3  502    0  0.10957779459E+04  0.31402072993E+03 -0.10972622111E+04  0.15821892066E+04  0.50400001928E-02 0.  1.
       -1    1    3    3    0  502 -0.10957779459E+04 -0.31402072993E+03 -0.23445442627E+03  0.11637470531E+04  0.50400001928E-02 0. -1.
</event>
<event>
 5   0  0.9176817E-06  0.2392551E+04  0.7818609E-02  0.8442298E-01
       -1   -1    0    0    0  501  0.00000000000E+00  0.00000000000E+00  0.15583783245E+04  0.15583783245E+04  0.50400001928E-02 0.  1.
        1   -1    0    0  501    0  0.00000000000E+00  0.00000000000E+00 -0.91831019179E+03  0.91831019181E+03  0.50400001928E-02 0. -1.
    10030    2    1    2    0    0  0.00000000000E+00  0.00000000000E+00  0.64006813267E+03  0.24766885163E+04  0.23925506875E+04 0.  0.
        3    1    3    3  502    0  0.88981784024E+03 -0.68237477206E+03 -0.11135050152E+03  0.11268584928E+04  0.10100000352E+00 0. -1.
       -3    1    3    3    0  502 -0.88981784024E+03  0.68237477206E+03  0.75141863418E+03  0.13498300235E+04  0.10100000352E+00 0.  1.
</event>
<event>
 5   0  0.2087882E-05  0.2666069E+04  0.7818609E-02  0.8346099E-01
        2   -1    0    0  501    0  0.00000000000E+00  0.00000000000E+00  0.11113431155E+04  0.11113431155E+04  0.25500000920E-02 0. -1.
       -2   -1    0    0    0  501  0.00000000000E+00  0.00000000000E+00 -0.15989490769E+04  0.15989490769E+04  0.25500000920E-02 0.  1.
    10030    2    1    2    0    0  0.00000000000E+00  0.00000000000E+00 -0.48760596145E+03  0.27102921924E+04  0.26660690529E+04 0.  0.
        2    1    3    3  502    0 -0.12715138264E+04 -0.38654520601E+03 -0.13807573377E+03  0.13361248128E+04  0.25500000920E-02 0.  1.
       -2    1    3    3    0  502  0.12715138264E+04  0.38654520601E+03 -0.34953022768E+03  0.13741673796E+04  0.25500000920E-02 0. -1.
</event>
<event>
 5   0  0.2025353E-05  0.2420162E+04  0.7818609E-02  0.8431993E-01
        2   -1    0    0  501    0  0.00000000000E+00  0.00000000000E+00  0.11754336799E+04  0.11754336799E+04  0.25500000920E-02 0.  1.
       -2   -1    0    0    0  501  0.00000000000E+00  0.00000000000E+00 -0.12457500634E+04  0.12457500634E+04  0.25500000920E-02 0. -1.
    10030    2    1    2    0    0  0.00000000000E+00  0.00000000000E+00 -0.70316383471E+02  0.24211837433E+04  0.24201624584E+04 0.  0.
        4    1    3    3  502    0  0.64168352437E+03 -0.92128596698E+03 -0.48675691143E+03  0.12237072698E+04  0.12699999809E+01 0. -1.
       -4    1    3    3    0  502 -0.64168352437E+03  0.92128596698E+03  0.41644052796E+03  0.11974764735E+04  0.12699999809E+01 0.  1.
</event>
<event>
 5   0  0.8898848E-06  0.2402894E+04  0.7818609E-02  0.8438421E-01
       -1   -1    0    0    0  501  0.00000000000E+00  0.00000000000E+00  0.11603980541E+04  0.11603980541E+04  0.50400001928E-02 0.  1.
        1   -1    0    0  501    0  0.00000000000E+00  0.00000000000E+00 -0.12439481105E+04  0.12439481105E+04  0.50400001928E-02 0. -1.
    10030    2    1    2    0    0  0.00000000000E+00  0.00000000000E+00 -0.83550056360E+02  0.24043461646E+04  0.24028940608E+04 0.  0.
        5    1    3    3  502    0  0.82282541478E+03 -0.62874757883E+03 -0.65131283555E+03  0.12233542745E+04  0.46999998093E+01 0. -1.
       -5    1    3    3    0  502 -0.82282541478E+03  0.62874757883E+03  0.56776277919E+03  0.11809918901E+04  0.46999998093E+01 0.  1.
</event>
<event>
 5   0  0.2025353E-05  0.2385882E+04  0.7818609E-02  0.8444808E-01
        2   -1    0    0  501    0  0.00000000000E+00  0.00000000000E+00  0.14146411113E+04  0.14146411113E+04  0.25500000920E-02 0. -1.
       -2   -1    0    0    0  501  0.00000000000E+00  0.00000000000E+00 -0.10059854749E+04  0.10059854750E+04  0.25500000920E-02 0.  1.
    10030    2    1    2    0    0  0.00000000000E+00  0.00000000000E+00  0.40865563638E+03  0.24206265863E+04  0.23858821515E+04 0.  0.
        4    1    3    3  502    0  0.10146999012E+04  0.51854073168E+03 -0.15380903674E+03  0.11498518221E+04  0.12699999809E+01 0. -1.
       -4    1    3    3    0  502 -0.10146999012E+04 -0.51854073168E+03  0.56246467312E+03  0.12707747642E+04  0.12699999809E+01 0.  1.
</event>
<event>
 5   0  0.9083687E-06  0.2398782E+04  0.7818609E-02  0.8439960E-01
        1   -1    0    0  501    0  0.00000000000E+00  0.00000000000E+00  0.17577832555E+04  0.17577832555E+04  0.50400001928E-02 0.  1.
       -1   -1    0    0    0  501  0.00000000000E+00  0.00000000000E+00 -0.81838237064E+03  0.81838237065E+03  0.50400001928E-02 0. -1.
    10030    2    1    2    0    0  0.00000000000E+00  0.00000000000E+00  0.93940088487E+03  0.25761656262E+04  0.23987820474E+04 0.  0.
        2    1    3    3  502    0 -0.91597596938E+03  0.57383523369E+03  0.10279877930E+04  0.14916627483E+04  0.25500000920E-02 0.  1.
       -2    1    3    3    0  502  0.91597596938E+03 -0.57383523369E+03 -0.88586908154E+02  0.10845028779E+04  0.25500000920E-02 0. -1.
</event>
<event>
 5   0  0.2048028E-05  0.2289392E+04  0.7818609E-02  0.8482116E-01
       -2   -1    0    0    0  501  0.00000000000E+00  0.00000000000E+00  0.22051545782E+04  0.22051545782E+04  0.25500000920E-02 0.  1.
        2   -1    0    0  501    0  0.00000000000E+00  0.00000000000E+00 -0.59421165345E+03  0.59421165345E+03  0.25500000920E-02 0. -1.
    10030    2    1    2    0    0  0.00000000000E+00  0.00000000000E+00  0.16109429248E+04  0.27993662317E+04  0.22893916642E+04 0.  0.
        5    1    3    3  502    0 -0.75826835417E+03 -0.76037274705E+03  0.12902270853E+04  0.16786439864E+04  0.46999998093E+01 0.  1.
       -5    1    3    3    0  502  0.75826835417E+03  0.76037274705E+03  0.32071583947E+03  0.11207222453E+04  0.46999998093E+01 0. -1.
</event>
<event>
 5   0  0.8528103E-06  0.2403251E+04  0.7818609E-02  0.8438287E-01
        1   -1    0    0  501    0  0.00000000000E+00  0.00000000000E+00  0.24471125751E+04  0.24471125751E+04  0.50400001928E-02 0. -1.
       -1   -1    0    0    0  501  0.00000000000E+00  0.00000000000E+00 -0.59004401717E+03  0.59004401720E+03  0.50400001928E-02 0.  1.
    10030    2    1    2    0    0  0.00000000000E+00  0.00000000000E+00  0.18570685579E+04  0.30371565923E+04  0.24032512431E+04 0.  0.
        4    1    3    3  502    0 -0.11824058204E+03  0.39051177129E+03 -0.49981771549E+03  0.64521286439E+03  0.12699999809E+01 0.  1.
       -4    1    3    3    0  502  0.11824058204E+03 -0.39051177129E+03  0.23568862734E+04  0.23919437279E+04  0.12699999809E+01 0. -1.
</event>
<event>
 5   0  0.2122194E-05  0.2406718E+04  0.7818609E-02  0.8436993E-01
        2   -1    0    0  501    0  0.00000000000E+00  0.00000000000E+00  0.12135590153E+04  0.12135590153E+04  0.25500000920E-02 0.  1.
       -2   -1    0    0    0  501  0.00000000000E+00  0.00000000000E+00 -0.11932446002E+04  0.11932446002E+04  0.25500000920E-02 0. -1.
    10030    2    1    2    0    0  0.00000000000E+00  0.00000000000E+00  0.20314415089E+02  0.24068036154E+04  0.24067178829E+04 0.  0.
        3    1    3    3  502    0  0.53349168355E+03 -0.35491000188E+03  0.10287700698E+04  0.12119993204E+04  0.10100000352E+00 0.  1.
       -3    1    3    3    0  502 -0.53349168355E+03  0.35491000188E+03 -0.10084556547E+04  0.11948042951E+04  0.10100000352E+00 0. -1.
</event>
<event>
 5   0  0.7233625E-06  0.2392832E+04  0.7818609E-02  0.8442192E-01
       -4   -1    0    0    0  501  0.00000000000E+00  0.00000000000E+00  0.77462427397E+03  0.77462531505E+03  0.12699999809E+01 0.  1.
        4   -1    0    0  501    0  0.00000000000E+00  0.00000000000E+00 -0.18478752742E+04  0.18478757106E+04  0.12699999809E+01 0. -1.
    10030    2    1    2    0    0  0.00000000000E+00  0.00000000000E+00 -0.10732510003E+04  0.26225010257E+04  0.23928317785E+04 0.  0.
        2    1    3    3  502    0 -0.83619040878E+03 -0.82223476927E+03 -0.79627514260E+03  0.14175113821E+04  0.25500000920E-02 0. -1.
       -2    1    3    3    0  502  0.83619040878E+03  0.82223476927E+03 -0.27697585765E+03  0.12049896436E+04  0.25500000920E-02 0.  1.
</event>
<event>
 5   0  0.2087882E-05  0.2362961E+04  0.7818609E-02  0.8453502E-01
       -2   -1    0    0    0  501  0.00000000000E+00  0.00000000000E+00  0.10151409444E+04  0.10151409444E+04  0.25500000920E-02 0. -1.
        2   -1    0    0  501    0  0.00000000000E+00  0.00000000000E+00 -0.13750767171E+04  0.13750767171E+04  0.25500000920E-02 0.  1.
    10030    2    1    2    0    0  0.00000000000E+00  0.00000000000E+00 -0.35993577270E+03  0.23902176615E+04  0.23629614277E+04 0.  0.
        2    1    3    3  502    0 -0.11144411904E+04  0.34311012350E+03  0.12470998151E+02  0.11661300311E+04  0.25500000920E-02 0.  1.
       -2    1    3    3    0  502  0.11144411904E+04 -0.34311012350E+03 -0.37240677085E+03  0.12240876303E+04  0.25500000920E-02 0. -1.
</event>
<event>
 5   0  0.7233625E-06  0.2412664E+04  0.7818609E-02  0.8434778E-01
       -3   -1    0    0    0  501  0.00000000000E+00  0.00000000000E+00  0.15506607195E+04  0.15506607228E+04  0.10100000352E+00 0.  1.
        3   -1    0    0  501    0  0.00000000000E+00  0.00000000000E+00 -0.93846251057E+03  0.93846251600E+03  0.10100000352E+00 0. -1.
    10030    2    1    2    0    0  0.00000000000E+00  0.00000000000E+00  0.61219820897E+03  0.24891232388E+04  0.24126640568E+04 0.  0.
        4    1    3    3  502    0  0.22191555339E+03 -0.18892430767E+03  0.15137928312E+04  0.15415930902E+04  0.12699999809E+01 0.  1.
       -4    1    3    3    0  502 -0.22191555339E+03  0.18892430767E+03 -0.90159462225E+03  0.94753014867E+03  0.12699999809E+01 0. -1.
</event>
<event>
 5   0  0.2025353E-05  0.2396456E+04  0.7818609E-02  0.8440832E-01
        2   -1    0    0  501    0  0.00000000000E+00  0.00000000000E+00  0.18669278607E+04  0.18669278607E+04  0.25500000920E-02 0. -1.
       -2   -1    0    0    0  501  0.00000000000E+00  0.00000000000E+00 -0.76904415788E+03  0.76904415789E+03  0.25500000920E-02 0.  1.
    10030    2    1    2    0    0  0.00000000000E+00  0.00000000000E+00  0.10978837028E+04  0.26359720186E+04  0.23964556866E+04 0.  0.
        4    1    3    3  502    0  0.10203038003E+03  0.62993785201E+03 -0.56657726049E+03  0.85337172489E+03  0.12699999809E+01 0.  1.
       -4    1    3    3    0  502 -0.10203038003E+03 -0.62993785201E+03  0.16644609633E+04  0.17826002937E+04  0.12699999809E+01 0. -1.
</event>
<event>
 5   0  0.2048028E-05  0.2416006E+04  0.7818609E-02  0.8433535E-01
       -2   -1    0    0    0  501  0.00000000000E+00  0.00000000000E+00  0.14185483381E+04  0.14185483381E+04  0.25500000920E-02 0. -1.
        2   -1    0    0  501    0  0.00000000000E+00  0.00000000000E+00 -0.10287076813E+04  0.10287076813E+04  0.25500000920E-02 0.  1.
    10030    2    1    2    0    0  0.00000000000E+00  0.00000000000E+00  0.38984065681E+03  0.24472560195E+04  0.24160062680E+04 0.  0.
        5    1    3    3  502    0  0.54435438366E+03  0.10776326525E+04  0.23588664657E+03  0.12301538232E+04  0.46999998093E+01 0. -1.
       -5    1    3    3    0  502 -0.54435438366E+03 -0.10776326525E+04  0.15395401023E+03  0.12171021962E+04  0.46999998093E+01 0.  1.
</event>
<event>
 5   0  0.8528103E-06  0.2399452E+04  0.7818609E-02  0.8439709E-01
        1   -1    0    0  501    0  0.00000000000E+00  0.00000000000E+00  0.13583236001E+04  0.13583236001E+04  0.50400001928E-02 0. -1.
       -1   -1    0    0    0  501  0.00000000000E+00  0.00000000000E+00 -0.10596464314E+04  0.10596464314E+04  0.50400001928E-02 0.  1.
    10030    2    1    2    0    0  0.00000000000E+00  0.00000000000E+00  0.29867716874E+03  0.24179700315E+04  0.23994522338E+04 0.  0.
        4    1    3    3  502    0 -0.72940312158E+03  0.57249997055E+03  0.91649957798E+03  0.13037477591E+04  0.12699999809E+01 0. -1.
       -4    1    3    3    0  502  0.72940312158E+03 -0.57249997055E+03 -0.61782240924E+03  0.11142222724E+04  0.12699999809E+01 0.  1.
</event>
<event>
 5   0  0.7233625E-06  0.2372178E+04  0.7818609E-02  0.8449994E-01
        4   -1    0    0  501    0  0.00000000000E+00  0.00000000000E+00  0.71667395842E+03  0.71667508369E+03  0.12699999809E+01 0.  1.
       -4   -1    0    0    0  501  0.00000000000E+00  0.00000000000E+00 -0.19629634696E+04  0.19629638805E+04  0.12699999809E+01 0. -1.
    10030    2    1    2    0    0  0.00000000000E+00  0.00000000000E+00 -0.12462895112E+04  0.26796389642E+04  0.23721777826E+04 0.  0.
        5    1    3    3  502    0  0.87714421771E+03  0.25477843283E+02 -0.15245389947E+04  0.17590543867E+04  0.46999998093E+01 0. -1.
       -5    1    3    3    0  502 -0.87714421771E+03 -0.25477843283E+02  0.27824948346E+03  0.92058457744E+03  0.46999998093E+01 0.  1.
</event>
<event>
 5   0  0.2048028E-05  0.2367449E+04  0.7818609E-02  0.8451792E-01
       -2   -1    0    0    0  501  0.00000000000E+00  0.00000000000E+00  0.89019804752E+03  0.89019804752E+03  0.25500000920E-02 0. -1.
        2   -1    0    0  501    0  0.00000000000E+00  0.00000000000E+00 -0.15740361659E+04  0.15740361659E+04  0.25500000920E-02 0.  1.
    10030    2    1    2    0    0  0.00000000000E+00  0.00000000000E+00 -0.68383811838E+03  0.24642342134E+04  0.23674491941E+04 0.  0.
        5    1    3    3  502    0  0.11047588275E+04  0.28925001681E+03 -0.66614020298E+03  0.13220902009E+04  0.46999998093E+01 0. -1.
       -5    1    3    3    0  502 -0.11047588275E+04 -0.28925001681E+03 -0.17697915391E+02  0.11421440126E+04  0.46999998093E+01 0.  1.
</event>
<event>
 5   0  0.9176817E-06  0.2383420E+04  0.7818609E-02  0.8445737E-01
        1   -1    0    0  501    0  0.00000000000E+00  0.00000000000E+00  0.13986153650E+04  0.13986153650E+04  0.50400001928E-02 0. -1.
       -1   -1    0    0    0  501  0.00000000000E+00  0.00000000000E+00 -0.10154132219E+04  0.10154132219E+04  0.50400001928E-02 0.  1.
    10030    2    1    2    0    0  0.00000000000E+00  0.00000000000E+00  0.38320214311E+03  0.24140285868E+04  0.23834198404E+04 0.  0.
        3    1    3    3  502    0  0.55740380739E+03 -0.71066315324E+03  0.97903725646E+03  0.13320116672E+04  0.10100000352E+00 0. -1.
       -3    1    3    3    0  502 -0.55740380739E+03  0.71066315324E+03 -0.59583511335E+03  0.10820169196E+04  0.10100000352E+00 0.  1.
</event>
<event>
 5   0  0.2080257E-05  0.2384097E+04  0.7818609E-02  0.8445481E-01
       -2   -1    0    0    0  501  0.00000000000E+00  0.00000000000E+00  0.16253927169E+04  0.16253927169E+04  0.25500000920E-02 0. -1.
        2   -1    0    0  501    0  0.00000000000E+00  0.00000000000E+00 -0.87423807528E+03  0.87423807528E+03  0.25500000920E-02 0.  1.
    10030    2    1    2    0    0  0.00000000000E+00  0.00000000000E+00  0.75115464165E+03  0.24996307922E+04  0.23840974816E+04 0.  0.
        1    1    3    3  502    0  0.10686290637E+04  0.52210179239E+03  0.29155751002E+03  0.12245669190E+04  0.50400001928E-02 0.  1.
       -1    1    3    3    0  502 -0.10686290637E+04 -0.52210179239E+03  0.45959713163E+03  0.12750638732E+04  0.50400001928E-02 0. -1.
</event>
<event>
 5   0  0.9038897E-06  0.2396382E+04  0.7818609E-02  0.8440859E-01
        1   -1    0    0  501    0  0.00000000000E+00  0.00000000000E+00  0.82808071371E+03  0.82808071373E+03  0.50400001928E-02 0.  1.
       -1   -1    0    0    0  501  0.00000000000E+00  0.00000000000E+00 -0.17337222886E+04  0.17337222886E+04  0.50400001928E-02 0. -1.
    10030    2    1    2    0    0  0.00000000000E+00  0.00000000000E+00 -0.90564157492E+03  0.25618030024E+04  0.23963822652E+04 0.  0.
        1    1    3    3  502    0  0.69635291901E+03  0.66674280936E+03  0.30777585726E+03  0.10120174603E+04  0.50400001928E-02 0.  1.
       -1    1    3    3    0  502 -0.69635291901E+03 -0.66674280936E+03 -0.12134174322E+04  0.15497855421E+04  0.50400001928E-02 0. -1.
</event>
<event>
 5   0  0.2080257E-05  0.2374376E+04  0.7818609E-02  0.8449159E-01
        2   -1    0    0  501    0  0.00000000000E+00  0.00000000000E+00  0.24319463047E+04  0.24319463047E+04  0.25500000920E-02 0. -1.
       -2   -1    0    0    0  501  0.00000000000E+00  0.00000000000E+00 -0.57954226089E+03  0.57954226090E+03  0.25500000920E-02 0.  1.
    10030    2    1    2    0    0  0.00000000000E+00  0.00000000000E+00  0.18524040438E+04  0.30114885656E+04  0.23743762632E+04 0.  0.
        1    1    3    3  502    0 -0.44121435912E+03 -0.30040214111E+02  0.23235769916E+04  0.23652869934E+04  0.50400001928E-02 0. -1.
       -1    1    3    3    0  502  0.44121435912E+03  0.30040214111E+02 -0.47117294780E+03  0.64620157221E+03  0.50400001928E-02 0.  1.
</event>
<event>
 5   0  0.2080257E-05  0.2435602E+04  0.7818609E-02  0.8426294E-01
        2   -1    0    0  501    0  0.00000000000E+00  0.00000000000E+00  0.10438322678E+04  0.10438322678E+04  0.25500000920E-02 0.  1.
       -2   -1    0    0    0  501  0.00000000000E+00  0.00000000000E+00 -0.14207645311E+04  0.14207645311E+04  0.25500000920E-02 0. -1.
    10030    2    1    2    0    0  0.00000000000E+00  0.00000000000E+00 -0.37693226331E+03  0.24645967990E+04  0.24356024820E+04 0.  0.
        1    1    3    3  502    0 -0.42343037326E+03  0.95224368695E+03 -0.82602895979E+03  0.13298064381E+04  0.50400001928E-02 0. -1.
       -1    1    3    3    0  502  0.42343037326E+03 -0.95224368695E+03  0.44909669648E+03  0.11347903609E+04  0.50400001928E-02 0.  1.
</event>
<event>
 5   0  0.2048028E-05  0.2420603E+04  0.7818609E-02  0.8431830E-01
       -2   -1    0    0    0  501  0.00000000000E+00  0.00000000000E+00  0.84661838803E+03  0.84661838803E+03  0.25500000920E-02 0.  1.
        2   -1    0    0  501    0  0.00000000000E+00  0.00000000000E+00 -0.17302122706E+04  0.17302122706E+04  0.25500000920E-02 0. -1.
    10030    2    1    2    0    0  0.00000000000E+00  0.00000000000E+00 -0.88359388256E+03  0.25768306586E+04  0.24206028369E+04 0.  0.
        5    1    3    3  502    0  0.66273609983E+03  0.70365210523E+03  0.33353822870E+03  0.10225533058E+04  0.46999998093E+01 0.  1.
       -5    1    3    3    0  502 -0.66273609983E+03 -0.70365210523E+03 -0.12171321113E+04  0.15542773528E+04  0.46999998093E+01 0. -1.
</event>
<event>
 5   0  0.2122194E-05  0.2394753E+04  0.7818609E-02  0.8441471E-01
       -2   -1    0    0    0  501  0.00000000000E+00  0.00000000000E+00  0.10882298046E+04  0.10882298046E+04  0.25500000920E-02 0.  1.
        2   -1    0    0  501    0  0.00000000000E+00  0.00000000000E+00 -0.13174701110E+04  0.13174701110E+04  0.25500000920E-02 0. -1.
    10030    2    1    2    0    0  0.00000000000E+00  0.00000000000E+00 -0.22924030641E+03  0.24056999157E+04  0.23947527986E+04 0.  0.
        3    1    3    3  502    0  0.70437024658E+03  0.83907789261E+03 -0.60006937161E+03  0.12491086482E+04  0.10100000352E+00 0. -1.
       -3    1    3    3    0  502 -0.70437024658E+03 -0.83907789261E+03  0.37082906520E+03  0.11565912674E+04  0.10100000352E+00 0.  1.
</event>
<event>
 5   0  0.9083687E-06  0.2404947E+04  0.7818609E-02  0.8437654E-01
       -1   -1    0    0    0  501  0.00000000000E+00  0.00000000000E+00  0.13662915075E+04  0.13662915075E+04  0.50400001928E-02 0.  1.
        1   -1    0    0  501    0  0.00000000000E+00  0.00000000000E+00 -0.10582976349E+04  0.10582976349E+04  0.50400001928E-02 0. -1.
    10030    2    1    2    0    0  0.00000000000E+00  0.00000000000E+00  0.30799387261E+03  0.24245891424E+04  0.24049474597E+04 0.  0.
        2    1    3    3  502    0 -0.42358816025E+02 -0.11181232245E+04  0.59799044723E+03  0.12686947581E+04  0.25500000920E-02 0.  1.
       -2    1    3    3    0  502  0.42358816025E+02  0.11181232245E+04 -0.28999657462E+03  0.11558943843E+04  0.25500000920E-02 0. -1.
</event>
<event>
 5   0  0.9176817E-06  0.2395399E+04  0.7818609E-02  0.8441228E-01
       -1   -1    0    0    0  501  0.00000000000E+00  0.00000000000E+00  0.14172904563E+04  0.14172904563E+04  0.50400001928E-02 0. -1.
        1   -1    0    0  501    0  0.00000000000E+00  0.00000000000E+00 -0.10121311009E+04  0.10121311009E+04  0.50400001928E-02 0.  1.
    10030    2    1    2    0    0  0.00000000000E+00  0.00000000000E+00  0.40515935544E+03  0.24294215572E+04  0.23953987141E+04 0.  0.
        3    1    3    3  502    0 -0.82842102677E+03  0.49794448357E+03 -0.51475230497E+03  0.10950799295E+04  0.10100000352E+00 0. -1.
       -3    1    3    3    0  502  0.82842102677E+03 -0.49794448357E+03  0.91991166041E+03  0.13343416277E+04  0.10100000352E+00 0.  1.
</event>
<event>
 5   0  0.7233625E-06  0.2410648E+04  0.7818609E-02  0.8435528E-01
       -3   -1    0    0    0  501  0.00000000000E+00  0.00000000000E+00  0.15543595740E+04  0.15543595773E+04  0.10100000352E+00 0.  1.
        3   -1    0    0  501    0  0.00000000000E+00  0.00000000000E+00 -0.93466521327E+03  0.93466521873E+03  0.10100000352E+00 0. -1.
    10030    2    1    2    0    0  0.00000000000E+00  0.00000000000E+00  0.61969436075E+03  0.24890247960E+04  0.24106479076E+04 0.  0.
        3    1    3    3  502    0  0.60200175915E+03 -0.88049841901E+03  0.88945597568E+03  0.13888180323E+04  0.10100000352E+00 0.  1.
       -3    1    3    3    0  502 -0.60200175915E+03  0.88049841901E+03 -0.26976161494E+03  0.11002067637E+04  0.10100000352E+00 0. -1.
</event>
<event>
 5   0  0.9083687E-06  0.2263668E+04  0.7818609E-02  0.8492386E-01
        1   -1    0    0  501    0  0.00000000000E+00  0.00000000000E+00  0.22025803465E+04  0.22025803465E+04  0.50400001928E-02 0.  1.
       -1   -1    0    0    0  501  0.00000000000E+00  0.00000000000E+00 -0.58161223574E+03  0.58161223577E+03  0.50400001928E-02 0. -1.
    10030    2    1    2    0    0  0.00000000000E+00  0.00000000000E+00  0.16209681108E+04  0.27841925823E+04  0.22636675372E+04 0.  0.
        2    1    3    3  502    0 -0.96253491899E+02 -0.97476197389E+03  0.11295945336E+03  0.98599466457E+03  0.25500000920E-02 0. -1.
       -2    1    3    3    0  502  0.96253491899E+02  0.97476197389E+03  0.15080086574E+04  0.17981979177E+04  0.25500000920E-02 0.  1.
</event>
<event>
 5   0  0.9038897E-06  0.2410200E+04  0.7818609E-02  0.8435695E-01
       -1   -1    0    0    0  501  0.00000000000E+00  0.00000000000E+00  0.59230467094E+03  0.59230467096E+03  0.50400001928E-02 0.  1.
        1   -1    0    0  501    0  0.00000000000E+00  0.00000000000E+00 -0.24518895060E+04  0.24518895060E+04  0.50400001928E-02 0. -1.
    10030    2    1    2    0    0  0.00000000000E+00  0.00000000000E+00 -0.18595848350E+04  0.30441941769E+04  0.24101996656E+04 0.  0.
        1    1    3    3  502    0  0.89692198694E+03 -0.29184210267E+03 -0.18771823012E+04  0.21008222808E+04  0.50400001928E-02 0. -1.
       -1    1    3    3    0  502 -0.89692198694E+03  0.29184210267E+03  0.17597466189E+02  0.94337189612E+03  0.50400001928E-02 0.  1.
</event>
<event>
 5   0  0.2025353E-05  0.2403372E+04  0.7818609E-02  0.8438242E-01
       -2   -1    0    0    0  501  0.00000000000E+00  0.00000000000E+00  0.95565727119E+03  0.95565727119E+03  0.25500000920E-02 0. -1.
        2   -1    0    0  501    0  0.00000000000E+00  0.00000000000E+00 -0.15110529820E+04  0.15110529820E+04  0.25500000920E-02 0.  1.
    10030    2    1    2    0    0  0.00000000000E+00  0.00000000000E+00 -0.55539571078E+03  0.24667102532E+04  0.24033716062E+04 0.  0.
        4    1    3    3  502    0  0.11928500043E+04  0.26804338839E+02 -0.13097031366E+03  0.12003184749E+04  0.12699999809E+01 0. -1.
       -4    1    3    3    0  502 -0.11928500043E+04 -0.26804338839E+02 -0.42442539712E+03  0.12663917782E+04  0.12699999809E+01 0.  1.
</event>
<event>
 5   0  0.9176817E-06  0.2387628E+04  0.7818609E-02  0.8444150E-01
       -1   -1    0    0    0  501  0.00000000000E+00  0.00000000000E+00  0.90227907801E+03  0.90227907803E+03  0.50400001928E-02 0.  1.
        1   -1    0    0  501    0  0.00000000000E+00  0.00000000000E+00 -0.15795464248E+04  0.15795464248E+04  0.50400001928E-02 0. -1.
    10030    2    1    2    0    0  0.00000000000E+00  0.00000000000E+00 -0.67726734679E+03  0.24818255028E+04  0.23876278536E+04 0.  0.
        3    1    3    3  502    0  0.55670087697E+02 -0.24668234051E+03 -0.15513857102E+04  0.15718616249E+04  0.10100000352E+00 0. -1.
       -3    1    3    3    0  502 -0.55670087697E+02  0.24668234051E+03  0.87411836339E+03  0.90996387797E+03  0.10100000352E+00 0.  1.
</event>
<event>
 5   0  0.2087882E-05  0.2349913E+04  0.7818609E-02  0.8458497E-01
        2   -1    0    0  501    0  0.00000000000E+00  0.00000000000E+00  0.18496949249E+04  0.18496949249E+04  0.25500000920E-02 0.  1.
       -2   -1    0    0    0  501  0.00000000000E+00  0.00000000000E+00 -0.74635146723E+03  0.74635146724E+03  0.25500000920E-02 0. -1.
    10030    2    1    2    0    0  0.00000000000E+00  0.00000000000E+00  0.11033434577E+04  0.25960463922E+04  0.23499127823E+04 0.  0.
        2    1    3    3  502    0  0.38985554107E+03  0.11083924656E+04  0.55294121749E+03  0.12985627404E+04  0.25500000920E-02 0. -1.
       -2    1    3    3    0  502 -0.38985554107E+03 -0.11083924656E+04  0.55040224019E+03  0.12974836518E+04  0.25500000920E-02 0.  1.
</event>
<event>
 5   0  0.8898848E-06  0.2407253E+04  0.7818609E-02  0.8436793E-01
       -1   -1    0    0    0  501  0.00000000000E+00  0.00000000000E+00  0.10473646666E+04  0.10473646666E+04  0.50400001928E-02 0.  1.
        1   -1    0    0  501    0  0.00000000000E+00  0.00000000000E+00 -0.13832023031E+04  0.13832023031E+04  0.50400001928E-02 0. -1.
    10030    2    1    2    0    0  0.00000000000E+00  0.00000000000E+00 -0.33583763651E+03  0.24305669697E+04  0.24072533884E+04 0.  0.
        5    1    3    3  502    0 -0.63465192685E+03 -0.37684145255E+03 -0.11278643648E+04  0.13479216090E+04  0.46999998093E+01 0. -1.
       -5    1    3    3    0  502  0.63465192685E+03  0.37684145255E+03  0.79202672831E+03  0.10826453607E+04  0.46999998093E+01 0.  1.
</event>
<event>
 5   0  0.2025353E-05  0.2397318E+04  0.7818609E-02  0.8440508E-01
        2   -1    0    0  501    0  0.00000000000E+00  0.00000000000E+00  0.15765274358E+04  0.15765274358E+04  0.25500000920E-02 0. -1.
       -2   -1    0    0    0  501  0.00000000000E+00  0.00000000000E+00 -0.91135959897E+03  0.91135959898E+03  0.25500000920E-02 0.  1.
    10030    2    1    2    0    0  0.00000000000E+00  0.00000000000E+00  0.66516783680E+03  0.24878870348E+04  0.23973180112E+04 0.  0.
        4    1    3    3  502    0 -0.10518606137E+04  0.54524901962E+03  0.52131872991E+03  0.12944041390E+04  0.12699999809E+01 0.  1.
       -4    1    3    3    0  502  0.10518606137E+04 -0.54524901962E+03  0.14384910689E+03  0.11934828958E+04  0.12699999809E+01 0. -1.
</event>
<event>
 5   0  0.2080257E-05  0.2388259E+04  0.7818609E-02  0.8443912E-01
        2   -1    0    0  501    0  0.00000000000E+00  0.00000000000E+00  0.12343469475E+04  0.12343469475E+04  0.25500000920E-02 0.  1.
       -2   -1    0    0    0  501  0.00000000000E+00  0.00000000000E+00 -0.11552221389E+04  0.11552221389E+04  0.25500000920E-02 0. -1.
    10030    2    1    2    0    0  0.00000000000E+00  0.00000000000E+00  0.79124808596E+02  0.23895690864E+04  0.23882587137E+04 0.  0.
        1    1    3    3  502    0 -0.19500788449E+03  0.39106898653E+03 -0.10723447265E+04  0.11579664242E+04  0.50400001928E-02 0. -1.
       -1    1    3    3    0  502  0.19500788449E+03 -0.39106898653E+03  0.11514695351E+04  0.12316026622E+04  0.50400001928E-02 0.  1.
</event>
<event>
 5   0  0.2080257E-05  0.2448081E+04  0.7818609E-02  0.8421719E-01
       -2   -1    0    0    0  501  0.00000000000E+00  0.00000000000E+00  0.63853650223E+03  0.63853650224E+03  0.25500000920E-02 0.  1.
        2   -1    0    0  501    0  0.00000000000E+00  0.00000000000E+00 -0.23464213412E+04  0.23464213412E+04  0.25500000920E-02 0. -1.
    10030    2    1    2    0    0  0.00000000000E+00  0.00000000000E+00 -0.17078848389E+04  0.29849578434E+04  0.24480814333E+04 0.  0.
        1    1    3    3  502    0 -0.39396208267E+03 -0.62689516819E+03  0.33453408849E+03  0.81247568017E+03  0.50400001928E-02 0.  1.
       -1    1    3    3    0  502  0.39396208267E+03  0.62689516819E+03 -0.20424189274E+04  0.21724821633E+04  0.50400001928E-02 0. -1.
</event>
<event>
 5   0  0.8528103E-06  0.2405741E+04  0.7818609E-02  0.8437357E-01
       -1   -1    0    0    0  501  0.00000000000E+00  0.00000000000E+00  0.13925510154E+04  0.13925510155E+04  0.50400001928E-02 0. -1.
        1   -1    0    0  501    0  0.00000000000E+00  0.00000000000E+00 -0.10390265800E+04  0.10390265800E+04  0.50400001928E-02 0.  1.
    10030    2    1    2    0    0  0.00000000000E+00  0.00000000000E+00  0.35352443546E+03  0.24315775954E+04  0.24057410659E+04 0.  0.
        4    1    3    3  502    0  0.60869598672E+03 -0.85396069983E+03  0.77227243850E+03  0.13023693843E+04  0.12699999809E+01 0. -1.
       -4    1    3    3    0  502 -0.60869598672E+03  0.85396069983E+03 -0.41874800304E+03  0.11292082111E+04  0.12699999809E+01 0.  1.
</event>
<event>
 5   0  0.2025353E-05  0.2379812E+04  0.7818609E-02  0.8447101E-01
       -2   -1    0    0    0  501  0.00000000000E+00  0.00000000000E+00  0.78496899105E+03  0.78496899105E+03  0.25500000920E-02 0.  1.
        2   -1    0    0  501    0  0.00000000000E+00  0.00000000000E+00 -0.18037346514E+04  0.18037346514E+04  0.25500000920E-02 0. -1.
    10030    2    1    2    0    0  0.00000000000E+00  0.00000000000E+00 -0.10187656604E+04  0.25887036425E+04  0.23798115635E+04 0.  0.
        4    1    3    3  502    0 -0.76742863926E+03  0.37150256160E+03  0.39348056309E+03  0.93903644022E+03  0.12699999809E+01 0.  1.
       -4    1    3    3    0  502  0.76742863926E+03 -0.37150256160E+03 -0.14122462235E+04  0.16496672023E+04  0.12699999809E+01 0. -1.
</event>
<event>
 5   0  0.2025353E-05  0.2399410E+04  0.7818609E-02  0.8439725E-01
       -2   -1    0    0    0  501  0.00000000000E+00  0.00000000000E+00  0.75283153027E+03  0.75283153028E+03  0.25500000920E-02 0. -1.
        2   -1    0    0  501    0  0.00000000000E+00  0.00000000000E+00 -0.19118379333E+04  0.19118379333E+04  0.25500000920E-02 0.  1.
    10030    2    1    2    0    0  0.00000000000E+00  0.00000000000E+00 -0.11590064030E+04  0.26646694636E+04  0.23994098249E+04 0.  0.
        4    1    3    3  502    0  0.81715990484E+03 -0.75737524974E+03 -0.85435232205E+02  0.11174383074E+04  0.12699999809E+01 0. -1.
       -4    1    3    3    0  502 -0.81715990484E+03  0.75737524974E+03 -0.10735711708E+04  0.15472311562E+04  0.12699999809E+01 0.  1.
</event>
<event>
 5   0  0.9083687E-06  0.2385581E+04  0.7818609E-02  0.8444922E-01
        1   -1    0    0  501    0  0.00000000000E+00  0.00000000000E+00  0.21937903382E+04  0.21937903382E+04  0.50400001928E-02 0.  1.
       -1   -1    0    0    0  501  0.00000000000E+00  0.00000000000E+00 -0.64853462548E+03  0.64853462550E+03  0.50400001928E-02 0. -1.
    10030    2    1    2    0    0  0.00000000000E+00  0.00000000000E+00  0.15452557127E+04  0.28423249637E+04  0.23855808478E+04 0.  0.
        2    1    3    3  502    0  0.57092482773E+03 -0.45440018020E+03 -0.35159204101E+03  0.80997015130E+03  0.25500000920E-02 0. -1.
       -2    1    3    3    0  502 -0.57092482773E+03  0.45440018020E+03  0.18968477537E+04  0.20323548124E+04  0.25500000920E-02 0.  1.
</event>
<event>
 5   0  0.2025353E-05  0.2392259E+04  0.7818609E-02  0.8442407E-01
       -2   -1    0    0    0  501  0.00000000000E+00  0.00000000000E+00  0.10459115630E+04  0.10459115630E+04  0.25500000920E-02 0. -1.
        2   -1    0    0  501    0  0.00000000000E+00  0.00000000000E+00 -0.13679220889E+04  0.13679220889E+04  0.25500000920E-02 0.  1.
    10030    2    1    2    0    0  0.00000000000E+00  0.00000000000E+00 -0.32201052586E+03  0.24138336519E+04  0.23922587904E+04 0.  0.
        4    1    3    3  502    0 -0.14518485082E+02 -0.10271613848E+04  0.45726270768E+03  0.11244385681E+04  0.12699999809E+01 0. -1.
       -4    1    3    3    0  502  0.14518485082E+02  0.10271613848E+04 -0.77927323354E+03  0.12893950838E+04  0.12699999809E+01 0.  1.
</event>
<event>
 5   0  0.8898848E-06  0.2395281E+04  0.7818609E-02  0.8441272E-01
        1   -1    0    0  501    0  0.00000000000E+00  0.00000000000E+00  0.96554478530E+03  0.96554478532E+03  0.50400001928E-02 0.  1.
       -1   -1    0    0    0  501  0.00000000000E+00  0.00000000000E+00 -0.14855272477E+04  0.14855272477E+04  0.50400001928E-02 0. -1.
    10030    2    1    2    0    0  0.00000000000E+00  0.00000000000E+00 -0.51998246243E+03  0.24510720331E+04  0.23952812674E+04 0.  0.
        5    1    3    3  502    0  0.37085372149E+03  0.42068048794E+03  0.82287042685E+03  0.99581242463E+03  0.46999998093E+01 0.  1.
       -5    1    3    3    0  502 -0.37085372149E+03 -0.42068048794E+03 -0.13428528893E+04  0.14552596084E+04  0.46999998093E+01 0. -1.
</event>
<event>
 5   0  0.8898848E-06  0.2408420E+04  0.7818609E-02  0.8436358E-01
       -1   -1    0    0    0  501  0.00000000000E+00  0.00000000000E+00  0.12481140535E+04  0.12481140536E+04  0.50400001928E-02 0. -1.
        1   -1    0    0  501    0  0.00000000000E+00  0.00000000000E+00 -0.11618501531E+04  0.11618501531E+04  0.50400001928E-02 0.  1.
    10030    2    1    2    0    0  0.00000000000E+00  0.00000000000E+00  0.86263900461E+02  0.24099642066E+04  0.24084198174E+04 0.  0.
        5    1    3    3  502    0  0.85775079410E+03  0.82988916979E+03  0.20338131162E+03  0.12107181781E+04  0.46999998093E+01 0. -1.
       -5    1    3    3    0  502 -0.85775079410E+03 -0.82988916979E+03 -0.11711741116E+03  0.11992460285E+04  0.46999998093E+01 0.  1.
</event>
<event>
 5   0  0.8898848E-06  0.2378730E+04  0.7818609E-02  0.8447510E-01
       -1   -1    0    0    0  501  0.00000000000E+00  0.00000000000E+00  0.11222566636E+04  0.11222566636E+04  0.50400001928E-02 0. -1.
        1   -1    0    0  501    0  0.00000000000E+00  0.00000000000E+00 -0.12604859595E+04  0.12604859595E+04  0.50400001928E-02 0.  1.
    10030    2    1    2    0    0  0.00000000000E+00  0.00000000000E+00 -0.13822929596E+03  0.23827426231E+04  0.23787297176E+04 0.  0.
        5    1    3    3  502    0 -0.10006308556E+04  0.53135631109E+03  0.29338678143E+03  0.11703416305E+04  0.46999998093E+01 0. -1.
       -5    1    3    3    0  502  0.10006308556E+04 -0.53135631109E+03 -0.43161607739E+03  0.12124009926E+04  0.46999998093E+01 0.  1.
</event>
<event>
 5   0  0.9083687E-06  0.2411263E+04  0.7818609E-02  0.8435299E-01
        1   -1    0    0  501    0  0.00000000000E+00  0.00000000000E+00  0.11242339733E+04  0.11242339733E+04  0.50400001928E-02 0. -1.
       -1   -1    0    0    0  501  0.00000000000E+00  0.00000000000E+00 -0.12929219227E+04  0.12929219227E+04  0.50400001928E-02 0.  1.
    10030    2    1    2    0    0  0.00000000000E+00  0.00000000000E+00 -0.16868794943E+03  0.24171558960E+04  0.24112625326E+04 0.  0.
        2    1    3    3  502    0  0.11310566362E+04  0.23087846254E+03  0.26428869014E+03  0.11842476475E+04  0.25500000920E-02 0. -1.
       -2    1    3    3    0  502 -0.11310566362E+04 -0.23087846254E+03 -0.43297663956E+03  0.12329082485E+04  0.25500000920E-02 0.  1.
</event>
<event>
 5   0  0.2122194E-05  0.2389574E+04  0.7818609E-02  0.8443417E-01
        2   -1    0    0  501    0  0.00000000000E+00  0.00000000000E+00  0.12925619807E+04  0.12925619807E+04  0.25500000920E-02 0. -1.
       -2   -1    0    0    0  501  0.00000000000E+00  0.00000000000E+00 -0.11044083564E+04  0.11044083564E+04  0.25500000920E-02 0.  1.
    10030    2    1    2    0    0  0.00000000000E+00  0.00000000000E+00  0.18815362427E+03  0.23969703371E+04  0.23895742321E+04 0.  0.
        3    1    3    3  502    0  0.54126979825E+03 -0.77174026082E+03 -0.64233456265E+03  0.11406795015E+04  0.10100000352E+00 0.  1.
       -3    1    3    3    0  502 -0.54126979825E+03  0.77174026082E+03  0.83048818692E+03  0.12562908355E+04  0.10100000352E+00 0. -1.
</event>
<event>
 5   0  0.2048028E-05  0.2452987E+04  0.7818609E-02  0.8419928E-01
       -2   -1    0    0    0  501  0.00000000000E+00  0.00000000000E+00  0.74559363955E+03  0.74559363956E+03  0.25500000920E-02 0. -1.
        2   -1    0    0  501    0  0.00000000000E+00  0.00000000000E+00 -0.20175683372E+04  0.20175683372E+04  0.25500000920E-02 0.  1.
    10030    2    1    2    0    0  0.00000000000E+00  0.00000000000E+00 -0.12719746976E+04  0.27631619767E+04  0.24529868484E+04 0.  0.
        5    1    3    3  502    0 -0.68149441322E+03  0.73462210714E+03 -0.14326335612E+04  0.17483035452E+04  0.46999998093E+01 0.  1.
       -5    1    3    3    0  502  0.68149441322E+03 -0.73462210714E+03  0.16065886359E+03  0.10148584315E+04  0.46999998093E+01 0. -1.
</event>
<event>
 5   0  0.2087882E-05  0.2395453E+04  0.7818609E-02  0.8441208E-01
        2   -1    0    0  501    0  0.00000000000E+00  0.00000000000E+00  0.14361263611E+04  0.14361263611E+04  0.25500000920E-02 0. -1.
       -2   -1    0    0    0  501  0.00000000000E+00  0.00000000000E+00 -0.99890111666E+03  0.99890111667E+03  0.25500000920E-02 0.  1.
    10030    2    1    2    0    0  0.00000000000E+00  0.00000000000E+00  0.43722524446E+03  0.24350274778E+04  0.23954525466E+04 0.  0.
        2    1    3    3  502    0  0.10313921624E+03  0.12943890387E+03  0.14244463659E+04  0.14340291409E+04  0.25500000920E-02 0. -1.
       -2    1    3    3    0  502 -0.10313921624E+03 -0.12943890387E+03 -0.98722112144E+03  0.10009983368E+04  0.25500000920E-02 0.  1.
</event>
<event>
 5   0  0.9083687E-06  0.2432216E+04  0.7818609E-02  0.8427540E-01
       -1   -1    0    0    0  501  0.00000000000E+00  0.00000000000E+00  0.58349566605E+03  0.58349566607E+03  0.50400001928E-02 0. -1.
        1   -1    0    0  501    0  0.00000000000E+00  0.00000000000E+00 -0.25345836850E+04  0.25345836850E+04  0.50400001928E-02 0.  1.
    10030    2    1    2    0    0  0.00000000000E+00  0.00000000000E+00 -0.19510880190E+04  0.31180793511E+04  0.24322159407E+04 0.  0.
        2    1    3    3  502    0  0.60355341209E+03 -0.98568403833E+03 -0.14604500309E+04  0.18624618217E+04  0.25500000920E-02 0. -1.
       -2    1    3    3    0  502 -0.60355341209E+03  0.98568403833E+03 -0.49063798804E+03  0.12556175293E+04  0.25500000920E-02 0.  1.
</event>
<event>
 5   0  0.2080257E-05  0.2394269E+04  0.7818609E-02  0.8441652E-01
        2   -1    0    0  501    0  0.00000000000E+00  0.00000000000E+00  0.20153732352E+04  0.20153732352E+04  0.25500000920E-02 0.  1.
       -2   -1    0    0    0  501  0.00000000000E+00  0.00000000000E+00 -0.71109984294E+03  0.71109984295E+03  0.25500000920E-02 0. -1.
    10030    2    1    2    0    0  0.00000000000E+00  0.00000000000E+00  0.13042733923E+04  0.27264730782E+04  0.23942694844E+04 0.  0.
        1    1    3    3  502    0  0.98835655748E+03  0.25448290738E+02 -0.11652786857E+03  0.99552752066E+03  0.50400001928E-02 0. -1.
       -1    1    3    3    0  502 -0.98835655748E+03 -0.25448290738E+02  0.14208012608E+04  0.17309455575E+04  0.50400001928E-02 0.  1.
</event>
<event>
 5   0  0.7233625E-06  0.2406369E+04  0.7818609E-02  0.8437123E-01
        3   -1    0    0  501    0  0.00000000000E+00  0.00000000000E+00  0.18495587877E+04  0.18495587905E+04  0.10100000352E+00 0. -1.
       -3   -1    0    0    0  501  0.00000000000E+00  0.00000000000E+00 -0.78270184979E+03  0.78270185631E+03  0.10100000352E+00 0.  1.
    10030    2    1    2    0    0  0.00000000000E+00  0.00000000000E+00  0.10668569379E+04  0.26322606468E+04  0.24063691293E+04 0.  0.
        5    1    3    3  502    0 -0.47294231762E+03  0.93062525896E+03  0.11878285822E+04  0.15813591114E+04  0.46999998093E+01 0. -1.
       -5    1    3    3    0  502  0.47294231762E+03 -0.93062525896E+03 -0.12097164429E+03  0.10509015354E+04  0.46999998093E+01 0.  1.
</event>
<event>
 5   0  0.7233625E-06  0.2405167E+04  0.7818609E-02  0.8437572E-01
       -4   -1    0    0    0  501  0.00000000000E+00  0.00000000000E+00  0.99610389387E+03  0.99610470348E+03  0.12699999809E+01 0. -1.
        4   -1    0    0  501    0  0.00000000000E+00  0.00000000000E+00 -0.14518619120E+04  0.14518624674E+04  0.12699999809E+01 0.  1.
    10030    2    1    2    0    0  0.00000000000E+00  0.00000000000E+00 -0.45575801811E+03  0.24479671709E+04  0.24051669170E+04 0.  0.
        3    1    3    3  502    0  0.92041970609E+03  0.45351129885E+03 -0.86622566347E+03  0.13428297896E+04  0.10100000352E+00 0.  1.
       -3    1    3    3    0  502 -0.92041970609E+03 -0.45351129885E+03  0.41046764535E+03  0.11051373813E+04  0.10100000352E+00 0. -1.
</event>
<event>
 5   0  0.9038897E-06  0.2308633E+04  0.7818609E-02  0.8474525E-01
        1   -1    0    0  501    0  0.00000000000E+00  0.00000000000E+00  0.79204819340E+03  0.79204819342E+03  0.50400001928E-02 0.  1.
       -1   -1    0    0    0  501  0.00000000000E+00  0.00000000000E+00 -0.16822799626E+04  0.16822799626E+04  0.50400001928E-02 0. -1.
    10030    2    1    2    0    0  0.00000000000E+00  0.00000000000E+00 -0.89023176919E+03  0.24743281560E+04  0.23086331932E+04 0.  0.
        1    1    3    3  502    0 -0.49140398501E+03 -0.93584705936E+03  0.52028264098E+02  0.10582979426E+04  0.50400001928E-02 0.  1.
       -1    1    3    3    0  502  0.49140398501E+03  0.93584705936E+03 -0.94226003328E+03  0.14160302134E+04  0.50400001928E-02 0. -1.
</event>
<event>
 5   0  0.9176817E-06  0.2399384E+04  0.7818609E-02  0.8439734E-01
       -1   -1    0    0    0  501  0.00000000000E+00  0.00000000000E+00  0.11342652444E+04  0.11342652444E+04  0.50400001928E-02 0.  1.
        1   -1    0    0  501    0  0.00000000000E+00  0.00000000000E+00 -0.12688921987E+04  0.12688921987E+04  0.50400001928E-02 0. -1.
    10030    2    1    2    0    0  0.00000000000E+00  0.00000000000E+00 -0.13462695435E+03  0.24031574431E+04  0.23993835207E+04 0.  0.
        3    1    3    3  502    0 -0.77304817993E+03 -0.77502515404E+03  0.42436886905E+03  0.11740342521E+04  0.10100000352E+00 0.  1.
       -3    1    3    3    0  502  0.77304817993E+03  0.77502515404E+03 -0.55899582340E+03  0.12291231910E+04  0.10100000352E+00 0. -1.
</event>
<event>
 5   0  0.9083687E-06  0.2505141E+04  0.7818609E-02  0.8401156E-01
        1   -1    0    0  501    0  0.00000000000E+00  0.00000000000E+00  0.19889036908E+04  0.19889036908E+04  0.50400001928E-02 0. -1.
       -1   -1    0    0    0  501  0.00000000000E+00  0.00000000000E+00 -0.78884310061E+03  0.78884310063E+03  0.50400001928E-02 0.  1.
    10030    2    1    2    0    0  0.00000000000E+00  0.00000000000E+00  0.12000605902E+04  0.27777467915E+04  0.25051410773E+04 0.  0.
        2    1    3    3  502    0 -0.28376667395E+02 -0.32881058138E+03  0.19398259901E+04  0.19677008171E+04  0.25500000920E-02 0. -1.
       -2    1    3    3    0  502  0.28376667395E+02  0.32881058138E+03 -0.73976539990E+03  0.81004597436E+03  0.25500000920E-02 0.  1.
</event>
<event>
 5   0  0.9176817E-06  0.2414325E+04  0.7818609E-02  0.8434160E-01
       -1   -1    0    0    0  501  0.00000000000E+00  0.00000000000E+00  0.50518191379E+03  0.50518191382E+03  0.50400001928E-02 0. -1.
        1   -1    0    0  501    0  0.00000000000E+00  0.00000000000E+00 -0.28845876359E+04  0.28845876359E+04  0.50400001928E-02 0.  1.
    10030    2    1    2    0    0  0.00000000000E+00  0.00000000000E+00 -0.23794057221E+04  0.33897695497E+04  0.24143251666E+04 0.  0.
        3    1    3    3  502    0 -0.10369958991E+04  0.48731607174E+03 -0.17232393054E+04  0.20693939118E+04  0.10100000352E+00 0.  1.
       -3    1    3    3    0  502  0.10369958991E+04 -0.48731607174E+03 -0.65616641677E+03  0.13203756379E+04  0.10100000352E+00 0. -1.
</event>
<event>
 5   0  0.8528103E-06  0.2367566E+04  0.7818609E-02  0.8451747E-01
        1   -1    0    0  501    0  0.00000000000E+00  0.00000000000E+00  0.16641866393E+04  0.16641866393E+04  0.50400001928E-02 0. -1.
       -1   -1    0    0    0  501  0.00000000000E+00  0.00000000000E+00 -0.84205825602E+03  0.84205825604E+03  0.50400001928E-02 0.  1.
    10030    2    1    2    0    0  0.00000000000E+00  0.00000000000E+00  0.82212838328E+03  0.25062448953E+04  0.23675659224E+04 0.  0.
        4    1    3    3  502    0  0.77762438510E+03 -0.42806332731E+03  0.12401399708E+04  0.15250857866E+04  0.12699999809E+01 0. -1.
       -4    1    3    3    0  502 -0.77762438510E+03  0.42806332731E+03 -0.41801158749E+03  0.98115910874E+03  0.12699999809E+01 0.  1.
</event>
<event>
 5   0  0.9083687E-06  0.2392980E+04  0.7818609E-02  0.8442136E-01
       -1   -1    0    0    0  501  0.00000000000E+00  0.00000000000E+00  0.11314353268E+04  0.11314353268E+04  0.50400001928E-02 0. -1.
        1   -1    0    0  501    0  0.00000000000E+00  0.00000000000E+00 -0.12652851638E+04  0.12652851638E+04  0.50400001928E-02 0.  1.
    10030    2    1    2    0    0  0.00000000000E+00  0.00000000000E+00 -0.13384983703E+03  0.23967204906E+04  0.23929800107E+04 0.  0.
        2    1    3    3  502    0  0.24674558814E+03 -0.11432838505E+04 -0.31952339221E+03  0.12124671321E+04  0.25500000920E-02 0. -1.
       -2    1    3    3    0  502 -0.24674558814E+03  0.11432838505E+04  0.18567355518E+03  0.11842533586E+04  0.25500000920E-02 0.  1.
</event>
<event>
 5   0  0.2087882E-05  0.2413479E+04  0.7818609E-02  0.8434474E-01
       -2   -1    0    0    0  501  0.00000000000E+00  0.00000000000E+00  0.78399227262E+03  0.78399227263E+03  0.25500000920E-02 0.  1.
        2   -1    0    0  501    0  0.00000000000E+00  0.00000000000E+00 -0.18574425550E+04  0.18574425550E+04  0.25500000920E-02 0. -1.
    10030    2    1    2    0    0  0.00000000000E+00  0.00000000000E+00 -0.10734502823E+04  0.26414348276E+04  0.24134793224E+04 0.  0.
        2    1    3    3  502    0 -0.17148912683E+03 -0.11638297155E+04 -0.24241654098E+03  0.12011136111E+04  0.25500000920E-02 0. -1.
       -2    1    3    3    0  502  0.17148912683E+03  0.11638297155E+04 -0.83103374136E+03  0.14403212165E+04  0.25500000920E-02 0.  1.
</event>
<event>
 5   0  0.9083687E-06  0.2393282E+04  0.7818609E-02  0.8442023E-01
       -1   -1    0    0    0  501  0.00000000000E+00  0.00000000000E+00  0.77951183880E+03  0.77951183882E+03  0.50400001928E-02 0. -1.
        1   -1    0    0  501    0  0.00000000000E+00  0.00000000000E+00 -0.18369822128E+04  0.18369822128E+04  0.50400001928E-02 0.  1.
    10030    2    1    2    0    0  0.00000000000E+00  0.00000000000E+00 -0.10574703740E+04  0.26164940516E+04  0.23932817490E+04 0.  0.
        2    1    3    3  502    0  0.10342767024E+04 -0.21216848622E+03  0.87003382941E+02  0.10593929168E+04  0.25500000920E-02 0. -1.
       -2    1    3    3    0  502 -0.10342767024E+04  0.21216848622E+03 -0.11444737569E+04  0.15571011347E+04  0.25500000920E-02 0.  1.
</event>
<event>
 5   0  0.8898848E-06  0.2367321E+04  0.7818609E-02  0.8451840E-01
        1   -1    0    0  501    0  0.00000000000E+00  0.00000000000E+00  0.22970329339E+04  0.22970329339E+04  0.50400001928E-02 0.  1.
       -1   -1    0    0    0  501  0.00000000000E+00  0.00000000000E+00 -0.60994007041E+03  0.60994007043E+03  0.50400001928E-02 0. -1.
    10030    2    1    2    0    0  0.00000000000E+00  0.00000000000E+00  0.16870928634E+04  0.29069730043E+04  0.23673212114E+04 0.  0.
        5    1    3    3  502    0 -0.19382226652E+03  0.22576425143E+03 -0.56325381167E+03  0.63703493985E+03  0.46999998093E+01 0. -1.
       -5    1    3    3    0  502  0.19382226652E+03 -0.22576425143E+03  0.22503466751E+04  0.22699380644E+04  0.46999998093E+01 0.  1.
</event>
<event>
 5   0  0.7233625E-06  0.2348482E+04  0.7818609E-02  0.8459047E-01
        3   -1    0    0  501    0  0.00000000000E+00  0.00000000000E+00  0.25593305072E+04  0.25593305092E+04  0.10100000352E+00 0. -1.
       -3   -1    0    0    0  501  0.00000000000E+00  0.00000000000E+00 -0.53875113926E+03  0.53875114872E+03  0.10100000352E+00 0.  1.
    10030    2    1    2    0    0  0.00000000000E+00  0.00000000000E+00  0.20205793679E+04  0.30980816579E+04  0.23484822709E+04 0.  0.
        1    1    3    3  502    0 -0.91679947282E+03  0.21528775677E+03  0.85004016702E+02  0.94556637761E+03  0.50400001928E-02 0.  1.
       -1    1    3    3    0  502  0.91679947282E+03 -0.21528775677E+03  0.19355753512E+04  0.21525152803E+04  0.50400001928E-02 0. -1.
</event>
<event>
 5   0  0.2122194E-05  0.2365129E+04  0.7818609E-02  0.8452675E-01
        2   -1    0    0  501    0  0.00000000000E+00  0.00000000000E+00  0.13559137398E+04  0.13559137398E+04  0.25500000920E-02 0. -1.
       -2   -1    0    0    0  501  0.00000000000E+00  0.00000000000E+00 -0.10313772557E+04  0.10313772557E+04  0.25500000920E-02 0.  1.
    10030    2    1    2    0    0  0.00000000000E+00  0.00000000000E+00  0.32453648410E+03  0.23872909954E+04  0.23651288268E+04 0.  0.
        3    1    3    3  502    0  0.14907002916E+03 -0.83871694886E+03 -0.66565583401E+03  0.10810946737E+04  0.10100000352E+00 0.  1.
       -3    1    3    3    0  502 -0.14907002916E+03  0.83871694886E+03  0.99019231812E+03  0.13061963218E+04  0.10100000352E+00 0. -1.
</event>
<event>
 5   0  0.2122194E-05  0.2399872E+04  0.7818609E-02  0.8439552E-01
        2   -1    0    0  501    0  0.00000000000E+00  0.00000000000E+00  0.12703984503E+04  0.12703984503E+04  0.25500000920E-02 0. -1.
       -2   -1    0    0    0  501  0.00000000000E+00  0.00000000000E+00 -0.11333816046E+04  0.11333816046E+04  0.25500000920E-02 0.  1.
    10030    2    1    2    0    0  0.00000000000E+00  0.00000000000E+00  0.13701684571E+03  0.24037800549E+04  0.23998718584E+04 0.  0.
        3    1    3    3  502    0  0.11854106583E+04 -0.14892429360E+03  0.18035651522E+03  0.12082654331E+04  0.10100000352E+00 0. -1.
       -3    1    3    3    0  502 -0.11854106583E+04  0.14892429360E+03 -0.43339669516E+02  0.11955146219E+04  0.10100000352E+00 0.  1.
</event>
<event>
 5   0  0.2025353E-05  0.2309736E+04  0.7818609E-02  0.8474092E-01
       -2   -1    0    0    0  501  0.00000000000E+00  0.00000000000E+00  0.12182363532E+04  0.12182363532E+04  0.25500000920E-02 0.  1.
        2   -1    0    0  501    0  0.00000000000E+00  0.00000000000E+00 -0.10947960413E+04  0.10947960413E+04  0.25500000920E-02 0. -1.
    10030    2    1    2    0    0  0.00000000000E+00  0.00000000000E+00  0.12344031184E+03  0.23130323945E+04  0.23097362073E+04 0.  0.
        4    1    3    3  502    0 -0.79375718863E+03  0.66069996572E+03  0.57931731784E+03  0.11841389643E+04  0.12699999809E+01 0.  1.
       -4    1    3    3    0  502  0.79375718863E+03 -0.66069996572E+03 -0.45587700601E+03  0.11288934302E+04  0.12699999809E+01 0. -1.
</event>
<event>
 5   0  0.2122194E-05  0.2428670E+04  0.7818609E-02  0.8428847E-01
        2   -1    0    0  501    0  0.00000000000E+00  0.00000000000E+00  0.15132060268E+04  0.15132060268E+04  0.25500000920E-02 0.  1.
       -2   -1    0    0    0  501  0.00000000000E+00  0.00000000000E+00 -0.97449362774E+03  0.97449362774E+03  0.25500000920E-02 0. -1.
    10030    2    1    2    0    0  0.00000000000E+00  0.00000000000E+00  0.53871239903E+03  0.24876996545E+04  0.24286701139E+04 0.  0.
        3    1    3    3  502    0 -0.17281985164E+03 -0.69060552135E+03 -0.73832645197E+03  0.10256357283E+04  0.10100000352E+00 0. -1.
       -3    1    3    3    0  502  0.17281985164E+03  0.69060552135E+03  0.12770388510E+04  0.14620639262E+04  0.10100000352E+00 0.  1.
</event>
<event>
 5   0  0.2080257E-05  0.2401946E+04  0.7818609E-02  0.8438775E-01
       -2   -1    0    0    0  501  0.00000000000E+00  0.00000000000E+00  0.92918367203E+03  0.92918367204E+03  0.25500000920E-02 0.  1.
        2   -1    0    0  501    0  0.00000000000E+00  0.00000000000E+00 -0.15522615352E+04  0.15522615352E+04  0.25500000920E-02 0. -1.
    10030    2    1    2    0    0  0.00000000000E+00  0.00000000000E+00 -0.62307786317E+03  0.24814452072E+04  0.24019459388E+04 0.  0.
        1    1    3    3  502    0  0.99620515597E+03  0.11104733469E+03 -0.99493129124E+03  0.14123188371E+04  0.50400001928E-02 0. -1.
       -1    1    3    3    0  502 -0.99620515597E+03 -0.11104733469E+03  0.37185342807E+03  0.10691263701E+04  0.50400001928E-02 0.  1.
</event>
<event>
 5   0  0.2122194E-05  0.2400067E+04  0.7818609E-02  0.8439478E-01
        2   -1    0    0  501    0  0.00000000000E+00  0.00000000000E+00  0.81948848675E+03  0.81948848675E+03  0.25500000920E-02 0.  1.
       -2   -1    0    0    0  501  0.00000000000E+00  0.00000000000E+00 -0.17572921198E+04  0.17572921198E+04  0.25500000920E-02 0. -1.
    10030    2    1    2    0    0  0.00000000000E+00  0.00000000000E+00 -0.93780363306E+03  0.25767806066E+04  0.24000672158E+04 0.  0.
        3    1    3    3  502    0  0.78344454799E+03  0.64273941585E+03 -0.11590214532E+04  0.15395551486E+04  0.10100000352E+00 0. -1.
       -3    1    3    3    0  502 -0.78344454799E+03 -0.64273941585E+03  0.22121782015E+03  0.10372254579E+04  0.10100000352E+00 0.  1.
</event>
<event>
 5   0  0.2048028E-05  0.2352524E+04  0.7818609E-02  0.8457495E-01
       -2   -1    0    0    0  501  0.00000000000E+00  0.00000000000E+00  0.88057684657E+03  0.88057684657E+03  0.25500000920E-02 0. -1.
        2   -1    0    0  501    0  0.00000000000E+00  0.00000000000E+00 -0.15712342469E+04  0.15712342469E+04  0.25500000920E-02 0.  1.
    10030    2    1    2    0    0  0.00000000000E+00  0.00000000000E+00 -0.69065740031E+03  0.24518110934E+04  0.23525241749E+04 0.  0.
        5    1    3    3  502    0  0.31721437808E+03  0.58662276920E+03 -0.13551485098E+04  0.15103644622E+04  0.46999998093E+01 0.  1.
       -5    1    3    3    0  502 -0.31721437808E+03 -0.58662276920E+03  0.66449110947E+03  0.94144663129E+03  0.46999998093E+01 0. -1.
</event>
<event>
 5   0  0.9176817E-06  0.2426592E+04  0.7818609E-02  0.8429614E-01
       -1   -1    0    0    0  501  0.00000000000E+00  0.00000000000E+00  0.13277276467E+04  0.13277276467E+04  0.50400001928E-02 0. -1.
        1   -1    0    0  501    0  0.00000000000E+00  0.00000000000E+00 -0.11087271039E+04  0.11087271039E+04  0.50400001928E-02 0.  1.
    10030    2    1    2    0    0  0.00000000000E+00  0.00000000000E+00  0.21900054282E+03  0.24364547506E+04  0.24265923666E+04 0.  0.
        3    1    3    3  502    0 -0.35226731596E+03 -0.11266116217E+03 -0.10507492714E+04  0.11139384368E+04  0.10100000352E+00 0.  1.
       -3    1    3    3    0  502  0.35226731596E+03  0.11266116217E+03  0.12697498142E+04  0.13225163138E+04  0.10100000352E+00 0. -1.
</event>
<event>
 5   0  0.9038897E-06  0.2390111E+04  0.7818609E-02  0.8443215E-01
       -1   -1    0    0    0  501  0.00000000000E+00  0.00000000000E+00  0.21367744009E+04  0.21367744009E+04  0.50400001928E-02 0. -1.
        1   -1    0    0  501    0  0.00000000000E+00  0.00000000000E+00 -0.66837103220E+03  0.66837103222E+03  0.50400001928E-02 0.  1.
    10030    2    1    2    0    0  0.00000000000E+00  0.00000000000E+00  0.14684033687E+04  0.28051454332E+04  0.23901113882E+04 0.  0.
        1    1    3    3  502    0  0.95134429164E+03 -0.28390153575E+03 -0.46517576338E+02  0.99389130601E+03  0.50400001928E-02 0.  1.
       -1    1    3    3    0  502 -0.95134429164E+03  0.28390153575E+03  0.15149209451E+04  0.18112541271E+04  0.50400001928E-02 0. -1.
</event>
<event>
 5   0  0.9176817E-06  0.2403586E+04  0.7818609E-02  0.8438162E-01
       -1   -1    0    0    0  501  0.00000000000E+00  0.00000000000E+00  0.62459923361E+03  0.62459923363E+03  0.50400001928E-02 0. -1.
        1   -1    0    0  501    0  0.00000000000E+00  0.00000000000E+00 -0.23123724441E+04  0.23123724441E+04  0.50400001928E-02 0.  1.
    10030    2    1    2    0    0  0.00000000000E+00  0.00000000000E+00 -0.16877732105E+04  0.29369716778E+04  0.24035857018E+04 0.  0.
        3    1    3    3  502    0 -0.80931965812E+03  0.80858353164E+03 -0.39409592699E+03  0.12100071266E+04  0.10100000352E+00 0. -1.
       -3    1    3    3    0  502  0.80931965812E+03 -0.80858353164E+03 -0.12936772835E+04  0.17269645511E+04  0.10100000352E+00 0.  1.
</event>
<event>
 5   0  0.9038897E-06  0.2396105E+04  0.7818609E-02  0.8440963E-01
        1   -1    0    0  501    0  0.00000000000E+00  0.00000000000E+00  0.13594194527E+04  0.13594194527E+04  0.50400001928E-02 0. -1.
       -1   -1    0    0    0  501  0.00000000000E+00  0.00000000000E+00 -0.10558405620E+04  0.10558405620E+04  0.50400001928E-02 0.  1.
    10030    2    1    2    0    0  0.00000000000E+00  0.00000000000E+00  0.30357889077E+03  0.24152600147E+04  0.23961053390E+04 0.  0.
        1    1    3    3  502    0  0.50318134131E+03 -0.40548491184E+03 -0.86509661401E+03  0.10798155526E+04  0.50400001928E-02 0.  1.
       -1    1    3    3    0  502 -0.50318134131E+03  0.40548491184E+03  0.11686755048E+04  0.13354444621E+04  0.50400001928E-02 0. -1.
</event>
<event>
 5   0  0.8528103E-06  0.2403516E+04  0.7818609E-02  0.8438188E-01
       -1   -1    0    0    0  501  0.00000000000E+00  0.00000000000E+00  0.12383934364E+04  0.12383934364E+04  0.50400001928E-02 0.  1.
        1   -1    0    0  501    0  0.00000000000E+00  0.00000000000E+00 -0.11662064183E+04  0.11662064183E+04  0.50400001928E-02 0. -1.
    10030    2    1    2    0    0  0.00000000000E+00  0.00000000000E+00  0.72187018141E+02  0.24045998547E+04  0.24035160694E+04 0.  0.
        4    1    3    3  502    0  0.15007132545E+03  0.10950949494E+04  0.50796963993E+03  0.12164658314E+04  0.12699999809E+01 0.  1.
       -4    1    3    3    0  502 -0.15007132545E+03 -0.10950949494E+04 -0.43578262179E+03  0.11881340233E+04  0.12699999809E+01 0. -1.
</event>
<event>
 5   0  0.2025353E-05  0.2392600E+04  0.7818609E-02  0.8442279E-01
       -2   -1    0    0    0  501  0.00000000000E+00  0.00000000000E+00  0.79417809151E+03  0.79417809151E+03  0.25500000920E-02 0. -1.
        2   -1    0    0  501    0  0.00000000000E+00  0.00000000000E+00 -0.18020308483E+04  0.18020308483E+04  0.25500000920E-02 0.  1.
    10030    2    1    2    0    0  0.00000000000E+00  0.00000000000E+00 -0.10078527568E+04  0.25962089398E+04  0.23925997742E+04 0.  0.
        4    1    3    3  502    0 -0.18715496287E+03  0.11795583646E+04 -0.42916552833E+03  0.12690821799E+04  0.12699999809E+01 0. -1.
       -4    1    3    3    0  502  0.18715496287E+03 -0.11795583646E+04 -0.57868722844E+03  0.13271267599E+04  0.12699999809E+01 0.  1.
</event>
<event>
 5   0  0.2048028E-05  0.2392385E+04  0.7818609E-02  0.8442360E-01
       -2   -1    0    0    0  501  0.00000000000E+00  0.00000000000E+00  0.60978173640E+03  0.60978173640E+03  0.25500000920E-02 0.  1.
        2   -1    0    0  501    0  0.00000000000E+00  0.00000000000E+00 -0.23465384167E+04  0.23465384167E+04  0.25500000920E-02 0. -1.
    10030    2    1    2    0    0  0.00000000000E+00  0.00000000000E+00 -0.17367566803E+04  0.29563201532E+04  0.23923848104E+04 0.  0.
        5    1    3    3  502    0  0.63529894111E+03  0.21564762204E+03  0.35538826644E+03  0.75923089465E+03  0.46999998093E+01 0.  1.
       -5    1    3    3    0  502 -0.63529894111E+03 -0.21564762204E+03 -0.20921449468E+04  0.21970892585E+04  0.46999998093E+01 0. -1.
</event>
<event>
 5   0  0.9038897E-06  0.2389729E+04  0.7818609E-02  0.8443359E-01
       -1   -1    0    0    0  501  0.00000000000E+00  0.00000000000E+00  0.14735290104E+04  0.14735290104E+04  0.50400001928E-02 0. -1.
        1   -1    0    0  501    0  0.00000000000E+00  0.00000000000E+00 -0.96889939921E+03  0.96889939922E+03  0.50400001928E-02 0.  1.
    10030    2    1    2    0    0  0.00000000000E+00  0.00000000000E+00  0.50462961117E+03  0.24424284096E+04  0.23897291670E+04 0.  0.
        1    1    3    3  502    0  0.67720941178E+03 -0.11018265066E+03  0.12521247621E+04  0.14277847260E+04  0.50400001928E-02 0. -1.
       -1    1    3    3    0  502 -0.67720941178E+03  0.11018265066E+03 -0.74749515096E+03  0.10146436836E+04  0.50400001928E-02 0.  1.
</event>
<event>
 5   0  0.2122194E-05  0.2433082E+04  0.7818609E-02  0.8427221E-01
        2   -1    0    0  501    0  0.00000000000E+00  0.00000000000E+00  0.17868050032E+04  0.17868050032E+04  0.25500000920E-02 0. -1.
       -2   -1    0    0    0  501  0.00000000000E+00  0.00000000000E+00 -0.82827857118E+03  0.82827857118E+03  0.25500000920E-02 0.  1.
    10030    2    1    2    0    0  0.00000000000E+00  0.00000000000E+00  0.95852643207E+03  0.26150835744E+04  0.24330822387E+04 0.  0.
        3    1    3    3  502    0  0.14137132309E+02  0.72864327353E+03 -0.56769147521E+03  0.92379353743E+03  0.10100000352E+00 0.  1.
       -3    1    3    3    0  502 -0.14137132309E+02 -0.72864327353E+03  0.15262179073E+04  0.16912900370E+04  0.10100000352E+00 0. -1.
</event>
<event>
 5   0  0.2080257E-05  0.2403114E+04  0.7818609E-02  0.8438338E-01
       -2   -1    0    0    0  501  0.00000000000E+00  0.00000000000E+00  0.66169772825E+03  0.66169772826E+03  0.25500000920E-02 0.  1.
        2   -1    0    0  501    0  0.00000000000E+00  0.00000000000E+00 -0.21818720053E+04  0.21818720053E+04  0.25500000920E-02 0. -1.
    10030    2    1    2    0    0  0.00000000000E+00  0.00000000000E+00 -0.15201742770E+04  0.28435697335E+04  0.24031144369E+04 0.  0.
        1    1    3    3  502    0  0.58011951074E+03 -0.88573991714E+03 -0.87937503769E+02  0.10624532235E+04  0.50400001928E-02 0.  1.
       -1    1    3    3    0  502 -0.58011951074E+03  0.88573991714E+03 -0.14322367733E+04  0.17811165100E+04  0.50400001928E-02 0. -1.
</event>
<event>
 5   0  0.2087882E-05  0.2408308E+04  0.7818609E-02  0.8436400E-01
       -2   -1    0    0    0  501  0.00000000000E+00  0.00000000000E+00  0.12143926855E+04  0.12143926855E+04  0.25500000920E-02 0. -1.
        2   -1    0    0  501    0  0.00000000000E+00  0.00000000000E+00 -0.11940020665E+04  0.11940020665E+04  0.25500000920E-02 0.  1.
    10030    2    1    2    0    0  0.00000000000E+00  0.00000000000E+00  0.20390619008E+02  0.24083947519E+04  0.24083084320E+04 0.  0.
        2    1    3    3  502    0 -0.47738332894E+03  0.13567850564E+03  0.11073599116E+04  0.12134864949E+04  0.25500000920E-02 0. -1.
       -2    1    3    3    0  502  0.47738332894E+03 -0.13567850564E+03 -0.10869692926E+04  0.11949082570E+04  0.25500000920E-02 0.  1.
</event>
<event>
 5   0  0.7233625E-06  0.2404775E+04  0.7818609E-02  0.8437718E-01
       -4   -1    0    0    0  501  0.00000000000E+00  0.00000000000E+00  0.11199229672E+04  0.11199236873E+04  0.12699999809E+01 0.  1.
        4   -1    0    0  501    0  0.00000000000E+00  0.00000000000E+00 -0.12909223574E+04  0.12909229821E+04  0.12699999809E+01 0. -1.
    10030    2    1    2    0    0  0.00000000000E+00  0.00000000000E+00 -0.17099939025E+03  0.24108466694E+04  0.24047745989E+04 0.  0.
        5    1    3    3  502    0 -0.32813727976E+03  0.21237393140E+03  0.10544450204E+04  0.11245679847E+04  0.46999998093E+01 0.  1.
       -5    1    3    3    0  502  0.32813727976E+03 -0.21237393140E+03 -0.12254444106E+04  0.12862786847E+04  0.46999998093E+01 0. -1.
</event>
<event>
 5   0  0.8528103E-06  0.2393701E+04  0.7818609E-02  0.8441866E-01
       -1   -1    0    0    0  501  0.00000000000E+00  0.00000000000E+00  0.15464189418E+04  0.15464189419E+04  0.50400001928E-02 0. -1.
        1   -1    0    0  501    0  0.00000000000E+00  0.00000000000E+00 -0.92630172296E+03  0.92630172297E+03  0.50400001928E-02 0.  1.
    10030    2    1    2    0    0  0.00000000000E+00  0.00000000000E+00  0.62011721889E+03  0.24727206648E+04  0.23937005078E+04 0.  0.
        4    1    3    3  502    0  0.21878063769E+03 -0.93450337389E+03  0.10487070563E+04  0.14216010784E+04  0.12699999809E+01 0. -1.
       -4    1    3    3    0  502 -0.21878063769E+03  0.93450337389E+03 -0.42858983746E+03  0.10511195864E+04  0.12699999809E+01 0.  1.
</event>
<event>
 5   0  0.2048028E-05  0.2401374E+04  0.7818609E-02  0.8438989E-01
        2   -1    0    0  501    0  0.00000000000E+00  0.00000000000E+00  0.18195572001E+04  0.18195572001E+04  0.25500000920E-02 0. -1.
       -2   -1    0    0    0  501  0.00000000000E+00  0.00000000000E+00 -0.79230774805E+03  0.79230774806E+03  0.25500000920E-02 0.  1.
    10030    2    1    2    0    0  0.00000000000E+00  0.00000000000E+00  0.10272494521E+04  0.26118649482E+04  0.24013739964E+04 0.  0.
        5    1    3    3  502    0  0.54190376149E+03 -0.84152110318E+03  0.12349370080E+04  0.15896254143E+04  0.46999998093E+01 0. -1.
       -5    1    3    3    0  502 -0.54190376149E+03  0.84152110318E+03 -0.20768755597E+03  0.10222395339E+04  0.46999998093E+01 0.  1.
</event>
<event>
 5   0  0.7233625E-06  0.2400868E+04  0.7818609E-02  0.8439179E-01
        4   -1    0    0  501    0  0.00000000000E+00  0.00000000000E+00  0.14188127113E+04  0.14188132797E+04  0.12699999809E+01 0. -1.
       -4   -1    0    0    0  501  0.00000000000E+00  0.00000000000E+00 -0.10156663131E+04  0.10156671072E+04  0.12699999809E+01 0.  1.
    10030    2    1    2    0    0  0.00000000000E+00  0.00000000000E+00  0.40314639819E+03  0.24344803869E+04  0.24008681213E+04 0.  0.
        2    1    3    3  502    0 -0.29595086508E+03 -0.10911222351E+04 -0.20769521752E+03  0.11494659411E+04  0.25500000920E-02 0. -1.
       -2    1    3    3    0  502  0.29595086508E+03  0.10911222351E+04  0.61084161571E+03  0.12850144458E+04  0.25500000920E-02 0.  1.
</event>
<event>
 5   0  0.8898848E-06  0.2419365E+04  0.7818609E-02  0.8432289E-01
       -1   -1    0    0    0  501  0.00000000000E+00  0.00000000000E+00  0.13473886437E+04  0.13473886437E+04  0.50400001928E-02 0.  1.
        1   -1    0    0  501    0  0.00000000000E+00  0.00000000000E+00 -0.10860497950E+04  0.10860497951E+04  0.50400001928E-02 0. -1.
    10030    2    1    2    0    0  0.00000000000E+00  0.00000000000E+00  0.26133884863E+03  0.24334384387E+04  0.24193645119E+04 0.  0.
        5    1    3    3  502    0  0.35696815274E+03 -0.77269885552E+03  0.99521555225E+03  0.13095670540E+04  0.46999998093E+01 0.  1.
       -5    1    3    3    0  502 -0.35696815274E+03  0.77269885552E+03 -0.73387670361E+03  0.11238713848E+04  0.46999998093E+01 0. -1.
</event>
<event>
 5   0  0.8528103E-06  0.2411311E+04  0.7818609E-02  0.8435281E-01
        1   -1    0    0  501    0  0.00000000000E+00  0.00000000000E+00  0.23636872693E+04  0.23636872693E+04  0.50400001928E-02 0.  1.
       -1   -1    0    0    0  501  0.00000000000E+00  0.00000000000E+00 -0.61497381393E+03  0.61497381395E+03  0.50400001928E-02 0. -1.
    10030    2    1    2    0    0  0.00000000000E+00  0.00000000000E+00  0.17487134553E+04  0.29786610832E+04  0.24113114896E+04 0.  0.
        4    1    3    3  502    0 -0.63166852306E+03 -0.79019343202E+03  0.64142926243E+02  0.10136699221E+04  0.12699999809E+01 0. -1.
       -4    1    3    3    0  502  0.63166852306E+03  0.79019343202E+03  0.16845705291E+04  0.19649911611E+04  0.12699999809E+01 0.  1.
</event>
<event>
 5   0  0.9176817E-06  0.2414477E+04  0.7818609E-02  0.8434103E-01
       -1   -1    0    0    0  501  0.00000000000E+00  0.00000000000E+00  0.97101171830E+03  0.97101171831E+03  0.50400001928E-02 0. -1.
        1   -1    0    0  501    0  0.00000000000E+00  0.00000000000E+00 -0.15009341983E+04  0.15009341983E+04  0.50400001928E-02 0.  1.
    10030    2    1    2    0    0  0.00000000000E+00  0.00000000000E+00 -0.52992247996E+03  0.24719459166E+04  0.24144769164E+04 0.  0.
        3    1    3    3  502    0  0.32224360374E+03 -0.98160673781E+03  0.37442900040E+03  0.10989039150E+04  0.10100000352E+00 0. -1.
       -3    1    3    3    0  502 -0.32224360374E+03  0.98160673781E+03 -0.90435148037E+03  0.13730420016E+04  0.10100000352E+00 0.  1.
</event>
<event>
 5   0  0.8898848E-06  0.2400203E+04  0.7818609E-02  0.8439428E-01
        1   -1    0    0  501    0  0.00000000000E+00  0.00000000000E+00  0.59669404300E+03  0.59669404302E+03  0.50400001928E-02 0.  1.
       -1   -1    0    0    0  501  0.00000000000E+00  0.00000000000E+00 -0.24137054352E+04  0.24137054352E+04  0.50400001928E-02 0. -1.
    10030    2    1    2    0    0  0.00000000000E+00  0.00000000000E+00 -0.18170113922E+04  0.30103994782E+04  0.24002030370E+04 0.  0.
        5    1    3    3  502    0  0.11004516638E+04 -0.19789001742E+03 -0.36170408573E+03  0.11751622266E+04  0.46999998093E+01 0.  1.
       -5    1    3    3    0  502 -0.11004516638E+04  0.19789001742E+03 -0.14553073064E+04  0.18352372515E+04  0.46999998093E+01 0. -1.
</event>
<event>
 5   0  0.9038897E-06  0.2401598E+04  0.7818609E-02  0.8438905E-01
        1   -1    0    0  501    0  0.00000000000E+00  0.00000000000E+00  0.22179169169E+04  0.22179169169E+04  0.50400001928E-02 0. -1.
       -1   -1    0    0    0  501  0.00000000000E+00  0.00000000000E+00 -0.65012284487E+03  0.65012284489E+03  0.50400001928E-02 0.  1.
    10030    2    1    2    0    0  0.00000000000E+00  0.00000000000E+00  0.15677940720E+04  0.28680397618E+04  0.24015981810E+04 0.  0.
        1    1    3    3  502    0  0.63177475761E+03  0.90018519022E+03  0.13596625021E+04  0.17487580852E+04  0.50400001928E-02 0. -1.
       -1    1    3    3    0  502 -0.63177475761E+03 -0.90018519022E+03  0.20813156993E+03  0.11192816766E+04  0.50400001928E-02 0.  1.
</event>
<event>
 5   0  0.7233625E-06  0.2408374E+04  0.7818609E-02  0.8436375E-01
        3   -1    0    0  501    0  0.00000000000E+00  0.00000000000E+00  0.20479041078E+04  0.20479041103E+04  0.10100000352E+00 0.  1.
       -3   -1    0    0    0  501  0.00000000000E+00  0.00000000000E+00 -0.70807346488E+03  0.70807347209E+03  0.10100000352E+00 0. -1.
    10030    2    1    2    0    0  0.00000000000E+00  0.00000000000E+00  0.13398306429E+04  0.27559775823E+04  0.24083741991E+04 0.  0.
        1    1    3    3  502    0  0.86698259090E+03 -0.57045303048E+03 -0.28962000122E+02  0.10382265024E+04  0.50400001928E-02 0. -1.
       -1    1    3    3    0  502 -0.86698259090E+03  0.57045303048E+03  0.13687926430E+04  0.17177510799E+04  0.50400001928E-02 0.  1.
</event>
<event>
 5   0  0.2080257E-05  0.2395970E+04  0.7818609E-02  0.8441014E-01
        2   -1    0    0  501    0  0.00000000000E+00  0.00000000000E+00  0.16328278778E+04  0.16328278778E+04  0.25500000920E-02 0.  1.
       -2   -1    0    0    0  501  0.00000000000E+00  0.00000000000E+00 -0.87894663251E+03  0.87894663251E+03  0.25500000920E-02 0. -1.
    10030    2    1    2    0    0  0.00000000000E+00  0.00000000000E+00  0.75388124528E+03  0.25117745103E+04  0.23959704211E+04 0.  0.
        1    1    3    3  502    0 -0.11802265211E+04 -0.18229090622E+03  0.47641602604E+03  0.12857436936E+04  0.50400001928E-02 0. -1.
       -1    1    3    3    0  502  0.11802265211E+04  0.18229090622E+03  0.27746521923E+03  0.12260308167E+04  0.50400001928E-02 0.  1.
</event>
<event>
 5   0  0.9038897E-06  0.2303657E+04  0.7818609E-02  0.8476481E-01
        1   -1    0    0  501    0  0.00000000000E+00  0.00000000000E+00  0.16442446441E+04  0.16442446441E+04  0.50400001928E-02 0. -1.
       -1   -1    0    0    0  501  0.00000000000E+00  0.00000000000E+00 -0.80688054473E+03  0.80688054475E+03  0.50400001928E-02 0.  1.
    10030    2    1    2    0    0  0.00000000000E+00  0.00000000000E+00  0.83736409940E+03  0.24511251889E+04  0.23036571048E+04 0.  0.
        1    1    3    3  502    0  0.50134925235E+03  0.79176145582E+03 -0.29386770907E+03  0.98213823173E+03  0.50400001928E-02 0.  1.
       -1    1    3    3    0  502 -0.50134925235E+03 -0.79176145582E+03  0.11312318085E+04  0.14689869572E+04  0.50400001928E-02 0. -1.
</event>
<event>
 5   0  0.2025353E-05  0.2396985E+04  0.7818609E-02  0.8440633E-01
       -2   -1    0    0    0  501  0.00000000000E+00  0.00000000000E+00  0.70832833657E+03  0.70832833657E+03  0.25500000920E-02 0.  1.
        2   -1    0    0  501    0  0.00000000000E+00  0.00000000000E+00 -0.20278507864E+04  0.20278507864E+04  0.25500000920E-02 0. -1.
    10030    2    1    2    0    0  0.00000000000E+00  0.00000000000E+00 -0.13195224498E+04  0.27361791230E+04  0.23969849181E+04 0.  0.
        4    1    3    3  502    0 -0.93737150610E+02 -0.11252787654E+04 -0.20124457978E+03  0.11469698980E+04  0.12699999809E+01 0. -1.
       -4    1    3    3    0  502  0.93737150610E+02  0.11252787654E+04 -0.11182778700E+04  0.15892092250E+04  0.12699999809E+01 0.  1.
</event>
<event>
 5   0  0.2048028E-05  0.2403577E+04  0.7818609E-02  0.8438166E-01
       -2   -1    0    0    0  501  0.00000000000E+00  0.00000000000E+00  0.91555427912E+03  0.91555427912E+03  0.25500000920E-02 0. -1.
        2   -1    0    0  501    0  0.00000000000E+00  0.00000000000E+00 -0.15775098272E+04  0.15775098272E+04  0.25500000920E-02 0.  1.
    10030    2    1    2    0    0  0.00000000000E+00  0.00000000000E+00 -0.66195554806E+03  0.24930641063E+04  0.24035772279E+04 0.  0.
        5    1    3    3  502    0 -0.51189176507E+03 -0.73717219061E+03  0.49804003032E+03  0.10264121879E+04  0.46999998093E+01 0. -1.
       -5    1    3    3    0  502  0.51189176507E+03  0.73717219061E+03 -0.11599955784E+04  0.14666519184E+04  0.46999998093E+01 0.  1.
</event>
<event>
 5   0  0.9083687E-06  0.2393252E+04  0.7818609E-02  0.8442034E-01
        1   -1    0    0  501    0  0.00000000000E+00  0.00000000000E+00  0.14878002357E+04  0.14878002357E+04  0.50400001928E-02 0.  1.
       -1   -1    0    0    0  501  0.00000000000E+00  0.00000000000E+00 -0.96243720993E+03  0.96243720994E+03  0.50400001928E-02 0. -1.
    10030    2    1    2    0    0  0.00000000000E+00  0.00000000000E+00  0.52536302577E+03  0.24502374456E+04  0.23932524378E+04 0.  0.
        2    1    3    3  502    0 -0.85372150922E+03 -0.67182545098E+03  0.77634934351E+03  0.13352558388E+04  0.25500000920E-02 0.  1.
       -2    1    3    3    0  502  0.85372150922E+03  0.67182545098E+03 -0.25098631774E+03  0.11149816068E+04  0.25500000920E-02 0. -1.
</event>
<event>
 5   0  0.9038897E-06  0.2389705E+04  0.7818609E-02  0.8443368E-01
       -1   -1    0    0    0  501  0.00000000000E+00  0.00000000000E+00  0.11358985355E+04  0.11358985355E+04  0.50400001928E-02 0. -1.
        1   -1    0    0  501    0  0.00000000000E+00  0.00000000000E+00 -0.12568665245E+04  0.12568665245E+04  0.50400001928E-02 0.  1.
    10030    2    1    2    0    0  0.00000000000E+00  0.00000000000E+00 -0.12096798906E+03  0.23927650600E+04  0.23897052911E+04 0.  0.
        1    1    3    3  502    0 -0.66900956824E+03 -0.97308667089E+03  0.12196174885E+03  0.11871588519E+04  0.50400001928E-02 0.  1.
       -1    1    3    3    0  502  0.66900956824E+03  0.97308667089E+03 -0.24292973791E+03  0.12056062081E+04  0.50400001928E-02 0. -1.
</event>
<event>
 5   0  0.2087882E-05  0.2394687E+04  0.7818609E-02  0.8441495E-01
       -2   -1    0    0    0  501  0.00000000000E+00  0.00000000000E+00  0.11874695654E+04  0.11874695654E+04  0.25500000920E-02 0.  1.
        2   -1    0    0  501    0  0.00000000000E+00  0.00000000000E+00 -0.12072997995E+04  0.12072997995E+04  0.25500000920E-02 0. -1.
    10030    2    1    2    0    0  0.00000000000E+00  0.00000000000E+00 -0.19830234100E+02  0.23947693649E+04  0.23946872599E+04 0.  0.
        2    1    3    3  502    0 -0.50278084613E+03  0.10853982593E+04 -0.62393651589E+02  0.11978192386E+04  0.25500000920E-02 0. -1.
       -2    1    3    3    0  502  0.50278084613E+03 -0.10853982593E+04  0.42563417489E+02  0.11969501264E+04  0.25500000920E-02 0.  1.
</event>
<event>
 5   0  0.9176817E-06  0.2410007E+04  0.7818609E-02  0.8435767E-01
        1   -1    0    0  501    0  0.00000000000E+00  0.00000000000E+00  0.23725676082E+04  0.23725676082E+04  0.50400001928E-02 0.  1.
       -1   -1    0    0    0  501  0.00000000000E+00  0.00000000000E+00 -0.61200924011E+03  0.61200924013E+03  0.50400001928E-02 0. -1.
    10030    2    1    2    0    0  0.00000000000E+00  0.00000000000E+00  0.17605583681E+04  0.29845768484E+04  0.24100068872E+04 0.  0.
        3    1    3    3  502    0  0.98851108985E+03 -0.79050095926E+02  0.32506114327E+02  0.99219945076E+03  0.10100000352E+00 0. -1.
       -3    1    3    3    0  502 -0.98851108985E+03  0.79050095926E+02  0.17280522538E+04  0.19923773976E+04  0.10100000352E+00 0.  1.
</event>
<event>
 5   0  0.9176817E-06  0.2475383E+04  0.7818609E-02  0.8411808E-01
        1   -1    0    0  501    0  0.00000000000E+00  0.00000000000E+00  0.24321013955E+04  0.24321013955E+04  0.50400001928E-02 0. -1.
       -1   -1    0    0    0  501  0.00000000000E+00  0.00000000000E+00 -0.62985846144E+03  0.62985846146E+03  0.50400001928E-02 0.  1.
    10030    2    1    2    0    0  0.00000000000E+00  0.00000000000E+00  0.18022429341E+04  0.30619598570E+04  0.24753825103E+04 0.  0.
        3    1    3    3  502    0  0.84155042764E+02  0.67384722823E+03  0.21810822044E+04  0.22843536834E+04  0.10100000352E+00 0. -1.
       -3    1    3    3    0  502 -0.84155042764E+02 -0.67384722823E+03 -0.37883927036E+03  0.77760617358E+03  0.10100000352E+00 0.  1.
</event>
<event>
 5   0  0.2087882E-05  0.2392012E+04  0.7818609E-02  0.8442500E-01
        2   -1    0    0  501    0  0.00000000000E+00  0.00000000000E+00  0.13845217063E+04  0.13845217063E+04  0.25500000920E-02 0.  1.
       -2   -1    0    0    0  501  0.00000000000E+00  0.00000000000E+00 -0.10331584091E+04  0.10331584091E+04  0.25500000920E-02 0. -1.
    10030    2    1    2    0    0  0.00000000000E+00  0.00000000000E+00  0.35136329728E+03  0.24176801154E+04  0.23920119092E+04 0.  0.
        2    1    3    3  502    0 -0.72272941420E+03 -0.95275037180E+03  0.19483669963E+03  0.12116238759E+04  0.25500000920E-02 0. -1.
       -2    1    3    3    0  502  0.72272941420E+03  0.95275037180E+03  0.15652659765E+03  0.12060562395E+04  0.25500000920E-02 0.  1.
</event>
<event>
 5   0  0.8898848E-06  0.2388123E+04  0.7818609E-02  0.8443964E-01
        1   -1    0    0  501    0  0.00000000000E+00  0.00000000000E+00  0.98067681172E+03  0.98067681173E+03  0.50400001928E-02 0.  1.
       -1   -1    0    0    0  501  0.00000000000E+00  0.00000000000E+00 -0.14538758321E+04  0.14538758321E+04  0.50400001928E-02 0. -1.
    10030    2    1    2    0    0  0.00000000000E+00  0.00000000000E+00 -0.47319902042E+03  0.24345526439E+04  0.23881225393E+04 0.  0.
        5    1    3    3  502    0  0.32435019799E+03  0.28236226108E+03  0.89898244398E+03  0.99655557898E+03  0.46999998093E+01 0.  1.
       -5    1    3    3    0  502 -0.32435019799E+03 -0.28236226108E+03 -0.13721814644E+04  0.14379970649E+04  0.46999998093E+01 0. -1.
</event>
<event>
 5   0  0.2122194E-05  0.2386628E+04  0.7818609E-02  0.8444527E-01
       -2   -1    0    0    0  501  0.00000000000E+00  0.00000000000E+00  0.76751999834E+03  0.76751999834E+03  0.25500000920E-02 0. -1.
        2   -1    0    0  501    0  0.00000000000E+00  0.00000000000E+00 -0.18553232808E+04  0.18553232808E+04  0.25500000920E-02 0.  1.
    10030    2    1    2    0    0  0.00000000000E+00  0.00000000000E+00 -0.10878032825E+04  0.26228432791E+04  0.23866275130E+04 0.  0.
        3    1    3    3  502    0 -0.28278924713E+03 -0.42131640783E+03 -0.17308556032E+04  0.18037013066E+04  0.10100000352E+00 0.  1.
       -3    1    3    3    0  502  0.28278924713E+03  0.42131640783E+03  0.64305232078E+03  0.81914197259E+03  0.10100000352E+00 0. -1.
</event>
<event>
 5   0  0.2122194E-05  0.2407516E+04  0.7818609E-02  0.8436695E-01
       -2   -1    0    0    0  501  0.00000000000E+00  0.00000000000E+00  0.10322549606E+04  0.10322549606E+04  0.25500000920E-02 0.  1.
        2   -1    0    0  501    0  0.00000000000E+00  0.00000000000E+00 -0.14037551179E+04  0.14037551179E+04  0.25500000920E-02 0. -1.
    10030    2    1    2    0    0  0.00000000000E+00  0.00000000000E+00 -0.37150015723E+03  0.24360100785E+04  0.24075158849E+04 0.  0.
        3    1    3    3  502    0  0.11844228605E+04 -0.14169581091E+03 -0.34921071603E+03  0.12429333649E+04  0.10100000352E+00 0.  1.
       -3    1    3    3    0  502 -0.11844228605E+04  0.14169581091E+03 -0.22289441196E+02  0.11930767136E+04  0.10100000352E+00 0. -1.
</event>
<event>
 5   0  0.2087882E-05  0.2395944E+04  0.7818609E-02  0.8441024E-01
        2   -1    0    0  501    0  0.00000000000E+00  0.00000000000E+00  0.23516512174E+04  0.23516512174E+04  0.25500000920E-02 0.  1.
       -2   -1    0    0    0  501  0.00000000000E+00  0.00000000000E+00 -0.61026787997E+03  0.61026787997E+03  0.25500000920E-02 0. -1.
    10030    2    1    2    0    0  0.00000000000E+00  0.00000000000E+00  0.17413833374E+04  0.29619190973E+04  0.23959442421E+04 0.  0.
        2    1    3    3  502    0  0.58489002996E+03  0.94067398056E+03  0.14347305169E+04  0.18125715271E+04  0.25500000920E-02 0.  1.
       -2    1    3    3    0  502 -0.58489002996E+03 -0.94067398056E+03  0.30665282053E+03  0.11493475702E+04  0.25500000920E-02 0. -1.
</event>
<event>
 5   0  0.8528103E-06  0.2417672E+04  0.7818609E-02  0.8432917E-01
       -1   -1    0    0    0  501  0.00000000000E+00  0.00000000000E+00  0.65957245758E+03  0.65957245759E+03  0.50400001928E-02 0.  1.
        1   -1    0    0  501    0  0.00000000000E+00  0.00000000000E+00 -0.22155029727E+04  0.22155029727E+04  0.50400001928E-02 0. -1.
    10030    2    1    2    0    0  0.00000000000E+00  0.00000000000E+00 -0.15559305151E+04  0.28750754303E+04  0.24176722197E+04 0.  0.
        4    1    3    3  502    0 -0.20041707863E+03 -0.47288277866E+03  0.52337007473E+03  0.73328233020E+03  0.12699999809E+01 0.  1.
       -4    1    3    3    0  502  0.20041707863E+03  0.47288277866E+03 -0.20793005899E+04  0.21417931001E+04  0.12699999809E+01 0. -1.
</event>
<event>
 5   0  0.2080257E-05  0.2384528E+04  0.7818609E-02  0.8445319E-01
       -2   -1    0    0    0  501  0.00000000000E+00  0.00000000000E+00  0.88923371911E+03  0.88923371911E+03  0.25500000920E-02 0.  1.
        2   -1    0    0  501    0  0.00000000000E+00  0.00000000000E+00 -0.15985604806E+04  0.15985604806E+04  0.25500000920E-02 0. -1.
    10030    2    1    2    0    0  0.00000000000E+00  0.00000000000E+00 -0.70932676154E+03  0.24877941998E+04  0.23845283655E+04 0.  0.
        1    1    3    3  502    0 -0.87624852299E+03 -0.74955139020E+03 -0.67086467580E+03  0.13340532875E+04  0.50400001928E-02 0. -1.
       -1    1    3    3    0  502  0.87624852299E+03  0.74955139020E+03 -0.38462085739E+02  0.11537409123E+04  0.50400001928E-02 0.  1.
</event>
<event>
 5   0  0.2087882E-05  0.2403613E+04  0.7818609E-02  0.8438152E-01
       -2   -1    0    0    0  501  0.00000000000E+00  0.00000000000E+00  0.11341845887E+04  0.11341845887E+04  0.25500000920E-02 0. -1.
        2   -1    0    0  501    0  0.00000000000E+00  0.00000000000E+00 -0.12734606646E+04  0.12734606646E+04  0.25500000920E-02 0.  1.
    10030    2    1    2    0    0  0.00000000000E+00  0.00000000000E+00 -0.13927607589E+03  0.24076452533E+04  0.24036134965E+04 0.  0.
        2    1    3    3  502    0  0.38109675340E+03 -0.81273142997E+02 -0.12084264490E+04  0.12696986027E+04  0.25500000920E-02 0.  1.
       -2    1    3    3    0  502 -0.38109675340E+03  0.81273142997E+02  0.10691503731E+04  0.11379466505E+04  0.25500000920E-02 0. -1.
</event>
<event>
 5   0  0.2025353E-05  0.2384965E+04  0.7818609E-02  0.8445154E-01
       -2   -1    0    0    0  501  0.00000000000E+00  0.00000000000E+00  0.74419549719E+03  0.74419549719E+03  0.25500000920E-02 0.  1.
        2   -1    0    0  501    0  0.00000000000E+00  0.00000000000E+00 -0.19108079681E+04  0.19108079681E+04  0.25500000920E-02 0. -1.
    10030    2    1    2    0    0  0.00000000000E+00  0.00000000000E+00 -0.11666124709E+04  0.26550034653E+04  0.23849651451E+04 0.  0.
        4    1    3    3  502    0 -0.79097792285E+03 -0.65294794977E+02  0.40746649810E+03  0.89215472014E+03  0.12699999809E+01 0.  1.
       -4    1    3    3    0  502  0.79097792285E+03  0.65294794977E+02 -0.15740789690E+04  0.17628487452E+04  0.12699999809E+01 0. -1.
</event>
<event>
 5   0  0.2122194E-05  0.2391334E+04  0.7818609E-02  0.8442755E-01
       -2   -1    0    0    0  501  0.00000000000E+00  0.00000000000E+00  0.73756036515E+03  0.73756036515E+03  0.25500000920E-02 0. -1.
        2   -1    0    0  501    0  0.00000000000E+00  0.00000000000E+00 -0.19383088715E+04  0.19383088715E+04  0.25500000920E-02 0.  1.
    10030    2    1    2    0    0  0.00000000000E+00  0.00000000000E+00 -0.12007485064E+04  0.26758692367E+04  0.23913341875E+04 0.  0.
        3    1    3    3  502    0 -0.75282826998E+03 -0.64382437770E+03 -0.13496433641E+04  0.16741557436E+04  0.10100000352E+00 0.  1.
       -3    1    3    3    0  502  0.75282826998E+03  0.64382437770E+03  0.14889485768E+03  0.10017134931E+04  0.10100000352E+00 0. -1.
</event>
<event>
 5   0  0.9083687E-06  0.2395354E+04  0.7818609E-02  0.8441245E-01
       -1   -1    0    0    0  501  0.00000000000E+00  0.00000000000E+00  0.71150413982E+03  0.71150413984E+03  0.50400001928E-02 0.  1.
        1   -1    0    0  501    0  0.00000000000E+00  0.00000000000E+00 -0.20160531357E+04  0.20160531358E+04  0.50400001928E-02 0. -1.
    10030    2    1    2    0    0  0.00000000000E+00  0.00000000000E+00 -0.13045489959E+04  0.27275572756E+04  0.23953539632E+04 0.  0.
        2    1    3    3  502    0 -0.39087021797E+03 -0.11295959054E+04 -0.56657961455E+03  0.13227920836E+04  0.25500000920E-02 0. -1.
       -2    1    3    3    0  502  0.39087021797E+03  0.11295959054E+04 -0.73796938138E+03  0.14047651920E+04  0.25500000920E-02 0.  1.
</event>
<event>
 5   0  0.2080257E-05  0.2402351E+04  0.7818609E-02  0.8438624E-01
       -2   -1    0    0    0  501  0.00000000000E+00  0.00000000000E+00  0.10749194521E+04  0.10749194521E+04  0.25500000920E-02 0.  1.
        2   -1    0    0  501    0  0.00000000000E+00  0.00000000000E+00 -0.13422611540E+04  0.13422611540E+04  0.25500000920E-02 0. -1.
    10030    2    1    2    0    0  0.00000000000E+00  0.00000000000E+00 -0.26734170190E+03  0.24171806062E+04  0.24023510354E+04 0.  0.
        1    1    3    3  502    0 -0.43268813621E+03 -0.74871615033E+03  0.70515865588E+03  0.11158152298E+04  0.50400001928E-02 0.  1.
       -1    1    3    3    0  502  0.43268813621E+03  0.74871615033E+03 -0.97250035778E+03  0.13013653764E+04  0.50400001928E-02 0. -1.
</event>
<event>
 5   0  0.2025353E-05  0.2405499E+04  0.7818609E-02  0.8437448E-01
       -2   -1    0    0    0  501  0.00000000000E+00  0.00000000000E+00  0.93591920204E+03  0.93591920204E+03  0.25500000920E-02 0. -1.
        2   -1    0    0  501    0  0.00000000000E+00  0.00000000000E+00 -0.15456532773E+04  0.15456532773E+04  0.25500000920E-02 0.  1.
    10030    2    1    2    0    0  0.00000000000E+00  0.00000000000E+00 -0.60973407522E+03  0.24815724793E+04  0.24054991847E+04 0.  0.
        4    1    3    3  502    0 -0.70934153452E+03 -0.96679688146E+03 -0.40132999938E+03  0.12644876448E+04  0.12699999809E+01 0.  1.
       -4    1    3    3    0  502  0.70934153452E+03  0.96679688146E+03 -0.20840407584E+03  0.12170848345E+04  0.12699999809E+01 0. -1.
</event>
<event>
 5   0  0.9038897E-06  0.2391137E+04  0.7818609E-02  0.8442829E-01
        1   -1    0    0  501    0  0.00000000000E+00  0.00000000000E+00  0.21773524035E+04  0.21773524035E+04  0.50400001928E-02 0.  1.
       -1   -1    0    0    0  501  0.00000000000E+00  0.00000000000E+00 -0.65647786628E+03  0.65647786630E+03  0.50400001928E-02 0. -1.
    10030    2    1    2    0    0  0.00000000000E+00  0.00000000000E+00  0.15208745372E+04  0.28338302698E+04  0.23911366837E+04 0.  0.
        1    1    3    3  502    0 -0.95550339792E+03 -0.65601123444E+03  0.41279288134E+03  0.12303395653E+04  0.50400001928E-02 0. -1.
       -1    1    3    3    0  502  0.95550339792E+03  0.65601123444E+03  0.11080816558E+04  0.16034907044E+04  0.50400001928E-02 0.  1.
</event>
<event>
 5   0  0.9083687E-06  0.2393056E+04  0.7818609E-02  0.8442108E-01
        1   -1    0    0  501    0  0.00000000000E+00  0.00000000000E+00  0.17547706740E+04  0.17547706740E+04  0.50400001928E-02 0.  1.
       -1   -1    0    0    0  501  0.00000000000E+00  0.00000000000E+00 -0.81587840505E+03  0.81587840506E+03  0.50400001928E-02 0. -1.
    10030    2    1    2    0    0  0.00000000000E+00  0.00000000000E+00  0.93889226891E+03  0.25706490790E+04  0.23930562039E+04 0.  0.
        2    1    3    3  502    0  0.89323332617E+03 -0.76895582634E+03  0.24793788795E+03  0.12044218672E+04  0.25500000920E-02 0. -1.
       -2    1    3    3    0  502 -0.89323332617E+03  0.76895582634E+03  0.69095438096E+03  0.13662272119E+04  0.25500000920E-02 0.  1.
</event>
<event>
 5   0  0.8898848E-06  0.2388788E+04  0.7818609E-02  0.8443713E-01
        1   -1    0    0  501    0  0.00000000000E+00  0.00000000000E+00  0.10355259465E+04  0.10355259465E+04  0.50400001928E-02 0.  1.
       -1   -1    0    0    0  501  0.00000000000E+00  0.00000000000E+00 -0.13776348865E+04  0.13776348865E+04  0.50400001928E-02 0. -1.
    10030    2    1    2    0    0  0.00000000000E+00  0.00000000000E+00 -0.34210894002E+03  0.24131608330E+04  0.23887877007E+04 0.  0.
        5    1    3    3  502    0  0.80117363121E+03  0.58610658827E+03  0.49991699426E+03  0.11114581464E+04  0.46999998093E+01 0.  1.
       -5    1    3    3    0  502 -0.80117363121E+03 -0.58610658827E+03 -0.84202593428E+03  0.13017026865E+04  0.46999998093E+01 0. -1.
</event>
<event>
 5   0  0.7233625E-06  0.2395288E+04  0.7818609E-02  0.8441270E-01
       -3   -1    0    0    0  501  0.00000000000E+00  0.00000000000E+00  0.11273352978E+04  0.11273353023E+04  0.10100000352E+00 0. -1.
        3   -1    0    0  501    0  0.00000000000E+00  0.00000000000E+00 -0.12723372448E+04  0.12723372488E+04  0.10100000352E+00 0.  1.
    10030    2    1    2    0    0  0.00000000000E+00  0.00000000000E+00 -0.14500194699E+03  0.23996725512E+04  0.23952876212E+04 0.  0.
        4    1    3    3  502    0  0.43827378363E+03 -0.24084487897E+03  0.10177278152E+04  0.11339584136E+04  0.12699999809E+01 0. -1.
       -4    1    3    3    0  502 -0.43827378363E+03  0.24084487897E+03 -0.11627297622E+04  0.12657141375E+04  0.12699999809E+01 0.  1.
</event>
<event>
 5   0  0.9176817E-06  0.2375088E+04  0.7818609E-02  0.8448890E-01
       -1   -1    0    0    0  501  0.00000000000E+00  0.00000000000E+00  0.10871728541E+04  0.10871728541E+04  0.50400001928E-02 0. -1.
        1   -1    0    0  501    0  0.00000000000E+00  0.00000000000E+00 -0.12971815530E+04  0.12971815530E+04  0.50400001928E-02 0.  1.
    10030    2    1    2    0    0  0.00000000000E+00  0.00000000000E+00 -0.21000869889E+03  0.23843544072E+04  0.23750878479E+04 0.  0.
        3    1    3    3  502    0  0.35648475696E+03  0.10574937982E+04  0.30264155469E+03  0.11562726478E+04  0.10100000352E+00 0. -1.
       -3    1    3    3    0  502 -0.35648475696E+03 -0.10574937982E+04 -0.51265025358E+03  0.12280817594E+04  0.10100000352E+00 0.  1.
</event>
<event>
 5   0  0.2025353E-05  0.2375598E+04  0.7818609E-02  0.8448696E-01
        2   -1    0    0  501    0  0.00000000000E+00  0.00000000000E+00  0.15434899084E+04  0.15434899084E+04  0.25500000920E-02 0.  1.
       -2   -1    0    0    0  501  0.00000000000E+00  0.00000000000E+00 -0.91407576590E+03  0.91407576590E+03  0.25500000920E-02 0. -1.
    10030    2    1    2    0    0  0.00000000000E+00  0.00000000000E+00  0.62941414248E+03  0.24575656743E+04  0.23755982153E+04 0.  0.
        4    1    3    3  502    0 -0.83194481783E+03 -0.60388835558E+03 -0.30084604463E+03  0.10711317759E+04  0.12699999809E+01 0. -1.
       -4    1    3    3    0  502  0.83194481783E+03  0.60388835558E+03  0.93026018711E+03  0.13864338984E+04  0.12699999809E+01 0.  1.
</event>
<event>
 5   0  0.9038897E-06  0.2410977E+04  0.7818609E-02  0.8435405E-01
       -1   -1    0    0    0  501  0.00000000000E+00  0.00000000000E+00  0.62328921838E+03  0.62328921840E+03  0.50400001928E-02 0. -1.
        1   -1    0    0  501    0  0.00000000000E+00  0.00000000000E+00 -0.23315056979E+04  0.23315056979E+04  0.50400001928E-02 0.  1.
    10030    2    1    2    0    0  0.00000000000E+00  0.00000000000E+00 -0.17082164796E+04  0.29547949163E+04  0.24109768677E+04 0.  0.
        1    1    3    3  502    0 -0.15826454699E+03 -0.43700004227E+03  0.50906715483E+03  0.68932290832E+03  0.50400001928E-02 0. -1.
       -1    1    3    3    0  502  0.15826454699E+03  0.43700004227E+03 -0.22172836344E+04  0.22654720080E+04  0.50400001928E-02 0.  1.
</event>
<event>
 5   0  0.2048028E-05  0.2397066E+04  0.7818609E-02  0.8440603E-01
       -2   -1    0    0    0  501  0.00000000000E+00  0.00000000000E+00  0.13366803570E+04  0.13366803570E+04  0.25500000920E-02 0. -1.
        2   -1    0    0  501    0  0.00000000000E+00  0.00000000000E+00 -0.10746630942E+04  0.10746630942E+04  0.25500000920E-02 0.  1.
    10030    2    1    2    0    0  0.00000000000E+00  0.00000000000E+00  0.26201726282E+03  0.24113434512E+04  0.23970657466E+04 0.  0.
        5    1    3    3  502    0  0.74471746865E+02  0.73421978609E+03 -0.81898609161E+03  0.11024450298E+04  0.46999998093E+01 0.  1.
       -5    1    3    3    0  502 -0.74471746865E+02 -0.73421978609E+03  0.10810033544E+04  0.13088984214E+04  0.46999998093E+01 0. -1.
</event>
<event>
 5   0  0.2048028E-05  0.2418718E+04  0.7818609E-02  0.8432529E-01
        2   -1    0    0  501    0  0.00000000000E+00  0.00000000000E+00  0.11296950580E+04  0.11296950580E+04  0.25500000920E-02 0. -1.
       -2   -1    0    0    0  501  0.00000000000E+00  0.00000000000E+00 -0.12946405921E+04  0.12946405921E+04  0.25500000920E-02 0.  1.
    10030    2    1    2    0    0  0.00000000000E+00  0.00000000000E+00 -0.16494553414E+03  0.24243356501E+04  0.24187179073E+04 0.  0.
        5    1    3    3  502    0  0.11856125334E+04 -0.17243972535E+03 -0.24751987998E+03  0.12233972042E+04  0.46999998093E+01 0.  1.
       -5    1    3    3    0  502 -0.11856125334E+04  0.17243972535E+03  0.82574345842E+02  0.12009384459E+04  0.46999998093E+01 0. -1.
</event>
<event>
 5   0  0.2048028E-05  0.2138468E+04  0.7818609E-02  0.8544485E-01
       -2   -1    0    0    0  501  0.00000000000E+00  0.00000000000E+00  0.91333927193E+03  0.91333927193E+03  0.25500000920E-02 0.  1.
        2   -1    0    0  501    0  0.00000000000E+00  0.00000000000E+00 -0.12517373480E+04  0.12517373480E+04  0.25500000920E-02 0. -1.
    10030    2    1    2    0    0  0.00000000000E+00  0.00000000000E+00 -0.33839807604E+03  0.21650766199E+04  0.21384675616E+04 0.  0.
        5    1    3    3  502    0 -0.54277204409E+03  0.88907763856E+03 -0.41340199912E+03  0.11207068493E+04  0.46999998093E+01 0. -1.
       -5    1    3    3    0  502  0.54277204409E+03 -0.88907763856E+03  0.75003923082E+02  0.10443697706E+04  0.46999998093E+01 0.  1.
</event>
<event>
 5   0  0.2087882E-05  0.2398931E+04  0.7818609E-02  0.8439904E-01
        2   -1    0    0  501    0  0.00000000000E+00  0.00000000000E+00  0.15014806630E+04  0.15014806630E+04  0.25500000920E-02 0. -1.
       -2   -1    0    0    0  501  0.00000000000E+00  0.00000000000E+00 -0.95819875997E+03  0.95819875997E+03  0.25500000920E-02 0.  1.
    10030    2    1    2    0    0  0.00000000000E+00  0.00000000000E+00  0.54328190302E+03  0.24596794230E+04  0.23989305195E+04 0.  0.
        2    1    3    3  502    0  0.11974128704E+04 -0.17473149410E+02  0.34128762763E+03  0.12452229270E+04  0.25500000920E-02 0. -1.
       -2    1    3    3    0  502 -0.11974128704E+04  0.17473149410E+02  0.20199427539E+03  0.12144564959E+04  0.25500000920E-02 0.  1.
</event>
<event>
 5   0  0.8528103E-06  0.2418564E+04  0.7818609E-02  0.8432586E-01
        1   -1    0    0  501    0  0.00000000000E+00  0.00000000000E+00  0.26025995256E+04  0.26025995256E+04  0.50400001928E-02 0. -1.
       -1   -1    0    0    0  501  0.00000000000E+00  0.00000000000E+00 -0.56188565002E+03  0.56188565004E+03  0.50400001928E-02 0.  1.
    10030    2    1    2    0    0  0.00000000000E+00  0.00000000000E+00  0.20407138756E+04  0.31644851757E+04  0.24185643066E+04 0.  0.
        4    1    3    3  502    0  0.10166371849E+03  0.41773628743E+03 -0.45851211704E+03  0.62854919606E+03  0.12699999809E+01 0.  1.
       -4    1    3    3    0  502 -0.10166371849E+03 -0.41773628743E+03  0.24992259927E+04  0.25359359796E+04  0.12699999809E+01 0. -1.
</event>
<event>
 5   0  0.2080257E-05  0.2398626E+04  0.7818609E-02  0.8440018E-01
        2   -1    0    0  501    0  0.00000000000E+00  0.00000000000E+00  0.18243683269E+04  0.18243683269E+04  0.25500000920E-02 0.  1.
       -2   -1    0    0    0  501  0.00000000000E+00  0.00000000000E+00 -0.78841054880E+03  0.78841054880E+03  0.25500000920E-02 0. -1.
    10030    2    1    2    0    0  0.00000000000E+00  0.00000000000E+00  0.10359577781E+04  0.26127788757E+04  0.23986256347E+04 0.  0.
        1    1    3    3  502    0 -0.10851414543E+04  0.90680449751E+02 -0.29482745648E+02  0.10893227951E+04  0.50400001928E-02 0. -1.
       -1    1    3    3    0  502  0.10851414543E+04 -0.90680449751E+02  0.10654405237E+04  0.15234560805E+04  0.50400001928E-02 0.  1.
</event>
<event>
 5   0  0.2048028E-05  0.2307760E+04  0.7818609E-02  0.8474868E-01
        2   -1    0    0  501    0  0.00000000000E+00  0.00000000000E+00  0.18134139847E+04  0.18134139847E+04  0.25500000920E-02 0.  1.
       -2   -1    0    0    0  501  0.00000000000E+00  0.00000000000E+00 -0.73421662642E+03  0.73421662642E+03  0.25500000920E-02 0. -1.
    10030    2    1    2    0    0  0.00000000000E+00  0.00000000000E+00  0.10791973583E+04  0.25476306111E+04  0.23077596912E+04 0.  0.
        5    1    3    3  502    0  0.11879243504E+03  0.10100704073E+04  0.11412847599E+04  0.15286944964E+04  0.46999998093E+01 0. -1.
       -5    1    3    3    0  502 -0.11879243504E+03 -0.10100704073E+04 -0.62087401623E+02  0.10189361147E+04  0.46999998093E+01 0.  1.
</event>
<event>
 5   0  0.2025353E-05  0.2420223E+04  0.7818609E-02  0.8431971E-01
        2   -1    0    0  501    0  0.00000000000E+00  0.00000000000E+00  0.86808754263E+03  0.86808754264E+03  0.25500000920E-02 0. -1.
       -2   -1    0    0    0  501  0.00000000000E+00  0.00000000000E+00 -0.16868921010E+04  0.16868921010E+04  0.25500000920E-02 0.  1.
    10030    2    1    2    0    0  0.00000000000E+00  0.00000000000E+00 -0.81880455841E+03  0.25549796437E+04  0.24202231457E+04 0.  0.
        4    1    3    3  502    0  0.64567796646E+03 -0.36283942256E+03 -0.14196691914E+04  0.16012541050E+04  0.12699999809E+01 0.  1.
       -4    1    3    3    0  502 -0.64567796646E+03  0.36283942256E+03  0.60086463302E+03  0.95372553863E+03  0.12699999809E+01 0. -1.
</event>
<event>
 5   0  0.2122194E-05  0.2393738E+04  0.7818609E-02  0.8441852E-01
        2   -1    0    0  501    0  0.00000000000E+00  0.00000000000E+00  0.89580868842E+03  0.89580868843E+03  0.25500000920E-02 0.  1.
       -2   -1    0    0    0  501  0.00000000000E+00  0.00000000000E+00 -0.15991084831E+04  0.15991084831E+04  0.25500000920E-02 0. -1.
    10030    2    1    2    0    0  0.00000000000E+00  0.00000000000E+00 -0.70329979463E+03  0.24949171715E+04  0.23937378911E+04 0.  0.
        3    1    3    3  502    0 -0.28093956261E+03  0.47020011436E+03  0.75751169607E+03  0.93479364850E+03  0.10100000352E+00 0.  1.
       -3    1    3    3    0  502  0.28093956261E+03 -0.47020011436E+03 -0.14608114907E+04  0.15601235230E+04  0.10100000352E+00 0. -1.
</event>
<event>
 5   0  0.2048028E-05  0.2399207E+04  0.7818609E-02  0.8439801E-01
       -2   -1    0    0    0  501  0.00000000000E+00  0.00000000000E+00  0.59793322804E+03  0.59793322805E+03  0.25500000920E-02 0. -1.
        2   -1    0    0  501    0  0.00000000000E+00  0.00000000000E+00 -0.24067037593E+04  0.24067037593E+04  0.25500000920E-02 0.  1.
    10030    2    1    2    0    0  0.00000000000E+00  0.00000000000E+00 -0.18087705312E+04  0.30046369873E+04  0.23992066587E+04 0.  0.
        5    1    3    3  502    0  0.16153539723E+03  0.68280612458E+03 -0.21229045688E+04  0.22358586240E+04  0.46999998093E+01 0.  1.
       -5    1    3    3    0  502 -0.16153539723E+03 -0.68280612458E+03  0.31413403758E+03  0.76877836330E+03  0.46999998093E+01 0. -1.
</event>
<event>
 5   0  0.8528103E-06  0.2382439E+04  0.7818609E-02  0.8446107E-01
       -1   -1    0    0    0  501  0.00000000000E+00  0.00000000000E+00  0.11057907512E+04  0.11057907512E+04  0.50400001928E-02 0.  1.
        1   -1    0    0  501    0  0.00000000000E+00  0.00000000000E+00 -0.12832486116E+04  0.12832486116E+04  0.50400001928E-02 0. -1.
    10030    2    1    2    0    0  0.00000000000E+00  0.00000000000E+00 -0.17745786041E+03  0.23890393629E+04  0.23824394610E+04 0.  0.
        4    1    3    3  502    0  0.34618735068E+03  0.93214647882E+03  0.56903032145E+03  0.11456613197E+04  0.12699999809E+01 0.  1.
       -4    1    3    3    0  502 -0.34618735068E+03 -0.93214647882E+03 -0.74648818187E+03  0.12433780432E+04  0.12699999809E+01 0. -1.
</event>
<event>
 5   0  0.9176817E-06  0.2381673E+04  0.7818609E-02  0.8446397E-01
       -1   -1    0    0    0  501  0.00000000000E+00  0.00000000000E+00  0.70728286017E+03  0.70728286019E+03  0.50400001928E-02 0.  1.
        1   -1    0    0  501    0  0.00000000000E+00  0.00000000000E+00 -0.20049856592E+04  0.20049856592E+04  0.50400001928E-02 0. -1.
    10030    2    1    2    0    0  0.00000000000E+00  0.00000000000E+00 -0.12977027990E+04  0.27122685194E+04  0.23816733543E+04 0.  0.
        3    1    3    3  502    0  0.11869495427E+04  0.86274835909E+02 -0.69715910803E+03  0.13792474021E+04  0.10100000352E+00 0. -1.
       -3    1    3    3    0  502 -0.11869495427E+04 -0.86274835909E+02 -0.60054369101E+03  0.13330211173E+04  0.10100000352E+00 0.  1.
</event>
<event>
 5   0  0.8898848E-06  0.2303912E+04  0.7818609E-02  0.8476380E-01
        1   -1    0    0  501    0  0.00000000000E+00  0.00000000000E+00  0.76602065087E+03  0.76602065088E+03  0.50400001928E-02 0. -1.
       -1   -1    0    0    0  501  0.00000000000E+00  0.00000000000E+00 -0.17323323027E+04  0.17323323027E+04  0.50400001928E-02 0.  1.
    10030    2    1    2    0    0  0.00000000000E+00  0.00000000000E+00 -0.96631165187E+03  0.24983529536E+04  0.23039117328E+04 0.  0.
        5    1    3    3  502    0  0.60405477433E+03  0.36808778355E+03  0.50275613940E+03  0.86784596127E+03  0.46999998093E+01 0. -1.
       -5    1    3    3    0  502 -0.60405477433E+03 -0.36808778355E+03 -0.14690677913E+04  0.16305069924E+04  0.46999998093E+01 0.  1.
</event>
<event>
 5   0  0.2080257E-05  0.2408384E+04  0.7818609E-02  0.8436371E-01
       -2   -1    0    0    0  501  0.00000000000E+00  0.00000000000E+00  0.69296912792E+03  0.69296912792E+03  0.25500000920E-02 0.  1.
        2   -1    0    0  501    0  0.00000000000E+00  0.00000000000E+00 -0.20925591530E+04  0.20925591531E+04  0.25500000920E-02 0. -1.
    10030    2    1    2    0    0  0.00000000000E+00  0.00000000000E+00 -0.13995900251E+04  0.27855282810E+04  0.24083844306E+04 0.  0.
        1    1    3    3  502    0  0.44465074212E+03  0.95395169428E+03 -0.23071797592E+02  0.10527442355E+04  0.50400001928E-02 0.  1.
       -1    1    3    3    0  502 -0.44465074212E+03 -0.95395169428E+03 -0.13765182275E+04  0.17327840455E+04  0.50400001928E-02 0. -1.
</event>
<event>
 5   0  0.2048028E-05  0.2403933E+04  0.7818609E-02  0.8438033E-01
        2   -1    0    0  501    0  0.00000000000E+00  0.00000000000E+00  0.13390138632E+04  0.13390138632E+04  0.25500000920E-02 0. -1.
       -2   -1    0    0    0  501  0.00000000000E+00  0.00000000000E+00 -0.10789454288E+04  0.10789454288E+04  0.25500000920E-02 0.  1.
    10030    2    1    2    0    0  0.00000000000E+00  0.00000000000E+00  0.26006843444E+03  0.24179592920E+04  0.24039325172E+04 0.  0.
        5    1    3    3  502    0  0.33867521506E+02  0.27697598667E+03 -0.10459060160E+04  0.10824990487E+04  0.46999998093E+01 0.  1.
       -5    1    3    3    0  502 -0.33867521506E+02 -0.27697598667E+03  0.13059744504E+04  0.13354602433E+04  0.46999998093E+01 0. -1.
</event>
<event>
 5   0  0.8898848E-06  0.2396743E+04  0.7818609E-02  0.8440724E-01
       -1   -1    0    0    0  501  0.00000000000E+00  0.00000000000E+00  0.13395747814E+04  0.13395747814E+04  0.50400001928E-02 0.  1.
        1   -1    0    0  501    0  0.00000000000E+00  0.00000000000E+00 -0.10720524609E+04  0.10720524609E+04  0.50400001928E-02 0. -1.
    10030    2    1    2    0    0  0.00000000000E+00  0.00000000000E+00  0.26752232052E+03  0.24116272423E+04  0.23967431577E+04 0.  0.
        5    1    3    3  502    0 -0.10273326519E+04 -0.43651893391E+03  0.57248630832E+03  0.12544814947E+04  0.46999998093E+01 0.  1.
       -5    1    3    3    0  502  0.10273326519E+04  0.43651893391E+03 -0.30496398780E+03  0.11571457476E+04  0.46999998093E+01 0. -1.
</event>
<event>
 5   0  0.9038897E-06  0.2412833E+04  0.7818609E-02  0.8434715E-01
        1   -1    0    0  501    0  0.00000000000E+00  0.00000000000E+00  0.20344116364E+04  0.20344116364E+04  0.50400001928E-02 0. -1.
       -1   -1    0    0    0  501  0.00000000000E+00  0.00000000000E+00 -0.71541093411E+03  0.71541093413E+03  0.50400001928E-02 0.  1.
    10030    2    1    2    0    0  0.00000000000E+00  0.00000000000E+00  0.13190007023E+04  0.27498225705E+04  0.24128326334E+04 0.  0.
        1    1    3    3  502    0 -0.12005211990E+04  0.86194958279E+02  0.75320006502E+03  0.14198559991E+04  0.50400001928E-02 0. -1.
       -1    1    3    3    0  502  0.12005211990E+04 -0.86194958279E+02  0.56580063723E+03  0.13299665715E+04  0.50400001928E-02 0.  1.
</event>
<event>
 5   0  0.2025353E-05  0.2399198E+04  0.7818609E-02  0.8439804E-01
        2   -1    0    0  501    0  0.00000000000E+00  0.00000000000E+00  0.87973715206E+03  0.87973715206E+03  0.25500000920E-02 0. -1.
       -2   -1    0    0    0  501  0.00000000000E+00  0.00000000000E+00 -0.16357584725E+04  0.16357584725E+04  0.25500000920E-02 0.  1.
    10030    2    1    2    0    0  0.00000000000E+00  0.00000000000E+00 -0.75602132043E+03  0.25154956245E+04  0.23991977826E+04 0.  0.
        4    1    3    3  502    0  0.69472416343E+03  0.44441948724E+03 -0.12913783715E+04  0.15322565240E+04  0.12699999809E+01 0.  1.
       -4    1    3    3    0  502 -0.69472416343E+03 -0.44441948724E+03  0.53535705109E+03  0.98323910059E+03  0.12699999809E+01 0. -1.
</event>
<event>
 5   0  0.9038897E-06  0.2422470E+04  0.7818609E-02  0.8431139E-01
       -1   -1    0    0    0  501  0.00000000000E+00  0.00000000000E+00  0.77033065419E+03  0.77033065421E+03  0.50400001928E-02 0.  1.
        1   -1    0    0  501    0  0.00000000000E+00  0.00000000000E+00 -0.19044940895E+04  0.19044940895E+04  0.50400001928E-02 0. -1.
    10030    2    1    2    0    0  0.00000000000E+00  0.00000000000E+00 -0.11341634353E+04  0.26748247438E+04  0.24224699610E+04 0.  0.
        1    1    3    3  502    0  0.21975220842E+03 -0.80513981833E+03  0.40217108881E+03  0.92643550497E+03  0.50400001928E-02 0.  1.
       -1    1    3    3    0  502 -0.21975220842E+03  0.80513981833E+03 -0.15363345242E+04  0.17483892388E+04  0.50400001928E-02 0. -1.
</event>
<event>
 5   0  0.2025353E-05  0.2405927E+04  0.7818609E-02  0.8437288E-01
        2   -1    0    0  501    0  0.00000000000E+00  0.00000000000E+00  0.71442745174E+03  0.71442745175E+03  0.25500000920E-02 0. -1.
       -2   -1    0    0    0  501  0.00000000000E+00  0.00000000000E+00 -0.20255672485E+04  0.20255672485E+04  0.25500000920E-02 0.  1.
    10030    2    1    2    0    0  0.00000000000E+00  0.00000000000E+00 -0.13111397968E+04  0.27399947002E+04  0.24059267218E+04 0.  0.
        4    1    3    3  502    0 -0.68863000924E+03 -0.91556737591E+03 -0.10734592976E+04  0.15699654091E+04  0.12699999809E+01 0. -1.
       -4    1    3    3    0  502  0.68863000924E+03  0.91556737591E+03 -0.23768049917E+03  0.11700292911E+04  0.12699999809E+01 0.  1.
</event>
<event>
 5   0  0.2080257E-05  0.2387116E+04  0.7818609E-02  0.8444343E-01
       -2   -1    0    0    0  501  0.00000000000E+00  0.00000000000E+00  0.81827498561E+03  0.81827498561E+03  0.25500000920E-02 0. -1.
        2   -1    0    0  501    0  0.00000000000E+00  0.00000000000E+00 -0.17409565682E+04  0.17409565682E+04  0.25500000920E-02 0.  1.
    10030    2    1    2    0    0  0.00000000000E+00  0.00000000000E+00 -0.92268158257E+03  0.25592315538E+04  0.23871164285E+04 0.  0.
        1    1    3    3  502    0  0.10171284573E+04  0.17911179329E+02  0.20793761291E+03  0.10383203551E+04  0.50400001928E-02 0. -1.
       -1    1    3    3    0  502 -0.10171284573E+04 -0.17911179329E+02 -0.11306191955E+04  0.15209111987E+04  0.50400001928E-02 0.  1.
</event>
<event>
 5   0  0.2048028E-05  0.2390004E+04  0.7818609E-02  0.8443255E-01
       -2   -1    0    0    0  501  0.00000000000E+00  0.00000000000E+00  0.10073683595E+04  0.10073683595E+04  0.25500000920E-02 0.  1.
        2   -1    0    0  501    0  0.00000000000E+00  0.00000000000E+00 -0.14175849638E+04  0.14175849638E+04  0.25500000920E-02 0. -1.
    10030    2    1    2    0    0  0.00000000000E+00  0.00000000000E+00 -0.41021660433E+03  0.24249533233E+04  0.23900043845E+04 0.  0.
        5    1    3    3  502    0 -0.64829789960E+03  0.34225403159E+03  0.75239701412E+03  0.10505005215E+04  0.46999998093E+01 0.  1.
       -5    1    3    3    0  502  0.64829789960E+03 -0.34225403159E+03 -0.11626136185E+04  0.13744528019E+04  0.46999998093E+01 0. -1.
</event>
<event>
 5   0  0.9038897E-06  0.2412035E+04  0.7818609E-02  0.8435012E-01
       -1   -1    0    0    0  501  0.00000000000E+00  0.00000000000E+00  0.13074914131E+04  0.13074914131E+04  0.50400001928E-02 0. -1.
        1   -1    0    0  501    0  0.00000000000E+00  0.00000000000E+00 -0.11124186058E+04  0.11124186059E+04  0.50400001928E-02 0.  1.
    10030    2    1    2    0    0  0.00000000000E+00  0.00000000000E+00  0.19507280726E+03  0.24199100190E+04  0.24120346390E+04 0.  0.
        1    1    3    3  502    0 -0.10747268841E+04  0.45430752264E+03  0.40356443190E+03  0.12346244171E+04  0.50400001928E-02 0.  1.
       -1    1    3    3    0  502  0.10747268841E+04 -0.45430752264E+03 -0.20849162464E+03  0.11852856019E+04  0.50400001928E-02 0. -1.
</event>
<event>
 5   0  0.7233625E-06  0.2406292E+04  0.7818609E-02  0.8437152E-01
       -3   -1    0    0    0  501  0.00000000000E+00  0.00000000000E+00  0.20493877607E+04  0.20493877632E+04  0.10100000352E+00 0.  1.
        3   -1    0    0  501    0  0.00000000000E+00  0.00000000000E+00 -0.70633820388E+03  0.70633821111E+03  0.10100000352E+00 0. -1.
    10030    2    1    2    0    0  0.00000000000E+00  0.00000000000E+00  0.13430495568E+04  0.27557259743E+04  0.24062924871E+04 0.  0.
        2    1    3    3  502    0  0.39467870501E+03  0.11095296347E+04  0.38929547672E+03  0.12403137743E+04  0.25500000920E-02 0. -1.
       -2    1    3    3    0  502 -0.39467870501E+03 -0.11095296347E+04  0.95375408012E+03  0.15154122000E+04  0.25500000920E-02 0.  1.
</event>
<event>
 5   0  0.2025353E-05  0.2324338E+04  0.7818609E-02  0.8468387E-01
       -2   -1    0    0    0  501  0.00000000000E+00  0.00000000000E+00  0.93870127881E+03  0.93870127881E+03  0.25500000920E-02 0. -1.
        2   -1    0    0  501    0  0.00000000000E+00  0.00000000000E+00 -0.14388349918E+04  0.14388349918E+04  0.25500000920E-02 0.  1.
    10030    2    1    2    0    0  0.00000000000E+00  0.00000000000E+00 -0.50013371297E+03  0.23775362706E+04  0.23243375373E+04 0.  0.
        4    1    3    3  502    0 -0.70795582063E+03 -0.64274181870E+03 -0.92572745961E+03  0.13308987309E+04  0.12699999809E+01 0.  1.
       -4    1    3    3    0  502  0.70795582063E+03  0.64274181870E+03  0.42559374664E+03  0.10466375397E+04  0.12699999809E+01 0. -1.
</event>
<event>
 5   0  0.8528103E-06  0.2426056E+04  0.7818609E-02  0.8429813E-01
        1   -1    0    0  501    0  0.00000000000E+00  0.00000000000E+00  0.14156305979E+04  0.14156305979E+04  0.50400001928E-02 0.  1.
       -1   -1    0    0    0  501  0.00000000000E+00  0.00000000000E+00 -0.10394211128E+04  0.10394211128E+04  0.50400001928E-02 0. -1.
    10030    2    1    2    0    0  0.00000000000E+00  0.00000000000E+00  0.37620948515E+03  0.24550517107E+04  0.24260555075E+04 0.  0.
        4    1    3    3  502    0 -0.69924233306E+03  0.93852362532E+03 -0.13456084868E+03  0.11780809270E+04  0.12699999809E+01 0. -1.
       -4    1    3    3    0  502  0.69924233306E+03 -0.93852362532E+03  0.51077033383E+03  0.12769707837E+04  0.12699999809E+01 0.  1.
</event>
<event>
 5   0  0.2025353E-05  0.2399241E+04  0.7818609E-02  0.8439788E-01
        2   -1    0    0  501    0  0.00000000000E+00  0.00000000000E+00  0.13059106000E+04  0.13059106000E+04  0.25500000920E-02 0. -1.
       -2   -1    0    0    0  501  0.00000000000E+00  0.00000000000E+00 -0.11019818842E+04  0.11019818842E+04  0.25500000920E-02 0.  1.
    10030    2    1    2    0    0  0.00000000000E+00  0.00000000000E+00  0.20392871581E+03  0.24078924842E+04  0.23992413998E+04 0.  0.
        4    1    3    3  502    0  0.11356858137E+04 -0.26050964374E+03 -0.18444276188E+03  0.11796899115E+04  0.12699999809E+01 0.  1.
       -4    1    3    3    0  502 -0.11356858137E+04  0.26050964374E+03  0.38837147770E+03  0.12282025727E+04  0.12699999809E+01 0. -1.
</event>
<event>
 5   0  0.9083687E-06  0.2388632E+04  0.7818609E-02  0.8443772E-01
        1   -1    0    0  501    0  0.00000000000E+00  0.00000000000E+00  0.15790687184E+04  0.15790687184E+04  0.50400001928E-02 0.  1.
       -1   -1    0    0    0  501  0.00000000000E+00  0.00000000000E+00 -0.90331147854E+03  0.90331147856E+03  0.50400001928E-02 0. -1.
    10030    2    1    2    0    0  0.00000000000E+00  0.00000000000E+00  0.67575723990E+03  0.24823801970E+04  0.23886321599E+04 0.  0.
        2    1    3    3  502    0 -0.68224787919E+03 -0.22043866767E+03  0.13305290054E+04  0.15114108670E+04  0.25500000920E-02 0.  1.
       -2    1    3    3    0  502  0.68224787919E+03  0.22043866767E+03 -0.65477176548E+03  0.97096932997E+03  0.25500000920E-02 0. -1.
</event>
<event>
 5   0  0.2080257E-05  0.2398352E+04  0.7818609E-02  0.8440121E-01
       -2   -1    0    0    0  501  0.00000000000E+00  0.00000000000E+00  0.92053304211E+03  0.92053304212E+03  0.25500000920E-02 0.  1.
        2   -1    0    0  501    0  0.00000000000E+00  0.00000000000E+00 -0.15621629120E+04  0.15621629120E+04  0.25500000920E-02 0. -1.
    10030    2    1    2    0    0  0.00000000000E+00  0.00000000000E+00 -0.64162986989E+03  0.24826959541E+04  0.23983515820E+04 0.  0.
        1    1    3    3  502    0 -0.10468360907E+04 -0.46738113709E+03  0.43281131625E+02  0.11472507069E+04  0.50400001928E-02 0. -1.
       -1    1    3    3    0  502  0.10468360907E+04  0.46738113709E+03 -0.68491100151E+03  0.13354452472E+04  0.50400001928E-02 0.  1.
</event>
<event>
 5   0  0.9038897E-06  0.2403852E+04  0.7818609E-02  0.8438063E-01
        1   -1    0    0  501    0  0.00000000000E+00  0.00000000000E+00  0.21944031734E+04  0.21944031735E+04  0.50400001928E-02 0.  1.
       -1   -1    0    0    0  501  0.00000000000E+00  0.00000000000E+00 -0.65832301509E+03  0.65832301511E+03  0.50400001928E-02 0. -1.
    10030    2    1    2    0    0  0.00000000000E+00  0.00000000000E+00  0.15360801584E+04  0.28527261886E+04  0.24038520033E+04 0.  0.
        1    1    3    3  502    0 -0.88019488838E+03 -0.28545586281E+03  0.16783472525E+04  0.19165274825E+04  0.50400001928E-02 0.  1.
       -1    1    3    3    0  502  0.88019488838E+03  0.28545586281E+03 -0.14226709414E+03  0.93619870607E+03  0.50400001928E-02 0. -1.
</event>
<event>
 5   0  0.9038897E-06  0.2406017E+04  0.7818609E-02  0.8437254E-01
        1   -1    0    0  501    0  0.00000000000E+00  0.00000000000E+00  0.12656098413E+04  0.12656098413E+04  0.50400001928E-02 0. -1.
       -1   -1    0    0    0  501  0.00000000000E+00  0.00000000000E+00 -0.11435037033E+04  0.11435037033E+04  0.50400001928E-02 0.  1.
    10030    2    1    2    0    0  0.00000000000E+00  0.00000000000E+00  0.12210613802E+03  0.24091135445E+04  0.24060170743E+04 0.  0.
        1    1    3    3  502    0 -0.25771807215E+03  0.75792562289E+03 -0.83807792358E+03  0.11589842365E+04  0.50400001928E-02 0.  1.
       -1    1    3    3    0  502  0.25771807215E+03 -0.75792562289E+03  0.96018406160E+03  0.12501293080E+04  0.50400001928E-02 0. -1.
</event>
<event>
 5   0  0.9176817E-06  0.2390393E+04  0.7818609E-02  0.8443109E-01
        1   -1    0    0  501    0  0.00000000000E+00  0.00000000000E+00  0.10949115758E+04  0.10949115758E+04  0.50400001928E-02 0. -1.
       -1   -1    0    0    0  501  0.00000000000E+00  0.00000000000E+00 -0.13046661816E+04  0.13046661816E+04  0.50400001928E-02 0.  1.
    10030    2    1    2    0    0  0.00000000000E+00  0.00000000000E+00 -0.20975460579E+03  0.23995777574E+04  0.23903925240E+04 0.  0.
        3    1    3    3  502    0  0.23931265411E+03 -0.19580067572E+03  0.10540656282E+04  0.10984820480E+04  0.10100000352E+00 0. -1.
       -3    1    3    3    0  502 -0.23931265411E+03  0.19580067572E+03 -0.12638202340E+04  0.13010957094E+04  0.10100000352E+00 0.  1.
</event>
<event>
 5   0  0.2122194E-05  0.2410826E+04  0.7818609E-02  0.8435462E-01
       -2   -1    0    0    0  501  0.00000000000E+00  0.00000000000E+00  0.16240575030E+04  0.16240575030E+04  0.25500000920E-02 0.  1.
        2   -1    0    0  501    0  0.00000000000E+00  0.00000000000E+00 -0.89468532819E+03  0.89468532820E+03  0.25500000920E-02 0. -1.
    10030    2    1    2    0    0  0.00000000000E+00  0.00000000000E+00  0.72937217482E+03  0.25187428312E+04  0.24108259332E+04 0.  0.
        3    1    3    3  502    0  0.21020089243E+03 -0.81647902333E+02  0.16018243774E+04  0.16176192819E+04  0.10100000352E+00 0.  1.
       -3    1    3    3    0  502 -0.21020089243E+03  0.81647902333E+02 -0.87245220255E+03  0.90112354928E+03  0.10100000352E+00 0. -1.
</event>
<event>
 5   0  0.2087882E-05  0.2368519E+04  0.7818609E-02  0.8451385E-01
        2   -1    0    0  501    0  0.00000000000E+00  0.00000000000E+00  0.12090186655E+04  0.12090186655E+04  0.25500000920E-02 0. -1.
       -2   -1    0    0    0  501  0.00000000000E+00  0.00000000000E+00 -0.11600071103E+04  0.11600071103E+04  0.25500000920E-02 0.  1.
    10030    2    1    2    0    0  0.00000000000E+00  0.00000000000E+00  0.49011555177E+02  0.23690257758E+04  0.23685187341E+04 0.  0.
        2    1    3    3  502    0 -0.85994766552E+02  0.28861871620E+02  0.12055388638E+04  0.12089466736E+04  0.25500000920E-02 0. -1.
       -2    1    3    3    0  502  0.85994766552E+02 -0.28861871620E+02 -0.11565273087E+04  0.11600791021E+04  0.25500000920E-02 0.  1.
</event>
<event>
 5   0  0.8528103E-06  0.2411718E+04  0.7818609E-02  0.8435130E-01
        1   -1    0    0  501    0  0.00000000000E+00  0.00000000000E+00  0.10221018933E+04  0.10221018933E+04  0.50400001928E-02 0. -1.
       -1   -1    0    0    0  501  0.00000000000E+00  0.00000000000E+00 -0.14226523300E+04  0.14226523300E+04  0.50400001928E-02 0.  1.
    10030    2    1    2    0    0  0.00000000000E+00  0.00000000000E+00 -0.40055043670E+03  0.24447542232E+04  0.24117177612E+04 0.  0.
        4    1    3    3  502    0  0.64790579368E+03  0.40206808702E+03 -0.11472307964E+04  0.13775270513E+04  0.12699999809E+01 0.  1.
       -4    1    3    3    0  502 -0.64790579368E+03 -0.40206808702E+03  0.74668035967E+03  0.10672271719E+04  0.12699999809E+01 0. -1.
</event>
<event>
 5   0  0.2025353E-05  0.2381243E+04  0.7818609E-02  0.8446560E-01
       -2   -1    0    0    0  501  0.00000000000E+00  0.00000000000E+00  0.74290578140E+03  0.74290578140E+03  0.25500000920E-02 0.  1.
        2   -1    0    0  501    0  0.00000000000E+00  0.00000000000E+00 -0.19081547904E+04  0.19081547904E+04  0.25500000920E-02 0. -1.
    10030    2    1    2    0    0  0.00000000000E+00  0.00000000000E+00 -0.11652490090E+04  0.26510605718E+04  0.23812427223E+04 0.  0.
        4    1    3    3  502    0  0.62513093173E+03 -0.58631184735E+03  0.33747549739E+03  0.92110889063E+03  0.12699999809E+01 0.  1.
       -4    1    3    3    0  502 -0.62513093173E+03  0.58631184735E+03 -0.15027245064E+04  0.17299516811E+04  0.12699999809E+01 0. -1.
</event>
<event>
 5   0  0.2048028E-05  0.2406372E+04  0.7818609E-02  0.8437122E-01
        2   -1    0    0  501    0  0.00000000000E+00  0.00000000000E+00  0.12450072860E+04  0.12450072860E+04  0.25500000920E-02 0.  1.
       -2   -1    0    0    0  501  0.00000000000E+00  0.00000000000E+00 -0.11627691289E+04  0.11627691289E+04  0.25500000920E-02 0. -1.
    10030    2    1    2    0    0  0.00000000000E+00  0.00000000000E+00  0.82238157107E+02  0.24077764149E+04  0.24063715735E+04 0.  0.
        5    1    3    3  502    0 -0.24059157348E+03 -0.82924174372E+03  0.87952697092E+03  0.12325242218E+04  0.46999998093E+01 0.  1.
       -5    1    3    3    0  502  0.24059157348E+03  0.82924174372E+03 -0.79728881381E+03  0.11752521931E+04  0.46999998093E+01 0. -1.
</event>
<event>
 5   0  0.8528103E-06  0.2399960E+04  0.7818609E-02  0.8439519E-01
        1   -1    0    0  501    0  0.00000000000E+00  0.00000000000E+00  0.11530884255E+04  0.11530884255E+04  0.50400001928E-02 0.  1.
       -1   -1    0    0    0  501  0.00000000000E+00  0.00000000000E+00 -0.12487785009E+04  0.12487785010E+04  0.50400001928E-02 0. -1.
    10030    2    1    2    0    0  0.00000000000E+00  0.00000000000E+00 -0.95690075447E+02  0.24018669265E+04  0.23999600292E+04 0.  0.
        4    1    3    3  502    0  0.51238366211E+03 -0.22043143487E+03 -0.11111502255E+04  0.12432954078E+04  0.12699999809E+01 0. -1.
       -4    1    3    3    0  502 -0.51238366211E+03  0.22043143487E+03  0.10154601500E+04  0.11585715186E+04  0.12699999809E+01 0.  1.
</event>
<event>
 5   0  0.2080257E-05  0.2375358E+04  0.7818609E-02  0.8448787E-01
        2   -1    0    0  501    0  0.00000000000E+00  0.00000000000E+00  0.17395267829E+04  0.17395267829E+04  0.25500000920E-02 0. -1.
       -2   -1    0    0    0  501  0.00000000000E+00  0.00000000000E+00 -0.81089932507E+03  0.81089932508E+03  0.25500000920E-02 0.  1.
    10030    2    1    2    0    0  0.00000000000E+00  0.00000000000E+00  0.92862745784E+03  0.25504261080E+04  0.23753577366E+04 0.  0.
        1    1    3    3  502    0  0.58845361563E+03 -0.87994981487E+03  0.10425116811E+04  0.14857388531E+04  0.50400001928E-02 0. -1.
       -1    1    3    3    0  502 -0.58845361563E+03  0.87994981487E+03 -0.11388422321E+03  0.10646872549E+04  0.50400001928E-02 0.  1.
</event>
<event>
 5   0  0.9038897E-06  0.2409029E+04  0.7818609E-02  0.8436131E-01
        1   -1    0    0  501    0  0.00000000000E+00  0.00000000000E+00  0.13257933796E+04  0.13257933796E+04  0.50400001928E-02 0. -1.
       -1   -1    0    0    0  501  0.00000000000E+00  0.00000000000E+00 -0.10943298826E+04  0.10943298826E+04  0.50400001928E-02 0.  1.
    10030    2    1    2    0    0  0.00000000000E+00  0.00000000000E+00  0.23146349700E+03  0.24201232622E+04  0.24090291102E+04 0.  0.
        1    1    3    3  502    0 -0.10533715427E+04 -0.96615963662E+02  0.69451782824E+03  0.12654174273E+04  0.50400001928E-02 0. -1.
       -1    1    3    3    0  502  0.10533715427E+04  0.96615963662E+02 -0.46305433124E+03  0.11547058349E+04  0.50400001928E-02 0.  1.
</event>
<event>
 5   0  0.2080257E-05  0.2391111E+04  0.7818609E-02  0.8442839E-01
        2   -1    0    0  501    0  0.00000000000E+00  0.00000000000E+00  0.26942838597E+04  0.26942838597E+04  0.25500000920E-02 0.  1.
       -2   -1    0    0    0  501  0.00000000000E+00  0.00000000000E+00 -0.53051321629E+03  0.53051321629E+03  0.25500000920E-02 0. -1.
    10030    2    1    2    0    0  0.00000000000E+00  0.00000000000E+00  0.21637706434E+04  0.32247970760E+04  0.23911112028E+04 0.  0.
        1    1    3    3  502    0 -0.65100102289E+03  0.60734144389E+03  0.21580176750E+04  0.23344605902E+04  0.50400001928E-02 0.  1.
       -1    1    3    3    0  502  0.65100102289E+03 -0.60734144389E+03  0.57529683456E+01  0.89033648579E+03  0.50400001928E-02 0. -1.
</event>
<event>
 5   0  0.8528103E-06  0.2379781E+04  0.7818609E-02  0.8447112E-01
       -1   -1    0    0    0  501  0.00000000000E+00  0.00000000000E+00  0.91305135541E+03  0.91305135543E+03  0.50400001928E-02 0. -1.
        1   -1    0    0  501    0  0.00000000000E+00  0.00000000000E+00 -0.15506675952E+04  0.15506675952E+04  0.50400001928E-02 0.  1.
    10030    2    1    2    0    0  0.00000000000E+00  0.00000000000E+00 -0.63761623980E+03  0.24637189506E+04  0.23797807879E+04 0.  0.
        4    1    3    3  502    0  0.52642556598E+03 -0.75656404137E+02 -0.14207716052E+04  0.15170502085E+04  0.12699999809E+01 0.  1.
       -4    1    3    3    0  502 -0.52642556598E+03  0.75656404137E+02  0.78315536544E+03  0.94666874213E+03  0.12699999809E+01 0. -1.
</event>
<event>
 5   0  0.2087882E-05  0.2377560E+04  0.7818609E-02  0.8447953E-01
       -2   -1    0    0    0  501  0.00000000000E+00  0.00000000000E+00  0.65320230890E+03  0.65320230890E+03  0.25500000920E-02 0.  1.
        2   -1    0    0  501    0  0.00000000000E+00  0.00000000000E+00 -0.21634927378E+04  0.21634927378E+04  0.25500000920E-02 0. -1.
    10030    2    1    2    0    0  0.00000000000E+00  0.00000000000E+00 -0.15102904289E+04  0.28166950467E+04  0.23775604738E+04 0.  0.
        2    1    3    3  502    0 -0.31858555335E+02  0.11632341815E+04 -0.46721268978E+03  0.12539602968E+04  0.25500000920E-02 0. -1.
       -2    1    3    3    0  502  0.31858555335E+02 -0.11632341815E+04 -0.10430777391E+04  0.15627347499E+04  0.25500000920E-02 0.  1.
</event>
<event>
 5   0  0.2087882E-05  0.2480254E+04  0.7818609E-02  0.8410054E-01
       -2   -1    0    0    0  501  0.00000000000E+00  0.00000000000E+00  0.10227762029E+04  0.10227762029E+04  0.25500000920E-02 0. -1.
        2   -1    0    0  501    0  0.00000000000E+00  0.00000000000E+00 -0.15036666087E+04  0.15036666087E+04  0.25500000920E-02 0.  1.
    10030    2    1    2    0    0  0.00000000000E+00  0.00000000000E+00 -0.48089040578E+03  0.25264428116E+04  0.24802535552E+04 0.  0.
        2    1    3    3  502    0  0.97791352320E+03  0.75628247792E+03 -0.34043837190E+03  0.12822543938E+04  0.25500000920E-02 0.  1.
       -2    1    3    3    0  502 -0.97791352320E+03 -0.75628247792E+03 -0.14045203388E+03  0.12441884178E+04  0.25500000920E-02 0. -1.
</event>
<event>
 5   0  0.8528103E-06  0.2419968E+04  0.7818609E-02  0.8432066E-01
        1   -1    0    0  501    0  0.00000000000E+00  0.00000000000E+00  0.88419329802E+03  0.88419329804E+03  0.50400001928E-02 0. -1.
       -1   -1    0    0    0  501  0.00000000000E+00  0.00000000000E+00 -0.16558157555E+04  0.16558157555E+04  0.50400001928E-02 0.  1.
    10030    2    1    2    0    0  0.00000000000E+00  0.00000000000E+00 -0.77162245744E+03  0.25400090535E+04  0.24199679285E+04 0.  0.
        4    1    3    3  502    0 -0.65281065868E+03 -0.91136598186E+03 -0.86370970503E+03  0.14151840080E+04  0.12699999809E+01 0.  1.
       -4    1    3    3    0  502  0.65281065868E+03  0.91136598186E+03  0.92087247593E+02  0.11248250455E+04  0.12699999809E+01 0. -1.
</event>
<event>
 5   0  0.8898848E-06  0.2296762E+04  0.7818609E-02  0.8479199E-01
       -1   -1    0    0    0  501  0.00000000000E+00  0.00000000000E+00  0.11922122383E+04  0.11922122383E+04  0.50400001928E-02 0.  1.
        1   -1    0    0  501    0  0.00000000000E+00  0.00000000000E+00 -0.11061616344E+04  0.11061616345E+04  0.50400001928E-02 0. -1.
    10030    2    1    2    0    0  0.00000000000E+00  0.00000000000E+00  0.86050603854E+02  0.22983738728E+04  0.22967624502E+04 0.  0.
        5    1    3    3  502    0 -0.98858027412E+03  0.34878074023E+03  0.51220218229E+03  0.11667528139E+04  0.46999998093E+01 0.  1.
       -5    1    3    3    0  502  0.98858027412E+03 -0.34878074023E+03 -0.42615157843E+03  0.11316210589E+04  0.46999998093E+01 0. -1.
</event>
<event>
 5   0  0.9083687E-06  0.2411062E+04  0.7818609E-02  0.8435374E-01
        1   -1    0    0  501    0  0.00000000000E+00  0.00000000000E+00  0.16066998773E+04  0.16066998773E+04  0.50400001928E-02 0.  1.
       -1   -1    0    0    0  501  0.00000000000E+00  0.00000000000E+00 -0.90452813495E+03  0.90452813496E+03  0.50400001928E-02 0. -1.
    10030    2    1    2    0    0  0.00000000000E+00  0.00000000000E+00  0.70217174231E+03  0.25112280122E+04  0.24110622086E+04 0.  0.
        2    1    3    3  502    0  0.88474580193E+03 -0.73698757373E+03 -0.20643925621E+02  0.11516735603E+04  0.25500000920E-02 0.  1.
       -2    1    3    3    0  502 -0.88474580193E+03  0.73698757373E+03  0.72281566793E+03  0.13595544519E+04  0.25500000920E-02 0. -1.
</event>
<event>
 5   0  0.2122194E-05  0.2407125E+04  0.7818609E-02  0.8436841E-01
       -2   -1    0    0    0  501  0.00000000000E+00  0.00000000000E+00  0.11809010998E+04  0.11809010998E+04  0.25500000920E-02 0. -1.
        2   -1    0    0  501    0  0.00000000000E+00  0.00000000000E+00 -0.12266586260E+04  0.12266586260E+04  0.25500000920E-02 0.  1.
    10030    2    1    2    0    0  0.00000000000E+00  0.00000000000E+00 -0.45757526202E+02  0.24075597259E+04  0.24071248581E+04 0.  0.
        3    1    3    3  502    0 -0.83572696885E+03 -0.58570491726E+01 -0.88911180525E+03  0.12202432888E+04  0.10100000352E+00 0.  1.
       -3    1    3    3    0  502  0.83572696885E+03  0.58570491726E+01  0.84335427905E+03  0.11873164370E+04  0.10100000352E+00 0. -1.
</event>
<event>
 5   0  0.9083687E-06  0.2377556E+04  0.7818609E-02  0.8447954E-01
        1   -1    0    0  501    0  0.00000000000E+00  0.00000000000E+00  0.17315210842E+04  0.17315210842E+04  0.50400001928E-02 0. -1.
       -1   -1    0    0    0  501  0.00000000000E+00  0.00000000000E+00 -0.81615717172E+03  0.81615717173E+03  0.50400001928E-02 0.  1.
    10030    2    1    2    0    0  0.00000000000E+00  0.00000000000E+00  0.91536391251E+03  0.25476782560E+04  0.23775561831E+04 0.  0.
        2    1    3    3  502    0 -0.99844530900E+03 -0.13547953555E+02  0.11489100816E+04  0.15221928123E+04  0.25500000920E-02 0.  1.
       -2    1    3    3    0  502  0.99844530900E+03  0.13547953555E+02 -0.23354616910E+03  0.10254854437E+04  0.25500000920E-02 0. -1.
</event>
<event>
 5   0  0.9038897E-06  0.2396069E+04  0.7818609E-02  0.8440977E-01
        1   -1    0    0  501    0  0.00000000000E+00  0.00000000000E+00  0.17831160997E+04  0.17831160997E+04  0.50400001928E-02 0.  1.
       -1   -1    0    0    0  501  0.00000000000E+00  0.00000000000E+00 -0.80493181171E+03  0.80493181172E+03  0.50400001928E-02 0. -1.
    10030    2    1    2    0    0  0.00000000000E+00  0.00000000000E+00  0.97818428803E+03  0.25880479115E+04  0.23960691749E+04 0.  0.
        1    1    3    3  502    0 -0.54001529574E+03 -0.37152530918E+03  0.15722557963E+04  0.17034188751E+04  0.50400001928E-02 0.  1.
       -1    1    3    3    0  502  0.54001529574E+03  0.37152530918E+03 -0.59407150828E+03  0.88462903636E+03  0.50400001928E-02 0. -1.
</event>
<event>
 5   0  0.2080257E-05  0.2408021E+04  0.7818609E-02  0.8436507E-01
       -2   -1    0    0    0  501  0.00000000000E+00  0.00000000000E+00  0.18369619691E+04  0.18369619691E+04  0.25500000920E-02 0.  1.
        2   -1    0    0  501    0  0.00000000000E+00  0.00000000000E+00 -0.78915138599E+03  0.78915138599E+03  0.25500000920E-02 0. -1.
    10030    2    1    2    0    0  0.00000000000E+00  0.00000000000E+00  0.10478105831E+04  0.26261133551E+04  0.24080208337E+04 0.  0.
        1    1    3    3  502    0 -0.42231430205E+03 -0.58523038176E+03 -0.52712118613E+03  0.89370057309E+03  0.50400001928E-02 0. -1.
       -1    1    3    3    0  502  0.42231430205E+03  0.58523038176E+03  0.15749317692E+04  0.17324127820E+04  0.50400001928E-02 0.  1.
</event>
<event>
 5   0  0.8898848E-06  0.2379190E+04  0.7818609E-02  0.8447336E-01
       -1   -1    0    0    0  501  0.00000000000E+00  0.00000000000E+00  0.91675926997E+03  0.91675926998E+03  0.50400001928E-02 0. -1.
        1   -1    0    0  501    0  0.00000000000E+00  0.00000000000E+00 -0.15436287487E+04  0.15436287487E+04  0.50400001928E-02 0.  1.
    10030    2    1    2    0    0  0.00000000000E+00  0.00000000000E+00 -0.62686947875E+03  0.24603880187E+04  0.23791897485E+04 0.  0.
        5    1    3    3  502    0 -0.22418410424E+03  0.92606083236E+03  0.42309909017E+03  0.10425363821E+04  0.46999998093E+01 0. -1.
       -5    1    3    3    0  502  0.22418410424E+03 -0.92606083236E+03 -0.10499685689E+04  0.14178516366E+04  0.46999998093E+01 0.  1.
</event>
<event>
 5   0  0.8898848E-06  0.2370086E+04  0.7818609E-02  0.8450789E-01
       -1   -1    0    0    0  501  0.00000000000E+00  0.00000000000E+00  0.17287610464E+04  0.17287610464E+04  0.50400001928E-02 0. -1.
        1   -1    0    0  501    0  0.00000000000E+00  0.00000000000E+00 -0.81233130811E+03  0.81233130812E+03  0.50400001928E-02 0.  1.
    10030    2    1    2    0    0  0.00000000000E+00  0.00000000000E+00  0.91642973831E+03  0.25410923546E+04  0.23700858400E+04 0.  0.
        5    1    3    3  502    0  0.91999402053E+03 -0.64407904040E+03  0.86376312454E+03  0.14168047266E+04  0.46999998093E+01 0.  1.
       -5    1    3    3    0  502 -0.91999402053E+03  0.64407904040E+03  0.52666613777E+02  0.11242876279E+04  0.46999998093E+01 0. -1.
</event>
<event>
 5   0  0.2087882E-05  0.2399152E+04  0.7818609E-02  0.8439821E-01
       -2   -1    0    0    0  501  0.00000000000E+00  0.00000000000E+00  0.13624687072E+04  0.13624687072E+04  0.25500000920E-02 0. -1.
        2   -1    0    0  501    0  0.00000000000E+00  0.00000000000E+00 -0.10561580870E+04  0.10561580870E+04  0.25500000920E-02 0.  1.
    10030    2    1    2    0    0  0.00000000000E+00  0.00000000000E+00  0.30631062026E+03  0.24186267942E+04  0.23991518029E+04 0.  0.
        2    1    3    3  502    0 -0.93211940967E+03 -0.64440710265E+03  0.54989177707E+03  0.12595586824E+04  0.25500000920E-02 0.  1.
       -2    1    3    3    0  502  0.93211940967E+03  0.64440710265E+03 -0.24358115681E+03  0.11590681118E+04  0.25500000920E-02 0. -1.
</event>
<event>
 5   0  0.2087882E-05  0.2392759E+04  0.7818609E-02  0.8442220E-01
        2   -1    0    0  501    0  0.00000000000E+00  0.00000000000E+00  0.12767194230E+04  0.12767194230E+04  0.25500000920E-02 0.  1.
       -2   -1    0    0    0  501  0.00000000000E+00  0.00000000000E+00 -0.11210949928E+04  0.11210949928E+04  0.25500000920E-02 0. -1.
    10030    2    1    2    0    0  0.00000000000E+00  0.00000000000E+00  0.15562443020E+03  0.23978144157E+04  0.23927588698E+04 0.  0.
        2    1    3    3  502    0 -0.33077577587E+03  0.90553874665E+02  0.12264062921E+04  0.12734539691E+04  0.25500000920E-02 0.  1.
       -2    1    3    3    0  502  0.33077577587E+03 -0.90553874665E+02 -0.10707818619E+04  0.11243604466E+04  0.25500000920E-02 0. -1.
</event>
<event>
 5   0  0.9176817E-06  0.2368423E+04  0.7818609E-02  0.8451421E-01
       -1   -1    0    0    0  501  0.00000000000E+00  0.00000000000E+00  0.85708608857E+03  0.85708608859E+03  0.50400001928E-02 0.  1.
        1   -1    0    0  501    0  0.00000000000E+00  0.00000000000E+00 -0.16361910538E+04  0.16361910538E+04  0.50400001928E-02 0. -1.
    10030    2    1    2    0    0  0.00000000000E+00  0.00000000000E+00 -0.77910496524E+03  0.24932771424E+04  0.23684227583E+04 0.  0.
        3    1    3    3  502    0 -0.98190066002E+03  0.64593615020E+03 -0.54208436260E+03  0.12943020832E+04  0.10100000352E+00 0.  1.
       -3    1    3    3    0  502  0.98190066002E+03 -0.64593615020E+03 -0.23702060264E+03  0.11989750592E+04  0.10100000352E+00 0. -1.
</event>
<event>
 5   0  0.2048028E-05  0.2400396E+04  0.7818609E-02  0.8439355E-01
       -2   -1    0    0    0  501  0.00000000000E+00  0.00000000000E+00  0.11198318199E+04  0.11198318199E+04  0.25500000920E-02 0. -1.
        2   -1    0    0  501    0  0.00000000000E+00  0.00000000000E+00 -0.12863317099E+04  0.12863317099E+04  0.25500000920E-02 0.  1.
    10030    2    1    2    0    0  0.00000000000E+00  0.00000000000E+00 -0.16649989000E+03  0.24061635299E+04  0.24003959505E+04 0.  0.
        5    1    3    3  502    0  0.16507497427E+03 -0.11294912198E+04 -0.45488720604E+03  0.12287980400E+04  0.46999998093E+01 0.  1.
       -5    1    3    3    0  502 -0.16507497427E+03  0.11294912198E+04  0.28838731604E+03  0.11773654899E+04  0.46999998093E+01 0. -1.
</event>
<event>
 5   0  0.8528103E-06  0.2410633E+04  0.7818609E-02  0.8435534E-01
        1   -1    0    0  501    0  0.00000000000E+00  0.00000000000E+00  0.16816863993E+04  0.16816863993E+04  0.50400001928E-02 0.  1.
       -1   -1    0    0    0  501  0.00000000000E+00  0.00000000000E+00 -0.86388719811E+03  0.86388719813E+03  0.50400001928E-02 0. -1.
    10030    2    1    2    0    0  0.00000000000E+00  0.00000000000E+00  0.81779920118E+03  0.25455735974E+04  0.24106325739E+04 0.  0.
        4    1    3    3  502    0  0.81627323130E+03  0.36764978006E+03 -0.44331893149E+03  0.99900031873E+03  0.12699999809E+01 0. -1.
       -4    1    3    3    0  502 -0.81627323130E+03 -0.36764978006E+03  0.12611181327E+04  0.15465732787E+04  0.12699999809E+01 0.  1.
</event>
<event>
 5   0  0.2087882E-05  0.2422937E+04  0.7818609E-02  0.8430966E-01
       -2   -1    0    0    0  501  0.00000000000E+00  0.00000000000E+00  0.99756362470E+03  0.99756362470E+03  0.25500000920E-02 0. -1.
        2   -1    0    0  501    0  0.00000000000E+00  0.00000000000E+00 -0.14712398824E+04  0.14712398824E+04  0.25500000920E-02 0.  1.
    10030    2    1    2    0    0  0.00000000000E+00  0.00000000000E+00 -0.47367625772E+03  0.24688035071E+04  0.24229365571E+04 0.  0.
        2    1    3    3  502    0 -0.14387429220E+03 -0.51475376162E+03 -0.13446099362E+04  0.14469440651E+04  0.25500000920E-02 0.  1.
       -2    1    3    3    0  502  0.14387429220E+03  0.51475376162E+03  0.87093367843E+03  0.10218594420E+04  0.25500000920E-02 0. -1.
</event>
<event>
 5   0  0.9176817E-06  0.2370698E+04  0.7818609E-02  0.8450556E-01
        1   -1    0    0  501    0  0.00000000000E+00  0.00000000000E+00  0.18938804681E+04  0.18938804681E+04  0.50400001928E-02 0. -1.
       -1   -1    0    0    0  501  0.00000000000E+00  0.00000000000E+00 -0.74189064445E+03  0.74189064446E+03  0.50400001928E-02 0.  1.
    10030    2    1    2    0    0  0.00000000000E+00  0.00000000000E+00  0.11519898236E+04  0.26357711126E+04  0.23706979571E+04 0.  0.
        3    1    3    3  502    0  0.32904584131E+03 -0.61907215524E+03 -0.48666192298E+03  0.85344088053E+03  0.10100000352E+00 0.  1.
       -3    1    3    3    0  502 -0.32904584131E+03  0.61907215524E+03  0.16386517466E+04  0.17823302320E+04  0.10100000352E+00 0. -1.
</event>
<event>
 5   0  0.8898848E-06  0.2395841E+04  0.7818609E-02  0.8441062E-01
        1   -1    0    0  501    0  0.00000000000E+00  0.00000000000E+00  0.13797276447E+04  0.13797276447E+04  0.50400001928E-02 0. -1.
       -1   -1    0    0    0  501  0.00000000000E+00  0.00000000000E+00 -0.10400700612E+04  0.10400700612E+04  0.50400001928E-02 0.  1.
    10030    2    1    2    0    0  0.00000000000E+00  0.00000000000E+00  0.33965758347E+03  0.24197977059E+04  0.23958409095E+04 0.  0.
        5    1    3    3  502    0  0.27144663876E+03  0.10116953638E+04  0.75682919081E+03  0.12922938137E+04  0.46999998093E+01 0. -1.
       -5    1    3    3    0  502 -0.27144663876E+03 -0.10116953638E+04 -0.41717160734E+03  0.11275038922E+04  0.46999998093E+01 0.  1.
</event>
<event>
 5   0  0.9083687E-06  0.2374476E+04  0.7818609E-02  0.8449121E-01
       -1   -1    0    0    0  501  0.00000000000E+00  0.00000000000E+00  0.81018391477E+03  0.81018391478E+03  0.50400001928E-02 0. -1.
        1   -1    0    0  501    0  0.00000000000E+00  0.00000000000E+00 -0.17397709464E+04  0.17397709464E+04  0.50400001928E-02 0.  1.
    10030    2    1    2    0    0  0.00000000000E+00  0.00000000000E+00 -0.92958703164E+03  0.25499548612E+04  0.23744763096E+04 0.  0.
        2    1    3    3  502    0  0.45484432781E+03 -0.99232910870E+03 -0.96612751738E+03  0.14577389349E+04  0.25500000920E-02 0.  1.
       -2    1    3    3    0  502 -0.45484432781E+03  0.99232910870E+03  0.36540485735E+02  0.10922159263E+04  0.25500000920E-02 0. -1.
</event>
<event>
 5   0  0.8898848E-06  0.2419551E+04  0.7818609E-02  0.8432220E-01
        1   -1    0    0  501    0  0.00000000000E+00  0.00000000000E+00  0.24894952406E+04  0.24894952406E+04  0.50400001928E-02 0. -1.
       -1   -1    0    0    0  501  0.00000000000E+00  0.00000000000E+00 -0.58789302733E+03  0.58789302735E+03  0.50400001928E-02 0.  1.
    10030    2    1    2    0    0  0.00000000000E+00  0.00000000000E+00  0.19016022133E+04  0.30773882680E+04  0.24195511101E+04 0.  0.
        5    1    3    3  502    0 -0.40616232785E+03  0.73569763674E+02  0.23971487549E+04  0.24324318263E+04  0.46999998093E+01 0. -1.
       -5    1    3    3    0  502  0.40616232785E+03 -0.73569763674E+02 -0.49554654162E+03  0.64495644163E+03  0.46999998093E+01 0.  1.
</event>
<event>
 5   0  0.2087882E-05  0.2404970E+04  0.7818609E-02  0.8437645E-01
        2   -1    0    0  501    0  0.00000000000E+00  0.00000000000E+00  0.18787371691E+04  0.18787371691E+04  0.25500000920E-02 0. -1.
       -2   -1    0    0    0  501  0.00000000000E+00  0.00000000000E+00 -0.76965011159E+03  0.76965011159E+03  0.25500000920E-02 0.  1.
    10030    2    1    2    0    0  0.00000000000E+00  0.00000000000E+00  0.11090870575E+04  0.26483872807E+04  0.24049700804E+04 0.  0.
        2    1    3    3  502    0  0.27209882496E+03  0.30496328363E+03 -0.69081725448E+03  0.80266359952E+03  0.25500000920E-02 0.  1.
       -2    1    3    3    0  502 -0.27209882496E+03 -0.30496328363E+03  0.17999043120E+04  0.18457236812E+04  0.25500000920E-02 0. -1.
</event>
<event>
 5   0  0.2087882E-05  0.2398630E+04  0.7818609E-02  0.8440017E-01
       -2   -1    0    0    0  501  0.00000000000E+00  0.00000000000E+00  0.54289713824E+03  0.54289713824E+03  0.25500000920E-02 0. -1.
        2   -1    0    0  501    0  0.00000000000E+00  0.00000000000E+00 -0.26494079172E+04  0.26494079172E+04  0.25500000920E-02 0.  1.
    10030    2    1    2    0    0  0.00000000000E+00  0.00000000000E+00 -0.21065107790E+04  0.31923050555E+04  0.23986295890E+04 0.  0.
        2    1    3    3  502    0  0.30670536128E+02  0.31248171891E+03 -0.25937365787E+04  0.26126719936E+04  0.25500000920E-02 0.  1.
       -2    1    3    3    0  502 -0.30670536128E+02 -0.31248171891E+03  0.48722579974E+03  0.57963306184E+03  0.25500000920E-02 0. -1.
</event>
<event>
 5   0  0.8528103E-06  0.2324803E+04  0.7818609E-02  0.8468206E-01
       -1   -1    0    0    0  501  0.00000000000E+00  0.00000000000E+00  0.10899876353E+04  0.10899876353E+04  0.50400001928E-02 0.  1.
        1   -1    0    0  501    0  0.00000000000E+00  0.00000000000E+00 -0.12396258122E+04  0.12396258122E+04  0.50400001928E-02 0. -1.
    10030    2    1    2    0    0  0.00000000000E+00  0.00000000000E+00 -0.14963817688E+03  0.23296134474E+04  0.23248026218E+04 0.  0.
        4    1    3    3  502    0 -0.85254645644E+03 -0.62819773537E+03  0.40545064006E+03  0.11339575343E+04  0.12699999809E+01 0.  1.
       -4    1    3    3    0  502  0.85254645644E+03  0.62819773537E+03 -0.55508881694E+03  0.11956559132E+04  0.12699999809E+01 0. -1.
</event>
<event>
 5   0  0.2025353E-05  0.2324289E+04  0.7818609E-02  0.8468405E-01
       -2   -1    0    0    0  501  0.00000000000E+00  0.00000000000E+00  0.10626711239E+04  0.10626711239E+04  0.25500000920E-02 0. -1.
        2   -1    0    0  501    0  0.00000000000E+00  0.00000000000E+00 -0.12709293170E+04  0.12709293170E+04  0.25500000920E-02 0.  1.
    10030    2    1    2    0    0  0.00000000000E+00  0.00000000000E+00 -0.20825819316E+03  0.23336004409E+04  0.23242890403E+04 0.  0.
        4    1    3    3  502    0 -0.61812036028E+03 -0.34497828613E+02  0.88333295177E+03  0.10786758533E+04  0.12699999809E+01 0. -1.
       -4    1    3    3    0  502  0.61812036028E+03  0.34497828613E+02 -0.10915911449E+04  0.12549245876E+04  0.12699999809E+01 0.  1.
</event>
<event>
 5   0  0.7233625E-06  0.2386083E+04  0.7818609E-02  0.8444732E-01
       -3   -1    0    0    0  501  0.00000000000E+00  0.00000000000E+00  0.75719329383E+03  0.75719330057E+03  0.10100000352E+00 0.  1.
        3   -1    0    0  501    0  0.00000000000E+00  0.00000000000E+00 -0.18797685309E+04  0.18797685336E+04  0.10100000352E+00 0. -1.
    10030    2    1    2    0    0  0.00000000000E+00  0.00000000000E+00 -0.11225752371E+04  0.26369618342E+04  0.23860830983E+04 0.  0.
        4    1    3    3  502    0 -0.21685166714E+03 -0.11120282790E+04 -0.14820228477E+03  0.11426272659E+04  0.12699999809E+01 0.  1.
       -4    1    3    3    0  502  0.21685166714E+03  0.11120282790E+04 -0.97437295231E+03  0.14943345683E+04  0.12699999809E+01 0. -1.
</event>
<event>
 5   0  0.8898848E-06  0.2389331E+04  0.7818609E-02  0.8443509E-01
        1   -1    0    0  501    0  0.00000000000E+00  0.00000000000E+00  0.16623300695E+04  0.16623300695E+04  0.50400001928E-02 0.  1.
       -1   -1    0    0    0  501  0.00000000000E+00  0.00000000000E+00 -0.85856909389E+03  0.85856909390E+03  0.50400001928E-02 0. -1.
    10030    2    1    2    0    0  0.00000000000E+00  0.00000000000E+00  0.80376097562E+03  0.25208991634E+04  0.23893306356E+04 0.  0.
        5    1    3    3  502    0 -0.77602484820E+03  0.86583975911E+03  0.69141862201E+03  0.13527656317E+04  0.46999998093E+01 0.  1.
       -5    1    3    3    0  502  0.77602484820E+03 -0.86583975911E+03  0.11234235361E+03  0.11681335317E+04  0.46999998093E+01 0. -1.
</event>
<event>
 5   0  0.9176817E-06  0.2408124E+04  0.7818609E-02  0.8436468E-01
       -1   -1    0    0    0  501  0.00000000000E+00  0.00000000000E+00  0.85383344296E+03  0.85383344297E+03  0.50400001928E-02 0.  1.
        1   -1    0    0  501    0  0.00000000000E+00  0.00000000000E+00 -0.16979487294E+04  0.16979487294E+04  0.50400001928E-02 0. -1.
    10030    2    1    2    0    0  0.00000000000E+00  0.00000000000E+00 -0.84411528647E+03  0.25517821724E+04  0.24081240912E+04 0.  0.
        3    1    3    3  502    0  0.45338057991E+03  0.53545476095E+03 -0.14589508950E+04  0.16188895810E+04  0.10100000352E+00 0. -1.
       -3    1    3    3    0  502 -0.45338057991E+03 -0.53545476095E+03  0.61483560857E+03  0.93289259137E+03  0.10100000352E+00 0.  1.
</event>
<event>
 5   0  0.2087882E-05  0.2401219E+04  0.7818609E-02  0.8439047E-01
        2   -1    0    0  501    0  0.00000000000E+00  0.00000000000E+00  0.18850473067E+04  0.18850473067E+04  0.25500000920E-02 0.  1.
       -2   -1    0    0    0  501  0.00000000000E+00  0.00000000000E+00 -0.76468272853E+03  0.76468272854E+03  0.25500000920E-02 0. -1.
    10030    2    1    2    0    0  0.00000000000E+00  0.00000000000E+00  0.11203645782E+04  0.26497300353E+04  0.24012189554E+04 0.  0.
        2    1    3    3  502    0  0.22584880161E+03 -0.79844774300E+03  0.15177049942E+04  0.17297268365E+04  0.25500000920E-02 0.  1.
       -2    1    3    3    0  502 -0.22584880161E+03  0.79844774300E+03 -0.39734041603E+03  0.92000319875E+03  0.25500000920E-02 0. -1.
</event>
<event>
 5   0  0.9038897E-06  0.2391634E+04  0.7818609E-02  0.8442642E-01
        1   -1    0    0  501    0  0.00000000000E+00  0.00000000000E+00  0.19361417379E+04  0.19361417379E+04  0.50400001928E-02 0.  1.
       -1   -1    0    0    0  501  0.00000000000E+00  0.00000000000E+00 -0.73857130049E+03  0.73857130051E+03  0.50400001928E-02 0. -1.
    10030    2    1    2    0    0  0.00000000000E+00  0.00000000000E+00  0.11975704374E+04  0.26747130384E+04  0.23916343544E+04 0.  0.
        1    1    3    3  502    0 -0.77145617791E+03 -0.26202704006E+03 -0.38013356070E+03  0.89905746655E+03  0.50400001928E-02 0. -1.
       -1    1    3    3    0  502  0.77145617791E+03  0.26202704006E+03  0.15777039981E+04  0.17756555718E+04  0.50400001928E-02 0.  1.
</event>
<event>
 5   0  0.2087882E-05  0.2404118E+04  0.7818609E-02  0.8437964E-01
       -2   -1    0    0    0  501  0.00000000000E+00  0.00000000000E+00  0.81002777961E+03  0.81002777961E+03  0.25500000920E-02 0. -1.
        2   -1    0    0  501    0  0.00000000000E+00  0.00000000000E+00 -0.17838223056E+04  0.17838223056E+04  0.25500000920E-02 0.  1.
    10030    2    1    2    0    0  0.00000000000E+00  0.00000000000E+00 -0.97379452599E+03  0.25938500852E+04  0.24041178186E+04 0.  0.
        2    1    3    3  502    0 -0.12012029996E+04  0.40494937545E+02 -0.50893299499E+03  0.13051977933E+04  0.25500000920E-02 0. -1.
       -2    1    3    3    0  502  0.12012029996E+04 -0.40494937545E+02 -0.46486153100E+03  0.12886522919E+04  0.25500000920E-02 0.  1.
</event>
<event>
 5   0  0.2087882E-05  0.2402370E+04  0.7818609E-02  0.8438617E-01
        2   -1    0    0  501    0  0.00000000000E+00  0.00000000000E+00  0.16588397193E+04  0.16588397193E+04  0.25500000920E-02 0.  1.
       -2   -1    0    0    0  501  0.00000000000E+00  0.00000000000E+00 -0.86979210078E+03  0.86979210079E+03  0.25500000920E-02 0. -1.
    10030    2    1    2    0    0  0.00000000000E+00  0.00000000000E+00  0.78904761848E+03  0.25286318201E+04  0.24023702332E+04 0.  0.
        2    1    3    3  502    0 -0.87364199038E+03  0.36996532501E+03  0.11699384201E+04  0.15062803776E+04  0.25500000920E-02 0.  1.
       -2    1    3    3    0  502  0.87364199038E+03 -0.36996532501E+03 -0.38089080167E+03  0.10223514424E+04  0.25500000920E-02 0. -1.
</event>
<event>
 5   0  0.9176817E-06  0.2418038E+04  0.7818609E-02  0.8432781E-01
       -1   -1    0    0    0  501  0.00000000000E+00  0.00000000000E+00  0.82972128011E+03  0.82972128013E+03  0.50400001928E-02 0.  1.
        1   -1    0    0  501    0  0.00000000000E+00  0.00000000000E+00 -0.17617090399E+04  0.17617090399E+04  0.50400001928E-02 0. -1.
    10030    2    1    2    0    0  0.00000000000E+00  0.00000000000E+00 -0.93198775983E+03  0.25914303201E+04  0.24180384445E+04 0.  0.
        3    1    3    3  502    0  0.24902930918E+02 -0.39976220534E+03 -0.16885382523E+04  0.17353937352E+04  0.10100000352E+00 0. -1.
       -3    1    3    3    0  502 -0.24902930918E+02  0.39976220534E+03  0.75655049242E+03  0.85603658483E+03  0.10100000352E+00 0.  1.
</event>
<event>
 5   0  0.9038897E-06  0.2411706E+04  0.7818609E-02  0.8435134E-01
       -1   -1    0    0    0  501  0.00000000000E+00  0.00000000000E+00  0.82764652276E+03  0.82764652278E+03  0.50400001928E-02 0.  1.
        1   -1    0    0  501    0  0.00000000000E+00  0.00000000000E+00 -0.17568870709E+04  0.17568870709E+04  0.50400001928E-02 0. -1.
    10030    2    1    2    0    0  0.00000000000E+00  0.00000000000E+00 -0.92924054811E+03  0.25845335937E+04  0.24117060145E+04 0.  0.
        1    1    3    3  502    0 -0.98586171565E+03 -0.63176479050E+03 -0.15581905859E+03  0.11812407257E+04  0.50400001928E-02 0. -1.
       -1    1    3    3    0  502  0.98586171565E+03  0.63176479050E+03 -0.77342148953E+03  0.14032928680E+04  0.50400001928E-02 0.  1.
</event>
<event>
 5   0  0.9176817E-06  0.2394797E+04  0.7818609E-02  0.8441454E-01
       -1   -1    0    0    0  501  0.00000000000E+00  0.00000000000E+00  0.16697076400E+04  0.16697076400E+04  0.50400001928E-02 0.  1.
        1   -1    0    0  501    0  0.00000000000E+00  0.00000000000E+00 -0.85869118507E+03  0.85869118508E+03  0.50400001928E-02 0. -1.
    10030    2    1    2    0    0  0.00000000000E+00  0.00000000000E+00  0.81101645491E+03  0.25283988251E+04  0.23947970537E+04 0.  0.
        3    1    3    3  502    0  0.10640771309E+04 -0.38123452045E+03 -0.11712988065E+02  0.11303703395E+04  0.10100000352E+00 0. -1.
       -3    1    3    3    0  502 -0.10640771309E+04  0.38123452045E+03  0.82272944298E+03  0.13980284856E+04  0.10100000352E+00 0.  1.
</event>
<event>
 5   0  0.7233625E-06  0.2369717E+04  0.7818609E-02  0.8450929E-01
       -3   -1    0    0    0  501  0.00000000000E+00  0.00000000000E+00  0.18560562969E+04  0.18560562996E+04  0.10100000352E+00 0. -1.
        3   -1    0    0  501    0  0.00000000000E+00  0.00000000000E+00 -0.75638313412E+03  0.75638314086E+03  0.10100000352E+00 0.  1.
    10030    2    1    2    0    0  0.00000000000E+00  0.00000000000E+00  0.10996731627E+04  0.26124394405E+04  0.23697170222E+04 0.  0.
        2    1    3    3  502    0  0.24202120568E+03 -0.11598422687E+04  0.53989399545E+03  0.13020345151E+04  0.25500000920E-02 0. -1.
       -2    1    3    3    0  502 -0.24202120568E+03  0.11598422687E+04  0.55977916729E+03  0.13104049253E+04  0.25500000920E-02 0.  1.
</event>
<event>
 5   0  0.8528103E-06  0.2389577E+04  0.7818609E-02  0.8443416E-01
        1   -1    0    0  501    0  0.00000000000E+00  0.00000000000E+00  0.93676450004E+03  0.93676450006E+03  0.50400001928E-02 0. -1.
       -1   -1    0    0    0  501  0.00000000000E+00  0.00000000000E+00 -0.15238827818E+04  0.15238827818E+04  0.50400001928E-02 0.  1.
    10030    2    1    2    0    0  0.00000000000E+00  0.00000000000E+00 -0.58711828174E+03  0.24606472818E+04  0.23895767761E+04 0.  0.
        4    1    3    3  502    0  0.93782779965E+03  0.68320193227E+02  0.46547242710E+03  0.10492162903E+04  0.12699999809E+01 0. -1.
       -4    1    3    3    0  502 -0.93782779965E+03 -0.68320193227E+02 -0.10525907088E+04  0.14114309915E+04  0.12699999809E+01 0.  1.
</event>
<event>
 5   0  0.8528103E-06  0.2410697E+04  0.7818609E-02  0.8435510E-01
       -1   -1    0    0    0  501  0.00000000000E+00  0.00000000000E+00  0.18235979673E+04  0.18235979673E+04  0.50400001928E-02 0. -1.
        1   -1    0    0  501    0  0.00000000000E+00  0.00000000000E+00 -0.79670222561E+03  0.79670222563E+03  0.50400001928E-02 0.  1.
    10030    2    1    2    0    0  0.00000000000E+00  0.00000000000E+00  0.10268957417E+04  0.26203001930E+04  0.24106966290E+04 0.  0.
        4    1    3    3  502    0 -0.18439278087E+03 -0.11886593069E+04  0.42959567525E+03  0.12772884179E+04  0.12699999809E+01 0.  1.
       -4    1    3    3    0  502  0.18439278087E+03  0.11886593069E+04  0.59730006646E+03  0.13430117750E+04  0.12699999809E+01 0. -1.
</event>
<event>
 5   0  0.2080257E-05  0.2378607E+04  0.7818609E-02  0.8447556E-01
        2   -1    0    0  501    0  0.00000000000E+00  0.00000000000E+00  0.17086039118E+04  0.17086039118E+04  0.25500000920E-02 0.  1.
       -2   -1    0    0    0  501  0.00000000000E+00  0.00000000000E+00 -0.82783560925E+03  0.82783560925E+03  0.25500000920E-02 0. -1.
    10030    2    1    2    0    0  0.00000000000E+00  0.00000000000E+00  0.88076830257E+03  0.25364395211E+04  0.23786072903E+04 0.  0.
        1    1    3    3  502    0  0.65949017240E+03  0.19828257888E+03  0.14743634986E+04  0.16272648815E+04  0.50400001928E-02 0.  1.
       -1    1    3    3    0  502 -0.65949017240E+03 -0.19828257888E+03 -0.59359519599E+03  0.90917463960E+03  0.50400001928E-02 0. -1.
</event>
<event>
 5   0  0.2122194E-05  0.2396700E+04  0.7818609E-02  0.8440740E-01
        2   -1    0    0  501    0  0.00000000000E+00  0.00000000000E+00  0.81452436821E+03  0.81452436821E+03  0.25500000920E-02 0.  1.
       -2   -1    0    0    0  501  0.00000000000E+00  0.00000000000E+00 -0.17630450068E+04  0.17630450068E+04  0.25500000920E-02 0. -1.
    10030    2    1    2    0    0  0.00000000000E+00  0.00000000000E+00 -0.94852063856E+03  0.25775693750E+04  0.23967003319E+04 0.  0.
        3    1    3    3  502    0 -0.61967126420E+03  0.10251942233E+04 -0.43978767146E+03  0.12760990860E+04  0.10100000352E+00 0.  1.
       -3    1    3    3    0  502  0.61967126420E+03 -0.10251942233E+04 -0.50873296710E+03  0.13014702890E+04  0.10100000352E+00 0. -1.
</event>
<event>
 5   0  0.8898848E-06  0.2390182E+04  0.7818609E-02  0.8443188E-01
        1   -1    0    0  501    0  0.00000000000E+00  0.00000000000E+00  0.13578554820E+04  0.13578554820E+04  0.50400001928E-02 0.  1.
       -1   -1    0    0    0  501  0.00000000000E+00  0.00000000000E+00 -0.10518373287E+04  0.10518373288E+04  0.50400001928E-02 0. -1.
    10030    2    1    2    0    0  0.00000000000E+00  0.00000000000E+00  0.30601815324E+03  0.24096928108E+04  0.23901824893E+04 0.  0.
        5    1    3    3  502    0 -0.22688505817E+02  0.34223530942E+01 -0.10516059231E+04  0.10518667160E+04  0.46999998093E+01 0. -1.
       -5    1    3    3    0  502  0.22688505817E+02 -0.34223530942E+01  0.13576240763E+04  0.13578260947E+04  0.46999998093E+01 0.  1.
</event>
<event>
 5   0  0.2087882E-05  0.2389837E+04  0.7818609E-02  0.8443318E-01
        2   -1    0    0  501    0  0.00000000000E+00  0.00000000000E+00  0.14478596922E+04  0.14478596922E+04  0.25500000920E-02 0. -1.
       -2   -1    0    0    0  501  0.00000000000E+00  0.00000000000E+00 -0.98616647007E+03  0.98616647008E+03  0.25500000920E-02 0.  1.
    10030    2    1    2    0    0  0.00000000000E+00  0.00000000000E+00  0.46169322211E+03  0.24340261623E+04  0.23898373851E+04 0.  0.
        2    1    3    3  502    0 -0.87735774753E+03 -0.26323781472E+03 -0.55066131229E+03  0.10687743659E+04  0.25500000920E-02 0.  1.
       -2    1    3    3    0  502  0.87735774753E+03  0.26323781472E+03  0.10123545344E+04  0.13652517964E+04  0.25500000920E-02 0. -1.
</event>
<event>
 5   0  0.2025353E-05  0.2405125E+04  0.7818609E-02  0.8437587E-01
        2   -1    0    0  501    0  0.00000000000E+00  0.00000000000E+00  0.19825549932E+04  0.19825549932E+04  0.25500000920E-02 0. -1.
       -2   -1    0    0    0  501  0.00000000000E+00  0.00000000000E+00 -0.72944102219E+03  0.72944102219E+03  0.25500000920E-02 0.  1.
    10030    2    1    2    0    0  0.00000000000E+00  0.00000000000E+00  0.12531139711E+04  0.27119960154E+04  0.24051253113E+04 0.  0.
        4    1    3    3  502    0 -0.53522123004E+03  0.10162963543E+04  0.22497762895E+03  0.11704429039E+04  0.12699999809E+01 0. -1.
       -4    1    3    3    0  502  0.53522123004E+03 -0.10162963543E+04  0.10281363421E+04  0.15415531115E+04  0.12699999809E+01 0.  1.
</event>
<event>
 5   0  0.8528103E-06  0.2353635E+04  0.7818609E-02  0.8457069E-01
        1   -1    0    0  501    0  0.00000000000E+00  0.00000000000E+00  0.18439197804E+04  0.18439197804E+04  0.50400001928E-02 0.  1.
       -1   -1    0    0    0  501  0.00000000000E+00  0.00000000000E+00 -0.75106245937E+03  0.75106245939E+03  0.50400001928E-02 0. -1.
    10030    2    1    2    0    0  0.00000000000E+00  0.00000000000E+00  0.10928573210E+04  0.25949822398E+04  0.23536345725E+04 0.  0.
        4    1    3    3  502    0  0.10206341527E+04  0.38895251160E+03  0.63420412089E+02  0.10940758162E+04  0.12699999809E+01 0. -1.
       -4    1    3    3    0  502 -0.10206341527E+04 -0.38895251160E+03  0.10294369090E+04  0.15009064236E+04  0.12699999809E+01 0.  1.
</event>
<event>
 5   0  0.2048028E-05  0.2348866E+04  0.7818609E-02  0.8458899E-01
        2   -1    0    0  501    0  0.00000000000E+00  0.00000000000E+00  0.15878643794E+04  0.15878643794E+04  0.25500000920E-02 0.  1.
       -2   -1    0    0    0  501  0.00000000000E+00  0.00000000000E+00 -0.86864680016E+03  0.86864680016E+03  0.25500000920E-02 0. -1.
    10030    2    1    2    0    0  0.00000000000E+00  0.00000000000E+00  0.71921757927E+03  0.24565111796E+04  0.23488663753E+04 0.  0.
        5    1    3    3  502    0  0.36790248881E+03 -0.96978358034E+02  0.15216150698E+04  0.15684679002E+04  0.46999998093E+01 0.  1.
       -5    1    3    3    0  502 -0.36790248881E+03  0.96978358034E+02 -0.80239749057E+03  0.88804327939E+03  0.46999998093E+01 0. -1.
</event>
<event>
 5   0  0.2080257E-05  0.2403216E+04  0.7818609E-02  0.8438301E-01
       -2   -1    0    0    0  501  0.00000000000E+00  0.00000000000E+00  0.83692793838E+03  0.83692793838E+03  0.25500000920E-02 0.  1.
        2   -1    0    0  501    0  0.00000000000E+00  0.00000000000E+00 -0.17251924738E+04  0.17251924738E+04  0.25500000920E-02 0. -1.
    10030    2    1    2    0    0  0.00000000000E+00  0.00000000000E+00 -0.88826453538E+03  0.25621204121E+04  0.24032159956E+04 0.  0.
        1    1    3    3  502    0  0.65299605993E+03 -0.79627038465E+03 -0.11042771209E+04  0.15099266007E+04  0.50400001928E-02 0. -1.
       -1    1    3    3    0  502 -0.65299605993E+03  0.79627038465E+03  0.21601258548E+03  0.10521938115E+04  0.50400001928E-02 0.  1.
</event>
<event>
 5   0  0.8528103E-06  0.2402897E+04  0.7818609E-02  0.8438420E-01
       -1   -1    0    0    0  501  0.00000000000E+00  0.00000000000E+00  0.10957847261E+04  0.10957847261E+04  0.50400001928E-02 0. -1.
        1   -1    0    0  501    0  0.00000000000E+00  0.00000000000E+00 -0.13173013090E+04  0.13173013091E+04  0.50400001928E-02 0.  1.
    10030    2    1    2    0    0  0.00000000000E+00  0.00000000000E+00 -0.22151658294E+03  0.24130860352E+04  0.24028971298E+04 0.  0.
        4    1    3    3  502    0 -0.98961834818E+02  0.50724924486E+03 -0.11999686832E+04  0.13065304033E+04  0.12699999809E+01 0.  1.
       -4    1    3    3    0  502  0.98961834818E+02 -0.50724924486E+03  0.97845210022E+03  0.11065556319E+04  0.12699999809E+01 0. -1.
</event>
<event>
 5   0  0.9176817E-06  0.2396866E+04  0.7818609E-02  0.8440678E-01
       -1   -1    0    0    0  501  0.00000000000E+00  0.00000000000E+00  0.69935502138E+03  0.69935502139E+03  0.50400001928E-02 0. -1.
        1   -1    0    0  501    0  0.00000000000E+00  0.00000000000E+00 -0.20536653606E+04  0.20536653606E+04  0.50400001928E-02 0.  1.
    10030    2    1    2    0    0  0.00000000000E+00  0.00000000000E+00 -0.13543103392E+04  0.27530203820E+04  0.23968656051E+04 0.  0.
        3    1    3    3  502    0  0.13629244634E+03 -0.93223371298E+03 -0.15278934180E+04  0.17950191179E+04  0.10100000352E+00 0.  1.
       -3    1    3    3    0  502 -0.13629244634E+03  0.93223371298E+03  0.17358307882E+03  0.95800126409E+03  0.10100000352E+00 0. -1.
</event>
<event>
 5   0  0.2025353E-05  0.2402485E+04  0.7818609E-02  0.8438574E-01
       -2   -1    0    0    0  501  0.00000000000E+00  0.00000000000E+00  0.11629977213E+04  0.11629977213E+04  0.25500000920E-02 0. -1.
        2   -1    0    0  501    0  0.00000000000E+00  0.00000000000E+00 -0.12407447772E+04  0.12407447772E+04  0.25500000920E-02 0.  1.
    10030    2    1    2    0    0  0.00000000000E+00  0.00000000000E+00 -0.77747055903E+02  0.24037424985E+04  0.24024848375E+04 0.  0.
        4    1    3    3  502    0  0.82855152990E+03 -0.45833234754E+03 -0.77845975410E+03  0.12257925518E+04  0.12699999809E+01 0.  1.
       -4    1    3    3    0  502 -0.82855152990E+03  0.45833234754E+03  0.70071269820E+03  0.11779499467E+04  0.12699999809E+01 0. -1.
</event>
<event>
 5   0  0.2122194E-05  0.2398574E+04  0.7818609E-02  0.8440038E-01
        2   -1    0    0  501    0  0.00000000000E+00  0.00000000000E+00  0.10945093694E+04  0.10945093694E+04  0.25500000920E-02 0. -1.
       -2   -1    0    0    0  501  0.00000000000E+00  0.00000000000E+00 -0.13140952867E+04  0.13140952867E+04  0.25500000920E-02 0.  1.
    10030    2    1    2    0    0  0.00000000000E+00  0.00000000000E+00 -0.21958591728E+03  0.24086046561E+04  0.23985742462E+04 0.  0.
        3    1    3    3  502    0  0.11776544317E+03 -0.94325427940E+03 -0.84407736138E+03  0.12712450344E+04  0.10100000352E+00 0.  1.
       -3    1    3    3    0  502 -0.11776544317E+03  0.94325427940E+03  0.62449144410E+03  0.11373596217E+04  0.10100000352E+00 0. -1.
</event>
<event>
 5   0  0.2087882E-05  0.2406624E+04  0.7818609E-02  0.8437028E-01
        2   -1    0    0  501    0  0.00000000000E+00  0.00000000000E+00  0.28318316994E+04  0.28318316994E+04  0.25500000920E-02 0. -1.
       -2   -1    0    0    0  501  0.00000000000E+00  0.00000000000E+00 -0.51131563424E+03  0.51131563424E+03  0.25500000920E-02 0.  1.
    10030    2    1    2    0    0  0.00000000000E+00  0.00000000000E+00  0.23205160652E+04  0.33431473337E+04  0.24066240433E+04 0.  0.
        2    1    3    3  502    0 -0.68118112363E+02  0.49048750226E+03  0.26837264641E+04  0.27290301942E+04  0.25500000920E-02 0. -1.
       -2    1    3    3    0  502  0.68118112363E+02 -0.49048750226E+03 -0.36321039887E+03  0.61411713944E+03  0.25500000920E-02 0.  1.
</event>
<event>
 5   0  0.2087882E-05  0.2418514E+04  0.7818609E-02  0.8432605E-01
        2   -1    0    0  501    0  0.00000000000E+00  0.00000000000E+00  0.20898511678E+04  0.20898511678E+04  0.25500000920E-02 0. -1.
       -2   -1    0    0    0  501  0.00000000000E+00  0.00000000000E+00 -0.69971615123E+03  0.69971615124E+03  0.25500000920E-02 0.  1.
    10030    2    1    2    0    0  0.00000000000E+00  0.00000000000E+00  0.13901350166E+04  0.27895673191E+04  0.24185141023E+04 0.  0.
        2    1    3    3  502    0 -0.12984860240E+03 -0.11383023091E+04  0.24878141794E+03  0.11723843228E+04  0.25500000920E-02 0.  1.
       -2    1    3    3    0  502  0.12984860240E+03  0.11383023091E+04  0.11413535986E+04  0.16171829963E+04  0.25500000920E-02 0. -1.
</event>
<event>
 5   0  0.2025353E-05  0.2384366E+04  0.7818609E-02  0.8445380E-01
        2   -1    0    0  501    0  0.00000000000E+00  0.00000000000E+00  0.20446010251E+04  0.20446010251E+04  0.25500000920E-02 0.  1.
       -2   -1    0    0    0  501  0.00000000000E+00  0.00000000000E+00 -0.69514775340E+03  0.69514775340E+03  0.25500000920E-02 0. -1.
    10030    2    1    2    0    0  0.00000000000E+00  0.00000000000E+00  0.13494532717E+04  0.27397487785E+04  0.23843655837E+04 0.  0.
        4    1    3    3  502    0 -0.28846226158E+03  0.92561447104E+03 -0.12245514535E+03  0.97722540945E+03  0.12699999809E+01 0. -1.
       -4    1    3    3    0  502  0.28846226158E+03 -0.92561447104E+03  0.14719084170E+04  0.17625233690E+04  0.12699999809E+01 0.  1.
</event>
<event>
 5   0  0.2048028E-05  0.2405574E+04  0.7818609E-02  0.8437420E-01
       -2   -1    0    0    0  501  0.00000000000E+00  0.00000000000E+00  0.15994142989E+04  0.15994142989E+04  0.25500000920E-02 0. -1.
        2   -1    0    0  501    0  0.00000000000E+00  0.00000000000E+00 -0.90451616327E+03  0.90451616327E+03  0.25500000920E-02 0.  1.
    10030    2    1    2    0    0  0.00000000000E+00  0.00000000000E+00  0.69489813565E+03  0.25039304622E+04  0.24055735991E+04 0.  0.
        5    1    3    3  502    0  0.11347811451E+04  0.28685698651E+03  0.63564289328E+03  0.13319456279E+04  0.46999998093E+01 0. -1.
       -5    1    3    3    0  502 -0.11347811451E+04 -0.28685698651E+03  0.59255242376E+02  0.11719848343E+04  0.46999998093E+01 0.  1.
</event>
<event>
 5   0  0.2048028E-05  0.2334558E+04  0.7818609E-02  0.8464419E-01
        2   -1    0    0  501    0  0.00000000000E+00  0.00000000000E+00  0.18742909216E+04  0.18742909216E+04  0.25500000920E-02 0. -1.
       -2   -1    0    0    0  501  0.00000000000E+00  0.00000000000E+00 -0.72696301613E+03  0.72696301614E+03  0.25500000920E-02 0.  1.
    10030    2    1    2    0    0  0.00000000000E+00  0.00000000000E+00  0.11473279055E+04  0.26012539378E+04  0.23345579295E+04 0.  0.
        5    1    3    3  502    0 -0.24408147252E+03 -0.65075940357E+03  0.16185881581E+04  0.17615088084E+04  0.46999998093E+01 0. -1.
       -5    1    3    3    0  502  0.24408147252E+03  0.65075940357E+03 -0.47126025262E+03  0.83974512934E+03  0.46999998093E+01 0.  1.
</event>
<event>
 5   0  0.2122194E-05  0.2395905E+04  0.7818609E-02  0.8441038E-01
       -2   -1    0    0    0  501  0.00000000000E+00  0.00000000000E+00  0.14519256625E+04  0.14519256625E+04  0.25500000920E-02 0. -1.
        2   -1    0    0  501    0  0.00000000000E+00  0.00000000000E+00 -0.98840498990E+03  0.98840498990E+03  0.25500000920E-02 0.  1.
    10030    2    1    2    0    0  0.00000000000E+00  0.00000000000E+00  0.46352067259E+03  0.24403306524E+04  0.23959053151E+04 0.  0.
        3    1    3    3  502    0 -0.11434601222E+04 -0.98843378662E+02  0.58137336015E+03  0.12865714355E+04  0.10100000352E+00 0.  1.
       -3    1    3    3    0  502  0.11434601222E+04  0.98843378662E+02 -0.11785268756E+03  0.11537592169E+04  0.10100000352E+00 0. -1.
</event>
<event>
 5   0  0.9038897E-06  0.2346459E+04  0.7818609E-02  0.8459825E-01
       -1   -1    0    0    0  501  0.00000000000E+00  0.00000000000E+00  0.12798707391E+04  0.12798707391E+04  0.50400001928E-02 0.  1.
        1   -1    0    0  501    0  0.00000000000E+00  0.00000000000E+00 -0.10754735058E+04  0.10754735058E+04  0.50400001928E-02 0. -1.
    10030    2    1    2    0    0  0.00000000000E+00  0.00000000000E+00  0.20439723324E+03  0.23553442449E+04  0.23464586686E+04 0.  0.
        1    1    3    3  502    0 -0.86006590590E+01 -0.11608307347E+04  0.27273932039E+03  0.11924716780E+04  0.50400001928E-02 0.  1.
       -1    1    3    3    0  502  0.86006590590E+01  0.11608307347E+04 -0.68342087144E+02  0.11628725669E+04  0.50400001928E-02 0. -1.
</event>
<event>
 5   0  0.9038897E-06  0.2477995E+04  0.7818609E-02  0.8410867E-01
       -1   -1    0    0    0  501  0.00000000000E+00  0.00000000000E+00  0.10857661112E+04  0.10857661112E+04  0.50400001928E-02 0. -1.
        1   -1    0    0  501    0  0.00000000000E+00  0.00000000000E+00 -0.14138537150E+04  0.14138537150E+04  0.50400001928E-02 0.  1.
    10030    2    1    2    0    0  0.00000000000E+00  0.00000000000E+00 -0.32808760386E+03  0.24996198262E+04  0.24779947134E+04 0.  0.
        1    1    3    3  502    0  0.94186877888E+02  0.74127430129E+03 -0.11609781530E+04  0.13806625328E+04  0.50400001928E-02 0.  1.
       -1    1    3    3    0  502 -0.94186877888E+02 -0.74127430129E+03  0.83289054910E+03  0.11189572934E+04  0.50400001928E-02 0. -1.
</event>
<event>
 5   0  0.2087882E-05  0.2398325E+04  0.7818609E-02  0.8440131E-01
       -2   -1    0    0    0  501  0.00000000000E+00  0.00000000000E+00  0.65317215412E+03  0.65317215412E+03  0.25500000920E-02 0. -1.
        2   -1    0    0  501    0  0.00000000000E+00  0.00000000000E+00 -0.22015496750E+04  0.22015496750E+04  0.25500000920E-02 0.  1.
    10030    2    1    2    0    0  0.00000000000E+00  0.00000000000E+00 -0.15483775209E+04  0.28547218291E+04  0.23983252020E+04 0.  0.
        2    1    3    3  502    0 -0.95428115739E+03 -0.64091863060E+03 -0.11805700538E+04  0.16477787687E+04  0.25500000920E-02 0.  1.
       -2    1    3    3    0  502  0.95428115739E+03  0.64091863060E+03 -0.36780746705E+03  0.12069430605E+04  0.25500000920E-02 0. -1.
</event>
<event>
 5   0  0.2025353E-05  0.2392650E+04  0.7818609E-02  0.8442261E-01
        2   -1    0    0  501    0  0.00000000000E+00  0.00000000000E+00  0.10131168342E+04  0.10131168342E+04  0.25500000920E-02 0.  1.
       -2   -1    0    0    0  501  0.00000000000E+00  0.00000000000E+00 -0.14126634649E+04  0.14126634649E+04  0.25500000920E-02 0. -1.
    10030    2    1    2    0    0  0.00000000000E+00  0.00000000000E+00 -0.39954663072E+03  0.24257802990E+04  0.23926496921E+04 0.  0.
        4    1    3    3  502    0 -0.81943406938E+03 -0.73560360968E+02  0.68076196581E+03  0.10678585055E+04  0.12699999809E+01 0.  1.
       -4    1    3    3    0  502  0.81943406938E+03  0.73560360968E+02 -0.10803085965E+04  0.13579217936E+04  0.12699999809E+01 0. -1.
</event>
<event>
 5   0  0.8898848E-06  0.2405951E+04  0.7818609E-02  0.8437279E-01
       -1   -1    0    0    0  501  0.00000000000E+00  0.00000000000E+00  0.98273769057E+03  0.98273769058E+03  0.50400001928E-02 0. -1.
        1   -1    0    0  501    0  0.00000000000E+00  0.00000000000E+00 -0.14725703192E+04  0.14725703192E+04  0.50400001928E-02 0.  1.
    10030    2    1    2    0    0  0.00000000000E+00  0.00000000000E+00 -0.48983262867E+03  0.24553080098E+04  0.24059512503E+04 0.  0.
        5    1    3    3  502    0 -0.37723871121E+03  0.42417940323E+03 -0.13272829303E+04  0.14435855632E+04  0.46999998093E+01 0.  1.
       -5    1    3    3    0  502  0.37723871121E+03 -0.42417940323E+03  0.83745030159E+03  0.10117224466E+04  0.46999998093E+01 0. -1.
</event>
<event>
 5   0  0.7233625E-06  0.2405117E+04  0.7818609E-02  0.8437590E-01
       -3   -1    0    0    0  501  0.00000000000E+00  0.00000000000E+00  0.16084057141E+04  0.16084057172E+04  0.10100000352E+00 0. -1.
        3   -1    0    0  501    0  0.00000000000E+00  0.00000000000E+00 -0.89911823916E+03  0.89911824483E+03  0.10100000352E+00 0.  1.
    10030    2    1    2    0    0  0.00000000000E+00  0.00000000000E+00  0.70928747490E+03  0.25075239621E+04  0.24051169822E+04 0.  0.
        5    1    3    3  502    0  0.90649884349E+03 -0.50159251126E+03 -0.28191839631E+03  0.10737016684E+04  0.46999998093E+01 0.  1.
       -5    1    3    3    0  502 -0.90649884349E+03  0.50159251126E+03  0.99120587121E+03  0.14338222936E+04  0.46999998093E+01 0. -1.
</event>
<event>
 5   0  0.2025353E-05  0.2366172E+04  0.7818609E-02  0.8452278E-01
        2   -1    0    0  501    0  0.00000000000E+00  0.00000000000E+00  0.10850760421E+04  0.10850760421E+04  0.25500000920E-02 0.  1.
       -2   -1    0    0    0  501  0.00000000000E+00  0.00000000000E+00 -0.12899487162E+04  0.12899487162E+04  0.25500000920E-02 0. -1.
    10030    2    1    2    0    0  0.00000000000E+00  0.00000000000E+00 -0.20487267410E+03  0.23750247582E+04  0.23661719696E+04 0.  0.
        4    1    3    3  502    0 -0.25333406386E+03 -0.10450455118E+04  0.39275779499E+03  0.11447962998E+04  0.12699999809E+01 0. -1.
       -4    1    3    3    0  502  0.25333406386E+03  0.10450455118E+04 -0.59763046910E+03  0.12302284585E+04  0.12699999809E+01 0.  1.
</event>
<event>
 5   0  0.8898848E-06  0.2400952E+04  0.7818609E-02  0.8439147E-01
        1   -1    0    0  501    0  0.00000000000E+00  0.00000000000E+00  0.17740928897E+04  0.17740928897E+04  0.50400001928E-02 0. -1.
       -1   -1    0    0    0  501  0.00000000000E+00  0.00000000000E+00 -0.81232655043E+03  0.81232655045E+03  0.50400001928E-02 0.  1.
    10030    2    1    2    0    0  0.00000000000E+00  0.00000000000E+00  0.96176633927E+03  0.25864194402E+04  0.24009521089E+04 0.  0.
        5    1    3    3  502    0  0.39775449211E+03 -0.46392673711E+03 -0.63222361169E+03  0.87929826486E+03  0.46999998093E+01 0.  1.
       -5    1    3    3    0  502 -0.39775449211E+03  0.46392673711E+03  0.15939899510E+04  0.17071211753E+04  0.46999998093E+01 0. -1.
</event>
<event>
 5   0  0.8528103E-06  0.2425336E+04  0.7818609E-02  0.8430078E-01
        1   -1    0    0  501    0  0.00000000000E+00  0.00000000000E+00  0.14100071709E+04  0.14100071709E+04  0.50400001928E-02 0.  1.
       -1   -1    0    0    0  501  0.00000000000E+00  0.00000000000E+00 -0.10429479665E+04  0.10429479665E+04  0.50400001928E-02 0. -1.
    10030    2    1    2    0    0  0.00000000000E+00  0.00000000000E+00  0.36705920443E+03  0.24529551374E+04  0.24253363574E+04 0.  0.
        4    1    3    3  502    0  0.34663701650E+03 -0.16531825723E+02  0.13587132499E+04  0.14023315695E+04  0.12699999809E+01 0.  1.
       -4    1    3    3    0  502 -0.34663701650E+03  0.16531825723E+02 -0.99165404548E+03  0.10506235678E+04  0.12699999809E+01 0. -1.
</event>
<event>
 5   0  0.9038897E-06  0.2402590E+04  0.7818609E-02  0.8438534E-01
       -1   -1    0    0    0  501  0.00000000000E+00  0.00000000000E+00  0.13979264997E+04  0.13979264997E+04  0.50400001928E-02 0. -1.
        1   -1    0    0  501    0  0.00000000000E+00  0.00000000000E+00 -0.10323217455E+04  0.10323217456E+04  0.50400001928E-02 0.  1.
    10030    2    1    2    0    0  0.00000000000E+00  0.00000000000E+00  0.36560475417E+03  0.24302482453E+04  0.24025902059E+04 0.  0.
        1    1    3    3  502    0 -0.35143946095E+03  0.67159399977E+03 -0.75989278997E+03  0.10733057568E+04  0.50400001928E-02 0.  1.
       -1    1    3    3    0  502  0.35143946095E+03 -0.67159399977E+03  0.11254975441E+04  0.13569424885E+04  0.50400001928E-02 0. -1.
</event>
<event>
 5   0  0.9038897E-06  0.2419930E+04  0.7818609E-02  0.8432079E-01
       -1   -1    0    0    0  501  0.00000000000E+00  0.00000000000E+00  0.14437524251E+04  0.14437524252E+04  0.50400001928E-02 0. -1.
        1   -1    0    0  501    0  0.00000000000E+00  0.00000000000E+00 -0.10140351428E+04  0.10140351428E+04  0.50400001928E-02 0.  1.
    10030    2    1    2    0    0  0.00000000000E+00  0.00000000000E+00  0.42971728239E+03  0.24577875679E+04  0.24199303267E+04 0.  0.
        1    1    3    3  502    0 -0.35045927430E+02  0.91582002045E+03  0.10171923916E+04  0.13691730674E+04  0.50400001928E-02 0. -1.
       -1    1    3    3    0  502  0.35045927430E+02 -0.91582002045E+03 -0.58747510919E+03  0.10886145006E+04  0.50400001928E-02 0.  1.
</event>
<event>
 5   0  0.9038897E-06  0.2491477E+04  0.7818609E-02  0.8406028E-01
        1   -1    0    0  501    0  0.00000000000E+00  0.00000000000E+00  0.12143248635E+04  0.12143248635E+04  0.50400001928E-02 0. -1.
       -1   -1    0    0    0  501  0.00000000000E+00  0.00000000000E+00 -0.12779643557E+04  0.12779643557E+04  0.50400001928E-02 0.  1.
    10030    2    1    2    0    0  0.00000000000E+00  0.00000000000E+00 -0.63639492174E+02  0.24922892192E+04  0.24914765838E+04 0.  0.
        1    1    3    3  502    0 -0.92917321492E+02  0.16003276865E+02 -0.12743900075E+04  0.12778730863E+04  0.50400001928E-02 0.  1.
       -1    1    3    3    0  502  0.92917321492E+02 -0.16003276865E+02  0.12107505153E+04  0.12144161329E+04  0.50400001928E-02 0. -1.
</event>
<event>
 5   0  0.9083687E-06  0.2388829E+04  0.7818609E-02  0.8443698E-01
       -1   -1    0    0    0  501  0.00000000000E+00  0.00000000000E+00  0.14358646131E+04  0.14358646131E+04  0.50400001928E-02 0.  1.
        1   -1    0    0  501    0  0.00000000000E+00  0.00000000000E+00 -0.99356600440E+03  0.99356600441E+03  0.50400001928E-02 0. -1.
    10030    2    1    2    0    0  0.00000000000E+00  0.00000000000E+00  0.44229860868E+03  0.24294306175E+04  0.23888292250E+04 0.  0.
        2    1    3    3  502    0 -0.22008372666E+03  0.11683257667E+04  0.10428618891E+03  0.11934393797E+04  0.25500000920E-02 0. -1.
       -2    1    3    3    0  502  0.22008372666E+03 -0.11683257667E+04  0.33801241977E+03  0.12359912378E+04  0.25500000920E-02 0.  1.
</event>
<event>
 5   0  0.8898848E-06  0.2403734E+04  0.7818609E-02  0.8438107E-01
       -1   -1    0    0    0  501  0.00000000000E+00  0.00000000000E+00  0.99318396257E+03  0.99318396259E+03  0.50400001928E-02 0. -1.
        1   -1    0    0  501    0  0.00000000000E+00  0.00000000000E+00 -0.14543976486E+04  0.14543976486E+04  0.50400001928E-02 0.  1.
    10030    2    1    2    0    0  0.00000000000E+00  0.00000000000E+00 -0.46121368606E+03  0.24475816112E+04  0.24037341116E+04 0.  0.
        5    1    3    3  502    0 -0.46285888719E+03 -0.58515323903E+03 -0.11900364932E+04  0.14045823606E+04  0.46999998093E+01 0.  1.
       -5    1    3    3    0  502  0.46285888719E+03  0.58515323903E+03  0.72882280713E+03  0.10429992506E+04  0.46999998093E+01 0. -1.
</event>
<event>
 5   0  0.2122194E-05  0.2372886E+04  0.7818609E-02  0.8449725E-01
        2   -1    0    0  501    0  0.00000000000E+00  0.00000000000E+00  0.18755814252E+04  0.18755814252E+04  0.25500000920E-02 0. -1.
       -2   -1    0    0    0  501  0.00000000000E+00  0.00000000000E+00 -0.75051226731E+03  0.75051226732E+03  0.25500000920E-02 0.  1.
    10030    2    1    2    0    0  0.00000000000E+00  0.00000000000E+00  0.11250691579E+04  0.26260936926E+04  0.23728858953E+04 0.  0.
        3    1    3    3  502    0 -0.61043397885E+02  0.75611342447E+02 -0.74610048300E+03  0.75240236076E+03  0.10100000352E+00 0.  1.
       -3    1    3    3    0  502  0.61043397885E+02 -0.75611342447E+02  0.18711696409E+04  0.18736913318E+04  0.10100000352E+00 0. -1.
</event>
<event>
 5   0  0.9176817E-06  0.2404806E+04  0.7818609E-02  0.8437706E-01
       -1   -1    0    0    0  501  0.00000000000E+00  0.00000000000E+00  0.70094106972E+03  0.70094106973E+03  0.50400001928E-02 0. -1.
        1   -1    0    0  501    0  0.00000000000E+00  0.00000000000E+00 -0.20626174991E+04  0.20626174991E+04  0.50400001928E-02 0.  1.
    10030    2    1    2    0    0  0.00000000000E+00  0.00000000000E+00 -0.13616764294E+04  0.27635585688E+04  0.24048062843E+04 0.  0.
        3    1    3    3  502    0  0.36433586023E+03  0.84396304752E+03 -0.15715531613E+04  0.18206574619E+04  0.10100000352E+00 0.  1.
       -3    1    3    3    0  502 -0.36433586023E+03 -0.84396304752E+03  0.20987673192E+03  0.94290110692E+03  0.10100000352E+00 0. -1.
</event>
<event>
 5   0  0.9083687E-06  0.2457518E+04  0.7818609E-02  0.8418278E-01
        1   -1    0    0  501    0  0.00000000000E+00  0.00000000000E+00  0.15763588809E+04  0.15763588809E+04  0.50400001928E-02 0. -1.
       -1   -1    0    0    0  501  0.00000000000E+00  0.00000000000E+00 -0.95780778956E+03  0.95780778957E+03  0.50400001928E-02 0.  1.
    10030    2    1    2    0    0  0.00000000000E+00  0.00000000000E+00  0.61855109137E+03  0.25341666705E+04  0.24575181101E+04 0.  0.
        2    1    3    3  502    0 -0.25240519345E+03 -0.55831032047E+03 -0.78904043584E+03  0.99900130381E+03  0.25500000920E-02 0.  1.
       -2    1    3    3    0  502  0.25240519345E+03  0.55831032047E+03  0.14075915272E+04  0.15351653667E+04  0.25500000920E-02 0. -1.
</event>
<event>
 5   0  0.2048028E-05  0.2427642E+04  0.7818609E-02  0.8429227E-01
        2   -1    0    0  501    0  0.00000000000E+00  0.00000000000E+00  0.72686280239E+03  0.72686280239E+03  0.25500000920E-02 0.  1.
       -2   -1    0    0    0  501  0.00000000000E+00  0.00000000000E+00 -0.20270149477E+04  0.20270149477E+04  0.25500000920E-02 0. -1.
    10030    2    1    2    0    0  0.00000000000E+00  0.00000000000E+00 -0.13001521453E+04  0.27538777501E+04  0.24276422845E+04 0.  0.
        5    1    3    3  502    0 -0.37539271775E+03  0.69635106820E+03  0.39424419040E+03  0.88389766058E+03  0.46999998093E+01 0.  1.
       -5    1    3    3    0  502  0.37539271775E+03 -0.69635106820E+03 -0.16943963357E+04  0.18699800895E+04  0.46999998093E+01 0. -1.
</event>
<event>
 5   0  0.2122194E-05  0.2397699E+04  0.7818609E-02  0.8440365E-01
       -2   -1    0    0    0  501  0.00000000000E+00  0.00000000000E+00  0.15831509363E+04  0.15831509363E+04  0.25500000920E-02 0.  1.
        2   -1    0    0  501    0  0.00000000000E+00  0.00000000000E+00 -0.90783529588E+03  0.90783529588E+03  0.25500000920E-02 0. -1.
    10030    2    1    2    0    0  0.00000000000E+00  0.00000000000E+00  0.67531564046E+03  0.24909862322E+04  0.23976991460E+04 0.  0.
        3    1    3    3  502    0 -0.94681544200E+03 -0.63909812062E+03 -0.40273612714E+02  0.11430344978E+04  0.10100000352E+00 0. -1.
       -3    1    3    3    0  502  0.94681544200E+03  0.63909812062E+03  0.71558925317E+03  0.13479517345E+04  0.10100000352E+00 0.  1.
</event>
<event>
 5   0  0.9038897E-06  0.2389216E+04  0.7818609E-02  0.8443552E-01
       -1   -1    0    0    0  501  0.00000000000E+00  0.00000000000E+00  0.18173467619E+04  0.18173467619E+04  0.50400001928E-02 0.  1.
        1   -1    0    0  501    0  0.00000000000E+00  0.00000000000E+00 -0.78525920783E+03  0.78525920784E+03  0.50400001928E-02 0. -1.
    10030    2    1    2    0    0  0.00000000000E+00  0.00000000000E+00  0.10320875540E+04  0.26026059697E+04  0.23892160041E+04 0.  0.
        1    1    3    3  502    0 -0.49699049444E+03 -0.93288366088E+03  0.11223687973E+04  0.15417467994E+04  0.50400001928E-02 0.  1.
       -1    1    3    3    0  502  0.49699049444E+03  0.93288366088E+03 -0.90281243273E+02  0.10608591703E+04  0.50400001928E-02 0. -1.
</event>
<event>
 5   0  0.2025353E-05  0.2407840E+04  0.7818609E-02  0.8436574E-01
        2   -1    0    0  501    0  0.00000000000E+00  0.00000000000E+00  0.24935696709E+04  0.24935696709E+04  0.25500000920E-02 0. -1.
       -2   -1    0    0    0  501  0.00000000000E+00  0.00000000000E+00 -0.58126434278E+03  0.58126434278E+03  0.25500000920E-02 0.  1.
    10030    2    1    2    0    0  0.00000000000E+00  0.00000000000E+00  0.19123053281E+04  0.30748340137E+04  0.24078398086E+04 0.  0.
        4    1    3    3  502    0  0.51085763675E+03 -0.14202787083E+03 -0.42412499063E+03  0.67899268162E+03  0.12699999809E+01 0.  1.
       -4    1    3    3    0  502 -0.51085763675E+03  0.14202787083E+03  0.23364303187E+04  0.23958413320E+04  0.12699999809E+01 0. -1.
</event>
<event>
 5   0  0.2080257E-05  0.2390899E+04  0.7818609E-02  0.8442919E-01
        2   -1    0    0  501    0  0.00000000000E+00  0.00000000000E+00  0.15832669455E+04  0.15832669455E+04  0.25500000920E-02 0.  1.
       -2   -1    0    0    0  501  0.00000000000E+00  0.00000000000E+00 -0.90262728542E+03  0.90262728542E+03  0.25500000920E-02 0. -1.
    10030    2    1    2    0    0  0.00000000000E+00  0.00000000000E+00  0.68063966006E+03  0.24858942309E+04  0.23908993664E+04 0.  0.
        1    1    3    3  502    0 -0.45648610861E+03 -0.47378768081E+03  0.13780980698E+04  0.15270915571E+04  0.50400001928E-02 0.  1.
       -1    1    3    3    0  502  0.45648610861E+03  0.47378768081E+03 -0.69745840976E+03  0.95880267376E+03  0.50400001928E-02 0. -1.
</event>
<event>
 5   0  0.2122194E-05  0.2410806E+04  0.7818609E-02  0.8435469E-01
       -2   -1    0    0    0  501  0.00000000000E+00  0.00000000000E+00  0.11897616496E+04  0.11897616496E+04  0.25500000920E-02 0.  1.
        2   -1    0    0  501    0  0.00000000000E+00  0.00000000000E+00 -0.12212499164E+04  0.12212499164E+04  0.25500000920E-02 0. -1.
    10030    2    1    2    0    0  0.00000000000E+00  0.00000000000E+00 -0.31488266804E+02  0.24110115659E+04  0.24108059358E+04 0.  0.
        3    1    3    3  502    0  0.98692802130E+03  0.62468598498E+03  0.28216851163E+03  0.12016149875E+04  0.10100000352E+00 0. -1.
       -3    1    3    3    0  502 -0.98692802130E+03 -0.62468598498E+03 -0.31365677843E+03  0.12093965784E+04  0.10100000352E+00 0.  1.
</event>
<event>
 5   0  0.8898848E-06  0.2366117E+04  0.7818609E-02  0.8452299E-01
        1   -1    0    0  501    0  0.00000000000E+00  0.00000000000E+00  0.23331572901E+04  0.23331572901E+04  0.50400001928E-02 0.  1.
       -1   -1    0    0    0  501  0.00000000000E+00  0.00000000000E+00 -0.59988538701E+03  0.59988538703E+03  0.50400001928E-02 0. -1.
    10030    2    1    2    0    0  0.00000000000E+00  0.00000000000E+00  0.17332719031E+04  0.29330426771E+04  0.23661166192E+04 0.  0.
        5    1    3    3  502    0  0.11720855186E+04  0.69484555312E+02  0.10462384309E+04  0.15726568318E+04  0.46999998093E+01 0. -1.
       -5    1    3    3    0  502 -0.11720855186E+04 -0.69484555312E+02  0.68703347221E+03  0.13603858454E+04  0.46999998093E+01 0.  1.
</event>
<event>
 5   0  0.9083687E-06  0.2411459E+04  0.7818609E-02  0.8435226E-01
        1   -1    0    0  501    0  0.00000000000E+00  0.00000000000E+00  0.14146028027E+04  0.14146028027E+04  0.50400001928E-02 0.  1.
       -1   -1    0    0    0  501  0.00000000000E+00  0.00000000000E+00 -0.10276974245E+04  0.10276974245E+04  0.50400001928E-02 0. -1.
    10030    2    1    2    0    0  0.00000000000E+00  0.00000000000E+00  0.38690537820E+03  0.24423002272E+04  0.24114590247E+04 0.  0.
        2    1    3    3  502    0  0.37097610711E+03 -0.96604898185E+03 -0.43325839427E+03  0.11218675250E+04  0.25500000920E-02 0. -1.
       -2    1    3    3    0  502 -0.37097610711E+03  0.96604898185E+03  0.82016377247E+03  0.13204327022E+04  0.25500000920E-02 0.  1.
</event>
<event>
 5   0  0.9038897E-06  0.2410135E+04  0.7818609E-02  0.8435719E-01
        1   -1    0    0  501    0  0.00000000000E+00  0.00000000000E+00  0.17689198747E+04  0.17689198747E+04  0.50400001928E-02 0. -1.
       -1   -1    0    0    0  501  0.00000000000E+00  0.00000000000E+00 -0.82094585152E+03  0.82094585153E+03  0.50400001928E-02 0.  1.
    10030    2    1    2    0    0  0.00000000000E+00  0.00000000000E+00  0.94797402322E+03  0.25898657263E+04  0.24101347953E+04 0.  0.
        1    1    3    3  502    0  0.89945882625E+03  0.78959591490E+03  0.62480877043E+03  0.13501384701E+04  0.50400001928E-02 0.  1.
       -1    1    3    3    0  502 -0.89945882625E+03 -0.78959591490E+03  0.32316525279E+03  0.12397272561E+04  0.50400001928E-02 0. -1.
</event>
<event>
 5   0  0.2087882E-05  0.2416164E+04  0.7818609E-02  0.8433477E-01
        2   -1    0    0  501    0  0.00000000000E+00  0.00000000000E+00  0.10805726809E+04  0.10805726809E+04  0.25500000920E-02 0. -1.
       -2   -1    0    0    0  501  0.00000000000E+00  0.00000000000E+00 -0.13506373713E+04  0.13506373713E+04  0.25500000920E-02 0.  1.
    10030    2    1    2    0    0  0.00000000000E+00  0.00000000000E+00 -0.27006469038E+03  0.24312100522E+04  0.24161637736E+04 0.  0.
        2    1    3    3  502    0 -0.71102679410E+03  0.35584699810E+02  0.84707671292E+03  0.11065099775E+04  0.25500000920E-02 0. -1.
       -2    1    3    3    0  502  0.71102679410E+03 -0.35584699810E+02 -0.11171414033E+04  0.13247000746E+04  0.25500000920E-02 0.  1.
</event>
<event>
 5   0  0.2025353E-05  0.2127029E+04  0.7818609E-02  0.8549430E-01
       -2   -1    0    0    0  501  0.00000000000E+00  0.00000000000E+00  0.61435117333E+03  0.61435117333E+03  0.25500000920E-02 0.  1.
        2   -1    0    0  501    0  0.00000000000E+00  0.00000000000E+00 -0.18410687171E+04  0.18410687171E+04  0.25500000920E-02 0. -1.
    10030    2    1    2    0    0  0.00000000000E+00  0.00000000000E+00 -0.12267175437E+04  0.24554198904E+04  0.21270286566E+04 0.  0.
        4    1    3    3  502    0 -0.64723553680E+03 -0.32901534572E+03 -0.15104437167E+04  0.16758898448E+04  0.12699999809E+01 0. -1.
       -4    1    3    3    0  502  0.64723553680E+03  0.32901534572E+03  0.28372617296E+03  0.77953004557E+03  0.12699999809E+01 0.  1.
</event>
<event>
 5   0  0.9083687E-06  0.2461745E+04  0.7818609E-02  0.8416742E-01
       -1   -1    0    0    0  501  0.00000000000E+00  0.00000000000E+00  0.66038460427E+03  0.66038460429E+03  0.50400001928E-02 0.  1.
        1   -1    0    0  501    0  0.00000000000E+00  0.00000000000E+00 -0.22941884149E+04  0.22941884149E+04  0.50400001928E-02 0. -1.
    10030    2    1    2    0    0  0.00000000000E+00  0.00000000000E+00 -0.16338038106E+04  0.29545730192E+04  0.24617446728E+04 0.  0.
        2    1    3    3  502    0 -0.52750642297E+03 -0.87244599583E+03  0.10816354422E+02  0.10195793424E+04  0.25500000920E-02 0.  1.
       -2    1    3    3    0  502  0.52750642297E+03  0.87244599583E+03 -0.16446201650E+04  0.19349936768E+04  0.25500000920E-02 0. -1.
</event>
<event>
 5   0  0.8898848E-06  0.2489270E+04  0.7818609E-02  0.8406818E-01
       -1   -1    0    0    0  501  0.00000000000E+00  0.00000000000E+00  0.84061354704E+03  0.84061354706E+03  0.50400001928E-02 0. -1.
        1   -1    0    0  501    0  0.00000000000E+00  0.00000000000E+00 -0.18428406148E+04  0.18428406148E+04  0.50400001928E-02 0.  1.
    10030    2    1    2    0    0  0.00000000000E+00  0.00000000000E+00 -0.10022270678E+04  0.26834541619E+04  0.24892704039E+04 0.  0.
        5    1    3    3  502    0 -0.95126321187E+02  0.97859696655E+03  0.32156548856E+03  0.10344696677E+04  0.46999998093E+01 0. -1.
       -5    1    3    3    0  502  0.95126321187E+02 -0.97859696655E+03 -0.13237925563E+04  0.16489844942E+04  0.46999998093E+01 0.  1.
</event>
<event>
 5   0  0.9083687E-06  0.2403604E+04  0.7818609E-02  0.8438155E-01
        1   -1    0    0  501    0  0.00000000000E+00  0.00000000000E+00  0.10517493815E+04  0.10517493816E+04  0.50400001928E-02 0.  1.
       -1   -1    0    0    0  501  0.00000000000E+00  0.00000000000E+00 -0.13732628718E+04  0.13732628718E+04  0.50400001928E-02 0. -1.
    10030    2    1    2    0    0  0.00000000000E+00  0.00000000000E+00 -0.32151349030E+03  0.24250122534E+04  0.24036042737E+04 0.  0.
        2    1    3    3  502    0 -0.11694990574E+04 -0.16547638681E+03  0.63070265162E+02  0.11828306464E+04  0.25500000920E-02 0.  1.
       -2    1    3    3    0  502  0.11694990574E+04  0.16547638681E+03 -0.38458375546E+03  0.12421816070E+04  0.25500000920E-02 0. -1.
</event>
<event>
 5   0  0.7233625E-06  0.2460321E+04  0.7818609E-02  0.8417259E-01
        3   -1    0    0  501    0  0.00000000000E+00  0.00000000000E+00  0.15448264951E+04  0.15448264984E+04  0.10100000352E+00 0. -1.
       -3   -1    0    0    0  501  0.00000000000E+00  0.00000000000E+00 -0.97958914082E+03  0.97958914603E+03  0.10100000352E+00 0.  1.
    10030    2    1    2    0    0  0.00000000000E+00  0.00000000000E+00  0.56523735427E+03  0.25244156444E+04  0.24603213366E+04 0.  0.
        5    1    3    3  502    0  0.93175669788E+02  0.11626417827E+04  0.68377131234E+03  0.13520291853E+04  0.46999998093E+01 0. -1.
       -5    1    3    3    0  502 -0.93175669788E+02 -0.11626417827E+04 -0.11853395807E+03  0.11723864591E+04  0.46999998093E+01 0.  1.
</event>
<event>
 5   0  0.2087882E-05  0.2394793E+04  0.7818609E-02  0.8441456E-01
        2   -1    0    0  501    0  0.00000000000E+00  0.00000000000E+00  0.17530500736E+04  0.17530500736E+04  0.25500000920E-02 0.  1.
       -2   -1    0    0    0  501  0.00000000000E+00  0.00000000000E+00 -0.81786501698E+03  0.81786501698E+03  0.25500000920E-02 0. -1.
    10030    2    1    2    0    0  0.00000000000E+00  0.00000000000E+00  0.93518505666E+03  0.25709150906E+04  0.23947929583E+04 0.  0.
        2    1    3    3  502    0  0.45137212759E+03  0.60328552942E+03 -0.53147715929E+03  0.92204023688E+03  0.25500000920E-02 0. -1.
       -2    1    3    3    0  502 -0.45137212759E+03 -0.60328552942E+03  0.14666622160E+04  0.16488748537E+04  0.25500000920E-02 0.  1.
</event>
<event>
 5   0  0.2122194E-05  0.2402619E+04  0.7818609E-02  0.8438524E-01
       -2   -1    0    0    0  501  0.00000000000E+00  0.00000000000E+00  0.13782155909E+04  0.13782155909E+04  0.25500000920E-02 0.  1.
        2   -1    0    0  501    0  0.00000000000E+00  0.00000000000E+00 -0.10471105295E+04  0.10471105295E+04  0.25500000920E-02 0. -1.
    10030    2    1    2    0    0  0.00000000000E+00  0.00000000000E+00  0.33110506138E+03  0.24253261204E+04  0.24026186191E+04 0.  0.
        3    1    3    3  502    0  0.43428772685E+02  0.66927628432E+02  0.13755382467E+04  0.13778500804E+04  0.10100000352E+00 0.  1.
       -3    1    3    3    0  502 -0.43428772685E+02 -0.66927628432E+02 -0.10444331853E+04  0.10474760400E+04  0.10100000352E+00 0. -1.
</event>
<event>
 5   0  0.2087882E-05  0.2432884E+04  0.7818609E-02  0.8427294E-01
        2   -1    0    0  501    0  0.00000000000E+00  0.00000000000E+00  0.18550517743E+04  0.18550517743E+04  0.25500000920E-02 0.  1.
       -2   -1    0    0    0  501  0.00000000000E+00  0.00000000000E+00 -0.79767654257E+03  0.79767654257E+03  0.25500000920E-02 0. -1.
    10030    2    1    2    0    0  0.00000000000E+00  0.00000000000E+00  0.10573752318E+04  0.26527283169E+04  0.24328841203E+04 0.  0.
        2    1    3    3  502    0 -0.81156714883E+03 -0.90054892645E+03  0.63827691408E+03  0.13700463587E+04  0.25500000920E-02 0. -1.
       -2    1    3    3    0  502  0.81156714883E+03  0.90054892645E+03  0.41909831769E+03  0.12826819582E+04  0.25500000920E-02 0.  1.
</event>
<event>
 5   0  0.9176817E-06  0.2422529E+04  0.7818609E-02  0.8431117E-01
        1   -1    0    0  501    0  0.00000000000E+00  0.00000000000E+00  0.13429092390E+04  0.13429092390E+04  0.50400001928E-02 0. -1.
       -1   -1    0    0    0  501  0.00000000000E+00  0.00000000000E+00 -0.10925248399E+04  0.10925248399E+04  0.50400001928E-02 0.  1.
    10030    2    1    2    0    0  0.00000000000E+00  0.00000000000E+00  0.25038439916E+03  0.24354340789E+04  0.24225290102E+04 0.  0.
        3    1    3    3  502    0  0.34338479790E+03 -0.98133514305E+03  0.74997683802E+03  0.12819504866E+04  0.10100000352E+00 0. -1.
       -3    1    3    3    0  502 -0.34338479790E+03  0.98133514305E+03 -0.49959243886E+03  0.11534835922E+04  0.10100000352E+00 0.  1.
</event>
<event>
 5   0  0.8898848E-06  0.2395441E+04  0.7818609E-02  0.8441212E-01
       -1   -1    0    0    0  501  0.00000000000E+00  0.00000000000E+00  0.88231060851E+03  0.88231060852E+03  0.50400001928E-02 0.  1.
        1   -1    0    0  501    0  0.00000000000E+00  0.00000000000E+00 -0.16258831907E+04  0.16258831907E+04  0.50400001928E-02 0. -1.
    10030    2    1    2    0    0  0.00000000000E+00  0.00000000000E+00 -0.74357258217E+03  0.25081937992E+04  0.23954406587E+04 0.  0.
        5    1    3    3  502    0 -0.68575996014E+03  0.83475631803E+03 -0.91326121788E+03  0.14146211420E+04  0.46999998093E+01 0.  1.
       -5    1    3    3    0  502  0.68575996014E+03 -0.83475631803E+03  0.16968863570E+03  0.10935726572E+04  0.46999998093E+01 0. -1.
</event>
<event>
 5   0  0.2048028E-05  0.2395977E+04  0.7818609E-02  0.8441011E-01
       -2   -1    0    0    0  501  0.00000000000E+00  0.00000000000E+00  0.61928152931E+03  0.61928152932E+03  0.25500000920E-02 0.  1.
        2   -1    0    0  501    0  0.00000000000E+00  0.00000000000E+00 -0.23174871540E+04  0.23174871540E+04  0.25500000920E-02 0. -1.
    10030    2    1    2    0    0  0.00000000000E+00  0.00000000000E+00 -0.16982056247E+04  0.29367686833E+04  0.23959774531E+04 0.  0.
        5    1    3    3  502    0 -0.10154074125E+04  0.62154640824E+03 -0.68565223829E+03  0.13738679823E+04  0.46999998093E+01 0.  1.
       -5    1    3    3    0  502  0.10154074125E+04 -0.62154640824E+03 -0.10125533864E+04  0.15629007010E+04  0.46999998093E+01 0. -1.
</event>
<event>
 5   0  0.8898848E-06  0.2412029E+04  0.7818609E-02  0.8435014E-01
        1   -1    0    0  501    0  0.00000000000E+00  0.00000000000E+00  0.12378556678E+04  0.12378556678E+04  0.50400001928E-02 0.  1.
       -1   -1    0    0    0  501  0.00000000000E+00  0.00000000000E+00 -0.11749925348E+04  0.11749925348E+04  0.50400001928E-02 0. -1.
    10030    2    1    2    0    0  0.00000000000E+00  0.00000000000E+00  0.62863133025E+02  0.24128482025E+04  0.24120291613E+04 0.  0.
        5    1    3    3  502    0 -0.15043449079E+03  0.82545344243E+03 -0.83514497010E+03  0.11838467522E+04  0.46999998093E+01 0. -1.
       -5    1    3    3    0  502  0.15043449079E+03 -0.82545344243E+03  0.89800810312E+03  0.12290014503E+04  0.46999998093E+01 0.  1.
</event>
<event>
 5   0  0.9083687E-06  0.2385544E+04  0.7818609E-02  0.8444936E-01
        1   -1    0    0  501    0  0.00000000000E+00  0.00000000000E+00  0.11413127052E+04  0.11413127052E+04  0.50400001928E-02 0. -1.
       -1   -1    0    0    0  501  0.00000000000E+00  0.00000000000E+00 -0.12465515794E+04  0.12465515794E+04  0.50400001928E-02 0.  1.
    10030    2    1    2    0    0  0.00000000000E+00  0.00000000000E+00 -0.10523887417E+03  0.23878642847E+04  0.23855440933E+04 0.  0.
        2    1    3    3  502    0  0.78250938788E+03 -0.47240315845E+03 -0.81966721223E+03  0.12277377672E+04  0.25500000920E-02 0.  1.
       -2    1    3    3    0  502 -0.78250938788E+03  0.47240315845E+03  0.71442833806E+03  0.11601265174E+04  0.25500000920E-02 0. -1.
</event>
<event>
 5   0  0.2048028E-05  0.2345831E+04  0.7818609E-02  0.8460067E-01
        2   -1    0    0  501    0  0.00000000000E+00  0.00000000000E+00  0.12874143241E+04  0.12874143241E+04  0.25500000920E-02 0. -1.
       -2   -1    0    0    0  501  0.00000000000E+00  0.00000000000E+00 -0.10686001326E+04  0.10686001327E+04  0.25500000920E-02 0.  1.
    10030    2    1    2    0    0  0.00000000000E+00  0.00000000000E+00  0.21881419142E+03  0.23560144567E+04  0.23458312961E+04 0.  0.
        5    1    3    3  502    0  0.12289687179E+03 -0.10628936028E+04  0.59197445523E+03  0.12228255385E+04  0.46999998093E+01 0. -1.
       -5    1    3    3    0  502 -0.12289687179E+03  0.10628936028E+04 -0.37316026381E+03  0.11331889182E+04  0.46999998093E+01 0.  1.
</event>
<event>
 5   0  0.9038897E-06  0.2406845E+04  0.7818609E-02  0.8436945E-01
       -1   -1    0    0    0  501  0.00000000000E+00  0.00000000000E+00  0.76740550664E+03  0.76740550666E+03  0.50400001928E-02 0.  1.
        1   -1    0    0  501    0  0.00000000000E+00  0.00000000000E+00 -0.18871721293E+04  0.18871721293E+04  0.50400001928E-02 0. -1.
    10030    2    1    2    0    0  0.00000000000E+00  0.00000000000E+00 -0.11197666227E+04  0.26545776360E+04  0.24068454741E+04 0.  0.
        1    1    3    3  502    0 -0.48448734796E+03  0.11001698827E+04 -0.49823245983E+03  0.13012829612E+04  0.50400001928E-02 0. -1.
       -1    1    3    3    0  502  0.48448734796E+03 -0.11001698827E+04 -0.62153416287E+03  0.13532946748E+04  0.50400001928E-02 0.  1.
</event>
<event>
 5   0  0.2122194E-05  0.2400550E+04  0.7818609E-02  0.8439298E-01
        2   -1    0    0  501    0  0.00000000000E+00  0.00000000000E+00  0.84942000493E+03  0.84942000494E+03  0.25500000920E-02 0. -1.
       -2   -1    0    0    0  501  0.00000000000E+00  0.00000000000E+00 -0.16960511584E+04  0.16960511584E+04  0.25500000920E-02 0.  1.
    10030    2    1    2    0    0  0.00000000000E+00  0.00000000000E+00 -0.84663115346E+03  0.25454711633E+04  0.24005497565E+04 0.  0.
        3    1    3    3  502    0  0.41858001660E+03 -0.11184931183E+04 -0.55066459908E+03  0.13150922389E+04  0.10100000352E+00 0.  1.
       -3    1    3    3    0  502 -0.41858001660E+03  0.11184931183E+04 -0.29596655438E+03  0.12303789244E+04  0.10100000352E+00 0. -1.
</event>
<event>
 5   0  0.2025353E-05  0.2386132E+04  0.7818609E-02  0.8444714E-01
       -2   -1    0    0    0  501  0.00000000000E+00  0.00000000000E+00  0.12613534318E+04  0.12613534318E+04  0.25500000920E-02 0. -1.
        2   -1    0    0  501    0  0.00000000000E+00  0.00000000000E+00 -0.11284751839E+04  0.11284751839E+04  0.25500000920E-02 0.  1.
    10030    2    1    2    0    0  0.00000000000E+00  0.00000000000E+00  0.13287824788E+03  0.23898286158E+04  0.23861316359E+04 0.  0.
        4    1    3    3  502    0  0.11450438872E+04  0.21765383767E+03  0.32159989099E+03  0.12091016498E+04  0.12699999809E+01 0.  1.
       -4    1    3    3    0  502 -0.11450438872E+04 -0.21765383767E+03 -0.18872164310E+03  0.11807269660E+04  0.12699999809E+01 0. -1.
</event>
<event>
 5   0  0.2122194E-05  0.2349697E+04  0.7818609E-02  0.8458580E-01
        2   -1    0    0  501    0  0.00000000000E+00  0.00000000000E+00  0.14980037066E+04  0.14980037066E+04  0.25500000920E-02 0. -1.
       -2   -1    0    0    0  501  0.00000000000E+00  0.00000000000E+00 -0.92140574770E+03  0.92140574771E+03  0.25500000920E-02 0.  1.
    10030    2    1    2    0    0  0.00000000000E+00  0.00000000000E+00  0.57659795885E+03  0.24194094543E+04  0.23496971935E+04 0.  0.
        3    1    3    3  502    0 -0.70360744099E+03 -0.56178415155E+03  0.10654118903E+04  0.13949076565E+04  0.10100000352E+00 0. -1.
       -3    1    3    3    0  502  0.70360744099E+03  0.56178415155E+03 -0.48881393141E+03  0.10245017978E+04  0.10100000352E+00 0.  1.
</event>
<event>
 5   0  0.9083687E-06  0.2397363E+04  0.7818609E-02  0.8440492E-01
        1   -1    0    0  501    0  0.00000000000E+00  0.00000000000E+00  0.10680907524E+04  0.10680907525E+04  0.50400001928E-02 0.  1.
       -1   -1    0    0    0  501  0.00000000000E+00  0.00000000000E+00 -0.13452386111E+04  0.13452386111E+04  0.50400001928E-02 0. -1.
    10030    2    1    2    0    0  0.00000000000E+00  0.00000000000E+00 -0.27714785865E+03  0.24133293636E+04  0.23973626512E+04 0.  0.
        2    1    3    3  502    0  0.91725676534E+03 -0.18173865772E+03 -0.89353412241E+03  0.12933646590E+04  0.25500000920E-02 0. -1.
       -2    1    3    3    0  502 -0.91725676534E+03  0.18173865772E+03  0.61638626376E+03  0.11199647045E+04  0.25500000920E-02 0.  1.
</event>
<event>
 5   0  0.2025353E-05  0.2378642E+04  0.7818609E-02  0.8447543E-01
        2   -1    0    0  501    0  0.00000000000E+00  0.00000000000E+00  0.10171479483E+04  0.10171479483E+04  0.25500000920E-02 0. -1.
       -2   -1    0    0    0  501  0.00000000000E+00  0.00000000000E+00 -0.13906373299E+04  0.13906373299E+04  0.25500000920E-02 0.  1.
    10030    2    1    2    0    0  0.00000000000E+00  0.00000000000E+00 -0.37348938158E+03  0.24077852782E+04  0.23786415510E+04 0.  0.
        4    1    3    3  502    0  0.88078747334E+03  0.74051893441E+03 -0.49097226707E+03  0.12510836284E+04  0.12699999809E+01 0.  1.
       -4    1    3    3    0  502 -0.88078747334E+03 -0.74051893441E+03  0.11748288548E+03  0.11567016498E+04  0.12699999809E+01 0. -1.
</event>
<event>
 5   0  0.8898848E-06  0.2181179E+04  0.7818609E-02  0.8526303E-01
       -1   -1    0    0    0  501  0.00000000000E+00  0.00000000000E+00  0.11345009634E+04  0.11345009634E+04  0.50400001928E-02 0.  1.
        1   -1    0    0  501    0  0.00000000000E+00  0.00000000000E+00 -0.10483774438E+04  0.10483774438E+04  0.50400001928E-02 0. -1.
    10030    2    1    2    0    0  0.00000000000E+00  0.00000000000E+00  0.86123519600E+02  0.21828784072E+04  0.21811787822E+04 0.  0.
        5    1    3    3  502    0 -0.39049961571E+03 -0.76194188694E+03  0.71910108171E+03  0.11181117317E+04  0.46999998093E+01 0.  1.
       -5    1    3    3    0  502  0.39049961571E+03  0.76194188694E+03 -0.63297756211E+03  0.10647666754E+04  0.46999998093E+01 0. -1.
</event>
<event>
 5   0  0.7233625E-06  0.2388594E+04  0.7818609E-02  0.8443786E-01
       -4   -1    0    0    0  501  0.00000000000E+00  0.00000000000E+00  0.12425956952E+04  0.12425963442E+04  0.12699999809E+01 0.  1.
        4   -1    0    0  501    0  0.00000000000E+00  0.00000000000E+00 -0.11478746463E+04  0.11478753488E+04  0.12699999809E+01 0. -1.
    10030    2    1    2    0    0  0.00000000000E+00  0.00000000000E+00  0.94721048937E+02  0.23904716930E+04  0.23885943226E+04 0.  0.
        4    1    3    3  502    0  0.64662013167E+03 -0.26792344514E+03 -0.92110018533E+03  0.11568611548E+04  0.12699999809E+01 0. -1.
       -4    1    3    3    0  502 -0.64662013167E+03  0.26792344514E+03  0.10158212343E+04  0.12336105382E+04  0.12699999809E+01 0.  1.
</event>
<event>
 5   0  0.7233625E-06  0.2393313E+04  0.7818609E-02  0.8442011E-01
       -3   -1    0    0    0  501  0.00000000000E+00  0.00000000000E+00  0.91763698843E+03  0.91763699399E+03  0.10100000352E+00 0.  1.
        3   -1    0    0  501    0  0.00000000000E+00  0.00000000000E+00 -0.15605150044E+04  0.15605150077E+04  0.10100000352E+00 0. -1.
    10030    2    1    2    0    0  0.00000000000E+00  0.00000000000E+00 -0.64287801598E+03  0.24781520017E+04  0.23933125997E+04 0.  0.
        1    1    3    3  502    0 -0.58598338955E+03 -0.92243454420E+03 -0.82629240532E+03  0.13700442184E+04  0.50400001928E-02 0. -1.
       -1    1    3    3    0  502  0.58598338955E+03  0.92243454420E+03  0.18341438934E+03  0.11081077833E+04  0.50400001928E-02 0.  1.
</event>
<event>
 5   0  0.9083687E-06  0.2382150E+04  0.7818609E-02  0.8446217E-01
        1   -1    0    0  501    0  0.00000000000E+00  0.00000000000E+00  0.17860408752E+04  0.17860408752E+04  0.50400001928E-02 0. -1.
       -1   -1    0    0    0  501  0.00000000000E+00  0.00000000000E+00 -0.79430414623E+03  0.79430414624E+03  0.50400001928E-02 0.  1.
    10030    2    1    2    0    0  0.00000000000E+00  0.00000000000E+00  0.99173672894E+03  0.25803450214E+04  0.23821500142E+04 0.  0.
        2    1    3    3  502    0  0.51185667082E+03  0.32445581750E+03 -0.61481628032E+03  0.86328899421E+03  0.25500000920E-02 0.  1.
       -2    1    3    3    0  502 -0.51185667082E+03 -0.32445581750E+03  0.16065530093E+04  0.17170560272E+04  0.25500000920E-02 0. -1.
</event>
<event>
 5   0  0.9176817E-06  0.2392917E+04  0.7818609E-02  0.8442160E-01
        1   -1    0    0  501    0  0.00000000000E+00  0.00000000000E+00  0.25596750580E+04  0.25596750580E+04  0.50400001928E-02 0.  1.
       -1   -1    0    0    0  501  0.00000000000E+00  0.00000000000E+00 -0.55925595438E+03  0.55925595441E+03  0.50400001928E-02 0. -1.
    10030    2    1    2    0    0  0.00000000000E+00  0.00000000000E+00  0.20004191037E+04  0.31189310125E+04  0.23929174809E+04 0.  0.
        3    1    3    3  502    0  0.12432260417E+03  0.10440645335E+04  0.17443894797E+04  0.20367674210E+04  0.10100000352E+00 0.  1.
       -3    1    3    3    0  502 -0.12432260417E+03 -0.10440645335E+04  0.25602962392E+03  0.10821635914E+04  0.10100000352E+00 0. -1.
</event>
<event>
 5   0  0.8898848E-06  0.2408843E+04  0.7818609E-02  0.8436200E-01
        1   -1    0    0  501    0  0.00000000000E+00  0.00000000000E+00  0.30409387773E+04  0.30409387773E+04  0.50400001928E-02 0. -1.
       -1   -1    0    0    0  501  0.00000000000E+00  0.00000000000E+00 -0.47703381206E+03  0.47703381209E+03  0.50400001928E-02 0.  1.
    10030    2    1    2    0    0  0.00000000000E+00  0.00000000000E+00  0.25639049652E+04  0.35179725894E+04  0.24088425579E+04 0.  0.
        5    1    3    3  502    0 -0.10192067425E+03  0.42699740020E+03  0.29199228682E+04  0.29527421577E+04  0.46999998093E+01 0. -1.
       -5    1    3    3    0  502  0.10192067425E+03 -0.42699740020E+03 -0.35601790300E+03  0.56523043166E+03  0.46999998093E+01 0.  1.
</event>
<event>
 5   0  0.2048028E-05  0.2398608E+04  0.7818609E-02  0.8440025E-01
        2   -1    0    0  501    0  0.00000000000E+00  0.00000000000E+00  0.19906264221E+04  0.19906264221E+04  0.25500000920E-02 0.  1.
       -2   -1    0    0    0  501  0.00000000000E+00  0.00000000000E+00 -0.72255135537E+03  0.72255135537E+03  0.25500000920E-02 0. -1.
    10030    2    1    2    0    0  0.00000000000E+00  0.00000000000E+00  0.12680750667E+04  0.27131777774E+04  0.23986077789E+04 0.  0.
        5    1    3    3  502    0  0.10025669821E+04 -0.13153854109E+02 -0.11028304944E+03  0.10087110679E+04  0.46999998093E+01 0.  1.
       -5    1    3    3    0  502 -0.10025669821E+04  0.13153854109E+02  0.13783581161E+04  0.17044667095E+04  0.46999998093E+01 0. -1.
</event>
<event>
 5   0  0.9038897E-06  0.2402196E+04  0.7818609E-02  0.8438682E-01
       -1   -1    0    0    0  501  0.00000000000E+00  0.00000000000E+00  0.65469359760E+03  0.65469359762E+03  0.50400001928E-02 0. -1.
        1   -1    0    0  501    0  0.00000000000E+00  0.00000000000E+00 -0.22035286778E+04  0.22035286778E+04  0.50400001928E-02 0.  1.
    10030    2    1    2    0    0  0.00000000000E+00  0.00000000000E+00 -0.15488350802E+04  0.28582222754E+04  0.24021957601E+04 0.  0.
        1    1    3    3  502    0 -0.88292790651E+03  0.14270452958E+03 -0.17283004771E+04  0.19460084301E+04  0.50400001928E-02 0.  1.
       -1    1    3    3    0  502  0.88292790651E+03 -0.14270452958E+03  0.17946539691E+03  0.91221384531E+03  0.50400001928E-02 0. -1.
</event>
<event>
 5   0  0.8898848E-06  0.2445608E+04  0.7818609E-02  0.8422623E-01
       -1   -1    0    0    0  501  0.00000000000E+00  0.00000000000E+00  0.84615169019E+03  0.84615169020E+03  0.50400001928E-02 0. -1.
        1   -1    0    0  501    0  0.00000000000E+00  0.00000000000E+00 -0.17671173414E+04  0.17671173414E+04  0.50400001928E-02 0.  1.
    10030    2    1    2    0    0  0.00000000000E+00  0.00000000000E+00 -0.92096565121E+03  0.26132690316E+04  0.24456077569E+04 0.  0.
        5    1    3    3  502    0  0.78828905506E+03  0.78585320333E+03  0.80445489778E+02  0.11160011014E+04  0.46999998093E+01 0. -1.
       -5    1    3    3    0  502 -0.78828905506E+03 -0.78585320333E+03 -0.10014111410E+04  0.14972679302E+04  0.46999998093E+01 0.  1.
</event>
<event>
 5   0  0.8528103E-06  0.2412797E+04  0.7818609E-02  0.8434728E-01
       -1   -1    0    0    0  501  0.00000000000E+00  0.00000000000E+00  0.92983203020E+03  0.92983203021E+03  0.50400001928E-02 0.  1.
        1   -1    0    0  501    0  0.00000000000E+00  0.00000000000E+00 -0.15652265053E+04  0.15652265053E+04  0.50400001928E-02 0. -1.
    10030    2    1    2    0    0  0.00000000000E+00  0.00000000000E+00 -0.63539447512E+03  0.24950585355E+04  0.24127973302E+04 0.  0.
        4    1    3    3  502    0 -0.46838372560E+03 -0.67753638922E+03  0.59380650864E+03  0.10154046758E+04  0.12699999809E+01 0.  1.
       -4    1    3    3    0  502  0.46838372560E+03  0.67753638922E+03 -0.12292009838E+04  0.14796538597E+04  0.12699999809E+01 0. -1.
</event>
<event>
 5   0  0.9083687E-06  0.2394565E+04  0.7818609E-02  0.8441541E-01
        1   -1    0    0  501    0  0.00000000000E+00  0.00000000000E+00  0.10859509618E+04  0.10859509618E+04  0.50400001928E-02 0.  1.
       -1   -1    0    0    0  501  0.00000000000E+00  0.00000000000E+00 -0.13200276348E+04  0.13200276348E+04  0.50400001928E-02 0. -1.
    10030    2    1    2    0    0  0.00000000000E+00  0.00000000000E+00 -0.23407667300E+03  0.24059785966E+04  0.23945649122E+04 0.  0.
        2    1    3    3  502    0 -0.61738156348E+03 -0.43652669395E+03  0.81570200966E+03  0.11122433718E+04  0.25500000920E-02 0.  1.
       -2    1    3    3    0  502  0.61738156348E+03  0.43652669395E+03 -0.10497786827E+04  0.12937352249E+04  0.25500000920E-02 0. -1.
</event>
<event>
 5   0  0.2087882E-05  0.2397789E+04  0.7818609E-02  0.8440332E-01
        2   -1    0    0  501    0  0.00000000000E+00  0.00000000000E+00  0.11591666696E+04  0.11591666696E+04  0.25500000920E-02 0. -1.
       -2   -1    0    0    0  501  0.00000000000E+00  0.00000000000E+00 -0.12399835276E+04  0.12399835276E+04  0.25500000920E-02 0.  1.
    10030    2    1    2    0    0  0.00000000000E+00  0.00000000000E+00 -0.80816857986E+02  0.23991501972E+04  0.23977886279E+04 0.  0.
        2    1    3    3  502    0 -0.41702322824E+02  0.46710607849E+03  0.10635858669E+04  0.11623863680E+04  0.25500000920E-02 0. -1.
       -2    1    3    3    0  502  0.41702322824E+02 -0.46710607849E+03 -0.11444027249E+04  0.12367638291E+04  0.25500000920E-02 0.  1.
</event>
<event>
 5   0  0.2122194E-05  0.2397903E+04  0.7818609E-02  0.8440289E-01
        2   -1    0    0  501    0  0.00000000000E+00  0.00000000000E+00  0.25160836345E+04  0.25160836345E+04  0.25500000920E-02 0. -1.
       -2   -1    0    0    0  501  0.00000000000E+00  0.00000000000E+00 -0.57131820728E+03  0.57131820728E+03  0.25500000920E-02 0.  1.
    10030    2    1    2    0    0  0.00000000000E+00  0.00000000000E+00  0.19447654273E+04  0.30874018418E+04  0.23979027432E+04 0.  0.
        3    1    3    3  502    0 -0.86412651982E+03  0.77442757852E+03  0.13608530276E+04  0.17883997566E+04  0.10100000352E+00 0. -1.
       -3    1    3    3    0  502  0.86412651982E+03 -0.77442757852E+03  0.58391239967E+03  0.12990020852E+04  0.10100000352E+00 0.  1.
</event>
<event>
 5   0  0.2025353E-05  0.2384133E+04  0.7818609E-02  0.8445468E-01
       -2   -1    0    0    0  501  0.00000000000E+00  0.00000000000E+00  0.10963814389E+04  0.10963814389E+04  0.25500000920E-02 0.  1.
        2   -1    0    0  501    0  0.00000000000E+00  0.00000000000E+00 -0.12961025323E+04  0.12961025323E+04  0.25500000920E-02 0. -1.
    10030    2    1    2    0    0  0.00000000000E+00  0.00000000000E+00 -0.19972109348E+03  0.23924839712E+04  0.23841331836E+04 0.  0.
        4    1    3    3  502    0  0.28922974249E+03  0.84865702300E+03 -0.88820022221E+03  0.12620514388E+04  0.12699999809E+01 0. -1.
       -4    1    3    3    0  502 -0.28922974249E+03 -0.84865702300E+03  0.68847912873E+03  0.11304325324E+04  0.12699999809E+01 0.  1.
</event>
<event>
 5   0  0.8898848E-06  0.2429383E+04  0.7818609E-02  0.8428584E-01
       -1   -1    0    0    0  501  0.00000000000E+00  0.00000000000E+00  0.10960246609E+04  0.10960246609E+04  0.50400001928E-02 0.  1.
        1   -1    0    0  501    0  0.00000000000E+00  0.00000000000E+00 -0.13462064260E+04  0.13462064260E+04  0.50400001928E-02 0. -1.
    10030    2    1    2    0    0  0.00000000000E+00  0.00000000000E+00 -0.25018176515E+03  0.24422310869E+04  0.24293830012E+04 0.  0.
        5    1    3    3  502    0  0.55033860310E+03 -0.80703973688E+03 -0.85089787489E+03  0.12954670966E+04  0.46999998093E+01 0. -1.
       -5    1    3    3    0  502 -0.55033860310E+03  0.80703973688E+03  0.60071610973E+03  0.11467639903E+04  0.46999998093E+01 0.  1.
</event>
<event>
 5   0  0.2080257E-05  0.2380465E+04  0.7818609E-02  0.8446854E-01
        2   -1    0    0  501    0  0.00000000000E+00  0.00000000000E+00  0.14970584475E+04  0.14970584475E+04  0.25500000920E-02 0.  1.
       -2   -1    0    0    0  501  0.00000000000E+00  0.00000000000E+00 -0.94629132159E+03  0.94629132159E+03  0.25500000920E-02 0. -1.
    10030    2    1    2    0    0  0.00000000000E+00  0.00000000000E+00  0.55076712591E+03  0.24433497691E+04  0.23804650107E+04 0.  0.
        1    1    3    3  502    0 -0.69228422937E+03  0.12349657147E+03  0.12610349629E+04  0.14438552680E+04  0.50400001928E-02 0.  1.
       -1    1    3    3    0  502  0.69228422937E+03 -0.12349657147E+03 -0.71026783696E+03  0.99949450106E+03  0.50400001928E-02 0. -1.
</event>
<event>
 5   0  0.2048028E-05  0.2436938E+04  0.7818609E-02  0.8425803E-01
       -2   -1    0    0    0  501  0.00000000000E+00  0.00000000000E+00  0.80919560185E+03  0.80919560185E+03  0.25500000920E-02 0.  1.
        2   -1    0    0  501    0  0.00000000000E+00  0.00000000000E+00 -0.18347442632E+04  0.18347442632E+04  0.25500000920E-02 0. -1.
    10030    2    1    2    0    0  0.00000000000E+00  0.00000000000E+00 -0.10255486614E+04  0.26439398651E+04  0.24369382334E+04 0.  0.
        5    1    3    3  502    0  0.21958772662E+03  0.95689770541E+03  0.27017064911E+03  0.10182761207E+04  0.46999998093E+01 0.  1.
       -5    1    3    3    0  502 -0.21958772662E+03 -0.95689770541E+03 -0.12957193105E+04  0.16256637444E+04  0.46999998093E+01 0. -1.
</event>
<event>
 5   0  0.8528103E-06  0.2389046E+04  0.7818609E-02  0.8443616E-01
       -1   -1    0    0    0  501  0.00000000000E+00  0.00000000000E+00  0.15808457229E+04  0.15808457229E+04  0.50400001928E-02 0. -1.
        1   -1    0    0  501    0  0.00000000000E+00  0.00000000000E+00 -0.90260882855E+03  0.90260882857E+03  0.50400001928E-02 0.  1.
    10030    2    1    2    0    0  0.00000000000E+00  0.00000000000E+00  0.67823689430E+03  0.24834545514E+04  0.23890460909E+04 0.  0.
        4    1    3    3  502    0  0.80882972204E+03  0.78456136100E+03 -0.72957566171E+02  0.11291884111E+04  0.12699999809E+01 0.  1.
       -4    1    3    3    0  502 -0.80882972204E+03 -0.78456136100E+03  0.75119446047E+03  0.13542661403E+04  0.12699999809E+01 0. -1.
</event>
<event>
 5   0  0.9083687E-06  0.2385644E+04  0.7818609E-02  0.8444898E-01
       -1   -1    0    0    0  501  0.00000000000E+00  0.00000000000E+00  0.81655531007E+03  0.81655531008E+03  0.50400001928E-02 0. -1.
        1   -1    0    0  501    0  0.00000000000E+00  0.00000000000E+00 -0.17424721268E+04  0.17424721268E+04  0.50400001928E-02 0.  1.
    10030    2    1    2    0    0  0.00000000000E+00  0.00000000000E+00 -0.92591681671E+03  0.25590274369E+04  0.23856444562E+04 0.  0.
        2    1    3    3  502    0 -0.57836886763E+03  0.10286305167E+03  0.65063055235E+03  0.87659082251E+03  0.25500000920E-02 0. -1.
       -2    1    3    3    0  502  0.57836886763E+03 -0.10286305167E+03 -0.15765473691E+04  0.16824366144E+04  0.25500000920E-02 0.  1.
</event>
<event>
 5   0  0.9083687E-06  0.2110443E+04  0.7818609E-02  0.8556657E-01
        1   -1    0    0  501    0  0.00000000000E+00  0.00000000000E+00  0.17859548970E+04  0.17859548970E+04  0.50400001928E-02 0.  1.
       -1   -1    0    0    0  501  0.00000000000E+00  0.00000000000E+00 -0.62347190956E+03  0.62347190958E+03  0.50400001928E-02 0. -1.
    10030    2    1    2    0    0  0.00000000000E+00  0.00000000000E+00  0.11624829874E+04  0.24094268066E+04  0.21104432805E+04 0.  0.
        2    1    3    3  502    0 -0.36197850743E+03 -0.95830359157E+03  0.29215239276E+03  0.10652357645E+04  0.25500000920E-02 0. -1.
       -2    1    3    3    0  502  0.36197850743E+03  0.95830359157E+03  0.87033059468E+03  0.13441910420E+04  0.25500000920E-02 0.  1.
</event>
<event>
 5   0  0.9176817E-06  0.2389447E+04  0.7818609E-02  0.8443465E-01
       -1   -1    0    0    0  501  0.00000000000E+00  0.00000000000E+00  0.75372465560E+03  0.75372465562E+03  0.50400001928E-02 0. -1.
        1   -1    0    0  501    0  0.00000000000E+00  0.00000000000E+00 -0.18937475552E+04  0.18937475552E+04  0.50400001928E-02 0.  1.
    10030    2    1    2    0    0  0.00000000000E+00  0.00000000000E+00 -0.11400228996E+04  0.26474722108E+04  0.23894469853E+04 0.  0.
        3    1    3    3  502    0 -0.69782361190E+03 -0.36639825673E+03  0.42480805992E+03  0.89535879614E+03  0.10100000352E+00 0. -1.
       -3    1    3    3    0  502  0.69782361190E+03  0.36639825673E+03 -0.15648309595E+04  0.17521134147E+04  0.10100000352E+00 0.  1.
</event>
<event>
 5   0  0.9083687E-06  0.2404484E+04  0.7818609E-02  0.8437827E-01
        1   -1    0    0  501    0  0.00000000000E+00  0.00000000000E+00  0.14157054985E+04  0.14157054985E+04  0.50400001928E-02 0.  1.
       -1   -1    0    0    0  501  0.00000000000E+00  0.00000000000E+00 -0.10209649195E+04  0.10209649195E+04  0.50400001928E-02 0. -1.
    10030    2    1    2    0    0  0.00000000000E+00  0.00000000000E+00  0.39474057897E+03  0.24366704180E+04  0.24044838534E+04 0.  0.
        2    1    3    3  502    0 -0.21716887951E+03 -0.88458762447E+02  0.13923060316E+04  0.14119147851E+04  0.25500000920E-02 0.  1.
       -2    1    3    3    0  502  0.21716887951E+03  0.88458762447E+02 -0.99756545262E+03  0.10247556329E+04  0.25500000920E-02 0. -1.
</event>
<event>
 5   0  0.2087882E-05  0.2512372E+04  0.7818609E-02  0.8398591E-01
        2   -1    0    0  501    0  0.00000000000E+00  0.00000000000E+00  0.15317397197E+04  0.15317397197E+04  0.25500000920E-02 0. -1.
       -2   -1    0    0    0  501  0.00000000000E+00  0.00000000000E+00 -0.10302032092E+04  0.10302032092E+04  0.25500000920E-02 0.  1.
    10030    2    1    2    0    0  0.00000000000E+00  0.00000000000E+00  0.50153651051E+03  0.25619429288E+04  0.25123719269E+04 0.  0.
        2    1    3    3  502    0  0.92953972983E+03 -0.14697550897E+03 -0.59772939873E+03  0.11148660654E+04  0.25500000920E-02 0.  1.
       -2    1    3    3    0  502 -0.92953972983E+03  0.14697550897E+03  0.10992659092E+04  0.14470768635E+04  0.25500000920E-02 0. -1.
</event>
<event>
 5   0  0.2087882E-05  0.2382976E+04  0.7818609E-02  0.8445905E-01
       -2   -1    0    0    0  501  0.00000000000E+00  0.00000000000E+00  0.92205619444E+03  0.92205619444E+03  0.25500000920E-02 0.  1.
        2   -1    0    0  501    0  0.00000000000E+00  0.00000000000E+00 -0.15396501282E+04  0.15396501282E+04  0.25500000920E-02 0. -1.
    10030    2    1    2    0    0  0.00000000000E+00  0.00000000000E+00 -0.61759393373E+03  0.24617063226E+04  0.23829762382E+04 0.  0.
        2    1    3    3  502    0  0.11856176083E+04 -0.72910651533E+02 -0.21278070606E+03  0.12067645608E+04  0.25500000920E-02 0. -1.
       -2    1    3    3    0  502 -0.11856176083E+04  0.72910651533E+02 -0.40481322768E+03  0.12549417618E+04  0.25500000920E-02 0.  1.
</event>
<event>
 5   0  0.2122194E-05  0.2396300E+04  0.7818609E-02  0.8440890E-01
       -2   -1    0    0    0  501  0.00000000000E+00  0.00000000000E+00  0.75768014239E+03  0.75768014239E+03  0.25500000920E-02 0. -1.
        2   -1    0    0  501    0  0.00000000000E+00  0.00000000000E+00 -0.18946826520E+04  0.18946826520E+04  0.25500000920E-02 0.  1.
    10030    2    1    2    0    0  0.00000000000E+00  0.00000000000E+00 -0.11370025096E+04  0.26523627944E+04  0.23962999992E+04 0.  0.
        3    1    3    3  502    0  0.69354194459E+02 -0.36692465306E+03  0.69162568557E+03  0.78599605880E+03  0.10100000352E+00 0. -1.
       -3    1    3    3    0  502 -0.69354194459E+02  0.36692465306E+03 -0.18286281952E+04  0.18663667356E+04  0.10100000352E+00 0.  1.
</event>
<event>
 5   0  0.9038897E-06  0.2389690E+04  0.7818609E-02  0.8443374E-01
        1   -1    0    0  501    0  0.00000000000E+00  0.00000000000E+00  0.18481064197E+04  0.18481064197E+04  0.50400001928E-02 0. -1.
       -1   -1    0    0    0  501  0.00000000000E+00  0.00000000000E+00 -0.77249577865E+03  0.77249577867E+03  0.50400001928E-02 0.  1.
    10030    2    1    2    0    0  0.00000000000E+00  0.00000000000E+00  0.10756106410E+04  0.26206021983E+04  0.23896898608E+04 0.  0.
        1    1    3    3  502    0  0.16182544932E+03  0.87051607916E+03 -0.34200844246E+03  0.94918675447E+03  0.50400001928E-02 0.  1.
       -1    1    3    3    0  502 -0.16182544932E+03 -0.87051607916E+03  0.14176190835E+04  0.16714154439E+04  0.50400001928E-02 0. -1.
</event>
<event>
 5   0  0.9083687E-06  0.2387342E+04  0.7818609E-02  0.8444258E-01
       -1   -1    0    0    0  501  0.00000000000E+00  0.00000000000E+00  0.12268076956E+04  0.12268076956E+04  0.50400001928E-02 0. -1.
        1   -1    0    0  501    0  0.00000000000E+00  0.00000000000E+00 -0.11614289053E+04  0.11614289053E+04  0.50400001928E-02 0.  1.
    10030    2    1    2    0    0  0.00000000000E+00  0.00000000000E+00  0.65378790284E+02  0.23882366009E+04  0.23873415499E+04 0.  0.
        2    1    3    3  502    0 -0.72211269595E+03  0.71581069763E+03  0.65823833076E+03  0.12112429156E+04  0.25500000920E-02 0. -1.
       -2    1    3    3    0  502  0.72211269595E+03 -0.71581069763E+03 -0.59285954048E+03  0.11769936853E+04  0.25500000920E-02 0.  1.
</event>
<event>
 5   0  0.9083687E-06  0.2398590E+04  0.7818609E-02  0.8440032E-01
       -1   -1    0    0    0  501  0.00000000000E+00  0.00000000000E+00  0.68944093480E+03  0.68944093482E+03  0.50400001928E-02 0. -1.
        1   -1    0    0  501    0  0.00000000000E+00  0.00000000000E+00 -0.20861959066E+04  0.20861959066E+04  0.50400001928E-02 0.  1.
    10030    2    1    2    0    0  0.00000000000E+00  0.00000000000E+00 -0.13967549718E+04  0.27756368414E+04  0.23985902994E+04 0.  0.
        2    1    3    3  502    0 -0.28395349337E+03 -0.11651918506E+04 -0.69526786919E+03  0.13862536005E+04  0.25500000920E-02 0. -1.
       -2    1    3    3    0  502  0.28395349337E+03  0.11651918506E+04 -0.70148710260E+03  0.13893832409E+04  0.25500000920E-02 0.  1.
</event>
<event>
 5   0  0.2122194E-05  0.2415180E+04  0.7818609E-02  0.8433842E-01
       -2   -1    0    0    0  501  0.00000000000E+00  0.00000000000E+00  0.92046239464E+03  0.92046239465E+03  0.25500000920E-02 0. -1.
        2   -1    0    0  501    0  0.00000000000E+00  0.00000000000E+00 -0.15842842303E+04  0.15842842303E+04  0.25500000920E-02 0.  1.
    10030    2    1    2    0    0  0.00000000000E+00  0.00000000000E+00 -0.66382183562E+03  0.25047466249E+04  0.24151803712E+04 0.  0.
        3    1    3    3  502    0 -0.34588457438E+03 -0.10820736609E+04 -0.75667845549E+03  0.13649475600E+04  0.10100000352E+00 0. -1.
       -3    1    3    3    0  502  0.34588457438E+03  0.10820736609E+04  0.92856619874E+02  0.11397990649E+04  0.10100000352E+00 0.  1.
</event>
<event>
 5   0  0.2087882E-05  0.2414716E+04  0.7818609E-02  0.8434015E-01
       -2   -1    0    0    0  501  0.00000000000E+00  0.00000000000E+00  0.97706026348E+03  0.97706026348E+03  0.25500000920E-02 0. -1.
        2   -1    0    0  501    0  0.00000000000E+00  0.00000000000E+00 -0.14919379800E+04  0.14919379800E+04  0.25500000920E-02 0.  1.
    10030    2    1    2    0    0  0.00000000000E+00  0.00000000000E+00 -0.51487771648E+03  0.24689982434E+04  0.24147159798E+04 0.  0.
        2    1    3    3  502    0 -0.88164397481E+03  0.22012538541E+03 -0.10702697830E+04  0.14040045199E+04  0.25500000920E-02 0.  1.
       -2    1    3    3    0  502  0.88164397481E+03 -0.22012538541E+03  0.55539206649E+03  0.10649937235E+04  0.25500000920E-02 0. -1.
</event>
<event>
 5   0  0.2087882E-05  0.2397765E+04  0.7818609E-02  0.8440341E-01
       -2   -1    0    0    0  501  0.00000000000E+00  0.00000000000E+00  0.81331198102E+03  0.81331198103E+03  0.25500000920E-02 0.  1.
        2   -1    0    0  501    0  0.00000000000E+00  0.00000000000E+00 -0.17672417169E+04  0.17672417169E+04  0.25500000920E-02 0. -1.
    10030    2    1    2    0    0  0.00000000000E+00  0.00000000000E+00 -0.95392973591E+03  0.25805536980E+04  0.23977646772E+04 0.  0.
        2    1    3    3  502    0 -0.38842767674E+03 -0.48410668183E+03 -0.15808692363E+04  0.16983471028E+04  0.25500000920E-02 0. -1.
       -2    1    3    3    0  502  0.38842767674E+03  0.48410668183E+03  0.62693950034E+03  0.88220659516E+03  0.25500000920E-02 0.  1.
</event>
<event>
 5   0  0.8528103E-06  0.2388096E+04  0.7818609E-02  0.8443974E-01
        1   -1    0    0  501    0  0.00000000000E+00  0.00000000000E+00  0.22251194364E+04  0.22251194364E+04  0.50400001928E-02 0.  1.
       -1   -1    0    0    0  501  0.00000000000E+00  0.00000000000E+00 -0.64075253072E+03  0.64075253074E+03  0.50400001928E-02 0. -1.
    10030    2    1    2    0    0  0.00000000000E+00  0.00000000000E+00  0.15843669057E+04  0.28658719672E+04  0.23880962376E+04 0.  0.
        4    1    3    3  502    0 -0.56496986760E+03 -0.25539908981E+03  0.20167970504E+04  0.21099506159E+04  0.12699999809E+01 0.  1.
       -4    1    3    3    0  502  0.56496986760E+03  0.25539908981E+03 -0.43243014465E+03  0.75592135125E+03  0.12699999809E+01 0. -1.
</event>
<event>
 5   0  0.7233625E-06  0.2391244E+04  0.7818609E-02  0.8442789E-01
       -3   -1    0    0    0  501  0.00000000000E+00  0.00000000000E+00  0.47950208788E+03  0.47950209852E+03  0.10100000352E+00 0. -1.
        3   -1    0    0  501    0  0.00000000000E+00  0.00000000000E+00 -0.29812413540E+04  0.29812413558E+04  0.10100000352E+00 0.  1.
    10030    2    1    2    0    0  0.00000000000E+00  0.00000000000E+00 -0.25017392662E+04  0.34607434543E+04  0.23912435887E+04 0.  0.
        2    1    3    3  502    0 -0.17655756740E+02 -0.11243596467E+04 -0.66296419670E+03  0.13053803533E+04  0.25500000920E-02 0.  1.
       -2    1    3    3    0  502  0.17655756740E+02  0.11243596467E+04 -0.18387750695E+04  0.21553631009E+04  0.25500000920E-02 0. -1.
</event>
<event>
 5   0  0.2080257E-05  0.2412272E+04  0.7818609E-02  0.8434923E-01
        2   -1    0    0  501    0  0.00000000000E+00  0.00000000000E+00  0.18151576813E+04  0.18151576813E+04  0.25500000920E-02 0.  1.
       -2   -1    0    0    0  501  0.00000000000E+00  0.00000000000E+00 -0.80145308753E+03  0.80145308754E+03  0.25500000920E-02 0. -1.
    10030    2    1    2    0    0  0.00000000000E+00  0.00000000000E+00  0.10137045937E+04  0.26166107688E+04  0.24122717326E+04 0.  0.
        1    1    3    3  502    0  0.95780666725E+03 -0.54110520240E+03 -0.29585256298E+02  0.11004834116E+04  0.50400001928E-02 0. -1.
       -1    1    3    3    0  502 -0.95780666725E+03  0.54110520240E+03  0.10432898500E+04  0.15161273571E+04  0.50400001928E-02 0.  1.
</event>
<event>
 5   0  0.2122194E-05  0.2406571E+04  0.7818609E-02  0.8437048E-01
        2   -1    0    0  501    0  0.00000000000E+00  0.00000000000E+00  0.19125273457E+04  0.19125273457E+04  0.25500000920E-02 0. -1.
       -2   -1    0    0    0  501  0.00000000000E+00  0.00000000000E+00 -0.75705906312E+03  0.75705906312E+03  0.25500000920E-02 0.  1.
    10030    2    1    2    0    0  0.00000000000E+00  0.00000000000E+00  0.11554682826E+04  0.26695864088E+04  0.24065711380E+04 0.  0.
        3    1    3    3  502    0  0.44159439905E+03  0.47940907704E+03 -0.54427215732E+03  0.84915891791E+03  0.10100000352E+00 0.  1.
       -3    1    3    3    0  502 -0.44159439905E+03 -0.47940907704E+03  0.16997404399E+04  0.18204274909E+04  0.10100000352E+00 0. -1.
</event>
<event>
 5   0  0.9083687E-06  0.2399545E+04  0.7818609E-02  0.8439674E-01
       -1   -1    0    0    0  501  0.00000000000E+00  0.00000000000E+00  0.89810126150E+03  0.89810126151E+03  0.50400001928E-02 0. -1.
        1   -1    0    0  501    0  0.00000000000E+00  0.00000000000E+00 -0.16027754132E+04  0.16027754132E+04  0.50400001928E-02 0.  1.
    10030    2    1    2    0    0  0.00000000000E+00  0.00000000000E+00 -0.70467415166E+03  0.25008766747E+04  0.23995454740E+04 0.  0.
        2    1    3    3  502    0 -0.81396369884E+03  0.31774533760E+02 -0.12703915111E+04  0.15091193179E+04  0.25500000920E-02 0.  1.
       -2    1    3    3    0  502  0.81396369884E+03 -0.31774533760E+02  0.56571735945E+03  0.99175735682E+03  0.25500000920E-02 0. -1.
</event>
<event>
 5   0  0.2122194E-05  0.2404558E+04  0.7818609E-02  0.8437799E-01
        2   -1    0    0  501    0  0.00000000000E+00  0.00000000000E+00  0.13706870322E+04  0.13706870322E+04  0.25500000920E-02 0.  1.
       -2   -1    0    0    0  501  0.00000000000E+00  0.00000000000E+00 -0.10545618097E+04  0.10545618097E+04  0.25500000920E-02 0. -1.
    10030    2    1    2    0    0  0.00000000000E+00  0.00000000000E+00  0.31612522249E+03  0.24252488419E+04  0.24045575037E+04 0.  0.
        3    1    3    3  502    0 -0.66026747820E+03 -0.51962187651E+03  0.10254126105E+04  0.13256813604E+04  0.10100000352E+00 0.  1.
       -3    1    3    3    0  502  0.66026747820E+03  0.51962187651E+03 -0.70928738804E+03  0.10995674815E+04  0.10100000352E+00 0. -1.
</event>
<event>
 5   0  0.2087882E-05  0.2281213E+04  0.7818609E-02  0.8485366E-01
        2   -1    0    0  501    0  0.00000000000E+00  0.00000000000E+00  0.15622699006E+04  0.15622699006E+04  0.25500000920E-02 0.  1.
       -2   -1    0    0    0  501  0.00000000000E+00  0.00000000000E+00 -0.83275168191E+03  0.83275168191E+03  0.25500000920E-02 0. -1.
    10030    2    1    2    0    0  0.00000000000E+00  0.00000000000E+00  0.72951821864E+03  0.23950215825E+04  0.22812127365E+04 0.  0.
        2    1    3    3  502    0  0.86262367582E+03 -0.30908796665E+03  0.10778559440E+04  0.14147184925E+04  0.25500000920E-02 0. -1.
       -2    1    3    3    0  502 -0.86262367582E+03  0.30908796665E+03 -0.34833772532E+03  0.98030308992E+03  0.25500000920E-02 0.  1.
</event>
<event>
 5   0  0.2122194E-05  0.2385795E+04  0.7818609E-02  0.8444841E-01
       -2   -1    0    0    0  501  0.00000000000E+00  0.00000000000E+00  0.11434849645E+04  0.11434849645E+04  0.25500000920E-02 0. -1.
        2   -1    0    0  501    0  0.00000000000E+00  0.00000000000E+00 -0.12444451350E+04  0.12444451350E+04  0.25500000920E-02 0.  1.
    10030    2    1    2    0    0  0.00000000000E+00  0.00000000000E+00 -0.10096017051E+03  0.23879300995E+04  0.23857948789E+04 0.  0.
        3    1    3    3  502    0 -0.78414350118E+01 -0.87527406436E+03 -0.86166091906E+03  0.12282612611E+04  0.10100000352E+00 0.  1.
       -3    1    3    3    0  502  0.78414350118E+01  0.87527406436E+03  0.76070074855E+03  0.11596688385E+04  0.10100000352E+00 0. -1.
</event>
<event>
 5   0  0.9176817E-06  0.2397943E+04  0.7818609E-02  0.8440274E-01
       -1   -1    0    0    0  501  0.00000000000E+00  0.00000000000E+00  0.62413240203E+03  0.62413240205E+03  0.50400001928E-02 0.  1.
        1   -1    0    0  501    0  0.00000000000E+00  0.00000000000E+00 -0.23032494315E+04  0.23032494315E+04  0.50400001928E-02 0. -1.
    10030    2    1    2    0    0  0.00000000000E+00  0.00000000000E+00 -0.16791170295E+04  0.29273818335E+04  0.23979429519E+04 0.  0.
        3    1    3    3  502    0  0.39824668959E+03  0.30700185713E+03 -0.21683028495E+04  0.22258454177E+04  0.10100000352E+00 0. -1.
       -3    1    3    3    0  502 -0.39824668959E+03 -0.30700185713E+03  0.48918582004E+03  0.70153641586E+03  0.10100000352E+00 0.  1.
</event>
<event>
 5   0  0.8898848E-06  0.2392524E+04  0.7818609E-02  0.8442308E-01
        1   -1    0    0  501    0  0.00000000000E+00  0.00000000000E+00  0.18325670130E+04  0.18325670130E+04  0.50400001928E-02 0.  1.
       -1   -1    0    0    0  501  0.00000000000E+00  0.00000000000E+00 -0.78089496116E+03  0.78089496118E+03  0.50400001928E-02 0. -1.
    10030    2    1    2    0    0  0.00000000000E+00  0.00000000000E+00  0.10516720519E+04  0.26134619742E+04  0.23925236438E+04 0.  0.
        5    1    3    3  502    0 -0.12242242609E+03  0.99928691351E+03  0.12316117074E+04  0.15907391596E+04  0.46999998093E+01 0.  1.
       -5    1    3    3    0  502  0.12242242609E+03 -0.99928691351E+03 -0.17993965557E+03  0.10227228146E+04  0.46999998093E+01 0. -1.
</event>
<event>
 5   0  0.2080257E-05  0.2391698E+04  0.7818609E-02  0.8442618E-01
        2   -1    0    0  501    0  0.00000000000E+00  0.00000000000E+00  0.16776672933E+04  0.16776672933E+04  0.25500000920E-02 0. -1.
       -2   -1    0    0    0  501  0.00000000000E+00  0.00000000000E+00 -0.85240690375E+03  0.85240690375E+03  0.25500000920E-02 0.  1.
    10030    2    1    2    0    0  0.00000000000E+00  0.00000000000E+00  0.82526038955E+03  0.25300741971E+04  0.23916982945E+04 0.  0.
        1    1    3    3  502    0  0.24708205662E+03 -0.62105374023E+03  0.14616155322E+04  0.16071954626E+04  0.50400001928E-02 0. -1.
       -1    1    3    3    0  502 -0.24708205662E+03  0.62105374023E+03 -0.63635514264E+03  0.92287873448E+03  0.50400001928E-02 0.  1.
</event>
<event>
 5   0  0.9083687E-06  0.2405570E+04  0.7818609E-02  0.8437421E-01
       -1   -1    0    0    0  501  0.00000000000E+00  0.00000000000E+00  0.12598320572E+04  0.12598320572E+04  0.50400001928E-02 0.  1.
        1   -1    0    0  501    0  0.00000000000E+00  0.00000000000E+00 -0.11483215673E+04  0.11483215673E+04  0.50400001928E-02 0. -1.
    10030    2    1    2    0    0  0.00000000000E+00  0.00000000000E+00  0.11151048989E+03  0.24081536245E+04  0.24055704708E+04 0.  0.
        2    1    3    3  502    0  0.60598127698E+03 -0.10109038660E+04  0.29591364359E+03  0.12151974403E+04  0.25500000920E-02 0.  1.
       -2    1    3    3    0  502 -0.60598127698E+03  0.10109038660E+04 -0.18440315370E+03  0.11929561842E+04  0.25500000920E-02 0. -1.
</event>
<event>
 5   0  0.2087882E-05  0.2339194E+04  0.7818609E-02  0.8462626E-01
        2   -1    0    0  501    0  0.00000000000E+00  0.00000000000E+00  0.21817472477E+04  0.21817472477E+04  0.25500000920E-02 0. -1.
       -2   -1    0    0    0  501  0.00000000000E+00  0.00000000000E+00 -0.62700083216E+03  0.62700083217E+03  0.25500000920E-02 0.  1.
    10030    2    1    2    0    0  0.00000000000E+00  0.00000000000E+00  0.15547464155E+04  0.28087480799E+04  0.23391941688E+04 0.  0.
        2    1    3    3  502    0  0.43653647245E+02  0.65392328684E+03  0.19405583698E+04  0.20482402429E+04  0.25500000920E-02 0. -1.
       -2    1    3    3    0  502 -0.43653647245E+02 -0.65392328684E+03 -0.38581195429E+03  0.76050783695E+03  0.25500000920E-02 0.  1.
</event>
<event>
 5   0  0.9038897E-06  0.2421941E+04  0.7818609E-02  0.8431335E-01
        1   -1    0    0  501    0  0.00000000000E+00  0.00000000000E+00  0.11211315169E+04  0.11211315169E+04  0.50400001928E-02 0.  1.
       -1   -1    0    0    0  501  0.00000000000E+00  0.00000000000E+00 -0.13080082612E+04  0.13080082612E+04  0.50400001928E-02 0. -1.
    10030    2    1    2    0    0  0.00000000000E+00  0.00000000000E+00 -0.18687674431E+03  0.24291397781E+04  0.24219407805E+04 0.  0.
        1    1    3    3  502    0  0.18364263323E+03  0.60085295722E+03  0.94486838634E+03  0.11346916588E+04  0.50400001928E-02 0.  1.
       -1    1    3    3    0  502 -0.18364263323E+03 -0.60085295722E+03 -0.11317451306E+04  0.12944481194E+04  0.50400001928E-02 0. -1.
</event>
<event>
 5   0  0.2025353E-05  0.2397127E+04  0.7818609E-02  0.8440580E-01
        2   -1    0    0  501    0  0.00000000000E+00  0.00000000000E+00  0.12328294001E+04  0.12328294001E+04  0.25500000920E-02 0. -1.
       -2   -1    0    0    0  501  0.00000000000E+00  0.00000000000E+00 -0.11652497035E+04  0.11652497035E+04  0.25500000920E-02 0.  1.
    10030    2    1    2    0    0  0.00000000000E+00  0.00000000000E+00  0.67579696650E+02  0.23980791036E+04  0.23971266908E+04 0.  0.
        4    1    3    3  502    0 -0.16107213919E+03  0.39842038042E+03 -0.10855244130E+04  0.11674964229E+04  0.12699999809E+01 0.  1.
       -4    1    3    3    0  502  0.16107213919E+03 -0.39842038042E+03  0.11531041096E+04  0.12305826807E+04  0.12699999809E+01 0. -1.
</event>
<event>
 5   0  0.8528103E-06  0.2395429E+04  0.7818609E-02  0.8441217E-01
        1   -1    0    0  501    0  0.00000000000E+00  0.00000000000E+00  0.15334953841E+04  0.15334953841E+04  0.50400001928E-02 0.  1.
       -1   -1    0    0    0  501  0.00000000000E+00  0.00000000000E+00 -0.93545764811E+03  0.93545764813E+03  0.50400001928E-02 0. -1.
    10030    2    1    2    0    0  0.00000000000E+00  0.00000000000E+00  0.59803773596E+03  0.24689530322E+04  0.23954289682E+04 0.  0.
        4    1    3    3  502    0 -0.10755523217E+04 -0.39947872291E+03 -0.55219440615E+02  0.11486717749E+04  0.12699999809E+01 0. -1.
       -4    1    3    3    0  502  0.10755523217E+04  0.39947872291E+03  0.65325717658E+03  0.13202812573E+04  0.12699999809E+01 0.  1.
</event>
<event>
 5   0  0.2048028E-05  0.2352307E+04  0.7818609E-02  0.8457578E-01
       -2   -1    0    0    0  501  0.00000000000E+00  0.00000000000E+00  0.73575857251E+03  0.73575857252E+03  0.25500000920E-02 0.  1.
        2   -1    0    0  501    0  0.00000000000E+00  0.00000000000E+00 -0.18801506660E+04  0.18801506660E+04  0.25500000920E-02 0. -1.
    10030    2    1    2    0    0  0.00000000000E+00  0.00000000000E+00 -0.11443920935E+04  0.26159092385E+04  0.23523069274E+04 0.  0.
        5    1    3    3  502    0  0.83666259628E+03 -0.45883676265E+03  0.19244561878E+03  0.97344382527E+03  0.46999998093E+01 0.  1.
       -5    1    3    3    0  502 -0.83666259628E+03  0.45883676265E+03 -0.13368377122E+04  0.16424654132E+04  0.46999998093E+01 0. -1.
</event>
<event>
 5   0  0.8528103E-06  0.2431970E+04  0.7818609E-02  0.8427631E-01
       -1   -1    0    0    0  501  0.00000000000E+00  0.00000000000E+00  0.16685844923E+04  0.16685844923E+04  0.50400001928E-02 0.  1.
        1   -1    0    0  501    0  0.00000000000E+00  0.00000000000E+00 -0.88615212987E+03  0.88615212989E+03  0.50400001928E-02 0. -1.
    10030    2    1    2    0    0  0.00000000000E+00  0.00000000000E+00  0.78243236240E+03  0.25547366222E+04  0.24319701493E+04 0.  0.
        4    1    3    3  502    0 -0.94647225793E+03 -0.61923744875E+03 -0.77812766326E+02  0.11337200679E+04  0.12699999809E+01 0. -1.
       -4    1    3    3    0  502  0.94647225793E+03  0.61923744875E+03  0.86024512872E+03  0.14210165542E+04  0.12699999809E+01 0.  1.
</event>
<event>
 5   0  0.8898848E-06  0.2419183E+04  0.7818609E-02  0.8432356E-01
        1   -1    0    0  501    0  0.00000000000E+00  0.00000000000E+00  0.15274979583E+04  0.15274979584E+04  0.50400001928E-02 0.  1.
       -1   -1    0    0    0  501  0.00000000000E+00  0.00000000000E+00 -0.95784878887E+03  0.95784878888E+03  0.50400001928E-02 0. -1.
    10030    2    1    2    0    0  0.00000000000E+00  0.00000000000E+00  0.56964916948E+03  0.24853467472E+04  0.24191833907E+04 0.  0.
        5    1    3    3  502    0 -0.12589224714E+03  0.72734091322E+02  0.15184787480E+04  0.15254307274E+04  0.46999998093E+01 0.  1.
       -5    1    3    3    0  502  0.12589224714E+03 -0.72734091322E+02 -0.94882957856E+03  0.95991601981E+03  0.46999998093E+01 0. -1.
</event>
<event>
 5   0  0.2080257E-05  0.2412240E+04  0.7818609E-02  0.8434935E-01
        2   -1    0    0  501    0  0.00000000000E+00  0.00000000000E+00  0.78041089571E+03  0.78041089572E+03  0.25500000920E-02 0. -1.
       -2   -1    0    0    0  501  0.00000000000E+00  0.00000000000E+00 -0.18640514091E+04  0.18640514091E+04  0.25500000920E-02 0.  1.
    10030    2    1    2    0    0  0.00000000000E+00  0.00000000000E+00 -0.10836405134E+04  0.26444623048E+04  0.24122404771E+04 0.  0.
        1    1    3    3  502    0  0.66144271507E+03  0.49723060724E+03 -0.15037799289E+04  0.17164203497E+04  0.50400001928E-02 0.  1.
       -1    1    3    3    0  502 -0.66144271507E+03 -0.49723060724E+03  0.42013941550E+03  0.92804195518E+03  0.50400001928E-02 0. -1.
</event>
<event>
 5   0  0.9176817E-06  0.2398357E+04  0.7818609E-02  0.8440119E-01
        1   -1    0    0  501    0  0.00000000000E+00  0.00000000000E+00  0.18356179000E+04  0.18356179000E+04  0.50400001928E-02 0. -1.
       -1   -1    0    0    0  501  0.00000000000E+00  0.00000000000E+00 -0.78340300888E+03  0.78340300890E+03  0.50400001928E-02 0.  1.
    10030    2    1    2    0    0  0.00000000000E+00  0.00000000000E+00  0.10522148911E+04  0.26190209089E+04  0.23983565923E+04 0.  0.
        3    1    3    3  502    0 -0.84523299971E+02 -0.11730880450E+04  0.27059467187E+03  0.12068559302E+04  0.10100000352E+00 0.  1.
       -3    1    3    3    0  502  0.84523299971E+02  0.11730880450E+04  0.78162021920E+03  0.14121649786E+04  0.10100000352E+00 0. -1.
</event>
<event>
 5   0  0.2080257E-05  0.2368269E+04  0.7818609E-02  0.8451480E-01
       -2   -1    0    0    0  501  0.00000000000E+00  0.00000000000E+00  0.78475109145E+03  0.78475109145E+03  0.25500000920E-02 0. -1.
        2   -1    0    0  501    0  0.00000000000E+00  0.00000000000E+00 -0.17867759536E+04  0.17867759536E+04  0.25500000920E-02 0.  1.
    10030    2    1    2    0    0  0.00000000000E+00  0.00000000000E+00 -0.10020248622E+04  0.25715270451E+04  0.23682688866E+04 0.  0.
        1    1    3    3  502    0  0.11088625149E+04  0.78066030304E+02 -0.94408250678E+03  0.14584108343E+04  0.50400001928E-02 0.  1.
       -1    1    3    3    0  502 -0.11088625149E+04 -0.78066030304E+02 -0.57942355417E+02  0.11131162108E+04  0.50400001928E-02 0. -1.
</event>
<event>
 5   0  0.9176817E-06  0.2397984E+04  0.7818609E-02  0.8440259E-01
       -1   -1    0    0    0  501  0.00000000000E+00  0.00000000000E+00  0.14670915017E+04  0.14670915017E+04  0.50400001928E-02 0.  1.
        1   -1    0    0  501    0  0.00000000000E+00  0.00000000000E+00 -0.97988575654E+03  0.97988575655E+03  0.50400001928E-02 0. -1.
    10030    2    1    2    0    0  0.00000000000E+00  0.00000000000E+00  0.48720574511E+03  0.24469772582E+04  0.23979842085E+04 0.  0.
        3    1    3    3  502    0  0.23296365079E+03 -0.10761431874E+03  0.14387401659E+04  0.14614466050E+04  0.10100000352E+00 0.  1.
       -3    1    3    3    0  502 -0.23296365079E+03  0.10761431874E+03 -0.95153442079E+03  0.98553065317E+03  0.10100000352E+00 0. -1.
</event>
<event>
 5   0  0.8898848E-06  0.2399442E+04  0.7818609E-02  0.8439713E-01
        1   -1    0    0  501    0  0.00000000000E+00  0.00000000000E+00  0.16442371309E+04  0.16442371309E+04  0.50400001928E-02 0. -1.
       -1   -1    0    0    0  501  0.00000000000E+00  0.00000000000E+00 -0.87537869291E+03  0.87537869292E+03  0.50400001928E-02 0.  1.
    10030    2    1    2    0    0  0.00000000000E+00  0.00000000000E+00  0.76885843801E+03  0.25196158239E+04  0.23994417272E+04 0.  0.
        5    1    3    3  502    0  0.33514989619E+03 -0.46958705397E+02  0.15930653968E+04  0.16286221236E+04  0.46999998093E+01 0. -1.
       -5    1    3    3    0  502 -0.33514989619E+03  0.46958705397E+02 -0.82420695881E+03  0.89099370025E+03  0.46999998093E+01 0.  1.
</event>
<event>
 5   0  0.2025353E-05  0.2367690E+04  0.7818609E-02  0.8451700E-01
       -2   -1    0    0    0  501  0.00000000000E+00  0.00000000000E+00  0.13351356041E+04  0.13351356041E+04  0.25500000920E-02 0. -1.
        2   -1    0    0  501    0  0.00000000000E+00  0.00000000000E+00 -0.10496974861E+04  0.10496974861E+04  0.25500000920E-02 0.  1.
    10030    2    1    2    0    0  0.00000000000E+00  0.00000000000E+00  0.28543811798E+03  0.23848330901E+04  0.23676895803E+04 0.  0.
        4    1    3    3  502    0 -0.10279968570E+04  0.37744005029E+03  0.59569560304E+03  0.12466328224E+04  0.12699999809E+01 0. -1.
       -4    1    3    3    0  502  0.10279968570E+04 -0.37744005029E+03 -0.31025748506E+03  0.11382002677E+04  0.12699999809E+01 0.  1.
</event>
<event>
 5   0  0.2087882E-05  0.2399154E+04  0.7818609E-02  0.8439820E-01
        2   -1    0    0  501    0  0.00000000000E+00  0.00000000000E+00  0.10045525574E+04  0.10045525574E+04  0.25500000920E-02 0. -1.
       -2   -1    0    0    0  501  0.00000000000E+00  0.00000000000E+00 -0.14324635336E+04  0.14324635336E+04  0.25500000920E-02 0.  1.
    10030    2    1    2    0    0  0.00000000000E+00  0.00000000000E+00 -0.42791097616E+03  0.24370160910E+04  0.23991539393E+04 0.  0.
        2    1    3    3  502    0  0.32707909822E+03  0.10101902427E+03 -0.13817946776E+04  0.14235666865E+04  0.25500000920E-02 0.  1.
       -2    1    3    3    0  502 -0.32707909822E+03 -0.10101902427E+03  0.95388370144E+03  0.10134494046E+04  0.25500000920E-02 0. -1.
</event>
<event>
 5   0  0.8528103E-06  0.2381493E+04  0.7818609E-02  0.8446465E-01
       -1   -1    0    0    0  501  0.00000000000E+00  0.00000000000E+00  0.12362700424E+04  0.12362700424E+04  0.50400001928E-02 0. -1.
        1   -1    0    0  501    0  0.00000000000E+00  0.00000000000E+00 -0.11468991055E+04  0.11468991055E+04  0.50400001928E-02 0.  1.
    10030    2    1    2    0    0  0.00000000000E+00  0.00000000000E+00  0.89370936821E+02  0.23831691479E+04  0.23814928140E+04 0.  0.
        4    1    3    3  502    0 -0.79043876073E+03  0.30970125141E+03 -0.79086758868E+03  0.11602506002E+04  0.12699999809E+01 0.  1.
       -4    1    3    3    0  502  0.79043876073E+03 -0.30970125141E+03  0.88023852550E+03  0.12229185477E+04  0.12699999809E+01 0. -1.
</event>
<event>
 5   0  0.2048028E-05  0.2407850E+04  0.7818609E-02  0.8436570E-01
        2   -1    0    0  501    0  0.00000000000E+00  0.00000000000E+00  0.14735397228E+04  0.14735397228E+04  0.25500000920E-02 0. -1.
       -2   -1    0    0    0  501  0.00000000000E+00  0.00000000000E+00 -0.98364220034E+03  0.98364220034E+03  0.25500000920E-02 0.  1.
    10030    2    1    2    0    0  0.00000000000E+00  0.00000000000E+00  0.48989752246E+03  0.24571819231E+04  0.24078503735E+04 0.  0.
        5    1    3    3  502    0 -0.11105556215E+04  0.10471541228E+03  0.70712345876E+03  0.13207364544E+04  0.46999998093E+01 0. -1.
       -5    1    3    3    0  502  0.11105556215E+04 -0.10471541228E+03 -0.21722593630E+03  0.11364454688E+04  0.46999998093E+01 0.  1.
</event>
<event>
 5   0  0.9038897E-06  0.2403635E+04  0.7818609E-02  0.8438144E-01
        1   -1    0    0  501    0  0.00000000000E+00  0.00000000000E+00  0.19519288861E+04  0.19519288861E+04  0.50400001928E-02 0.  1.
       -1   -1    0    0    0  501  0.00000000000E+00  0.00000000000E+00 -0.73996839706E+03  0.73996839707E+03  0.50400001928E-02 0. -1.
    10030    2    1    2    0    0  0.00000000000E+00  0.00000000000E+00  0.12119604891E+04  0.26918972832E+04  0.24036353210E+04 0.  0.
        1    1    3    3  502    0  0.28564232325E+03  0.11673612698E+04  0.61322245035E+03  0.13492092665E+04  0.50400001928E-02 0.  1.
       -1    1    3    3    0  502 -0.28564232325E+03 -0.11673612698E+04  0.59873803872E+03  0.13426880167E+04  0.50400001928E-02 0. -1.
</event>
<event>
 5   0  0.2025353E-05  0.2416243E+04  0.7818609E-02  0.8433447E-01
       -2   -1    0    0    0  501  0.00000000000E+00  0.00000000000E+00  0.82576086990E+03  0.82576086991E+03  0.25500000920E-02 0. -1.
        2   -1    0    0  501    0  0.00000000000E+00  0.00000000000E+00 -0.17675310749E+04  0.17675310749E+04  0.25500000920E-02 0.  1.
    10030    2    1    2    0    0  0.00000000000E+00  0.00000000000E+00 -0.94177020498E+03  0.25932919448E+04  0.24162433636E+04 0.  0.
        4    1    3    3  502    0 -0.18437282167E+03 -0.40771582419E+03  0.73354238611E+03  0.85925058963E+03  0.12699999809E+01 0. -1.
       -4    1    3    3    0  502  0.18437282167E+03  0.40771582419E+03 -0.16753125911E+04  0.17340413552E+04  0.12699999809E+01 0.  1.
</event>
<event>
 5   0  0.9083687E-06  0.2397056E+04  0.7818609E-02  0.8440607E-01
        1   -1    0    0  501    0  0.00000000000E+00  0.00000000000E+00  0.20523694358E+04  0.20523694358E+04  0.50400001928E-02 0. -1.
       -1   -1    0    0    0  501  0.00000000000E+00  0.00000000000E+00 -0.69990754322E+03  0.69990754324E+03  0.50400001928E-02 0.  1.
    10030    2    1    2    0    0  0.00000000000E+00  0.00000000000E+00  0.13524618926E+04  0.27522769790E+04  0.23970555685E+04 0.  0.
        2    1    3    3  502    0  0.88328467884E+03  0.70367138042E+03  0.21534482218E+03  0.11496602228E+04  0.25500000920E-02 0.  1.
       -2    1    3    3    0  502 -0.88328467884E+03 -0.70367138042E+03  0.11371170704E+04  0.16026167562E+04  0.25500000920E-02 0. -1.
</event>
<event>
 5   0  0.9083687E-06  0.2395563E+04  0.7818609E-02  0.8441167E-01
        1   -1    0    0  501    0  0.00000000000E+00  0.00000000000E+00  0.11962737435E+04  0.11962737435E+04  0.50400001928E-02 0.  1.
       -1   -1    0    0    0  501  0.00000000000E+00  0.00000000000E+00 -0.11992907227E+04  0.11992907227E+04  0.50400001928E-02 0. -1.
    10030    2    1    2    0    0  0.00000000000E+00  0.00000000000E+00 -0.30169792333E+01  0.23955644662E+04  0.23955625664E+04 0.  0.
        2    1    3    3  502    0 -0.49476386602E+03  0.28776658425E+03  0.10506706150E+04  0.11964571164E+04  0.25500000920E-02 0.  1.
       -2    1    3    3    0  502  0.49476386602E+03 -0.28776658425E+03 -0.10536875942E+04  0.11991073498E+04  0.25500000920E-02 0. -1.
</event>
<event>
 5   0  0.2087882E-05  0.2390542E+04  0.7818609E-02  0.8443053E-01
        2   -1    0    0  501    0  0.00000000000E+00  0.00000000000E+00  0.15711427864E+04  0.15711427864E+04  0.25500000920E-02 0.  1.
       -2   -1    0    0    0  501  0.00000000000E+00  0.00000000000E+00 -0.90932060751E+03  0.90932060752E+03  0.25500000920E-02 0. -1.
    10030    2    1    2    0    0  0.00000000000E+00  0.00000000000E+00  0.66182217886E+03  0.24804633939E+04  0.23905417905E+04 0.  0.
        2    1    3    3  502    0 -0.10815017952E+04 -0.41005350700E+03  0.64371820068E+03  0.13236929907E+04  0.25500000920E-02 0.  1.
       -2    1    3    3    0  502  0.10815017952E+04  0.41005350700E+03  0.18103978187E+02  0.11567704032E+04  0.25500000920E-02 0. -1.
</event>
<event>
 5   0  0.8898848E-06  0.2427720E+04  0.7818609E-02  0.8429198E-01
        1   -1    0    0  501    0  0.00000000000E+00  0.00000000000E+00  0.19606274372E+04  0.19606274372E+04  0.50400001928E-02 0. -1.
       -1   -1    0    0    0  501  0.00000000000E+00  0.00000000000E+00 -0.75152269734E+03  0.75152269736E+03  0.50400001928E-02 0.  1.
    10030    2    1    2    0    0  0.00000000000E+00  0.00000000000E+00  0.12091047399E+04  0.27121501346E+04  0.24277199345E+04 0.  0.
        5    1    3    3  502    0 -0.96050285659E+02 -0.27931485236E+02  0.19560050319E+04  0.19585667208E+04  0.46999998093E+01 0. -1.
       -5    1    3    3    0  502  0.96050285659E+02  0.27931485236E+02 -0.74690029201E+03  0.75358341373E+03  0.46999998093E+01 0.  1.
</event>
<event>
 5   0  0.8528103E-06  0.2371402E+04  0.7818609E-02  0.8450288E-01
        1   -1    0    0  501    0  0.00000000000E+00  0.00000000000E+00  0.16605329957E+04  0.16605329957E+04  0.50400001928E-02 0.  1.
       -1   -1    0    0    0  501  0.00000000000E+00  0.00000000000E+00 -0.84664807931E+03  0.84664807933E+03  0.50400001928E-02 0. -1.
    10030    2    1    2    0    0  0.00000000000E+00  0.00000000000E+00  0.81388491639E+03  0.25071810750E+04  0.23714021772E+04 0.  0.
        4    1    3    3  502    0 -0.11110889205E+04 -0.37878500270E+03  0.23038123447E+03  0.11962749658E+04  0.12699999809E+01 0. -1.
       -4    1    3    3    0  502  0.11110889205E+04  0.37878500270E+03  0.58350368192E+03  0.13109061093E+04  0.12699999809E+01 0.  1.
</event>
<event>
 5   0  0.8898848E-06  0.2368215E+04  0.7818609E-02  0.8451500E-01
        1   -1    0    0  501    0  0.00000000000E+00  0.00000000000E+00  0.15837150670E+04  0.15837150670E+04  0.50400001928E-02 0. -1.
       -1   -1    0    0    0  501  0.00000000000E+00  0.00000000000E+00 -0.88533030180E+03  0.88533030181E+03  0.50400001928E-02 0.  1.
    10030    2    1    2    0    0  0.00000000000E+00  0.00000000000E+00  0.69838476518E+03  0.24690453688E+04  0.23682153097E+04 0.  0.
        5    1    3    3  502    0 -0.49465881991E+03 -0.32462389489E+03  0.14185428280E+04  0.15369950768E+04  0.46999998093E+01 0. -1.
       -5    1    3    3    0  502  0.49465881991E+03  0.32462389489E+03 -0.72015806286E+03  0.93205029196E+03  0.46999998093E+01 0.  1.
</event>
<event>
 5   0  0.2087882E-05  0.2398664E+04  0.7818609E-02  0.8440004E-01
        2   -1    0    0  501    0  0.00000000000E+00  0.00000000000E+00  0.23227042725E+04  0.23227042725E+04  0.25500000920E-02 0.  1.
       -2   -1    0    0    0  501  0.00000000000E+00  0.00000000000E+00 -0.61927699246E+03  0.61927699246E+03  0.25500000920E-02 0. -1.
    10030    2    1    2    0    0  0.00000000000E+00  0.00000000000E+00  0.17034272800E+04  0.29419812649E+04  0.23986640584E+04 0.  0.
        2    1    3    3  502    0 -0.67822651746E+03 -0.26996152255E+03 -0.31542151137E+03  0.79521139484E+03  0.25500000920E-02 0. -1.
       -2    1    3    3    0  502  0.67822651746E+03  0.26996152255E+03  0.20188487914E+04  0.21467698701E+04  0.25500000920E-02 0.  1.
</event>
<event>
 5   0  0.2087882E-05  0.2402376E+04  0.7818609E-02  0.8438615E-01
       -2   -1    0    0    0  501  0.00000000000E+00  0.00000000000E+00  0.76321073430E+03  0.76321073430E+03  0.25500000920E-02 0. -1.
        2   -1    0    0  501    0  0.00000000000E+00  0.00000000000E+00 -0.18905035736E+04  0.18905035736E+04  0.25500000920E-02 0.  1.
    10030    2    1    2    0    0  0.00000000000E+00  0.00000000000E+00 -0.11272928393E+04  0.26537143079E+04  0.24023760077E+04 0.  0.
        2    1    3    3  502    0  0.40115376213E+03  0.99915305435E+03  0.24631737677E+02  0.10769577008E+04  0.25500000920E-02 0.  1.
       -2    1    3    3    0  502 -0.40115376213E+03 -0.99915305435E+03 -0.11519245770E+04  0.15767566071E+04  0.25500000920E-02 0. -1.
</event>
<event>
 5   0  0.9038897E-06  0.2418264E+04  0.7818609E-02  0.8432697E-01
        1   -1    0    0  501    0  0.00000000000E+00  0.00000000000E+00  0.17873973143E+04  0.17873973143E+04  0.50400001928E-02 0.  1.
       -1   -1    0    0    0  501  0.00000000000E+00  0.00000000000E+00 -0.81794896699E+03  0.81794896701E+03  0.50400001928E-02 0. -1.
    10030    2    1    2    0    0  0.00000000000E+00  0.00000000000E+00  0.96944834727E+03  0.26053462813E+04  0.24182636637E+04 0.  0.
        1    1    3    3  502    0 -0.16338299284E+03 -0.11301821874E+04  0.91295912639E+03  0.14620192015E+04  0.50400001928E-02 0.  1.
       -1    1    3    3    0  502  0.16338299284E+03  0.11301821874E+04  0.56489220877E+02  0.11433270797E+04  0.50400001928E-02 0. -1.
</event>
<event>
 5   0  0.2122194E-05  0.2356400E+04  0.7818609E-02  0.8456010E-01
       -2   -1    0    0    0  501  0.00000000000E+00  0.00000000000E+00  0.18836507294E+04  0.18836507294E+04  0.25500000920E-02 0. -1.
        2   -1    0    0  501    0  0.00000000000E+00  0.00000000000E+00 -0.73694915585E+03  0.73694915585E+03  0.25500000920E-02 0.  1.
    10030    2    1    2    0    0  0.00000000000E+00  0.00000000000E+00  0.11467015735E+04  0.26205998852E+04  0.23563996392E+04 0.  0.
        3    1    3    3  502    0  0.87109736279E+03 -0.62078667611E+03  0.24039800550E+02  0.10699367434E+04  0.10100000352E+00 0.  1.
       -3    1    3    3    0  502 -0.87109736279E+03  0.62078667611E+03  0.11226617730E+04  0.15506631418E+04  0.10100000352E+00 0. -1.
</event>
<event>
 5   0  0.2122194E-05  0.2390140E+04  0.7818609E-02  0.8443204E-01
       -2   -1    0    0    0  501  0.00000000000E+00  0.00000000000E+00  0.64109549912E+03  0.64109549913E+03  0.25500000920E-02 0.  1.
        2   -1    0    0  501    0  0.00000000000E+00  0.00000000000E+00 -0.22277374854E+04  0.22277374854E+04  0.25500000920E-02 0. -1.
    10030    2    1    2    0    0  0.00000000000E+00  0.00000000000E+00 -0.15866419863E+04  0.28688329846E+04  0.23901401425E+04 0.  0.
        3    1    3    3  502    0 -0.68023864746E+03  0.48090613249E+03  0.23514099204E+03  0.86561343688E+03  0.10100000352E+00 0.  1.
       -3    1    3    3    0  502  0.68023864746E+03 -0.48090613249E+03 -0.18217829784E+04  0.20032195477E+04  0.10100000352E+00 0. -1.
</event>
<event>
 5   0  0.2025353E-05  0.2395243E+04  0.7818609E-02  0.8441287E-01
       -2   -1    0    0    0  501  0.00000000000E+00  0.00000000000E+00  0.97208339453E+03  0.97208339453E+03  0.25500000920E-02 0. -1.
        2   -1    0    0  501    0  0.00000000000E+00  0.00000000000E+00 -0.14754873118E+04  0.14754873118E+04  0.25500000920E-02 0.  1.
    10030    2    1    2    0    0  0.00000000000E+00  0.00000000000E+00 -0.50340391729E+03  0.24475707064E+04  0.23952425469E+04 0.  0.
        4    1    3    3  502    0  0.58991804847E+03  0.25667485652E+03  0.78051992731E+03  0.10114831960E+04  0.12699999809E+01 0.  1.
       -4    1    3    3    0  502 -0.58991804847E+03 -0.25667485652E+03 -0.12839238446E+04  0.14360875104E+04  0.12699999809E+01 0. -1.
</event>
<event>
 5   0  0.8528103E-06  0.2456924E+04  0.7818609E-02  0.8418494E-01
        1   -1    0    0  501    0  0.00000000000E+00  0.00000000000E+00  0.11556296062E+04  0.11556296062E+04  0.50400001928E-02 0. -1.
       -1   -1    0    0    0  501  0.00000000000E+00  0.00000000000E+00 -0.13058842922E+04  0.13058842922E+04  0.50400001928E-02 0.  1.
    10030    2    1    2    0    0  0.00000000000E+00  0.00000000000E+00 -0.15025468606E+03  0.24615138984E+04  0.24569237272E+04 0.  0.
        4    1    3    3  502    0  0.81553971612E+03  0.19217099268E+03 -0.97518329329E+03  0.12856977823E+04  0.12699999809E+01 0.  1.
       -4    1    3    3    0  502 -0.81553971612E+03 -0.19217099268E+03  0.82492860724E+03  0.11758161161E+04  0.12699999809E+01 0. -1.
</event>
<event>
 5   0  0.8528103E-06  0.2388067E+04  0.7818609E-02  0.8443985E-01
        1   -1    0    0  501    0  0.00000000000E+00  0.00000000000E+00  0.11469882416E+04  0.11469882416E+04  0.50400001928E-02 0.  1.
       -1   -1    0    0    0  501  0.00000000000E+00  0.00000000000E+00 -0.12430082343E+04  0.12430082343E+04  0.50400001928E-02 0. -1.
    10030    2    1    2    0    0  0.00000000000E+00  0.00000000000E+00 -0.96019992737E+02  0.23899964759E+04  0.23880668575E+04 0.  0.
        4    1    3    3  502    0 -0.31236779729E+02  0.13181817367E+03 -0.12352916548E+04  0.12426982147E+04  0.12699999809E+01 0. -1.
       -4    1    3    3    0  502  0.31236779729E+02 -0.13181817367E+03  0.11392716621E+04  0.11472982613E+04  0.12699999809E+01 0.  1.
</event>
<event>
 5   0  0.2048028E-05  0.2361577E+04  0.7818609E-02  0.8454030E-01
        2   -1    0    0  501    0  0.00000000000E+00  0.00000000000E+00  0.12851082130E+04  0.12851082130E+04  0.25500000920E-02 0.  1.
       -2   -1    0    0    0  501  0.00000000000E+00  0.00000000000E+00 -0.10849369361E+04  0.10849369361E+04  0.25500000920E-02 0. -1.
    10030    2    1    2    0    0  0.00000000000E+00  0.00000000000E+00  0.20017127688E+03  0.23700451491E+04  0.23615769029E+04 0.  0.
        5    1    3    3  502    0  0.85415406130E+03 -0.38289632177E+03  0.82242384269E+03  0.12460304253E+04  0.46999998093E+01 0.  1.
       -5    1    3    3    0  502 -0.85415406130E+03  0.38289632177E+03 -0.62225256581E+03  0.11240147238E+04  0.46999998093E+01 0. -1.
</event>
<event>
 5   0  0.8528103E-06  0.2373087E+04  0.7818609E-02  0.8449649E-01
        1   -1    0    0  501    0  0.00000000000E+00  0.00000000000E+00  0.21841903715E+04  0.21841903715E+04  0.50400001928E-02 0. -1.
       -1   -1    0    0    0  501  0.00000000000E+00  0.00000000000E+00 -0.64457983395E+03  0.64457983397E+03  0.50400001928E-02 0.  1.
    10030    2    1    2    0    0  0.00000000000E+00  0.00000000000E+00  0.15396105375E+04  0.28287702055E+04  0.23730866541E+04 0.  0.
        4    1    3    3  502    0 -0.97577528999E+03  0.64095394316E+03  0.51715272828E+03  0.12768742816E+04  0.12699999809E+01 0.  1.
       -4    1    3    3    0  502  0.97577528999E+03 -0.64095394316E+03  0.10224578092E+04  0.15518959238E+04  0.12699999809E+01 0. -1.
</event>
<event>
 5   0  0.2122194E-05  0.2397657E+04  0.7818609E-02  0.8440381E-01
       -2   -1    0    0    0  501  0.00000000000E+00  0.00000000000E+00  0.96260206034E+03  0.96260206035E+03  0.25500000920E-02 0. -1.
        2   -1    0    0  501    0  0.00000000000E+00  0.00000000000E+00 -0.14930258531E+04  0.14930258531E+04  0.25500000920E-02 0.  1.
    10030    2    1    2    0    0  0.00000000000E+00  0.00000000000E+00 -0.53042379280E+03  0.24556279135E+04  0.23976569916E+04 0.  0.
        3    1    3    3  502    0  0.61568551442E+03  0.10227485101E+04 -0.37790214310E+03  0.12521554247E+04  0.10100000352E+00 0.  1.
       -3    1    3    3    0  502 -0.61568551442E+03 -0.10227485101E+04 -0.15252164969E+03  0.12034724888E+04  0.10100000352E+00 0. -1.
</event>
<event>
 5   0  0.2122194E-05  0.2400534E+04  0.7818609E-02  0.8439304E-01
        2   -1    0    0  501    0  0.00000000000E+00  0.00000000000E+00  0.16820758641E+04  0.16820758641E+04  0.25500000920E-02 0. -1.
       -2   -1    0    0    0  501  0.00000000000E+00  0.00000000000E+00 -0.85646605509E+03  0.85646605509E+03  0.25500000920E-02 0.  1.
    10030    2    1    2    0    0  0.00000000000E+00  0.00000000000E+00  0.82560980906E+03  0.25385419192E+04  0.24005340070E+04 0.  0.
        3    1    3    3  502    0  0.93551179497E+02  0.52965367565E+03  0.15475055360E+04  0.16383095658E+04  0.10100000352E+00 0. -1.
       -3    1    3    3    0  502 -0.93551179497E+02 -0.52965367565E+03 -0.72189572696E+03  0.90023235340E+03  0.10100000352E+00 0.  1.
</event>
<event>
 5   0  0.8528103E-06  0.2502051E+04  0.7818609E-02  0.8402255E-01
        1   -1    0    0  501    0  0.00000000000E+00  0.00000000000E+00  0.23551827360E+04  0.23551827360E+04  0.50400001928E-02 0.  1.
       -1   -1    0    0    0  501  0.00000000000E+00  0.00000000000E+00 -0.66451965291E+03  0.66451965293E+03  0.50400001928E-02 0. -1.
    10030    2    1    2    0    0  0.00000000000E+00  0.00000000000E+00  0.16906630831E+04  0.30197023889E+04  0.25020513298E+04 0.  0.
        4    1    3    3  502    0 -0.25860559148E+03 -0.77758397338E+02  0.23195870845E+04  0.23352535356E+04  0.12699999809E+01 0.  1.
       -4    1    3    3    0  502  0.25860559148E+03  0.77758397338E+02 -0.62892400141E+03  0.68444885328E+03  0.12699999809E+01 0. -1.
</event>
<event>
 5   0  0.9176817E-06  0.2396397E+04  0.7818609E-02  0.8440854E-01
       -1   -1    0    0    0  501  0.00000000000E+00  0.00000000000E+00  0.14564837344E+04  0.14564837344E+04  0.50400001928E-02 0. -1.
        1   -1    0    0  501    0  0.00000000000E+00  0.00000000000E+00 -0.98571654437E+03  0.98571654438E+03  0.50400001928E-02 0.  1.
    10030    2    1    2    0    0  0.00000000000E+00  0.00000000000E+00  0.47076719007E+03  0.24422002788E+04  0.23963973908E+04 0.  0.
        3    1    3    3  502    0 -0.11009523122E+04  0.16266741339E+03 -0.21708824294E+03  0.11338800627E+04  0.10100000352E+00 0. -1.
       -3    1    3    3    0  502  0.11009523122E+04 -0.16266741339E+03  0.68785543301E+03  0.13083202162E+04  0.10100000352E+00 0.  1.
</event>
<event>
 5   0  0.8528103E-06  0.2356689E+04  0.7818609E-02  0.8455899E-01
        1   -1    0    0  501    0  0.00000000000E+00  0.00000000000E+00  0.18796717766E+04  0.18796717766E+04  0.50400001928E-02 0. -1.
       -1   -1    0    0    0  501  0.00000000000E+00  0.00000000000E+00 -0.73869081320E+03  0.73869081322E+03  0.50400001928E-02 0.  1.
    10030    2    1    2    0    0  0.00000000000E+00  0.00000000000E+00  0.11409809634E+04  0.26183625898E+04  0.23566894350E+04 0.  0.
        4    1    3    3  502    0  0.11024821975E+04  0.30885765536E+03  0.88005781716E+03  0.14440787450E+04  0.12699999809E+01 0. -1.
       -4    1    3    3    0  502 -0.11024821975E+04 -0.30885765536E+03  0.26092314623E+03  0.11742838449E+04  0.12699999809E+01 0.  1.
</event>
<event>
 5   0  0.2048028E-05  0.2415336E+04  0.7818609E-02  0.8433784E-01
       -2   -1    0    0    0  501  0.00000000000E+00  0.00000000000E+00  0.73397864830E+03  0.73397864830E+03  0.25500000920E-02 0.  1.
        2   -1    0    0  501    0  0.00000000000E+00  0.00000000000E+00 -0.19870632801E+04  0.19870632802E+04  0.25500000920E-02 0. -1.
    10030    2    1    2    0    0  0.00000000000E+00  0.00000000000E+00 -0.12530846319E+04  0.27210419285E+04  0.24153360184E+04 0.  0.
        5    1    3    3  502    0  0.97472540139E+03 -0.61067532962E+03 -0.21196203248E+03  0.11695999143E+04  0.46999998093E+01 0.  1.
       -5    1    3    3    0  502 -0.97472540139E+03  0.61067532962E+03 -0.10411225994E+04  0.15514420141E+04  0.46999998093E+01 0. -1.
</event>
<event>
 5   0  0.8528103E-06  0.2402193E+04  0.7818609E-02  0.8438683E-01
       -1   -1    0    0    0  501  0.00000000000E+00  0.00000000000E+00  0.54560522401E+03  0.54560522403E+03  0.50400001928E-02 0.  1.
        1   -1    0    0  501    0  0.00000000000E+00  0.00000000000E+00 -0.26440967183E+04  0.26440967183E+04  0.50400001928E-02 0. -1.
    10030    2    1    2    0    0  0.00000000000E+00  0.00000000000E+00 -0.20984914943E+04  0.31897019423E+04  0.24021931499E+04 0.  0.
        4    1    3    3  502    0 -0.37419663379E+03 -0.10265133394E+04 -0.38682188667E+03  0.11590450990E+04  0.12699999809E+01 0.  1.
       -4    1    3    3    0  502  0.37419663379E+03  0.10265133394E+04 -0.17116696076E+04  0.20306568433E+04  0.12699999809E+01 0. -1.
</event>
<event>
 5   0  0.7233625E-06  0.2414285E+04  0.7818609E-02  0.8434175E-01
       -3   -1    0    0    0  501  0.00000000000E+00  0.00000000000E+00  0.13635452912E+04  0.13635452950E+04  0.10100000352E+00 0.  1.
        3   -1    0    0  501    0  0.00000000000E+00  0.00000000000E+00 -0.10686795947E+04  0.10686795994E+04  0.10100000352E+00 0. -1.
    10030    2    1    2    0    0  0.00000000000E+00  0.00000000000E+00  0.29486569654E+03  0.24322248944E+04  0.24142850200E+04 0.  0.
        5    1    3    3  502    0 -0.41770810732E+03 -0.88999408807E+03  0.85306698958E+03  0.13016585260E+04  0.46999998093E+01 0.  1.
       -5    1    3    3    0  502  0.41770810732E+03  0.88999408807E+03 -0.55820129304E+03  0.11305663684E+04  0.46999998093E+01 0. -1.
</event>
<event>
 5   0  0.9083687E-06  0.2380578E+04  0.7818609E-02  0.8446811E-01
        1   -1    0    0  501    0  0.00000000000E+00  0.00000000000E+00  0.13291012051E+04  0.13291012051E+04  0.50400001928E-02 0.  1.
       -1   -1    0    0    0  501  0.00000000000E+00  0.00000000000E+00 -0.10659744371E+04  0.10659744372E+04  0.50400001928E-02 0. -1.
    10030    2    1    2    0    0  0.00000000000E+00  0.00000000000E+00  0.26312676799E+03  0.23950756423E+04  0.23805780047E+04 0.  0.
        2    1    3    3  502    0 -0.83607214211E+03 -0.95133874549E+02  0.97854584165E+03  0.12905886429E+04  0.25500000920E-02 0.  1.
       -2    1    3    3    0  502  0.83607214211E+03  0.95133874549E+02 -0.71541907367E+03  0.11044869994E+04  0.25500000920E-02 0. -1.
</event>
<event>
 5   0  0.8898848E-06  0.2496544E+04  0.7818609E-02  0.8404218E-01
        1   -1    0    0  501    0  0.00000000000E+00  0.00000000000E+00  0.20361549758E+04  0.20361549759E+04  0.50400001928E-02 0.  1.
       -1   -1    0    0    0  501  0.00000000000E+00  0.00000000000E+00 -0.76525745770E+03  0.76525745772E+03  0.50400001928E-02 0. -1.
    10030    2    1    2    0    0  0.00000000000E+00  0.00000000000E+00  0.12708975181E+04  0.28014124336E+04  0.24965438352E+04 0.  0.
        5    1    3    3  502    0 -0.42667565678E+03 -0.40190680193E+03 -0.60121270740E+03  0.83967851173E+03  0.46999998093E+01 0. -1.
       -5    1    3    3    0  502  0.42667565678E+03  0.40190680193E+03  0.18721102255E+04  0.19617339218E+04  0.46999998093E+01 0.  1.
</event>
<event>
 5   0  0.2087882E-05  0.2224359E+04  0.7818609E-02  0.8508357E-01
        2   -1    0    0  501    0  0.00000000000E+00  0.00000000000E+00  0.96397946724E+03  0.96397946724E+03  0.25500000920E-02 0. -1.
       -2   -1    0    0    0  501  0.00000000000E+00  0.00000000000E+00 -0.12831639968E+04  0.12831639968E+04  0.25500000920E-02 0.  1.
    10030    2    1    2    0    0  0.00000000000E+00  0.00000000000E+00 -0.31918452952E+03  0.22471434640E+04  0.22243594548E+04 0.  0.
        2    1    3    3  502    0 -0.35179275276E+03 -0.27412273081E+03 -0.11888718577E+04  0.12697707299E+04  0.25500000920E-02 0.  1.
       -2    1    3    3    0  502  0.35179275276E+03  0.27412273081E+03  0.86968732822E+03  0.97737273408E+03  0.25500000920E-02 0. -1.
</event>
<event>
 5   0  0.2025353E-05  0.2285563E+04  0.7818609E-02  0.8483635E-01
       -2   -1    0    0    0  501  0.00000000000E+00  0.00000000000E+00  0.13357433263E+04  0.13357433263E+04  0.25500000920E-02 0. -1.
        2   -1    0    0  501    0  0.00000000000E+00  0.00000000000E+00 -0.97769493764E+03  0.97769493765E+03  0.25500000920E-02 0.  1.
    10030    2    1    2    0    0  0.00000000000E+00  0.00000000000E+00  0.35804838867E+03  0.23134382640E+04  0.22855629400E+04 0.  0.
        4    1    3    3  502    0  0.90743668141E+03  0.67443536779E+02 -0.52075263380E+03  0.10484154138E+04  0.12699999809E+01 0.  1.
       -4    1    3    3    0  502 -0.90743668141E+03 -0.67443536779E+02  0.87880102247E+03  0.12650228501E+04  0.12699999809E+01 0. -1.
</event>
<event>
 5   0  0.2122194E-05  0.2239507E+04  0.7818609E-02  0.8502162E-01
        2   -1    0    0  501    0  0.00000000000E+00  0.00000000000E+00  0.11286600468E+04  0.11286600468E+04  0.25500000920E-02 0.  1.
       -2   -1    0    0    0  501  0.00000000000E+00  0.00000000000E+00 -0.11109168545E+04  0.11109168545E+04  0.25500000920E-02 0. -1.
    10030    2    1    2    0    0  0.00000000000E+00  0.00000000000E+00  0.17743192277E+02  0.22395769013E+04  0.22395066144E+04 0.  0.
        3    1    3    3  502    0 -0.16520861525E+02 -0.11185909571E+04 -0.39387461768E+02  0.11194061151E+04  0.10100000352E+00 0.  1.
       -3    1    3    3    0  502  0.16520861525E+02  0.11185909571E+04  0.57130654046E+02  0.11201707861E+04  0.10100000352E+00 0. -1.
</event>
<event>
 5   0  0.8528103E-06  0.2414504E+04  0.7818609E-02  0.8434093E-01
       -1   -1    0    0    0  501  0.00000000000E+00  0.00000000000E+00  0.21470252090E+04  0.21470252090E+04  0.50400001928E-02 0. -1.
        1   -1    0    0  501    0  0.00000000000E+00  0.00000000000E+00 -0.67882641936E+03  0.67882641938E+03  0.50400001928E-02 0.  1.
    10030    2    1    2    0    0  0.00000000000E+00  0.00000000000E+00  0.14681987896E+04  0.28258516284E+04  0.24145040360E+04 0.  0.
        4    1    3    3  502    0  0.31000841803E+03  0.11015164423E+04  0.28383244102E+03  0.11789852244E+04  0.12699999809E+01 0.  1.
       -4    1    3    3    0  502 -0.31000841803E+03 -0.11015164423E+04  0.11843663486E+04  0.16468664040E+04  0.12699999809E+01 0. -1.
</event>
<event>
 5   0  0.9176817E-06  0.2392812E+04  0.7818609E-02  0.8442199E-01
        1   -1    0    0  501    0  0.00000000000E+00  0.00000000000E+00  0.76106143298E+03  0.76106143300E+03  0.50400001928E-02 0.  1.
       -1   -1    0    0    0  501  0.00000000000E+00  0.00000000000E+00 -0.18807782103E+04  0.18807782103E+04  0.50400001928E-02 0. -1.
    10030    2    1    2    0    0  0.00000000000E+00  0.00000000000E+00 -0.11197167773E+04  0.26418396433E+04  0.23928123703E+04 0.  0.
        3    1    3    3  502    0  0.89338460047E+01  0.22830686667E+03 -0.18564669913E+04  0.18704741482E+04  0.10100000352E+00 0. -1.
       -3    1    3    3    0  502 -0.89338460047E+01 -0.22830686667E+03  0.73675021402E+03  0.77136549510E+03  0.10100000352E+00 0.  1.
</event>
<event>
 5   0  0.8898848E-06  0.2395281E+04  0.7818609E-02  0.8441272E-01
        1   -1    0    0  501    0  0.00000000000E+00  0.00000000000E+00  0.13800494702E+04  0.13800494702E+04  0.50400001928E-02 0.  1.
       -1   -1    0    0    0  501  0.00000000000E+00  0.00000000000E+00 -0.10393414241E+04  0.10393414241E+04  0.50400001928E-02 0. -1.
    10030    2    1    2    0    0  0.00000000000E+00  0.00000000000E+00  0.34070804614E+03  0.24193908943E+04  0.23952808450E+04 0.  0.
        5    1    3    3  502    0  0.93138620659E+03  0.56385697237E+03 -0.33357211152E+03  0.11387306067E+04  0.46999998093E+01 0. -1.
       -5    1    3    3    0  502 -0.93138620659E+03 -0.56385697237E+03  0.67428015766E+03  0.12806602876E+04  0.46999998093E+01 0.  1.
</event>
<event>
 5   0  0.8898848E-06  0.2387905E+04  0.7818609E-02  0.8444045E-01
       -1   -1    0    0    0  501  0.00000000000E+00  0.00000000000E+00  0.17819895316E+04  0.17819895316E+04  0.50400001928E-02 0.  1.
        1   -1    0    0  501    0  0.00000000000E+00  0.00000000000E+00 -0.79996152294E+03  0.79996152295E+03  0.50400001928E-02 0. -1.
    10030    2    1    2    0    0  0.00000000000E+00  0.00000000000E+00  0.98202800864E+03  0.25819510545E+04  0.23879054082E+04 0.  0.
        5    1    3    3  502    0 -0.29764936816E+03 -0.24402021897E+03  0.17130599505E+04  0.17557726213E+04  0.46999998093E+01 0.  1.
       -5    1    3    3    0  502  0.29764936816E+03  0.24402021897E+03 -0.73103194184E+03  0.82617843328E+03  0.46999998093E+01 0. -1.
</event>
<event>
 5   0  0.2087882E-05  0.2437008E+04  0.7818609E-02  0.8425777E-01
       -2   -1    0    0    0  501  0.00000000000E+00  0.00000000000E+00  0.62784184843E+03  0.62784184843E+03  0.25500000920E-02 0.  1.
        2   -1    0    0  501    0  0.00000000000E+00  0.00000000000E+00 -0.23648507060E+04  0.23648507060E+04  0.25500000920E-02 0. -1.
    10030    2    1    2    0    0  0.00000000000E+00  0.00000000000E+00 -0.17370088576E+04  0.29926925544E+04  0.24370081974E+04 0.  0.
        2    1    3    3  502    0 -0.51199796940E+03  0.47776072228E+03  0.35604366409E+03  0.78559806464E+03  0.25500000920E-02 0.  1.
       -2    1    3    3    0  502  0.51199796940E+03 -0.47776072228E+03 -0.20930525217E+04  0.22070944898E+04  0.25500000920E-02 0. -1.
</event>
<event>
 5   0  0.2087882E-05  0.2341357E+04  0.7818609E-02  0.8461791E-01
       -2   -1    0    0    0  501  0.00000000000E+00  0.00000000000E+00  0.86528573415E+03  0.86528573416E+03  0.25500000920E-02 0. -1.
        2   -1    0    0  501    0  0.00000000000E+00  0.00000000000E+00 -0.15838563502E+04  0.15838563502E+04  0.25500000920E-02 0.  1.
    10030    2    1    2    0    0  0.00000000000E+00  0.00000000000E+00 -0.71857061604E+03  0.24491420843E+04  0.23413571319E+04 0.  0.
        2    1    3    3  502    0  0.11055818062E+04 -0.31110065900E+03 -0.59642303133E+03  0.12941465074E+04  0.25500000920E-02 0.  1.
       -2    1    3    3    0  502 -0.11055818062E+04  0.31110065900E+03 -0.12214758471E+03  0.11549955769E+04  0.25500000920E-02 0. -1.
</event>
<event>
 5   0  0.9176817E-06  0.2350421E+04  0.7818609E-02  0.8458302E-01
       -1   -1    0    0    0  501  0.00000000000E+00  0.00000000000E+00  0.76844167915E+03  0.76844167916E+03  0.50400001928E-02 0.  1.
        1   -1    0    0  501    0  0.00000000000E+00  0.00000000000E+00 -0.17972987689E+04  0.17972987689E+04  0.50400001928E-02 0. -1.
    10030    2    1    2    0    0  0.00000000000E+00  0.00000000000E+00 -0.10288570898E+04  0.25657404481E+04  0.23504206295E+04 0.  0.
        3    1    3    3  502    0 -0.86301147849E+03 -0.11941269359E+03  0.34653969851E+03  0.93762357918E+03  0.10100000352E+00 0.  1.
       -3    1    3    3    0  502  0.86301147849E+03  0.11941269359E+03 -0.13753967883E+04  0.16281168689E+04  0.10100000352E+00 0. -1.
</event>
<event>
 5   0  0.9038897E-06  0.2406610E+04  0.7818609E-02  0.8437033E-01
       -1   -1    0    0    0  501  0.00000000000E+00  0.00000000000E+00  0.13756603300E+04  0.13756603300E+04  0.50400001928E-02 0. -1.
        1   -1    0    0  501    0  0.00000000000E+00  0.00000000000E+00 -0.10525439359E+04  0.10525439360E+04  0.50400001928E-02 0.  1.
    10030    2    1    2    0    0  0.00000000000E+00  0.00000000000E+00  0.32311639403E+03  0.24282042659E+04  0.24066100127E+04 0.  0.
        1    1    3    3  502    0 -0.11258692249E+04  0.35562169604E+03 -0.72677062520E+02  0.11829329050E+04  0.50400001928E-02 0. -1.
       -1    1    3    3    0  502  0.11258692249E+04 -0.35562169604E+03  0.39579345655E+03  0.12452713610E+04  0.50400001928E-02 0.  1.
</event>
<event>
 5   0  0.2080257E-05  0.2369358E+04  0.7818609E-02  0.8451065E-01
        2   -1    0    0  501    0  0.00000000000E+00  0.00000000000E+00  0.10179625871E+04  0.10179625871E+04  0.25500000920E-02 0.  1.
       -2   -1    0    0    0  501  0.00000000000E+00  0.00000000000E+00 -0.13786997286E+04  0.13786997286E+04  0.25500000920E-02 0. -1.
    10030    2    1    2    0    0  0.00000000000E+00  0.00000000000E+00 -0.36073714145E+03  0.23966623157E+04  0.23693583457E+04 0.  0.
        1    1    3    3  502    0 -0.61560592382E+03 -0.11942580701E+03  0.83631677860E+03  0.10453032723E+04  0.50400001928E-02 0.  1.
       -1    1    3    3    0  502  0.61560592382E+03  0.11942580701E+03 -0.11970539201E+04  0.13513590435E+04  0.50400001928E-02 0. -1.
</event>
<event>
 5   0  0.2048028E-05  0.2385062E+04  0.7818609E-02  0.8445117E-01
        2   -1    0    0  501    0  0.00000000000E+00  0.00000000000E+00  0.12267913949E+04  0.12267913949E+04  0.25500000920E-02 0.  1.
       -2   -1    0    0    0  501  0.00000000000E+00  0.00000000000E+00 -0.11592272442E+04  0.11592272442E+04  0.25500000920E-02 0. -1.
    10030    2    1    2    0    0  0.00000000000E+00  0.00000000000E+00  0.67564150643E+02  0.23860186391E+04  0.23850618507E+04 0.  0.
        5    1    3    3  502    0 -0.48488664534E+03  0.75468793316E+03 -0.75230600124E+03  0.11707499070E+04  0.46999998093E+01 0. -1.
       -5    1    3    3    0  502  0.48488664534E+03 -0.75468793316E+03  0.81987015188E+03  0.12152687321E+04  0.46999998093E+01 0.  1.
</event>
<event>
 5   0  0.9083687E-06  0.2394937E+04  0.7818609E-02  0.8441401E-01
        1   -1    0    0  501    0  0.00000000000E+00  0.00000000000E+00  0.14428753767E+04  0.14428753767E+04  0.50400001928E-02 0. -1.
       -1   -1    0    0    0  501  0.00000000000E+00  0.00000000000E+00 -0.99380124356E+03  0.99380124357E+03  0.50400001928E-02 0.  1.
    10030    2    1    2    0    0  0.00000000000E+00  0.00000000000E+00  0.44907413311E+03  0.24366766202E+04  0.23949374469E+04 0.  0.
        2    1    3    3  502    0 -0.85777352696E+02  0.97875064348E+03 -0.47195229475E+03  0.10899768552E+04  0.25500000920E-02 0.  1.
       -2    1    3    3    0  502  0.85777352696E+02 -0.97875064348E+03  0.92102642786E+03  0.13466997650E+04  0.25500000920E-02 0. -1.
</event>
<event>
 5   0  0.9083687E-06  0.2382514E+04  0.7818609E-02  0.8446079E-01
       -1   -1    0    0    0  501  0.00000000000E+00  0.00000000000E+00  0.93081823841E+03  0.93081823842E+03  0.50400001928E-02 0.  1.
        1   -1    0    0  501    0  0.00000000000E+00  0.00000000000E+00 -0.15245651326E+04  0.15245651327E+04  0.50400001928E-02 0. -1.
    10030    2    1    2    0    0  0.00000000000E+00  0.00000000000E+00 -0.59374689424E+03  0.24553833711E+04  0.23825138246E+04 0.  0.
        2    1    3    3  502    0 -0.75975722227E+03 -0.84063718903E+03 -0.67580253905E+03  0.13193221715E+04  0.25500000920E-02 0. -1.
       -2    1    3    3    0  502  0.75975722227E+03  0.84063718903E+03  0.82055644810E+02  0.11360611996E+04  0.25500000920E-02 0.  1.
</event>
<event>
 5   0  0.9176817E-06  0.2415803E+04  0.7818609E-02  0.8433611E-01
        1   -1    0    0  501    0  0.00000000000E+00  0.00000000000E+00  0.13190021541E+04  0.13190021541E+04  0.50400001928E-02 0. -1.
       -1   -1    0    0    0  501  0.00000000000E+00  0.00000000000E+00 -0.11061590716E+04  0.11061590717E+04  0.50400001928E-02 0.  1.
    10030    2    1    2    0    0  0.00000000000E+00  0.00000000000E+00  0.21284308248E+03  0.24251612258E+04  0.24158031363E+04 0.  0.
        3    1    3    3  502    0 -0.69316020755E+03  0.94134926397E+03  0.41160026460E+03  0.12393644735E+04  0.10100000352E+00 0.  1.
       -3    1    3    3    0  502  0.69316020755E+03 -0.94134926397E+03 -0.19875718212E+03  0.11857967523E+04  0.10100000352E+00 0. -1.
</event>
<event>
 5   0  0.2122194E-05  0.2383831E+04  0.7818609E-02  0.8445582E-01
        2   -1    0    0  501    0  0.00000000000E+00  0.00000000000E+00  0.15032970992E+04  0.15032970992E+04  0.25500000920E-02 0.  1.
       -2   -1    0    0    0  501  0.00000000000E+00  0.00000000000E+00 -0.94503127695E+03  0.94503127696E+03  0.25500000920E-02 0. -1.
    10030    2    1    2    0    0  0.00000000000E+00  0.00000000000E+00  0.55826582223E+03  0.24483283761E+04  0.23838311830E+04 0.  0.
        3    1    3    3  502    0  0.42554953307E+03 -0.64830233816E+03 -0.65049439654E+03  0.10121913341E+04  0.10100000352E+00 0. -1.
       -3    1    3    3    0  502 -0.42554953307E+03  0.64830233816E+03  0.12087602188E+04  0.14361370420E+04  0.10100000352E+00 0.  1.
</event>
<event>
 5   0  0.8898848E-06  0.2413544E+04  0.7818609E-02  0.8434450E-01
        1   -1    0    0  501    0  0.00000000000E+00  0.00000000000E+00  0.12976752967E+04  0.12976752967E+04  0.50400001928E-02 0.  1.
       -1   -1    0    0    0  501  0.00000000000E+00  0.00000000000E+00 -0.11222365037E+04  0.11222365037E+04  0.50400001928E-02 0. -1.
    10030    2    1    2    0    0  0.00000000000E+00  0.00000000000E+00  0.17543879294E+03  0.24199118004E+04  0.24135439403E+04 0.  0.
        5    1    3    3  502    0 -0.10638030986E+04  0.30305839195E+03  0.57143924522E+03  0.12450246273E+04  0.46999998093E+01 0.  1.
       -5    1    3    3    0  502  0.10638030986E+04 -0.30305839195E+03 -0.39600045229E+03  0.11748871732E+04  0.46999998093E+01 0. -1.
</event>
<event>
 5   0  0.9083687E-06  0.2137043E+04  0.7818609E-02  0.8545099E-01
       -1   -1    0    0    0  501  0.00000000000E+00  0.00000000000E+00  0.73913836744E+03  0.73913836746E+03  0.50400001928E-02 0.  1.
        1   -1    0    0  501    0  0.00000000000E+00  0.00000000000E+00 -0.15446874330E+04  0.15446874330E+04  0.50400001928E-02 0. -1.
    10030    2    1    2    0    0  0.00000000000E+00  0.00000000000E+00 -0.80554906559E+03  0.22838258005E+04  0.21370425803E+04 0.  0.
        2    1    3    3  502    0 -0.72958703300E+03 -0.74541716093E+03 -0.15490921105E+03  0.10544860579E+04  0.25500000920E-02 0.  1.
       -2    1    3    3    0  502  0.72958703300E+03  0.74541716093E+03 -0.65063985454E+03  0.12293397426E+04  0.25500000920E-02 0. -1.
</event>
<event>
 5   0  0.2080257E-05  0.2411485E+04  0.7818609E-02  0.8435216E-01
       -2   -1    0    0    0  501  0.00000000000E+00  0.00000000000E+00  0.89665240774E+03  0.89665240775E+03  0.25500000920E-02 0.  1.
        2   -1    0    0  501    0  0.00000000000E+00  0.00000000000E+00 -0.16213813185E+04  0.16213813185E+04  0.25500000920E-02 0. -1.
    10030    2    1    2    0    0  0.00000000000E+00  0.00000000000E+00 -0.72472891076E+03  0.25180337263E+04  0.24114854037E+04 0.  0.
        1    1    3    3  502    0 -0.12283695127E+03  0.10128983108E+04  0.30848887344E+03  0.10659349369E+04  0.50400001928E-02 0.  1.
       -1    1    3    3    0  502  0.12283695127E+03 -0.10128983108E+04 -0.10332177842E+04  0.14520987894E+04  0.50400001928E-02 0. -1.
</event>
<event>
 5   0  0.2048028E-05  0.2388106E+04  0.7818609E-02  0.8443970E-01
       -2   -1    0    0    0  501  0.00000000000E+00  0.00000000000E+00  0.89503658471E+03  0.89503658471E+03  0.25500000920E-02 0.  1.
        2   -1    0    0  501    0  0.00000000000E+00  0.00000000000E+00 -0.15929656091E+04  0.15929656091E+04  0.25500000920E-02 0. -1.
    10030    2    1    2    0    0  0.00000000000E+00  0.00000000000E+00 -0.69792902437E+03  0.24880021938E+04  0.23881059426E+04 0.  0.
        5    1    3    3  502    0 -0.41250255357E+03 -0.21591348321E+03 -0.14944873442E+04  0.15653406980E+04  0.46999998093E+01 0. -1.
       -5    1    3    3    0  502  0.41250255357E+03  0.21591348321E+03  0.79655831982E+03  0.92266149578E+03  0.46999998093E+01 0.  1.
</event>
<event>
 5   0  0.2048028E-05  0.2419463E+04  0.7818609E-02  0.8432253E-01
        2   -1    0    0  501    0  0.00000000000E+00  0.00000000000E+00  0.21196804991E+04  0.21196804991E+04  0.25500000920E-02 0.  1.
       -2   -1    0    0    0  501  0.00000000000E+00  0.00000000000E+00 -0.69041070930E+03  0.69041070930E+03  0.25500000920E-02 0. -1.
    10030    2    1    2    0    0  0.00000000000E+00  0.00000000000E+00  0.14292697898E+04  0.28100912084E+04  0.24194628469E+04 0.  0.
        5    1    3    3  502    0  0.60948302772E+03 -0.87068780924E+03  0.43539224815E+02  0.10637126380E+04  0.46999998093E+01 0. -1.
       -5    1    3    3    0  502 -0.60948302772E+03  0.87068780924E+03  0.13857305650E+04  0.17463785703E+04  0.46999998093E+01 0.  1.
</event>
<event>
 5   0  0.2048028E-05  0.2442310E+04  0.7818609E-02  0.8423831E-01
        2   -1    0    0  501    0  0.00000000000E+00  0.00000000000E+00  0.90164021859E+03  0.90164021859E+03  0.25500000920E-02 0.  1.
       -2   -1    0    0    0  501  0.00000000000E+00  0.00000000000E+00 -0.16538958085E+04  0.16538958085E+04  0.25500000920E-02 0. -1.
    10030    2    1    2    0    0  0.00000000000E+00  0.00000000000E+00 -0.75225558995E+03  0.25555360271E+04  0.24423095449E+04 0.  0.
        5    1    3    3  502    0  0.53729952726E+03 -0.10925032085E+04 -0.47507856372E+03  0.13068954718E+04  0.46999998093E+01 0.  1.
       -5    1    3    3    0  502 -0.53729952726E+03  0.10925032085E+04 -0.27717702623E+03  0.12486405553E+04  0.46999998093E+01 0. -1.
</event>
<event>
 5   0  0.2087882E-05  0.2400889E+04  0.7818609E-02  0.8439171E-01
       -2   -1    0    0    0  501  0.00000000000E+00  0.00000000000E+00  0.71495701616E+03  0.71495701616E+03  0.25500000920E-02 0. -1.
        2   -1    0    0  501    0  0.00000000000E+00  0.00000000000E+00 -0.20155995311E+04  0.20155995311E+04  0.25500000920E-02 0.  1.
    10030    2    1    2    0    0  0.00000000000E+00  0.00000000000E+00 -0.13006425149E+04  0.27305565472E+04  0.24008890241E+04 0.  0.
        2    1    3    3  502    0  0.93943597796E+03  0.73869128391E+03 -0.77930580313E+03  0.14267173176E+04  0.25500000920E-02 0. -1.
       -2    1    3    3    0  502 -0.93943597796E+03 -0.73869128391E+03 -0.52133671178E+03  0.13038392296E+04  0.25500000920E-02 0.  1.
</event>
<event>
 5   0  0.2025353E-05  0.2403874E+04  0.7818609E-02  0.8438055E-01
        2   -1    0    0  501    0  0.00000000000E+00  0.00000000000E+00  0.25484237797E+04  0.25484237797E+04  0.25500000920E-02 0.  1.
       -2   -1    0    0    0  501  0.00000000000E+00  0.00000000000E+00 -0.56688093082E+03  0.56688093082E+03  0.25500000920E-02 0. -1.
    10030    2    1    2    0    0  0.00000000000E+00  0.00000000000E+00  0.19815428489E+04  0.31153047105E+04  0.24038742433E+04 0.  0.
        4    1    3    3  502    0  0.57503820610E+02  0.22463707583E+02 -0.56482399077E+03  0.56818928272E+03  0.12699999809E+01 0. -1.
       -4    1    3    3    0  502 -0.57503820610E+02 -0.22463707583E+02  0.25463668396E+04  0.25471154278E+04  0.12699999809E+01 0.  1.
</event>
<event>
 5   0  0.2122194E-05  0.2404147E+04  0.7818609E-02  0.8437952E-01
        2   -1    0    0  501    0  0.00000000000E+00  0.00000000000E+00  0.19855544760E+04  0.19855544760E+04  0.25500000920E-02 0.  1.
       -2   -1    0    0    0  501  0.00000000000E+00  0.00000000000E+00 -0.72774696483E+03  0.72774696483E+03  0.25500000920E-02 0. -1.
    10030    2    1    2    0    0  0.00000000000E+00  0.00000000000E+00  0.12578075112E+04  0.27133014408E+04  0.24041474525E+04 0.  0.
        3    1    3    3  502    0  0.77584385742E+03  0.10386265065E+03 -0.40069137502E+03  0.87936040934E+03  0.10100000352E+00 0. -1.
       -3    1    3    3    0  502 -0.77584385742E+03 -0.10386265065E+03  0.16584988862E+04  0.18339410315E+04  0.10100000352E+00 0.  1.
</event>
<event>
 5   0  0.2048028E-05  0.2391676E+04  0.7818609E-02  0.8442626E-01
       -2   -1    0    0    0  501  0.00000000000E+00  0.00000000000E+00  0.12192197450E+04  0.12192197450E+04  0.25500000920E-02 0. -1.
        2   -1    0    0  501    0  0.00000000000E+00  0.00000000000E+00 -0.11729050283E+04  0.11729050283E+04  0.25500000920E-02 0.  1.
    10030    2    1    2    0    0  0.00000000000E+00  0.00000000000E+00  0.46314716714E+02  0.23921247733E+04  0.23916763740E+04 0.  0.
        5    1    3    3  502    0  0.65927516375E+02  0.11364241723E+04 -0.34324524542E+03  0.11889683450E+04  0.46999998093E+01 0.  1.
       -5    1    3    3    0  502 -0.65927516375E+02 -0.11364241723E+04  0.38955996213E+03  0.12031564283E+04  0.46999998093E+01 0. -1.
</event>
<event>
 5   0  0.2025353E-05  0.2369824E+04  0.7818609E-02  0.8450888E-01
        2   -1    0    0  501    0  0.00000000000E+00  0.00000000000E+00  0.13862754745E+04  0.13862754745E+04  0.25500000920E-02 0. -1.
       -2   -1    0    0    0  501  0.00000000000E+00  0.00000000000E+00 -0.10127971907E+04  0.10127971907E+04  0.25500000920E-02 0.  1.
    10030    2    1    2    0    0  0.00000000000E+00  0.00000000000E+00  0.37347828378E+03  0.23990726652E+04  0.23698235428E+04 0.  0.
        4    1    3    3  502    0 -0.67212052525E+03 -0.96415248170E+03  0.33919092016E+03  0.12232694313E+04  0.12699999809E+01 0. -1.
       -4    1    3    3    0  502  0.67212052525E+03  0.96415248170E+03  0.34287363625E+02  0.11758032338E+04  0.12699999809E+01 0.  1.
</event>
<event>
 5   0  0.7233625E-06  0.2400377E+04  0.7818609E-02  0.8439362E-01
       -3   -1    0    0    0  501  0.00000000000E+00  0.00000000000E+00  0.15157693293E+04  0.15157693327E+04  0.10100000352E+00 0.  1.
        3   -1    0    0  501    0  0.00000000000E+00  0.00000000000E+00 -0.95031123677E+03  0.95031124214E+03  0.10100000352E+00 0. -1.
    10030    2    1    2    0    0  0.00000000000E+00  0.00000000000E+00  0.56545809255E+03  0.24660805748E+04  0.24003771677E+04 0.  0.
        1    1    3    3  502    0  0.46320827801E+03 -0.59594384608E+03  0.12414063306E+04  0.14528594750E+04  0.50400001928E-02 0.  1.
       -1    1    3    3    0  502 -0.46320827801E+03  0.59594384608E+03 -0.67594823805E+03  0.10132210998E+04  0.50400001928E-02 0. -1.
</event>
<event>
 5   0  0.2080257E-05  0.2422496E+04  0.7818609E-02  0.8431129E-01
        2   -1    0    0  501    0  0.00000000000E+00  0.00000000000E+00  0.17954581379E+04  0.17954581379E+04  0.25500000920E-02 0.  1.
       -2   -1    0    0    0  501  0.00000000000E+00  0.00000000000E+00 -0.81712963857E+03  0.81712963857E+03  0.25500000920E-02 0. -1.
    10030    2    1    2    0    0  0.00000000000E+00  0.00000000000E+00  0.97832849931E+03  0.26125877765E+04  0.24224962822E+04 0.  0.
        1    1    3    3  502    0 -0.44032054000E+02 -0.71628230910E+03 -0.56317137965E+03  0.91222868350E+03  0.50400001928E-02 0. -1.
       -1    1    3    3    0  502  0.44032054000E+02  0.71628230910E+03  0.15414998790E+04  0.17003590930E+04  0.50400001928E-02 0.  1.
</event>
<event>
 5   0  0.9083687E-06  0.2445091E+04  0.7818609E-02  0.8422813E-01
       -1   -1    0    0    0  501  0.00000000000E+00  0.00000000000E+00  0.13128136379E+04  0.13128136379E+04  0.50400001928E-02 0. -1.
        1   -1    0    0  501    0  0.00000000000E+00  0.00000000000E+00 -0.11384838955E+04  0.11384838955E+04  0.50400001928E-02 0.  1.
    10030    2    1    2    0    0  0.00000000000E+00  0.00000000000E+00  0.17432974235E+03  0.24512975334E+04  0.24450907423E+04 0.  0.
        2    1    3    3  502    0  0.81216448398E+03 -0.30285031536E+03  0.95149475019E+03  0.12871176023E+04  0.25500000920E-02 0. -1.
       -2    1    3    3    0  502 -0.81216448398E+03  0.30285031536E+03 -0.77716500784E+03  0.11641799311E+04  0.25500000920E-02 0.  1.
</event>
<event>
 5   0  0.2122194E-05  0.2407454E+04  0.7818609E-02  0.8436718E-01
       -2   -1    0    0    0  501  0.00000000000E+00  0.00000000000E+00  0.65037443029E+03  0.65037443030E+03  0.25500000920E-02 0.  1.
        2   -1    0    0  501    0  0.00000000000E+00  0.00000000000E+00 -0.22278835733E+04  0.22278835733E+04  0.25500000920E-02 0. -1.
    10030    2    1    2    0    0  0.00000000000E+00  0.00000000000E+00 -0.15775091430E+04  0.28782580036E+04  0.24074538498E+04 0.  0.
        3    1    3    3  502    0 -0.94744373052E+03 -0.65947336343E+03 -0.11966560267E+04  0.16626907097E+04  0.10100000352E+00 0. -1.
       -3    1    3    3    0  502  0.94744373052E+03  0.65947336343E+03 -0.38085311624E+03  0.12155672939E+04  0.10100000352E+00 0.  1.
</event>
<event>
 5   0  0.8528103E-06  0.2343845E+04  0.7818609E-02  0.8460832E-01
       -1   -1    0    0    0  501  0.00000000000E+00  0.00000000000E+00  0.22112189556E+04  0.22112189556E+04  0.50400001928E-02 0.  1.
        1   -1    0    0  501    0  0.00000000000E+00  0.00000000000E+00 -0.62110630414E+03  0.62110630416E+03  0.50400001928E-02 0. -1.
    10030    2    1    2    0    0  0.00000000000E+00  0.00000000000E+00  0.15901126514E+04  0.28323252597E+04  0.23438447331E+04 0.  0.
        4    1    3    3  502    0  0.11918864091E+03  0.22812236052E+03 -0.58652920887E+03  0.64051843787E+03  0.12699999809E+01 0. -1.
       -4    1    3    3    0  502 -0.11918864091E+03 -0.22812236052E+03  0.21766418603E+04  0.21918068219E+04  0.12699999809E+01 0.  1.
</event>
<event>
 5   0  0.9038897E-06  0.2407475E+04  0.7818609E-02  0.8436710E-01
        1   -1    0    0  501    0  0.00000000000E+00  0.00000000000E+00  0.18628510263E+04  0.18628510263E+04  0.50400001928E-02 0.  1.
       -1   -1    0    0    0  501  0.00000000000E+00  0.00000000000E+00 -0.77783136750E+03  0.77783136752E+03  0.50400001928E-02 0. -1.
    10030    2    1    2    0    0  0.00000000000E+00  0.00000000000E+00  0.10850196588E+04  0.26406823938E+04  0.24074749937E+04 0.  0.
        1    1    3    3  502    0  0.19284070101E+02 -0.10211553747E+04  0.12412877696E+04  0.16074593312E+04  0.50400001928E-02 0.  1.
       -1    1    3    3    0  502 -0.19284070101E+02  0.10211553747E+04 -0.15626811081E+03  0.10332230626E+04  0.50400001928E-02 0. -1.
</event>
<event>
 5   0  0.8898848E-06  0.2395413E+04  0.7818609E-02  0.8441223E-01
        1   -1    0    0  501    0  0.00000000000E+00  0.00000000000E+00  0.11829581815E+04  0.11829581815E+04  0.50400001928E-02 0.  1.
       -1   -1    0    0    0  501  0.00000000000E+00  0.00000000000E+00 -0.12126383792E+04  0.12126383792E+04  0.50400001928E-02 0. -1.
    10030    2    1    2    0    0  0.00000000000E+00  0.00000000000E+00 -0.29680197730E+02  0.23955965607E+04  0.23954126925E+04 0.  0.
        5    1    3    3  502    0 -0.22769819826E+03 -0.99695378546E+03  0.60867795114E+03  0.11900732154E+04  0.46999998093E+01 0. -1.
       -5    1    3    3    0  502  0.22769819826E+03  0.99695378546E+03 -0.63835814887E+03  0.12055233453E+04  0.46999998093E+01 0.  1.
</event>
<event>
 5   0  0.2025353E-05  0.2393240E+04  0.7818609E-02  0.8442039E-01
       -2   -1    0    0    0  501  0.00000000000E+00  0.00000000000E+00  0.83617025703E+03  0.83617025703E+03  0.25500000920E-02 0.  1.
        2   -1    0    0  501    0  0.00000000000E+00  0.00000000000E+00 -0.17124497367E+04  0.17124497367E+04  0.25500000920E-02 0. -1.
    10030    2    1    2    0    0  0.00000000000E+00  0.00000000000E+00 -0.87627947972E+03  0.25486199938E+04  0.23932400937E+04 0.  0.
        4    1    3    3  502    0 -0.99515676870E+03 -0.57206714721E+03 -0.79817259710E+03  0.13980983237E+04  0.12699999809E+01 0. -1.
       -4    1    3    3    0  502  0.99515676870E+03  0.57206714721E+03 -0.78106882619E+02  0.11505216700E+04  0.12699999809E+01 0.  1.
</event>
<event>
 5   0  0.9083687E-06  0.2409396E+04  0.7818609E-02  0.8435994E-01
        1   -1    0    0  501    0  0.00000000000E+00  0.00000000000E+00  0.91462810662E+03  0.91462810663E+03  0.50400001928E-02 0.  1.
       -1   -1    0    0    0  501  0.00000000000E+00  0.00000000000E+00 -0.15867626347E+04  0.15867626347E+04  0.50400001928E-02 0. -1.
    10030    2    1    2    0    0  0.00000000000E+00  0.00000000000E+00 -0.67213452811E+03  0.25013907414E+04  0.24093963595E+04 0.  0.
        2    1    3    3  502    0  0.79760844121E+03  0.81941150029E+03 -0.72959594770E+03  0.13564382327E+04  0.25500000920E-02 0. -1.
       -2    1    3    3    0  502 -0.79760844121E+03 -0.81941150029E+03  0.57461419592E+02  0.11449525086E+04  0.25500000920E-02 0.  1.
</event>
<event>
 5   0  0.2087882E-05  0.2393925E+04  0.7818609E-02  0.8441781E-01
       -2   -1    0    0    0  501  0.00000000000E+00  0.00000000000E+00  0.82253092501E+03  0.82253092501E+03  0.25500000920E-02 0. -1.
        2   -1    0    0  501    0  0.00000000000E+00  0.00000000000E+00 -0.17418426635E+04  0.17418426635E+04  0.25500000920E-02 0.  1.
    10030    2    1    2    0    0  0.00000000000E+00  0.00000000000E+00 -0.91931173847E+03  0.25643735885E+04  0.23939251928E+04 0.  0.
        2    1    3    3  502    0 -0.36759786060E+03  0.56833781709E+03 -0.15171554992E+04  0.16612937339E+04  0.25500000920E-02 0.  1.
       -2    1    3    3    0  502  0.36759786060E+03 -0.56833781709E+03  0.59784376077E+03  0.90307985458E+03  0.25500000920E-02 0. -1.
</event>
<event>
 5   0  0.2080257E-05  0.2256214E+04  0.7818609E-02  0.8495388E-01
        2   -1    0    0  501    0  0.00000000000E+00  0.00000000000E+00  0.71741421520E+03  0.71741421521E+03  0.25500000920E-02 0.  1.
       -2   -1    0    0    0  501  0.00000000000E+00  0.00000000000E+00 -0.17739057624E+04  0.17739057624E+04  0.25500000920E-02 0. -1.
    10030    2    1    2    0    0  0.00000000000E+00  0.00000000000E+00 -0.10564915472E+04  0.24913199777E+04  0.22562138289E+04 0.  0.
        1    1    3    3  502    0  0.44227407143E+03  0.30917830744E+03  0.56565617032E+03  0.78177009606E+03  0.50400001928E-02 0.  1.
       -1    1    3    3    0  502 -0.44227407143E+03 -0.30917830744E+03 -0.16221477176E+04  0.17095498816E+04  0.50400001928E-02 0. -1.
</event>
<event>
 5   0  0.2048028E-05  0.2437684E+04  0.7818609E-02  0.8425528E-01
       -2   -1    0    0    0  501  0.00000000000E+00  0.00000000000E+00  0.17981582413E+04  0.17981582413E+04  0.25500000920E-02 0. -1.
        2   -1    0    0  501    0  0.00000000000E+00  0.00000000000E+00 -0.82616524058E+03  0.82616524058E+03  0.25500000920E-02 0.  1.
    10030    2    1    2    0    0  0.00000000000E+00  0.00000000000E+00  0.97199300067E+03  0.26243234818E+04  0.24376840123E+04 0.  0.
        5    1    3    3  502    0  0.21583344142E+03 -0.11051475917E+04 -0.16216367150E+02  0.11261528912E+04  0.46999998093E+01 0.  1.
       -5    1    3    3    0  502 -0.21583344142E+03  0.11051475917E+04  0.98820936782E+03  0.14981705906E+04  0.46999998093E+01 0. -1.
</event>
<event>
 5   0  0.9083687E-06  0.2353410E+04  0.7818609E-02  0.8457155E-01
        1   -1    0    0  501    0  0.00000000000E+00  0.00000000000E+00  0.14023616168E+04  0.14023616168E+04  0.50400001928E-02 0.  1.
       -1   -1    0    0    0  501  0.00000000000E+00  0.00000000000E+00 -0.98735959093E+03  0.98735959094E+03  0.50400001928E-02 0. -1.
    10030    2    1    2    0    0  0.00000000000E+00  0.00000000000E+00  0.41500202587E+03  0.23897212078E+04  0.23534104549E+04 0.  0.
        2    1    3    3  502    0 -0.41951759558E+03  0.10667769454E+04  0.47735903483E+03  0.12417244914E+04  0.25500000920E-02 0.  1.
       -2    1    3    3    0  502  0.41951759558E+03 -0.10667769454E+04 -0.62357008957E+02  0.11479967164E+04  0.25500000920E-02 0. -1.
</event>
<event>
 5   0  0.8528103E-06  0.2394908E+04  0.7818609E-02  0.8441412E-01
        1   -1    0    0  501    0  0.00000000000E+00  0.00000000000E+00  0.16012091595E+04  0.16012091595E+04  0.50400001928E-02 0. -1.
       -1   -1    0    0    0  501  0.00000000000E+00  0.00000000000E+00 -0.89550818666E+03  0.89550818667E+03  0.50400001928E-02 0.  1.
    10030    2    1    2    0    0  0.00000000000E+00  0.00000000000E+00  0.70570097285E+03  0.24967173462E+04  0.23949078570E+04 0.  0.
        4    1    3    3  502    0 -0.46345511956E+03 -0.69622076684E+03  0.12462404662E+04  0.15008767160E+04  0.12699999809E+01 0. -1.
       -4    1    3    3    0  502  0.46345511956E+03  0.69622076684E+03 -0.54053949335E+03  0.99584063022E+03  0.12699999809E+01 0.  1.
</event>
<event>
 5   0  0.2025353E-05  0.2457367E+04  0.7818609E-02  0.8418333E-01
        2   -1    0    0  501    0  0.00000000000E+00  0.00000000000E+00  0.97183833125E+03  0.97183833126E+03  0.25500000920E-02 0.  1.
       -2   -1    0    0    0  501  0.00000000000E+00  0.00000000000E+00 -0.15534102614E+04  0.15534102614E+04  0.25500000920E-02 0. -1.
    10030    2    1    2    0    0  0.00000000000E+00  0.00000000000E+00 -0.58157193016E+03  0.25252485927E+04  0.24573674013E+04 0.  0.
        4    1    3    3  502    0  0.62853644760E+03  0.10320769929E+04 -0.62336589029E+02  0.12100117555E+04  0.12699999809E+01 0. -1.
       -4    1    3    3    0  502 -0.62853644760E+03 -0.10320769929E+04 -0.51923534113E+03  0.13152368371E+04  0.12699999809E+01 0.  1.
</event>
<event>
 5   0  0.2122194E-05  0.2258228E+04  0.7818609E-02  0.8494576E-01
       -2   -1    0    0    0  501  0.00000000000E+00  0.00000000000E+00  0.73899071727E+03  0.73899071728E+03  0.25500000920E-02 0. -1.
        2   -1    0    0  501    0  0.00000000000E+00  0.00000000000E+00 -0.17251889285E+04  0.17251889285E+04  0.25500000920E-02 0.  1.
    10030    2    1    2    0    0  0.00000000000E+00  0.00000000000E+00 -0.98619821125E+03  0.24641796458E+04  0.22582281583E+04 0.  0.
        3    1    3    3  502    0  0.10237827748E+04  0.28851704117E+03 -0.79700658805E+02  0.10666421416E+04  0.10100000352E+00 0. -1.
       -3    1    3    3    0  502 -0.10237827748E+04 -0.28851704117E+03 -0.90649755245E+03  0.13975375042E+04  0.10100000352E+00 0.  1.
</event>
<event>
 5   0  0.9038897E-06  0.2377977E+04  0.7818609E-02  0.8447795E-01
        1   -1    0    0  501    0  0.00000000000E+00  0.00000000000E+00  0.20136229410E+04  0.20136229410E+04  0.50400001928E-02 0.  1.
       -1   -1    0    0    0  501  0.00000000000E+00  0.00000000000E+00 -0.70206492085E+03  0.70206492087E+03  0.50400001928E-02 0. -1.
    10030    2    1    2    0    0  0.00000000000E+00  0.00000000000E+00  0.13115580201E+04  0.27156878619E+04  0.23779773176E+04 0.  0.
        1    1    3    3  502    0  0.31780539433E+02 -0.11698934003E+02  0.20130720497E+04  0.20133568847E+04  0.50400001928E-02 0.  1.
       -1    1    3    3    0  502 -0.31780539433E+02  0.11698934003E+02 -0.70151402960E+03  0.70233097717E+03  0.50400001928E-02 0. -1.
</event>
<event>
 5   0  0.9038897E-06  0.2423181E+04  0.7818609E-02  0.8430876E-01
       -1   -1    0    0    0  501  0.00000000000E+00  0.00000000000E+00  0.28978813987E+04  0.28978813987E+04  0.50400001928E-02 0. -1.
        1   -1    0    0  501    0  0.00000000000E+00  0.00000000000E+00 -0.50656031702E+03  0.50656031705E+03  0.50400001928E-02 0.  1.
    10030    2    1    2    0    0  0.00000000000E+00  0.00000000000E+00  0.23913210817E+04  0.34044417158E+04  0.24231811489E+04 0.  0.
        1    1    3    3  502    0 -0.83115701933E+03  0.87925291262E+03  0.12850050787E+04  0.17649775430E+04  0.50400001928E-02 0.  1.
       -1    1    3    3    0  502  0.83115701933E+03 -0.87925291262E+03  0.11063160030E+04  0.16394641727E+04  0.50400001928E-02 0. -1.
</event>
<event>
 5   0  0.9083687E-06  0.2399775E+04  0.7818609E-02  0.8439588E-01
       -1   -1    0    0    0  501  0.00000000000E+00  0.00000000000E+00  0.63711863190E+03  0.63711863192E+03  0.50400001928E-02 0. -1.
        1   -1    0    0  501    0  0.00000000000E+00  0.00000000000E+00 -0.22597516267E+04  0.22597516267E+04  0.50400001928E-02 0.  1.
    10030    2    1    2    0    0  0.00000000000E+00  0.00000000000E+00 -0.16226329948E+04  0.28968702586E+04  0.23997748768E+04 0.  0.
        2    1    3    3  502    0  0.79931614608E+03 -0.80119545786E+03 -0.12925250516E+04  0.17179759813E+04  0.25500000920E-02 0.  1.
       -2    1    3    3    0  502 -0.79931614608E+03  0.80119545786E+03 -0.33010794320E+03  0.11788942774E+04  0.25500000920E-02 0. -1.
</event>
<event>
 5   0  0.9083687E-06  0.2421267E+04  0.7818609E-02  0.8431584E-01
       -1   -1    0    0    0  501  0.00000000000E+00  0.00000000000E+00  0.20179176530E+04  0.20179176530E+04  0.50400001928E-02 0. -1.
        1   -1    0    0  501    0  0.00000000000E+00  0.00000000000E+00 -0.72630968355E+03  0.72630968357E+03  0.50400001928E-02 0.  1.
    10030    2    1    2    0    0  0.00000000000E+00  0.00000000000E+00  0.12916079694E+04  0.27442273365E+04  0.24212667197E+04 0.  0.
        2    1    3    3  502    0  0.33673474800E+02  0.11581777175E+04  0.24811083269E+03  0.11849339701E+04  0.25500000920E-02 0.  1.
       -2    1    3    3    0  502 -0.33673474800E+02 -0.11581777175E+04  0.10434971367E+04  0.15592933664E+04  0.25500000920E-02 0. -1.
</event>
<event>
 5   0  0.2048028E-05  0.2405395E+04  0.7818609E-02  0.8437487E-01
       -2   -1    0    0    0  501  0.00000000000E+00  0.00000000000E+00  0.70028541104E+03  0.70028541105E+03  0.25500000920E-02 0. -1.
        2   -1    0    0  501    0  0.00000000000E+00  0.00000000000E+00 -0.20655594295E+04  0.20655594295E+04  0.25500000920E-02 0.  1.
    10030    2    1    2    0    0  0.00000000000E+00  0.00000000000E+00 -0.13652740185E+04  0.27658448406E+04  0.24053948816E+04 0.  0.
        5    1    3    3  502    0 -0.68667081430E+03 -0.75657210540E+03  0.46898490679E+02  0.10228097166E+04  0.46999998093E+01 0. -1.
       -5    1    3    3    0  502  0.68667081430E+03  0.75657210540E+03 -0.14121725092E+04  0.17430351240E+04  0.46999998093E+01 0.  1.
</event>
<event>
 5   0  0.8898848E-06  0.2399333E+04  0.7818609E-02  0.8439753E-01
       -1   -1    0    0    0  501  0.00000000000E+00  0.00000000000E+00  0.90028410124E+03  0.90028410125E+03  0.50400001928E-02 0. -1.
        1   -1    0    0  501    0  0.00000000000E+00  0.00000000000E+00 -0.15986066481E+04  0.15986066481E+04  0.50400001928E-02 0.  1.
    10030    2    1    2    0    0  0.00000000000E+00  0.00000000000E+00 -0.69832254689E+03  0.24988907494E+04  0.23993333653E+04 0.  0.
        5    1    3    3  502    0 -0.15548314387E+03  0.60143063946E+03  0.71972000004E+03  0.95074328321E+03  0.46999998093E+01 0. -1.
       -5    1    3    3    0  502  0.15548314387E+03 -0.60143063946E+03 -0.14180425469E+04  0.15481474662E+04  0.46999998093E+01 0.  1.
</event>
<event>
 5   0  0.9176817E-06  0.2388658E+04  0.7818609E-02  0.8443762E-01
        1   -1    0    0  501    0  0.00000000000E+00  0.00000000000E+00  0.12186151624E+04  0.12186151624E+04  0.50400001928E-02 0. -1.
       -1   -1    0    0    0  501  0.00000000000E+00  0.00000000000E+00 -0.11705268800E+04  0.11705268800E+04  0.50400001928E-02 0.  1.
    10030    2    1    2    0    0  0.00000000000E+00  0.00000000000E+00  0.48088282339E+02  0.23891420424E+04  0.23886580366E+04 0.  0.
        3    1    3    3  502    0  0.64224973047E+03 -0.53383784122E+03 -0.82991702761E+03  0.11773826226E+04  0.10100000352E+00 0.  1.
       -3    1    3    3    0  502 -0.64224973047E+03  0.53383784122E+03  0.87800530995E+03  0.12117594198E+04  0.10100000352E+00 0. -1.
</event>
<event>
 5   0  0.8898848E-06  0.2407564E+04  0.7818609E-02  0.8436677E-01
       -1   -1    0    0    0  501  0.00000000000E+00  0.00000000000E+00  0.90235885421E+03  0.90235885423E+03  0.50400001928E-02 0. -1.
        1   -1    0    0  501    0  0.00000000000E+00  0.00000000000E+00 -0.16058922017E+04  0.16058922017E+04  0.50400001928E-02 0.  1.
    10030    2    1    2    0    0  0.00000000000E+00  0.00000000000E+00 -0.70353334752E+03  0.25082510560E+04  0.24075639532E+04 0.  0.
        5    1    3    3  502    0  0.10272260968E+04 -0.32312481121E+03 -0.91228761937E+03  0.14113447092E+04  0.46999998093E+01 0.  1.
       -5    1    3    3    0  502 -0.10272260968E+04  0.32312481121E+03  0.20875427184E+03  0.10969063468E+04  0.46999998093E+01 0. -1.
</event>
<event>
 5   0  0.8528103E-06  0.2385342E+04  0.7818609E-02  0.8445012E-01
       -1   -1    0    0    0  501  0.00000000000E+00  0.00000000000E+00  0.20333203195E+04  0.20333203195E+04  0.50400001928E-02 0. -1.
        1   -1    0    0  501    0  0.00000000000E+00  0.00000000000E+00 -0.69957692378E+03  0.69957692380E+03  0.50400001928E-02 0.  1.
    10030    2    1    2    0    0  0.00000000000E+00  0.00000000000E+00  0.13337433957E+04  0.27328972433E+04  0.23853418826E+04 0.  0.
        4    1    3    3  502    0 -0.35335414018E+03 -0.60902055102E+03 -0.43604215063E+03  0.82819052758E+03  0.12699999809E+01 0.  1.
       -4    1    3    3    0  502  0.35335414018E+03  0.60902055102E+03  0.17697855463E+04  0.19047067157E+04  0.12699999809E+01 0. -1.
</event>
<event>
 5   0  0.2087882E-05  0.2400930E+04  0.7818609E-02  0.8439155E-01
       -2   -1    0    0    0  501  0.00000000000E+00  0.00000000000E+00  0.14201008135E+04  0.14201008135E+04  0.25500000920E-02 0. -1.
        2   -1    0    0  501    0  0.00000000000E+00  0.00000000000E+00 -0.10147987649E+04  0.10147987649E+04  0.25500000920E-02 0.  1.
    10030    2    1    2    0    0  0.00000000000E+00  0.00000000000E+00  0.40530204859E+03  0.24348995784E+04  0.24009302794E+04 0.  0.
        2    1    3    3  502    0  0.80272492685E+03  0.55874425426E+03  0.90859891161E+03  0.13349585881E+04  0.25500000920E-02 0. -1.
       -2    1    3    3    0  502 -0.80272492685E+03 -0.55874425426E+03 -0.50329686301E+03  0.10999409903E+04  0.25500000920E-02 0.  1.
</event>
<event>
 5   0  0.2080257E-05  0.2394623E+04  0.7818609E-02  0.8441519E-01
        2   -1    0    0  501    0  0.00000000000E+00  0.00000000000E+00  0.12900332930E+04  0.12900332930E+04  0.25500000920E-02 0. -1.
       -2   -1    0    0    0  501  0.00000000000E+00  0.00000000000E+00 -0.11112543482E+04  0.11112543482E+04  0.25500000920E-02 0.  1.
    10030    2    1    2    0    0  0.00000000000E+00  0.00000000000E+00  0.17877894480E+03  0.24012876412E+04  0.23946232323E+04 0.  0.
        1    1    3    3  502    0 -0.61693530427E+03 -0.82286251713E+03 -0.52537725000E+03  0.11548736496E+04  0.50400001928E-02 0.  1.
       -1    1    3    3    0  502  0.61693530427E+03  0.82286251713E+03  0.70415619480E+03  0.12464139916E+04  0.50400001928E-02 0. -1.
</event>
<event>
 5   0  0.8898848E-06  0.2425773E+04  0.7818609E-02  0.8429917E-01
        1   -1    0    0  501    0  0.00000000000E+00  0.00000000000E+00  0.15722746982E+04  0.15722746982E+04  0.50400001928E-02 0.  1.
       -1   -1    0    0    0  501  0.00000000000E+00  0.00000000000E+00 -0.93564683708E+03  0.93564683710E+03  0.50400001928E-02 0. -1.
    10030    2    1    2    0    0  0.00000000000E+00  0.00000000000E+00  0.63662786116E+03  0.25079215353E+04  0.24257731538E+04 0.  0.
        5    1    3    3  502    0  0.20441360925E+03  0.79415760550E+03  0.12422215677E+04  0.14884917666E+04  0.46999998093E+01 0.  1.
       -5    1    3    3    0  502 -0.20441360925E+03 -0.79415760550E+03 -0.60559370652E+03  0.10194297687E+04  0.46999998093E+01 0. -1.
</event>
<event>
 5   0  0.9083687E-06  0.2405423E+04  0.7818609E-02  0.8437476E-01
       -1   -1    0    0    0  501  0.00000000000E+00  0.00000000000E+00  0.11356989520E+04  0.11356989520E+04  0.50400001928E-02 0.  1.
        1   -1    0    0  501    0  0.00000000000E+00  0.00000000000E+00 -0.12736784189E+04  0.12736784189E+04  0.50400001928E-02 0. -1.
    10030    2    1    2    0    0  0.00000000000E+00  0.00000000000E+00 -0.13797946694E+03  0.24093773709E+04  0.24054232439E+04 0.  0.
        2    1    3    3  502    0 -0.38154415068E+02 -0.10208543011E+04 -0.70478980302E+03  0.12410994843E+04  0.25500000920E-02 0. -1.
       -2    1    3    3    0  502  0.38154415068E+02  0.10208543011E+04  0.56681033608E+03  0.11682778867E+04  0.25500000920E-02 0.  1.
</event>
<event>
 5   0  0.9176817E-06  0.2405163E+04  0.7818609E-02  0.8437573E-01
        1   -1    0    0  501    0  0.00000000000E+00  0.00000000000E+00  0.11882449345E+04  0.11882449345E+04  0.50400001928E-02 0. -1.
       -1   -1    0    0    0  501  0.00000000000E+00  0.00000000000E+00 -0.12170912997E+04  0.12170912997E+04  0.50400001928E-02 0.  1.
    10030    2    1    2    0    0  0.00000000000E+00  0.00000000000E+00 -0.28846365253E+02  0.24053362342E+04  0.24051632558E+04 0.  0.
        3    1    3    3  502    0  0.52425041976E+03 -0.13598719332E+03  0.10593725970E+04  0.11897904558E+04  0.10100000352E+00 0. -1.
       -3    1    3    3    0  502 -0.52425041976E+03  0.13598719332E+03 -0.10882189622E+04  0.12155457784E+04  0.10100000352E+00 0.  1.
</event>
<event>
 5   0  0.2087882E-05  0.2368051E+04  0.7818609E-02  0.8451562E-01
        2   -1    0    0  501    0  0.00000000000E+00  0.00000000000E+00  0.78497741427E+03  0.78497741428E+03  0.25500000920E-02 0. -1.
       -2   -1    0    0    0  501  0.00000000000E+00  0.00000000000E+00 -0.17859328453E+04  0.17859328454E+04  0.25500000920E-02 0.  1.
    10030    2    1    2    0    0  0.00000000000E+00  0.00000000000E+00 -0.10009554311E+04  0.25709102596E+04  0.23680514750E+04 0.  0.
        2    1    3    3  502    0  0.91658172408E+03  0.18784750258E+03  0.28729031289E+03  0.97874637421E+03  0.25500000920E-02 0. -1.
       -2    1    3    3    0  502 -0.91658172408E+03 -0.18784750258E+03 -0.12882457440E+04  0.15921638854E+04  0.25500000920E-02 0.  1.
</event>
<event>
 5   0  0.2080257E-05  0.2392787E+04  0.7818609E-02  0.8442209E-01
       -2   -1    0    0    0  501  0.00000000000E+00  0.00000000000E+00  0.18143618608E+04  0.18143618608E+04  0.25500000920E-02 0. -1.
        2   -1    0    0  501    0  0.00000000000E+00  0.00000000000E+00 -0.78890432684E+03  0.78890432685E+03  0.25500000920E-02 0.  1.
    10030    2    1    2    0    0  0.00000000000E+00  0.00000000000E+00  0.10254575340E+04  0.26032661877E+04  0.23927874310E+04 0.  0.
        1    1    3    3  502    0 -0.64942512716E+03  0.99700873742E+03  0.64852175238E+03  0.13551235669E+04  0.50400001928E-02 0.  1.
       -1    1    3    3    0  502  0.64942512716E+03 -0.99700873742E+03  0.37693578160E+03  0.12481426208E+04  0.50400001928E-02 0. -1.
</event>
<event>
 5   0  0.9038897E-06  0.2395842E+04  0.7818609E-02  0.8441062E-01
        1   -1    0    0  501    0  0.00000000000E+00  0.00000000000E+00  0.19480596186E+04  0.19480596186E+04  0.50400001928E-02 0.  1.
       -1   -1    0    0    0  501  0.00000000000E+00  0.00000000000E+00 -0.73663789631E+03  0.73663789632E+03  0.50400001928E-02 0. -1.
    10030    2    1    2    0    0  0.00000000000E+00  0.00000000000E+00  0.12114217223E+04  0.26846975149E+04  0.23958418473E+04 0.  0.
        1    1    3    3  502    0 -0.11875511818E+04  0.22109814512E+02  0.78020231306E+03  0.14210849034E+04  0.50400001928E-02 0.  1.
       -1    1    3    3    0  502  0.11875511818E+04 -0.22109814512E+02  0.43121940923E+03  0.12636126116E+04  0.50400001928E-02 0. -1.
</event>
<event>
 5   0  0.2087882E-05  0.2442824E+04  0.7818609E-02  0.8423643E-01
       -2   -1    0    0    0  501  0.00000000000E+00  0.00000000000E+00  0.10296104581E+04  0.10296104581E+04  0.25500000920E-02 0. -1.
        2   -1    0    0  501    0  0.00000000000E+00  0.00000000000E+00 -0.14489430344E+04  0.14489430344E+04  0.25500000920E-02 0.  1.
    10030    2    1    2    0    0  0.00000000000E+00  0.00000000000E+00 -0.41933257632E+03  0.24785534925E+04  0.24428236951E+04 0.  0.
        2    1    3    3  502    0 -0.41041656433E+03 -0.10231493245E+04  0.32392555508E+03  0.11490013324E+04  0.25500000920E-02 0.  1.
       -2    1    3    3    0  502  0.41041656433E+03  0.10231493245E+04 -0.74325813140E+03  0.13295521601E+04  0.25500000920E-02 0. -1.
</event>
<event>
 5   0  0.8528103E-06  0.2390694E+04  0.7818609E-02  0.8442996E-01
       -1   -1    0    0    0  501  0.00000000000E+00  0.00000000000E+00  0.12083761611E+04  0.12083761611E+04  0.50400001928E-02 0.  1.
        1   -1    0    0  501    0  0.00000000000E+00  0.00000000000E+00 -0.11824579032E+04  0.11824579032E+04  0.50400001928E-02 0. -1.
    10030    2    1    2    0    0  0.00000000000E+00  0.00000000000E+00  0.25918257834E+02  0.23908340643E+04  0.23906935744E+04 0.  0.
        4    1    3    3  502    0  0.91147617548E+03 -0.43170049561E+03  0.65463395390E+03  0.12023732211E+04  0.12699999809E+01 0.  1.
       -4    1    3    3    0  502 -0.91147617548E+03  0.43170049561E+03 -0.62871569606E+03  0.11884608432E+04  0.12699999809E+01 0. -1.
</event>
<event>
 5   0  0.9176817E-06  0.2410459E+04  0.7818609E-02  0.8435598E-01
       -1   -1    0    0    0  501  0.00000000000E+00  0.00000000000E+00  0.10515489800E+04  0.10515489800E+04  0.50400001928E-02 0.  1.
        1   -1    0    0  501    0  0.00000000000E+00  0.00000000000E+00 -0.13813698772E+04  0.13813698772E+04  0.50400001928E-02 0. -1.
    10030    2    1    2    0    0  0.00000000000E+00  0.00000000000E+00 -0.32982089722E+03  0.24329188573E+04  0.24104589484E+04 0.  0.
        3    1    3    3  502    0  0.73256787605E+03  0.32225428121E+03 -0.10744588981E+04  0.13397632062E+04  0.10100000352E+00 0. -1.
       -3    1    3    3    0  502 -0.73256787605E+03 -0.32225428121E+03  0.74463800091E+03  0.10931556510E+04  0.10100000352E+00 0.  1.
</event>
<event>
 5   0  0.2048028E-05  0.2449218E+04  0.7818609E-02  0.8421303E-01
        2   -1    0    0  501    0  0.00000000000E+00  0.00000000000E+00  0.13503725394E+04  0.13503725394E+04  0.25500000920E-02 0. -1.
       -2   -1    0    0    0  501  0.00000000000E+00  0.00000000000E+00 -0.11105585445E+04  0.11105585445E+04  0.25500000920E-02 0.  1.
    10030    2    1    2    0    0  0.00000000000E+00  0.00000000000E+00  0.23981399489E+03  0.24609310839E+04  0.24492184565E+04 0.  0.
        5    1    3    3  502    0 -0.96210121022E+03  0.75756467703E+03  0.13008923210E+03  0.12314577853E+04  0.46999998093E+01 0. -1.
       -5    1    3    3    0  502  0.96210121022E+03 -0.75756467703E+03  0.10972476278E+03  0.12294732987E+04  0.46999998093E+01 0.  1.
</event>
<event>
 5   0  0.2087882E-05  0.2391957E+04  0.7818609E-02  0.8442521E-01
        2   -1    0    0  501    0  0.00000000000E+00  0.00000000000E+00  0.25635508909E+04  0.25635508909E+04  0.25500000920E-02 0.  1.
       -2   -1    0    0    0  501  0.00000000000E+00  0.00000000000E+00 -0.55796233674E+03  0.55796233675E+03  0.25500000920E-02 0. -1.
    10030    2    1    2    0    0  0.00000000000E+00  0.00000000000E+00  0.20055885542E+04  0.31215132276E+04  0.23919572283E+04 0.  0.
        2    1    3    3  502    0  0.66693108032E+03 -0.74299183949E+03  0.18620487503E+04  0.21128321013E+04  0.25500000920E-02 0.  1.
       -2    1    3    3    0  502 -0.66693108032E+03  0.74299183949E+03  0.14353980382E+03  0.10086811264E+04  0.25500000920E-02 0. -1.
</event>
<event>
 5   0  0.7233625E-06  0.2400332E+04  0.7818609E-02  0.8439379E-01
        3   -1    0    0  501    0  0.00000000000E+00  0.00000000000E+00  0.86482953862E+03  0.86482954451E+03  0.10100000352E+00 0. -1.
       -3   -1    0    0    0  501  0.00000000000E+00  0.00000000000E+00 -0.16655285137E+04  0.16655285168E+04  0.10100000352E+00 0.  1.
    10030    2    1    2    0    0  0.00000000000E+00  0.00000000000E+00 -0.80069897513E+03  0.25303580613E+04  0.24003318666E+04 0.  0.
        4    1    3    3  502    0  0.15165976346E+03  0.50921869648E+03  0.73409245584E+03  0.90619959794E+03  0.12699999809E+01 0. -1.
       -4    1    3    3    0  502 -0.15165976346E+03 -0.50921869648E+03 -0.15347914310E+04  0.16241584634E+04  0.12699999809E+01 0.  1.
</event>
<event>
 5   0  0.8898848E-06  0.2431122E+04  0.7818609E-02  0.8427943E-01
       -1   -1    0    0    0  501  0.00000000000E+00  0.00000000000E+00  0.95592813518E+03  0.95592813519E+03  0.50400001928E-02 0. -1.
        1   -1    0    0  501    0  0.00000000000E+00  0.00000000000E+00 -0.15457109163E+04  0.15457109163E+04  0.50400001928E-02 0.  1.
    10030    2    1    2    0    0  0.00000000000E+00  0.00000000000E+00 -0.58978278110E+03  0.25016390515E+04  0.24311220074E+04 0.  0.
        5    1    3    3  502    0 -0.36946443152E+03 -0.58460686397E+03 -0.13235357588E+04  0.14933312246E+04  0.46999998093E+01 0.  1.
       -5    1    3    3    0  502  0.36946443152E+03  0.58460686397E+03  0.73375297767E+03  0.10083078269E+04  0.46999998093E+01 0. -1.
</event>
<event>
 5   0  0.9083687E-06  0.2344604E+04  0.7818609E-02  0.8460539E-01
        1   -1    0    0  501    0  0.00000000000E+00  0.00000000000E+00  0.17232976943E+04  0.17232976943E+04  0.50400001928E-02 0. -1.
       -1   -1    0    0    0  501  0.00000000000E+00  0.00000000000E+00 -0.79747766493E+03  0.79747766495E+03  0.50400001928E-02 0.  1.
    10030    2    1    2    0    0  0.00000000000E+00  0.00000000000E+00  0.92582002940E+03  0.25207753593E+04  0.23446035241E+04 0.  0.
        2    1    3    3  502    0  0.10616342175E+04  0.41542662540E+02  0.99561784346E+03  0.14560384249E+04  0.25500000920E-02 0.  1.
       -2    1    3    3    0  502 -0.10616342175E+04 -0.41542662540E+02 -0.69797814062E+02  0.10647369344E+04  0.25500000920E-02 0. -1.
</event>
<event>
 5   0  0.9038897E-06  0.2401089E+04  0.7818609E-02  0.8439096E-01
       -1   -1    0    0    0  501  0.00000000000E+00  0.00000000000E+00  0.51056177617E+03  0.51056177619E+03  0.50400001928E-02 0.  1.
        1   -1    0    0  501    0  0.00000000000E+00  0.00000000000E+00 -0.28229816157E+04  0.28229816157E+04  0.50400001928E-02 0. -1.
    10030    2    1    2    0    0  0.00000000000E+00  0.00000000000E+00 -0.23124198395E+04  0.33335433919E+04  0.24010885097E+04 0.  0.
        1    1    3    3  502    0  0.85742579551E+03 -0.58526197709E+03 -0.31905188375E+03  0.10860500362E+04  0.50400001928E-02 0.  1.
       -1    1    3    3    0  502 -0.85742579551E+03  0.58526197709E+03 -0.19933679558E+04  0.22474933557E+04  0.50400001928E-02 0. -1.
</event>
<event>
 5   0  0.2087882E-05  0.2410178E+04  0.7818609E-02  0.8435703E-01
        2   -1    0    0  501    0  0.00000000000E+00  0.00000000000E+00  0.10472965914E+04  0.10472965914E+04  0.25500000920E-02 0.  1.
       -2   -1    0    0    0  501  0.00000000000E+00  0.00000000000E+00 -0.13866551823E+04  0.13866551823E+04  0.25500000920E-02 0. -1.
    10030    2    1    2    0    0  0.00000000000E+00  0.00000000000E+00 -0.33935859087E+03  0.24339517737E+04  0.24101777909E+04 0.  0.
        2    1    3    3  502    0 -0.11438415698E+04 -0.38574725148E+02  0.21137237933E+03  0.11638469955E+04  0.25500000920E-02 0.  1.
       -2    1    3    3    0  502  0.11438415698E+04  0.38574725148E+02 -0.55073097020E+03  0.12701047782E+04  0.25500000920E-02 0. -1.
</event>
<event>
 5   0  0.9038897E-06  0.2396115E+04  0.7818609E-02  0.8440959E-01
        1   -1    0    0  501    0  0.00000000000E+00  0.00000000000E+00  0.16892928029E+04  0.16892928029E+04  0.50400001928E-02 0. -1.
       -1   -1    0    0    0  501  0.00000000000E+00  0.00000000000E+00 -0.84967048978E+03  0.84967048980E+03  0.50400001928E-02 0.  1.
    10030    2    1    2    0    0  0.00000000000E+00  0.00000000000E+00  0.83962231312E+03  0.25389632927E+04  0.23961153923E+04 0.  0.
        1    1    3    3  502    0 -0.23497257214E+03  0.99283668732E+03 -0.24564606831E+03  0.10494183095E+04  0.50400001928E-02 0.  1.
       -1    1    3    3    0  502  0.23497257214E+03 -0.99283668732E+03  0.10852683814E+04  0.14895449832E+04  0.50400001928E-02 0. -1.
</event>
<event>
 5   0  0.2048028E-05  0.2292026E+04  0.7818609E-02  0.8481072E-01
        2   -1    0    0  501    0  0.00000000000E+00  0.00000000000E+00  0.22055876657E+04  0.22055876657E+04  0.25500000920E-02 0. -1.
       -2   -1    0    0    0  501  0.00000000000E+00  0.00000000000E+00 -0.59546293109E+03  0.59546293110E+03  0.25500000920E-02 0.  1.
    10030    2    1    2    0    0  0.00000000000E+00  0.00000000000E+00  0.16101247346E+04  0.28010505968E+04  0.22920259128E+04 0.  0.
        5    1    3    3  502    0  0.65982749024E+03  0.55402454983E+03  0.17285318757E+04  0.19313622275E+04  0.46999998093E+01 0. -1.
       -5    1    3    3    0  502 -0.65982749024E+03 -0.55402454983E+03 -0.11840714101E+03  0.86968836932E+03  0.46999998093E+01 0.  1.
</event>
<event>
 5   0  0.9176817E-06  0.2411926E+04  0.7818609E-02  0.8435052E-01
        1   -1    0    0  501    0  0.00000000000E+00  0.00000000000E+00  0.10362734642E+04  0.10362734642E+04  0.50400001928E-02 0.  1.
       -1   -1    0    0    0  501  0.00000000000E+00  0.00000000000E+00 -0.14034392363E+04  0.14034392363E+04  0.50400001928E-02 0. -1.
    10030    2    1    2    0    0  0.00000000000E+00  0.00000000000E+00 -0.36716577207E+03  0.24397127005E+04  0.24119260679E+04 0.  0.
        3    1    3    3  502    0  0.49920987540E+03 -0.88764768661E+03  0.46978257002E+03  0.11215277921E+04  0.10100000352E+00 0.  1.
       -3    1    3    3    0  502 -0.49920987540E+03  0.88764768661E+03 -0.83694834209E+03  0.13181849084E+04  0.10100000352E+00 0. -1.
</event>
<event>
 5   0  0.7233625E-06  0.2398810E+04  0.7818609E-02  0.8439949E-01
       -3   -1    0    0    0  501  0.00000000000E+00  0.00000000000E+00  0.16475450980E+04  0.16475451011E+04  0.10100000352E+00 0.  1.
        3   -1    0    0  501    0  0.00000000000E+00  0.00000000000E+00 -0.87316083222E+03  0.87316083806E+03  0.10100000352E+00 0. -1.
    10030    2    1    2    0    0  0.00000000000E+00  0.00000000000E+00  0.77438426583E+03  0.25207059392E+04  0.23988095883E+04 0.  0.
        2    1    3    3  502    0  0.77528423044E+03  0.36850221003E+03 -0.49305773096E+03  0.98993203950E+03  0.25500000920E-02 0. -1.
       -2    1    3    3    0  502 -0.77528423044E+03 -0.36850221003E+03  0.12674419968E+04  0.15307738997E+04  0.25500000920E-02 0.  1.
</event>
<event>
 5   0  0.8898848E-06  0.2398593E+04  0.7818609E-02  0.8440030E-01
       -1   -1    0    0    0  501  0.00000000000E+00  0.00000000000E+00  0.12727941731E+04  0.12727941731E+04  0.50400001928E-02 0.  1.
        1   -1    0    0  501    0  0.00000000000E+00  0.00000000000E+00 -0.11300432979E+04  0.11300432979E+04  0.50400001928E-02 0. -1.
    10030    2    1    2    0    0  0.00000000000E+00  0.00000000000E+00  0.14275087516E+03  0.24028374710E+04  0.23985933586E+04 0.  0.
        5    1    3    3  502    0  0.56906446335E+03  0.64893814559E+03 -0.76276551244E+03  0.11518630115E+04  0.46999998093E+01 0. -1.
       -5    1    3    3    0  502 -0.56906446335E+03 -0.64893814559E+03  0.90551638760E+03  0.12509744596E+04  0.46999998093E+01 0.  1.
</event>
<event>
 5   0  0.2087882E-05  0.2407288E+04  0.7818609E-02  0.8436780E-01
       -2   -1    0    0    0  501  0.00000000000E+00  0.00000000000E+00  0.71412984685E+03  0.71412984685E+03  0.25500000920E-02 0. -1.
        2   -1    0    0  501    0  0.00000000000E+00  0.00000000000E+00 -0.20287047967E+04  0.20287047967E+04  0.25500000920E-02 0.  1.
    10030    2    1    2    0    0  0.00000000000E+00  0.00000000000E+00 -0.13145749499E+04  0.27428346436E+04  0.24072878065E+04 0.  0.
        2    1    3    3  502    0 -0.21100289490E+03  0.10326683698E+03  0.68775616733E+03  0.72677011976E+03  0.25500000920E-02 0. -1.
       -2    1    3    3    0  502  0.21100289490E+03 -0.10326683698E+03 -0.20023311172E+04  0.20160645238E+04  0.25500000920E-02 0.  1.
</event>
<event>
 5   0  0.7233625E-06  0.2384966E+04  0.7818609E-02  0.8445154E-01
       -3   -1    0    0    0  501  0.00000000000E+00  0.00000000000E+00  0.88137194238E+03  0.88137194816E+03  0.10100000352E+00 0. -1.
        3   -1    0    0  501    0  0.00000000000E+00  0.00000000000E+00 -0.16134117270E+04  0.16134117301E+04  0.10100000352E+00 0.  1.
    10030    2    1    2    0    0  0.00000000000E+00  0.00000000000E+00 -0.73203978460E+03  0.24947836783E+04  0.23849661120E+04 0.  0.
        2    1    3    3  502    0 -0.49585961258E+03 -0.18017371839E+03  0.75265085865E+03  0.91914233893E+03  0.25500000920E-02 0. -1.
       -2    1    3    3    0  502  0.49585961258E+03  0.18017371839E+03 -0.14846906433E+04  0.15756413394E+04  0.25500000920E-02 0.  1.
</event>
<event>
 5   0  0.9038897E-06  0.2396906E+04  0.7818609E-02  0.8440663E-01
       -1   -1    0    0    0  501  0.00000000000E+00  0.00000000000E+00  0.12188264154E+04  0.12188264155E+04  0.50400001928E-02 0.  1.
        1   -1    0    0  501    0  0.00000000000E+00  0.00000000000E+00 -0.11784197751E+04  0.11784197751E+04  0.50400001928E-02 0. -1.
    10030    2    1    2    0    0  0.00000000000E+00  0.00000000000E+00  0.40406640389E+02  0.23972461905E+04  0.23969056305E+04 0.  0.
        1    1    3    3  502    0 -0.70914254199E+03 -0.23704643153E+01 -0.94606043585E+03  0.11823362941E+04  0.50400001928E-02 0. -1.
       -1    1    3    3    0  502  0.70914254199E+03  0.23704643153E+01  0.98646707624E+03  0.12149098964E+04  0.50400001928E-02 0.  1.
</event>
<event>
 5   0  0.2087882E-05  0.2394567E+04  0.7818609E-02  0.8441540E-01
        2   -1    0    0  501    0  0.00000000000E+00  0.00000000000E+00  0.14027747423E+04  0.14027747423E+04  0.25500000920E-02 0. -1.
       -2   -1    0    0    0  501  0.00000000000E+00  0.00000000000E+00 -0.10218944669E+04  0.10218944669E+04  0.25500000920E-02 0.  1.
    10030    2    1    2    0    0  0.00000000000E+00  0.00000000000E+00  0.38088027535E+03  0.24246692092E+04  0.23945669734E+04 0.  0.
        2    1    3    3  502    0 -0.10981434221E+04 -0.43499831330E+03 -0.78409239843E+01  0.11811875330E+04  0.25500000920E-02 0.  1.
       -2    1    3    3    0  502  0.10981434221E+04  0.43499831330E+03  0.38872119934E+03  0.12434816762E+04  0.25500000920E-02 0. -1.
</event>
<event>
 5   0  0.9083687E-06  0.2411643E+04  0.7818609E-02  0.8435157E-01
       -1   -1    0    0    0  501  0.00000000000E+00  0.00000000000E+00  0.12172940480E+04  0.12172940480E+04  0.50400001928E-02 0. -1.
        1   -1    0    0  501    0  0.00000000000E+00  0.00000000000E+00 -0.11944569650E+04  0.11944569650E+04  0.50400001928E-02 0.  1.
    10030    2    1    2    0    0  0.00000000000E+00  0.00000000000E+00  0.22837083077E+02  0.24117510130E+04  0.24116428874E+04 0.  0.
        2    1    3    3  502    0  0.10934670800E+04  0.34780916959E+03 -0.35922441094E+03  0.12023658557E+04  0.25500000920E-02 0.  1.
       -2    1    3    3    0  502 -0.10934670800E+04 -0.34780916959E+03  0.38206149402E+03  0.12093851573E+04  0.25500000920E-02 0. -1.
</event>
<event>
 5   0  0.9083687E-06  0.2440380E+04  0.7818609E-02  0.8424539E-01
        1   -1    0    0  501    0  0.00000000000E+00  0.00000000000E+00  0.18074757708E+04  0.18074757708E+04  0.50400001928E-02 0.  1.
       -1   -1    0    0    0  501  0.00000000000E+00  0.00000000000E+00 -0.82372532403E+03  0.82372532405E+03  0.50400001928E-02 0. -1.
    10030    2    1    2    0    0  0.00000000000E+00  0.00000000000E+00  0.98375044680E+03  0.26312010949E+04  0.24403799418E+04 0.  0.
        2    1    3    3  502    0 -0.45943116537E+03  0.25932488484E+03  0.16781509927E+04  0.17591239712E+04  0.25500000920E-02 0.  1.
       -2    1    3    3    0  502  0.45943116537E+03 -0.25932488484E+03 -0.69440054589E+03  0.87207712374E+03  0.25500000920E-02 0. -1.
</event>
<event>
 5   0  0.8528103E-06  0.2417779E+04  0.7818609E-02  0.8432877E-01
       -1   -1    0    0    0  501  0.00000000000E+00  0.00000000000E+00  0.66867596464E+03  0.66867596466E+03  0.50400001928E-02 0. -1.
        1   -1    0    0  501    0  0.00000000000E+00  0.00000000000E+00 -0.21855344104E+04  0.21855344104E+04  0.50400001928E-02 0.  1.
    10030    2    1    2    0    0  0.00000000000E+00  0.00000000000E+00 -0.15168584457E+04  0.28542103750E+04  0.24177794193E+04 0.  0.
        4    1    3    3  502    0  0.71697861646E+03  0.89118108043E+03 -0.29644329814E+03  0.11815846548E+04  0.12699999809E+01 0.  1.
       -4    1    3    3    0  502 -0.71697861646E+03 -0.89118108043E+03 -0.12204151476E+04  0.16726257202E+04  0.12699999809E+01 0. -1.
</event>
<event>
 5   0  0.8528103E-06  0.2405337E+04  0.7818609E-02  0.8437508E-01
       -1   -1    0    0    0  501  0.00000000000E+00  0.00000000000E+00  0.76790954486E+03  0.76790954487E+03  0.50400001928E-02 0.  1.
        1   -1    0    0  501    0  0.00000000000E+00  0.00000000000E+00 -0.18835698412E+04  0.18835698412E+04  0.50400001928E-02 0. -1.
    10030    2    1    2    0    0  0.00000000000E+00  0.00000000000E+00 -0.11156602963E+04  0.26514793861E+04  0.24053367826E+04 0.  0.
        4    1    3    3  502    0  0.33230908152E+03  0.31376601319E+03 -0.17841123999E+04  0.18417212343E+04  0.12699999809E+01 0. -1.
       -4    1    3    3    0  502 -0.33230908152E+03 -0.31376601319E+03  0.66845210354E+03  0.80975815174E+03  0.12699999809E+01 0.  1.
</event>
<event>
 5   0  0.8898848E-06  0.2417952E+04  0.7818609E-02  0.8432813E-01
       -1   -1    0    0    0  501  0.00000000000E+00  0.00000000000E+00  0.56650390574E+03  0.56650390576E+03  0.50400001928E-02 0.  1.
        1   -1    0    0  501    0  0.00000000000E+00  0.00000000000E+00 -0.25800767799E+04  0.25800767799E+04  0.50400001928E-02 0. -1.
    10030    2    1    2    0    0  0.00000000000E+00  0.00000000000E+00 -0.20135728741E+04  0.31465806856E+04  0.24179524999E+04 0.  0.
        5    1    3    3  502    0  0.93989608055E+03 -0.64649431547E+03 -0.15277162413E+04  0.19066458890E+04  0.46999998093E+01 0.  1.
       -5    1    3    3    0  502 -0.93989608055E+03  0.64649431547E+03 -0.48585663281E+03  0.12399347966E+04  0.46999998093E+01 0. -1.
</event>
<event>
 5   0  0.9176817E-06  0.2393576E+04  0.7818609E-02  0.8441913E-01
        1   -1    0    0  501    0  0.00000000000E+00  0.00000000000E+00  0.18633514302E+04  0.18633514302E+04  0.50400001928E-02 0.  1.
       -1   -1    0    0    0  501  0.00000000000E+00  0.00000000000E+00 -0.76866927529E+03  0.76866927531E+03  0.50400001928E-02 0. -1.
    10030    2    1    2    0    0  0.00000000000E+00  0.00000000000E+00  0.10946821549E+04  0.26320207055E+04  0.23935755626E+04 0.  0.
        3    1    3    3  502    0  0.39441356459E+03  0.64470553286E+03 -0.47305167417E+03  0.89161941470E+03  0.10100000352E+00 0. -1.
       -3    1    3    3    0  502 -0.39441356459E+03 -0.64470553286E+03  0.15677338291E+04  0.17404012908E+04  0.10100000352E+00 0.  1.
</event>
<event>
 5   0  0.2048028E-05  0.2407732E+04  0.7818609E-02  0.8436614E-01
       -2   -1    0    0    0  501  0.00000000000E+00  0.00000000000E+00  0.91420189737E+03  0.91420189737E+03  0.25500000920E-02 0. -1.
        2   -1    0    0  501    0  0.00000000000E+00  0.00000000000E+00 -0.15853103016E+04  0.15853103016E+04  0.25500000920E-02 0.  1.
    10030    2    1    2    0    0  0.00000000000E+00  0.00000000000E+00 -0.67110840426E+03  0.24995121990E+04  0.24077322822E+04 0.  0.
        5    1    3    3  502    0 -0.84844066410E+03 -0.62539413195E+03 -0.93936306799E+03  0.14118762142E+04  0.46999998093E+01 0.  1.
       -5    1    3    3    0  502  0.84844066410E+03  0.62539413195E+03  0.26825466373E+03  0.10876359848E+04  0.46999998093E+01 0. -1.
</event>
<event>
 5   0  0.8898848E-06  0.2418757E+04  0.7818609E-02  0.8432514E-01
       -1   -1    0    0    0  501  0.00000000000E+00  0.00000000000E+00  0.89999539266E+03  0.89999539267E+03  0.50400001928E-02 0.  1.
        1   -1    0    0  501    0  0.00000000000E+00  0.00000000000E+00 -0.16251153856E+04  0.16251153856E+04  0.50400001928E-02 0. -1.
    10030    2    1    2    0    0  0.00000000000E+00  0.00000000000E+00 -0.72511999297E+03  0.25251107783E+04  0.24187570028E+04 0.  0.
        5    1    3    3  502    0 -0.13153800985E+03 -0.11959577406E+04 -0.49023678662E+03  0.12992195205E+04  0.46999998093E+01 0. -1.
       -5    1    3    3    0  502  0.13153800985E+03  0.11959577406E+04 -0.23488320634E+03  0.12258912578E+04  0.46999998093E+01 0.  1.
</event>
<event>
 5   0  0.2080257E-05  0.2411322E+04  0.7818609E-02  0.8435277E-01
        2   -1    0    0  501    0  0.00000000000E+00  0.00000000000E+00  0.24366649944E+04  0.24366649944E+04  0.25500000920E-02 0. -1.
       -2   -1    0    0    0  501  0.00000000000E+00  0.00000000000E+00 -0.59656079404E+03  0.59656079405E+03  0.25500000920E-02 0.  1.
    10030    2    1    2    0    0  0.00000000000E+00  0.00000000000E+00  0.18401042004E+04  0.30332257885E+04  0.24113222961E+04 0.  0.
        1    1    3    3  502    0  0.84453222237E+03 -0.54052058417E+03  0.77889633669E+02  0.10057156515E+04  0.50400001928E-02 0.  1.
       -1    1    3    3    0  502 -0.84453222237E+03  0.54052058417E+03  0.17622145667E+04  0.20275101370E+04  0.50400001928E-02 0. -1.
</event>
<event>
 5   0  0.9176817E-06  0.2424790E+04  0.7818609E-02  0.8430281E-01
       -1   -1    0    0    0  501  0.00000000000E+00  0.00000000000E+00  0.11071705827E+04  0.11071705827E+04  0.50400001928E-02 0.  1.
        1   -1    0    0  501    0  0.00000000000E+00  0.00000000000E+00 -0.13276197137E+04  0.13276197137E+04  0.50400001928E-02 0. -1.
    10030    2    1    2    0    0  0.00000000000E+00  0.00000000000E+00 -0.22044913100E+03  0.24347902965E+04  0.24247898813E+04 0.  0.
        3    1    3    3  502    0  0.11685117141E+04  0.25743008148E+03 -0.30650866260E+03  0.12351669698E+04  0.10100000352E+00 0. -1.
       -3    1    3    3    0  502 -0.11685117141E+04 -0.25743008148E+03  0.86059531597E+02  0.11996233267E+04  0.10100000352E+00 0.  1.
</event>
<event>
 5   0  0.9083687E-06  0.2397987E+04  0.7818609E-02  0.8440257E-01
       -1   -1    0    0    0  501  0.00000000000E+00  0.00000000000E+00  0.21597750337E+04  0.21597750337E+04  0.50400001928E-02 0.  1.
        1   -1    0    0  501    0  0.00000000000E+00  0.00000000000E+00 -0.66561832679E+03  0.66561832681E+03  0.50400001928E-02 0. -1.
    10030    2    1    2    0    0  0.00000000000E+00  0.00000000000E+00  0.14941567069E+04  0.28253933605E+04  0.23979873596E+04 0.  0.
        2    1    3    3  502    0 -0.21201905742E+03 -0.58318093485E+03  0.19558660982E+04  0.20519415872E+04  0.25500000920E-02 0.  1.
       -2    1    3    3    0  502  0.21201905742E+03  0.58318093485E+03 -0.46170939131E+03  0.77345177323E+03  0.25500000920E-02 0. -1.
</event>
<event>
 5   0  0.2080257E-05  0.2410450E+04  0.7818609E-02  0.8435602E-01
       -2   -1    0    0    0  501  0.00000000000E+00  0.00000000000E+00  0.59975570888E+03  0.59975570889E+03  0.25500000920E-02 0. -1.
        2   -1    0    0  501    0  0.00000000000E+00  0.00000000000E+00 -0.24219307490E+04  0.24219307490E+04  0.25500000920E-02 0.  1.
    10030    2    1    2    0    0  0.00000000000E+00  0.00000000000E+00 -0.18221750401E+04  0.30216864579E+04  0.24104495790E+04 0.  0.
        1    1    3    3  502    0 -0.86508929020E+03 -0.61270024663E+03 -0.19228792997E+03  0.10773837386E+04  0.50400001928E-02 0. -1.
       -1    1    3    3    0  502  0.86508929020E+03  0.61270024663E+03 -0.16298871101E+04  0.19443027192E+04  0.50400001928E-02 0.  1.
</event>
<event>
 5   0  0.2122194E-05  0.2393165E+04  0.7818609E-02  0.8442067E-01
       -2   -1    0    0    0  501  0.00000000000E+00  0.00000000000E+00  0.52726898786E+03  0.52726898786E+03  0.25500000920E-02 0. -1.
        2   -1    0    0  501    0  0.00000000000E+00  0.00000000000E+00 -0.27155208972E+04  0.27155208972E+04  0.25500000920E-02 0.  1.
    10030    2    1    2    0    0  0.00000000000E+00  0.00000000000E+00 -0.21882519094E+04  0.32427898851E+04  0.23931652304E+04 0.  0.
        3    1    3    3  502    0  0.83792235240E+03 -0.29470954414E+03 -0.77044114828E+01  0.88827189093E+03  0.10100000352E+00 0. -1.
       -3    1    3    3    0  502 -0.83792235240E+03  0.29470954414E+03 -0.21805474979E+04  0.23545179942E+04  0.10100000352E+00 0.  1.
</event>
<event>
 5   0  0.2080257E-05  0.2391467E+04  0.7818609E-02  0.8442705E-01
       -2   -1    0    0    0  501  0.00000000000E+00  0.00000000000E+00  0.82931822384E+03  0.82931822385E+03  0.25500000920E-02 0.  1.
        2   -1    0    0  501    0  0.00000000000E+00  0.00000000000E+00 -0.17240413926E+04  0.17240413926E+04  0.25500000920E-02 0. -1.
    10030    2    1    2    0    0  0.00000000000E+00  0.00000000000E+00 -0.89472316874E+03  0.25533596164E+04  0.23914672864E+04 0.  0.
        1    1    3    3  502    0  0.82650683439E+03 -0.53176532088E+03  0.27984120135E+03  0.10218605589E+04  0.50400001928E-02 0.  1.
       -1    1    3    3    0  502 -0.82650683439E+03  0.53176532088E+03 -0.11745643701E+04  0.15314990576E+04  0.50400001928E-02 0. -1.
</event>
<event>
 5   0  0.2122194E-05  0.2400225E+04  0.7818609E-02  0.8439419E-01
        2   -1    0    0  501    0  0.00000000000E+00  0.00000000000E+00  0.13291666966E+04  0.13291666966E+04  0.25500000920E-02 0. -1.
       -2   -1    0    0    0  501  0.00000000000E+00  0.00000000000E+00 -0.10835885627E+04  0.10835885627E+04  0.25500000920E-02 0.  1.
    10030    2    1    2    0    0  0.00000000000E+00  0.00000000000E+00  0.24557813395E+03  0.24127552593E+04  0.24002248481E+04 0.  0.
        3    1    3    3  502    0 -0.83425522621E+02 -0.15703234261E+03 -0.10702729616E+04  0.10849438682E+04  0.10100000352E+00 0.  1.
       -3    1    3    3    0  502  0.83425522621E+02  0.15703234261E+03  0.13158510956E+04  0.13278113911E+04  0.10100000352E+00 0. -1.
</event>
<event>
 5   0  0.2087882E-05  0.2398793E+04  0.7818609E-02  0.8439955E-01
        2   -1    0    0  501    0  0.00000000000E+00  0.00000000000E+00  0.19705776557E+04  0.19705776557E+04  0.25500000920E-02 0. -1.
       -2   -1    0    0    0  501  0.00000000000E+00  0.00000000000E+00 -0.73001566725E+03  0.73001566726E+03  0.25500000920E-02 0.  1.
    10030    2    1    2    0    0  0.00000000000E+00  0.00000000000E+00  0.12405619884E+04  0.27005933229E+04  0.23987934986E+04 0.  0.
        2    1    3    3  502    0  0.44457412545E+02  0.67831540123E+03 -0.49220490555E+03  0.83925795446E+03  0.25500000920E-02 0.  1.
       -2    1    3    3    0  502 -0.44457412545E+02 -0.67831540123E+03  0.17327668940E+04  0.18613353685E+04  0.25500000920E-02 0. -1.
</event>
<event>
 5   0  0.2080257E-05  0.2400610E+04  0.7818609E-02  0.8439275E-01
       -2   -1    0    0    0  501  0.00000000000E+00  0.00000000000E+00  0.85493286771E+03  0.85493286771E+03  0.25500000920E-02 0.  1.
        2   -1    0    0  501    0  0.00000000000E+00  0.00000000000E+00 -0.16851996545E+04  0.16851996545E+04  0.25500000920E-02 0. -1.
    10030    2    1    2    0    0  0.00000000000E+00  0.00000000000E+00 -0.83026678678E+03  0.25401325222E+04  0.24006104001E+04 0.  0.
        1    1    3    3  502    0  0.40233728626E+03  0.39581429988E+03 -0.15360351868E+04  0.16364438112E+04  0.50400001928E-02 0. -1.
       -1    1    3    3    0  502 -0.40233728626E+03 -0.39581429988E+03  0.70576840006E+03  0.90368871103E+03  0.50400001928E-02 0.  1.
</event>
<event>
 5   0  0.8898848E-06  0.2384311E+04  0.7818609E-02  0.8445401E-01
       -1   -1    0    0    0  501  0.00000000000E+00  0.00000000000E+00  0.11289839084E+04  0.11289839084E+04  0.50400001928E-02 0. -1.
        1   -1    0    0  501    0  0.00000000000E+00  0.00000000000E+00 -0.12588621058E+04  0.12588621058E+04  0.50400001928E-02 0.  1.
    10030    2    1    2    0    0  0.00000000000E+00  0.00000000000E+00 -0.12987819736E+03  0.23878460142E+04  0.23843112719E+04 0.  0.
        5    1    3    3  502    0  0.81931203683E+03 -0.18217197942E+03  0.78292933355E+03  0.11478062881E+04  0.46999998093E+01 0. -1.
       -5    1    3    3    0  502 -0.81931203683E+03  0.18217197942E+03 -0.91280753091E+03  0.12400397261E+04  0.46999998093E+01 0.  1.
</event>
<event>
 5   0  0.8898848E-06  0.2401470E+04  0.7818609E-02  0.8438954E-01
       -1   -1    0    0    0  501  0.00000000000E+00  0.00000000000E+00  0.97798354880E+03  0.97798354881E+03  0.50400001928E-02 0.  1.
        1   -1    0    0  501    0  0.00000000000E+00  0.00000000000E+00 -0.14742210583E+04  0.14742210583E+04  0.50400001928E-02 0. -1.
    10030    2    1    2    0    0  0.00000000000E+00  0.00000000000E+00 -0.49623750949E+03  0.24522046071E+04  0.24014695021E+04 0.  0.
        5    1    3    3  502    0  0.59195510097E+03  0.10337476033E+04 -0.40195650949E+03  0.12572335004E+04  0.46999998093E+01 0. -1.
       -5    1    3    3    0  502 -0.59195510097E+03 -0.10337476033E+04 -0.94280999999E+02  0.11949711067E+04  0.46999998093E+01 0.  1.
</event>
<event>
 5   0  0.2087882E-05  0.2407308E+04  0.7818609E-02  0.8436773E-01
       -2   -1    0    0    0  501  0.00000000000E+00  0.00000000000E+00  0.78259343792E+03  0.78259343793E+03  0.25500000920E-02 0.  1.
        2   -1    0    0  501    0  0.00000000000E+00  0.00000000000E+00 -0.18512588830E+04  0.18512588830E+04  0.25500000920E-02 0. -1.
    10030    2    1    2    0    0  0.00000000000E+00  0.00000000000E+00 -0.10686654451E+04  0.26338523209E+04  0.24073080848E+04 0.  0.
        2    1    3    3  502    0  0.62595189785E+00  0.11835089579E+04 -0.77426217389E+03  0.14142757012E+04  0.25500000920E-02 0. -1.
       -2    1    3    3    0  502 -0.62595189785E+00 -0.11835089579E+04 -0.29440327118E+03  0.12195766197E+04  0.25500000920E-02 0.  1.
</event>
<event>
 5   0  0.9176817E-06  0.2409088E+04  0.7818609E-02  0.8436109E-01
        1   -1    0    0  501    0  0.00000000000E+00  0.00000000000E+00  0.15129497489E+04  0.15129497489E+04  0.50400001928E-02 0.  1.
       -1   -1    0    0    0  501  0.00000000000E+00  0.00000000000E+00 -0.95900506159E+03  0.95900506160E+03  0.50400001928E-02 0. -1.
    10030    2    1    2    0    0  0.00000000000E+00  0.00000000000E+00  0.55394468728E+03  0.24719548105E+04  0.24090881820E+04 0.  0.
        3    1    3    3  502    0  0.47671951504E+03 -0.11019597652E+04  0.17775554737E+03  0.12137437394E+04  0.10100000352E+00 0.  1.
       -3    1    3    3    0  502 -0.47671951504E+03  0.11019597652E+04  0.37618913991E+03  0.12582110711E+04  0.10100000352E+00 0. -1.
</event>
<event>
 5   0  0.8898848E-06  0.2336370E+04  0.7818609E-02  0.8463717E-01
        1   -1    0    0  501    0  0.00000000000E+00  0.00000000000E+00  0.74601887313E+03  0.74601887314E+03  0.50400001928E-02 0. -1.
       -1   -1    0    0    0  501  0.00000000000E+00  0.00000000000E+00 -0.18292514236E+04  0.18292514236E+04  0.50400001928E-02 0.  1.
    10030    2    1    2    0    0  0.00000000000E+00  0.00000000000E+00 -0.10832325505E+04  0.25752702968E+04  0.23363699071E+04 0.  0.
        5    1    3    3  502    0  0.74107969507E+03  0.41097970242E+03 -0.14279060639E+04  0.16604340540E+04  0.46999998093E+01 0.  1.
       -5    1    3    3    0  502 -0.74107969507E+03 -0.41097970242E+03  0.34467351344E+03  0.91483624278E+03  0.46999998093E+01 0. -1.
</event>
<event>
 5   0  0.2048028E-05  0.2421736E+04  0.7818609E-02  0.8431411E-01
       -2   -1    0    0    0  501  0.00000000000E+00  0.00000000000E+00  0.10253586950E+04  0.10253586950E+04  0.25500000920E-02 0. -1.
        2   -1    0    0  501    0  0.00000000000E+00  0.00000000000E+00 -0.14299394745E+04  0.14299394745E+04  0.25500000920E-02 0.  1.
    10030    2    1    2    0    0  0.00000000000E+00  0.00000000000E+00 -0.40458077946E+03  0.24552981695E+04  0.24217356367E+04 0.  0.
        5    1    3    3  502    0  0.38361063629E+03  0.11410410627E+04 -0.33466385352E+03  0.12494614088E+04  0.46999998093E+01 0. -1.
       -5    1    3    3    0  502 -0.38361063629E+03 -0.11410410627E+04 -0.69916925947E+02  0.12058367608E+04  0.46999998093E+01 0.  1.
</event>
<event>
 5   0  0.2122194E-05  0.2383518E+04  0.7818609E-02  0.8445700E-01
       -2   -1    0    0    0  501  0.00000000000E+00  0.00000000000E+00  0.76986602802E+03  0.76986602803E+03  0.25500000920E-02 0. -1.
        2   -1    0    0  501    0  0.00000000000E+00  0.00000000000E+00 -0.18448527388E+04  0.18448527388E+04  0.25500000920E-02 0.  1.
    10030    2    1    2    0    0  0.00000000000E+00  0.00000000000E+00 -0.10749867108E+04  0.26147187668E+04  0.23835179465E+04 0.  0.
        3    1    3    3  502    0  0.50706341247E+03 -0.79846573269E+03 -0.13328209583E+04  0.16343416251E+04  0.10100000352E+00 0.  1.
       -3    1    3    3    0  502 -0.50706341247E+03  0.79846573269E+03  0.25783424754E+03  0.98037714169E+03  0.10100000352E+00 0. -1.
</event>
<event>
 5   0  0.8898848E-06  0.2422363E+04  0.7818609E-02  0.8431178E-01
        1   -1    0    0  501    0  0.00000000000E+00  0.00000000000E+00  0.20207404894E+04  0.20207404894E+04  0.50400001928E-02 0. -1.
       -1   -1    0    0    0  501  0.00000000000E+00  0.00000000000E+00 -0.72595228174E+03  0.72595228175E+03  0.50400001928E-02 0.  1.
    10030    2    1    2    0    0  0.00000000000E+00  0.00000000000E+00  0.12947882077E+04  0.27466927712E+04  0.24223634485E+04 0.  0.
        5    1    3    3  502    0 -0.18530028935E+03 -0.26192931226E+03  0.19716664650E+04  0.19976070437E+04  0.46999998093E+01 0. -1.
       -5    1    3    3    0  502  0.18530028935E+03  0.26192931226E+03 -0.67687825733E+03  0.74908572747E+03  0.46999998093E+01 0.  1.
</event>
<event>
 5   0  0.2087882E-05  0.2632163E+04  0.7818609E-02  0.8357358E-01
        2   -1    0    0  501    0  0.00000000000E+00  0.00000000000E+00  0.93335541527E+03  0.93335541528E+03  0.25500000920E-02 0. -1.
       -2   -1    0    0    0  501  0.00000000000E+00  0.00000000000E+00 -0.18557459551E+04  0.18557459551E+04  0.25500000920E-02 0.  1.
    10030    2    1    2    0    0  0.00000000000E+00  0.00000000000E+00 -0.92239053978E+03  0.27891013703E+04  0.26321630166E+04 0.  0.
        2    1    3    3  502    0  0.92567529345E+03 -0.50259801262E+03 -0.12972851066E+04  0.16710560012E+04  0.25500000920E-02 0.  1.
       -2    1    3    3    0  502 -0.92567529345E+03  0.50259801262E+03  0.37489456686E+03  0.11180453691E+04  0.25500000920E-02 0. -1.
</event>
<event>
 5   0  0.9038897E-06  0.2395264E+04  0.7818609E-02  0.8441279E-01
       -1   -1    0    0    0  501  0.00000000000E+00  0.00000000000E+00  0.15057727550E+04  0.15057727550E+04  0.50400001928E-02 0. -1.
        1   -1    0    0  501    0  0.00000000000E+00  0.00000000000E+00 -0.95254919766E+03  0.95254919767E+03  0.50400001928E-02 0.  1.
    10030    2    1    2    0    0  0.00000000000E+00  0.00000000000E+00  0.55322355735E+03  0.24583219527E+04  0.23952641856E+04 0.  0.
        1    1    3    3  502    0  0.80107033087E+03 -0.48866721652E+03 -0.48716602228E+03  0.10572795547E+04  0.50400001928E-02 0.  1.
       -1    1    3    3    0  502 -0.80107033087E+03  0.48866721652E+03  0.10403895796E+04  0.14010423980E+04  0.50400001928E-02 0. -1.
</event>
<event>
 5   0  0.7233625E-06  0.2400302E+04  0.7818609E-02  0.8439391E-01
       -3   -1    0    0    0  501  0.00000000000E+00  0.00000000000E+00  0.92331083985E+03  0.92331084537E+03  0.10100000352E+00 0.  1.
        3   -1    0    0  501    0  0.00000000000E+00  0.00000000000E+00 -0.15599966702E+04  0.15599966734E+04  0.10100000352E+00 0. -1.
    10030    2    1    2    0    0  0.00000000000E+00  0.00000000000E+00 -0.63668583031E+03  0.24833075188E+04  0.24003015199E+04 0.  0.
        5    1    3    3  502    0 -0.10259094325E+04 -0.72753075917E+02 -0.95824355309E+03  0.14057154658E+04  0.46999998093E+01 0. -1.
       -5    1    3    3    0  502  0.10259094325E+04  0.72753075917E+02  0.32155772278E+03  0.10775920530E+04  0.46999998093E+01 0.  1.
</event>
<event>
 5   0  0.2080257E-05  0.2396091E+04  0.7818609E-02  0.8440969E-01
       -2   -1    0    0    0  501  0.00000000000E+00  0.00000000000E+00  0.94199755098E+03  0.94199755099E+03  0.25500000920E-02 0. -1.
        2   -1    0    0  501    0  0.00000000000E+00  0.00000000000E+00 -0.15236903641E+04  0.15236903641E+04  0.25500000920E-02 0.  1.
    10030    2    1    2    0    0  0.00000000000E+00  0.00000000000E+00 -0.58169281311E+03  0.24656879151E+04  0.23960906422E+04 0.  0.
        1    1    3    3  502    0 -0.10245099006E+04 -0.23012504972E+03  0.30273978720E+03  0.10928080589E+04  0.50400001928E-02 0.  1.
       -1    1    3    3    0  502  0.10245099006E+04  0.23012504972E+03 -0.88443260031E+03  0.13728798561E+04  0.50400001928E-02 0. -1.
</event>
<event>
 5   0  0.9083687E-06  0.2386297E+04  0.7818609E-02  0.8444652E-01
        1   -1    0    0  501    0  0.00000000000E+00  0.00000000000E+00  0.12717862230E+04  0.12717862230E+04  0.50400001928E-02 0. -1.
       -1   -1    0    0    0  501  0.00000000000E+00  0.00000000000E+00 -0.11193731910E+04  0.11193731910E+04  0.50400001928E-02 0.  1.
    10030    2    1    2    0    0  0.00000000000E+00  0.00000000000E+00  0.15241303196E+03  0.23911594140E+04  0.23862970500E+04 0.  0.
        2    1    3    3  502    0 -0.27574253633E+02  0.16344194198E+03 -0.11077804571E+04  0.11201121144E+04  0.25500000920E-02 0.  1.
       -2    1    3    3    0  502  0.27574253633E+02 -0.16344194198E+03  0.12601934890E+04  0.12710472995E+04  0.25500000920E-02 0. -1.
</event>
<event>
 5   0  0.9176817E-06  0.2412302E+04  0.7818609E-02  0.8434912E-01
        1   -1    0    0  501    0  0.00000000000E+00  0.00000000000E+00  0.12637284351E+04  0.12637284351E+04  0.50400001928E-02 0.  1.
       -1   -1    0    0    0  501  0.00000000000E+00  0.00000000000E+00 -0.11511965545E+04  0.11511965545E+04  0.50400001928E-02 0. -1.
    10030    2    1    2    0    0  0.00000000000E+00  0.00000000000E+00  0.11253188053E+03  0.24149249896E+04  0.24123016564E+04 0.  0.
        3    1    3    3  502    0  0.17377064411E+03 -0.73735836820E+02  0.12488492341E+04  0.12630350866E+04  0.10100000352E+00 0.  1.
       -3    1    3    3    0  502 -0.17377064411E+03  0.73735836820E+02 -0.11363173536E+04  0.11518899030E+04  0.10100000352E+00 0. -1.
</event>
<event>
 5   0  0.8898848E-06  0.2410559E+04  0.7818609E-02  0.8435561E-01
       -1   -1    0    0    0  501  0.00000000000E+00  0.00000000000E+00  0.99580452726E+03  0.99580452727E+03  0.50400001928E-02 0. -1.
        1   -1    0    0  501    0  0.00000000000E+00  0.00000000000E+00 -0.14588193413E+04  0.14588193413E+04  0.50400001928E-02 0.  1.
    10030    2    1    2    0    0  0.00000000000E+00  0.00000000000E+00 -0.46301481403E+03  0.24546238686E+04  0.24105591920E+04 0.  0.
        5    1    3    3  502    0 -0.93754129157E+03  0.75381842371E+03 -0.30668739718E+03  0.12414931087E+04  0.46999998093E+01 0.  1.
       -5    1    3    3    0  502  0.93754129157E+03 -0.75381842371E+03 -0.15632741685E+03  0.12131307599E+04  0.46999998093E+01 0. -1.
</event>
<event>
 5   0  0.9083687E-06  0.2389400E+04  0.7818609E-02  0.8443483E-01
        1   -1    0    0  501    0  0.00000000000E+00  0.00000000000E+00  0.22847336831E+04  0.22847336831E+04  0.50400001928E-02 0.  1.
       -1   -1    0    0    0  501  0.00000000000E+00  0.00000000000E+00 -0.62471554611E+03  0.62471554613E+03  0.50400001928E-02 0. -1.
    10030    2    1    2    0    0  0.00000000000E+00  0.00000000000E+00  0.16600181370E+04  0.29094492292E+04  0.23894004692E+04 0.  0.
        2    1    3    3  502    0  0.49100892873E+03 -0.48253823702E+03  0.20189324961E+04  0.21330779035E+04  0.25500000920E-02 0.  1.
       -2    1    3    3    0  502 -0.49100892873E+03  0.48253823702E+03 -0.35891435914E+03  0.77637132577E+03  0.25500000920E-02 0. -1.
</event>
<event>
 5   0  0.2025353E-05  0.2412791E+04  0.7818609E-02  0.8434730E-01
        2   -1    0    0  501    0  0.00000000000E+00  0.00000000000E+00  0.11955406207E+04  0.11955406207E+04  0.25500000920E-02 0.  1.
       -2   -1    0    0    0  501  0.00000000000E+00  0.00000000000E+00 -0.12173490061E+04  0.12173490061E+04  0.25500000920E-02 0. -1.
    10030    2    1    2    0    0  0.00000000000E+00  0.00000000000E+00 -0.21808385353E+02  0.24128896268E+04  0.24127910696E+04 0.  0.
        4    1    3    3  502    0  0.35394132760E+03  0.63724009922E+03 -0.97221301796E+03  0.12151333971E+04  0.12699999809E+01 0. -1.
       -4    1    3    3    0  502 -0.35394132760E+03 -0.63724009922E+03  0.95040463261E+03  0.11977562298E+04  0.12699999809E+01 0.  1.
</event>
<event>
 5   0  0.8528103E-06  0.2368915E+04  0.7818609E-02  0.8451234E-01
       -1   -1    0    0    0  501  0.00000000000E+00  0.00000000000E+00  0.88508866922E+03  0.88508866923E+03  0.50400001928E-02 0. -1.
        1   -1    0    0  501    0  0.00000000000E+00  0.00000000000E+00 -0.15850841016E+04  0.15850841016E+04  0.50400001928E-02 0.  1.
    10030    2    1    2    0    0  0.00000000000E+00  0.00000000000E+00 -0.69999543242E+03  0.24701727709E+04  0.23689153452E+04 0.  0.
        4    1    3    3  502    0  0.11331505183E+04  0.99882296860E+02 -0.58418959386E+01  0.11375598055E+04  0.12699999809E+01 0.  1.
       -4    1    3    3    0  502 -0.11331505183E+04 -0.99882296860E+02 -0.69415353648E+03  0.13326129654E+04  0.12699999809E+01 0. -1.
</event>
<event>
 5   0  0.8898848E-06  0.2390242E+04  0.7818609E-02  0.8443166E-01
       -1   -1    0    0    0  501  0.00000000000E+00  0.00000000000E+00  0.70365961522E+03  0.70365961524E+03  0.50400001928E-02 0. -1.
        1   -1    0    0  501    0  0.00000000000E+00  0.00000000000E+00 -0.20298365302E+04  0.20298365302E+04  0.50400001928E-02 0.  1.
    10030    2    1    2    0    0  0.00000000000E+00  0.00000000000E+00 -0.13261769150E+04  0.27334961454E+04  0.23902418219E+04 0.  0.
        5    1    3    3  502    0 -0.62161183456E+03 -0.55150362743E+03 -0.16453488575E+04  0.18432993454E+04  0.46999998093E+01 0.  1.
       -5    1    3    3    0  502  0.62161183456E+03  0.55150362743E+03  0.31917194251E+03  0.89019680005E+03  0.46999998093E+01 0. -1.
</event>
<event>
 5   0  0.7233625E-06  0.2351750E+04  0.7818609E-02  0.8457792E-01
       -4   -1    0    0    0  501  0.00000000000E+00  0.00000000000E+00  0.13264294667E+04  0.13264300747E+04  0.12699999809E+01 0.  1.
        4   -1    0    0  501    0  0.00000000000E+00  0.00000000000E+00 -0.10424076628E+04  0.10424084365E+04  0.12699999809E+01 0. -1.
    10030    2    1    2    0    0  0.00000000000E+00  0.00000000000E+00  0.28402180392E+03  0.23688385112E+04  0.23517498819E+04 0.  0.
        4    1    3    3  502    0  0.23548484361E+03 -0.33343273642E+03 -0.96874849926E+03  0.10512401101E+04  0.12699999809E+01 0. -1.
       -4    1    3    3    0  502 -0.23548484361E+03  0.33343273642E+03  0.12527703032E+04  0.13175984011E+04  0.12699999809E+01 0.  1.
</event>
<event>
 5   0  0.2080257E-05  0.2411232E+04  0.7818609E-02  0.8435310E-01
        2   -1    0    0  501    0  0.00000000000E+00  0.00000000000E+00  0.12809105755E+04  0.12809105755E+04  0.25500000920E-02 0. -1.
       -2   -1    0    0    0  501  0.00000000000E+00  0.00000000000E+00 -0.11347475473E+04  0.11347475473E+04  0.25500000920E-02 0.  1.
    10030    2    1    2    0    0  0.00000000000E+00  0.00000000000E+00  0.14616302812E+03  0.24156581228E+04  0.24112321613E+04 0.  0.
        1    1    3    3  502    0 -0.89713287012E+03  0.54286623774E+03 -0.52295507352E+03  0.11717649712E+04  0.50400001928E-02 0.  1.
       -1    1    3    3    0  502  0.89713287012E+03 -0.54286623774E+03  0.66911810165E+03  0.12438931516E+04  0.50400001928E-02 0. -1.
</event>
<event>
 5   0  0.2122194E-05  0.2394022E+04  0.7818609E-02  0.8441745E-01
       -2   -1    0    0    0  501  0.00000000000E+00  0.00000000000E+00  0.71307633810E+03  0.71307633811E+03  0.25500000920E-02 0. -1.
        2   -1    0    0  501    0  0.00000000000E+00  0.00000000000E+00 -0.20093710229E+04  0.20093710229E+04  0.25500000920E-02 0.  1.
    10030    2    1    2    0    0  0.00000000000E+00  0.00000000000E+00 -0.12962946848E+04  0.27224473610E+04  0.23940216631E+04 0.  0.
        3    1    3    3  502    0  0.17027985065E+03  0.80057165853E+03 -0.16414286367E+04  0.18341750700E+04  0.10100000352E+00 0.  1.
       -3    1    3    3    0  502 -0.17027985065E+03 -0.80057165853E+03  0.34513395189E+03  0.88827229098E+03  0.10100000352E+00 0. -1.
</event>
<event>
 5   0  0.2122194E-05  0.2400623E+04  0.7818609E-02  0.8439270E-01
        2   -1    0    0  501    0  0.00000000000E+00  0.00000000000E+00  0.12523890857E+04  0.12523890857E+04  0.25500000920E-02 0.  1.
       -2   -1    0    0    0  501  0.00000000000E+00  0.00000000000E+00 -0.11503996799E+04  0.11503996799E+04  0.25500000920E-02 0. -1.
    10030    2    1    2    0    0  0.00000000000E+00  0.00000000000E+00  0.10198940582E+03  0.24027887656E+04  0.24006232551E+04 0.  0.
        3    1    3    3  502    0 -0.65596990655E+03  0.10049638701E+04  0.73355279698E+02  0.12023435057E+04  0.10100000352E+00 0.  1.
       -3    1    3    3    0  502  0.65596990655E+03 -0.10049638701E+04  0.28634126118E+02  0.12004452599E+04  0.10100000352E+00 0. -1.
</event>
<event>
 5   0  0.8528103E-06  0.2397220E+04  0.7818609E-02  0.8440545E-01
       -1   -1    0    0    0  501  0.00000000000E+00  0.00000000000E+00  0.79247038989E+03  0.79247038990E+03  0.50400001928E-02 0.  1.
        1   -1    0    0  501    0  0.00000000000E+00  0.00000000000E+00 -0.18128956839E+04  0.18128956839E+04  0.50400001928E-02 0. -1.
    10030    2    1    2    0    0  0.00000000000E+00  0.00000000000E+00 -0.10204252940E+04  0.26053660738E+04  0.23972201813E+04 0.  0.
        4    1    3    3  502    0  0.68427288473E+03 -0.35911040984E+03 -0.15059955792E+04  0.16926942916E+04  0.12699999809E+01 0. -1.
       -4    1    3    3    0  502 -0.68427288473E+03  0.35911040984E+03  0.48557028522E+03  0.91267178220E+03  0.12699999809E+01 0.  1.
</event>
<event>
 5   0  0.2080257E-05  0.2404056E+04  0.7818609E-02  0.8437987E-01
       -2   -1    0    0    0  501  0.00000000000E+00  0.00000000000E+00  0.95034355438E+03  0.95034355439E+03  0.25500000920E-02 0. -1.
        2   -1    0    0  501    0  0.00000000000E+00  0.00000000000E+00 -0.15203673406E+04  0.15203673406E+04  0.25500000920E-02 0.  1.
    10030    2    1    2    0    0  0.00000000000E+00  0.00000000000E+00 -0.57002378621E+03  0.24707108950E+04  0.24040559914E+04 0.  0.
        1    1    3    3  502    0  0.46716214885E+03 -0.47978858967E+02  0.85216072838E+03  0.97299555561E+03  0.50400001928E-02 0. -1.
       -1    1    3    3    0  502 -0.46716214885E+03  0.47978858967E+02 -0.14221845146E+04  0.14977153394E+04  0.50400001928E-02 0.  1.
</event>
<event>
 5   0  0.9083687E-06  0.2148307E+04  0.7818609E-02  0.8540257E-01
       -1   -1    0    0    0  501  0.00000000000E+00  0.00000000000E+00  0.42933685262E+03  0.42933685265E+03  0.50400001928E-02 0. -1.
        1   -1    0    0  501    0  0.00000000000E+00  0.00000000000E+00 -0.26874142905E+04  0.26874142905E+04  0.50400001928E-02 0.  1.
    10030    2    1    2    0    0  0.00000000000E+00  0.00000000000E+00 -0.22580774379E+04  0.31167511432E+04  0.21483072343E+04 0.  0.
        2    1    3    3  502    0  0.59691982656E+03  0.88675261933E+03 -0.12823191063E+04  0.16694267811E+04  0.25500000920E-02 0.  1.
       -2    1    3    3    0  502 -0.59691982656E+03 -0.88675261933E+03 -0.97575833164E+03  0.14473243621E+04  0.25500000920E-02 0. -1.
</event>
<event>
 5   0  0.9038897E-06  0.2400491E+04  0.7818609E-02  0.8439320E-01
       -1   -1    0    0    0  501  0.00000000000E+00  0.00000000000E+00  0.77433618293E+03  0.77433618294E+03  0.50400001928E-02 0. -1.
        1   -1    0    0  501    0  0.00000000000E+00  0.00000000000E+00 -0.18604189409E+04  0.18604189409E+04  0.50400001928E-02 0.  1.
    10030    2    1    2    0    0  0.00000000000E+00  0.00000000000E+00 -0.10860827579E+04  0.26347551238E+04  0.24004913675E+04 0.  0.
        1    1    3    3  502    0  0.14309331678E+03  0.87394351089E+03 -0.14322495980E+04  0.16839215744E+04  0.50400001928E-02 0.  1.
       -1    1    3    3    0  502 -0.14309331678E+03 -0.87394351089E+03  0.34616684010E+03  0.95083354944E+03  0.50400001928E-02 0. -1.
</event>
<event>
 5   0  0.8898848E-06  0.2382160E+04  0.7818609E-02  0.8446213E-01
        1   -1    0    0  501    0  0.00000000000E+00  0.00000000000E+00  0.14334698132E+04  0.14334698132E+04  0.50400001928E-02 0. -1.
       -1   -1    0    0    0  501  0.00000000000E+00  0.00000000000E+00 -0.98967686590E+03  0.98967686591E+03  0.50400001928E-02 0.  1.
    10030    2    1    2    0    0  0.00000000000E+00  0.00000000000E+00  0.44379294726E+03  0.24231466791E+04  0.23821602902E+04 0.  0.
        5    1    3    3  502    0  0.13263410713E+03 -0.31126048318E+03 -0.93975713628E+03  0.99881953322E+03  0.46999998093E+01 0.  1.
       -5    1    3    3    0  502 -0.13263410713E+03  0.31126048318E+03  0.13835500835E+04  0.14243271459E+04  0.46999998093E+01 0. -1.
</event>
<event>
 5   0  0.2087882E-05  0.2399195E+04  0.7818609E-02  0.8439805E-01
        2   -1    0    0  501    0  0.00000000000E+00  0.00000000000E+00  0.15515079608E+04  0.15515079608E+04  0.25500000920E-02 0. -1.
       -2   -1    0    0    0  501  0.00000000000E+00  0.00000000000E+00 -0.92750716585E+03  0.92750716585E+03  0.25500000920E-02 0.  1.
    10030    2    1    2    0    0  0.00000000000E+00  0.00000000000E+00  0.62400079491E+03  0.24790151266E+04  0.23991954914E+04 0.  0.
        2    1    3    3  502    0  0.74099868364E+02 -0.24270716648E+03  0.15234562300E+04  0.15444469702E+04  0.25500000920E-02 0. -1.
       -2    1    3    3    0  502 -0.74099868364E+02  0.24270716648E+03 -0.89945543510E+03  0.93456815636E+03  0.25500000920E-02 0.  1.
</event>
<event>
 5   0  0.2025353E-05  0.2427048E+04  0.7818609E-02  0.8429446E-01
       -2   -1    0    0    0  501  0.00000000000E+00  0.00000000000E+00  0.68462683728E+03  0.68462683729E+03  0.25500000920E-02 0.  1.
        2   -1    0    0  501    0  0.00000000000E+00  0.00000000000E+00 -0.21510126757E+04  0.21510126758E+04  0.25500000920E-02 0. -1.
    10030    2    1    2    0    0  0.00000000000E+00  0.00000000000E+00 -0.14663858385E+04  0.28356395130E+04  0.24270484174E+04 0.  0.
        4    1    3    3  502    0  0.95579698518E+03  0.26601409365E+03  0.83254837831E+02  0.99561255306E+03  0.12699999809E+01 0.  1.
       -4    1    3    3    0  502 -0.95579698518E+03 -0.26601409365E+03 -0.15496406763E+04  0.18400269600E+04  0.12699999809E+01 0. -1.
</event>
<event>
 5   0  0.2122194E-05  0.2397933E+04  0.7818609E-02  0.8440278E-01
        2   -1    0    0  501    0  0.00000000000E+00  0.00000000000E+00  0.11153990078E+04  0.11153990078E+04  0.25500000920E-02 0.  1.
       -2   -1    0    0    0  501  0.00000000000E+00  0.00000000000E+00 -0.12887954178E+04  0.12887954178E+04  0.25500000920E-02 0. -1.
    10030    2    1    2    0    0  0.00000000000E+00  0.00000000000E+00 -0.17339641000E+03  0.24041944257E+04  0.23979333855E+04 0.  0.
        3    1    3    3  502    0  0.91704500003E+03 -0.24142303951E+03  0.64888252277E+03  0.11490453231E+04  0.10100000352E+00 0.  1.
       -3    1    3    3    0  502 -0.91704500003E+03  0.24142303951E+03 -0.82227893277E+03  0.12551491025E+04  0.10100000352E+00 0. -1.
</event>
<event>
 5   0  0.7233625E-06  0.2389976E+04  0.7818609E-02  0.8443266E-01
       -3   -1    0    0    0  501  0.00000000000E+00  0.00000000000E+00  0.10882331210E+04  0.10882331257E+04  0.10100000352E+00 0.  1.
        3   -1    0    0  501    0  0.00000000000E+00  0.00000000000E+00 -0.13122157375E+04  0.13122157414E+04  0.10100000352E+00 0. -1.
    10030    2    1    2    0    0  0.00000000000E+00  0.00000000000E+00 -0.22398261646E+03  0.24004488671E+04  0.23899762658E+04 0.  0.
        1    1    3    3  502    0  0.14742493696E+03 -0.46014400266E+02 -0.13021500234E+04  0.13112765233E+04  0.50400001928E-02 0. -1.
       -1    1    3    3    0  502 -0.14742493696E+03  0.46014400266E+02  0.10781674070E+04  0.10891723438E+04  0.50400001928E-02 0.  1.
</event>
<event>
 5   0  0.7233625E-06  0.2396120E+04  0.7818609E-02  0.8440958E-01
        4   -1    0    0  501    0  0.00000000000E+00  0.00000000000E+00  0.12492039083E+04  0.12492045538E+04  0.12699999809E+01 0. -1.
       -4   -1    0    0    0  501  0.00000000000E+00  0.00000000000E+00 -0.11490087951E+04  0.11490094970E+04  0.12699999809E+01 0.  1.
    10030    2    1    2    0    0  0.00000000000E+00  0.00000000000E+00  0.10019511314E+03  0.23982140508E+04  0.23961201082E+04 0.  0.
        2    1    3    3  502    0 -0.35332104039E+01 -0.11979862080E+04  0.37262345341E+02  0.11985707824E+04  0.25500000920E-02 0. -1.
       -2    1    3    3    0  502  0.35332104039E+01  0.11979862080E+04  0.62932767797E+02  0.11996432684E+04  0.25500000920E-02 0.  1.
</event>
<event>
 5   0  0.2025353E-05  0.2345673E+04  0.7818609E-02  0.8460128E-01
       -2   -1    0    0    0  501  0.00000000000E+00  0.00000000000E+00  0.13809773102E+04  0.13809773102E+04  0.25500000920E-02 0.  1.
        2   -1    0    0  501    0  0.00000000000E+00  0.00000000000E+00 -0.99606651346E+03  0.99606651346E+03  0.25500000920E-02 0. -1.
    10030    2    1    2    0    0  0.00000000000E+00  0.00000000000E+00  0.38491079672E+03  0.23770438236E+04  0.23456728284E+04 0.  0.
        4    1    3    3  502    0 -0.84655705548E+02  0.11688805052E+04  0.14606746111E+03  0.11810103894E+04  0.12699999809E+01 0.  1.
       -4    1    3    3    0  502  0.84655705548E+02 -0.11688805052E+04  0.23884333561E+03  0.11960334342E+04  0.12699999809E+01 0. -1.
</event>
<event>
 5   0  0.2080257E-05  0.2405491E+04  0.7818609E-02  0.8437451E-01
        2   -1    0    0  501    0  0.00000000000E+00  0.00000000000E+00  0.18266168599E+04  0.18266168599E+04  0.25500000920E-02 0. -1.
       -2   -1    0    0    0  501  0.00000000000E+00  0.00000000000E+00 -0.79195429366E+03  0.79195429366E+03  0.25500000920E-02 0.  1.
    10030    2    1    2    0    0  0.00000000000E+00  0.00000000000E+00  0.10346625662E+04  0.26185711536E+04  0.24054912721E+04 0.  0.
        1    1    3    3  502    0 -0.47518386156E+03  0.52005575666E+03  0.15785379143E+04  0.17285947007E+04  0.50400001928E-02 0. -1.
       -1    1    3    3    0  502  0.47518386156E+03 -0.52005575666E+03 -0.54387534809E+03  0.88997645284E+03  0.50400001928E-02 0.  1.
</event>
<event>
 5   0  0.9038897E-06  0.2403432E+04  0.7818609E-02  0.8438220E-01
        1   -1    0    0  501    0  0.00000000000E+00  0.00000000000E+00  0.14183394520E+04  0.14183394520E+04  0.50400001928E-02 0.  1.
       -1   -1    0    0    0  501  0.00000000000E+00  0.00000000000E+00 -0.10181772044E+04  0.10181772044E+04  0.50400001928E-02 0. -1.
    10030    2    1    2    0    0  0.00000000000E+00  0.00000000000E+00  0.40016224762E+03  0.24365166564E+04  0.24034316284E+04 0.  0.
        1    1    3    3  502    0  0.99682537397E+03 -0.53330686522E+03  0.61317525227E+03  0.12861030008E+04  0.50400001928E-02 0. -1.
       -1    1    3    3    0  502 -0.99682537397E+03  0.53330686522E+03 -0.21301300465E+03  0.11504136555E+04  0.50400001928E-02 0.  1.
</event>
<event>
 5   0  0.8898848E-06  0.2377053E+04  0.7818609E-02  0.8448145E-01
        1   -1    0    0  501    0  0.00000000000E+00  0.00000000000E+00  0.12822666684E+04  0.12822666684E+04  0.50400001928E-02 0. -1.
       -1   -1    0    0    0  501  0.00000000000E+00  0.00000000000E+00 -0.11016392103E+04  0.11016392104E+04  0.50400001928E-02 0.  1.
    10030    2    1    2    0    0  0.00000000000E+00  0.00000000000E+00  0.18062745805E+03  0.23839058788E+04  0.23770529990E+04 0.  0.
        5    1    3    3  502    0  0.30327540285E+03  0.10970663667E+04 -0.25278740940E+03  0.11659563231E+04  0.46999998093E+01 0.  1.
       -5    1    3    3    0  502 -0.30327540285E+03 -0.10970663667E+04  0.43341486745E+03  0.12179495557E+04  0.46999998093E+01 0. -1.
</event>
<event>
 5   0  0.2048028E-05  0.2384028E+04  0.7818609E-02  0.8445507E-01
       -2   -1    0    0    0  501  0.00000000000E+00  0.00000000000E+00  0.76119674072E+03  0.76119674072E+03  0.25500000920E-02 0. -1.
        2   -1    0    0  501    0  0.00000000000E+00  0.00000000000E+00 -0.18666630944E+04  0.18666630944E+04  0.25500000920E-02 0.  1.
    10030    2    1    2    0    0  0.00000000000E+00  0.00000000000E+00 -0.11054663537E+04  0.26278598351E+04  0.23840284088E+04 0.  0.
        5    1    3    3  502    0 -0.71859886367E+03 -0.63441302804E+03  0.22826069876E+03  0.98538786963E+03  0.46999998093E+01 0. -1.
       -5    1    3    3    0  502  0.71859886367E+03  0.63441302804E+03 -0.13337270524E+04  0.16424719655E+04  0.46999998093E+01 0.  1.
</event>
<event>
 5   0  0.2048028E-05  0.2380920E+04  0.7818609E-02  0.8446682E-01
       -2   -1    0    0    0  501  0.00000000000E+00  0.00000000000E+00  0.12097345961E+04  0.12097345961E+04  0.25500000920E-02 0.  1.
        2   -1    0    0  501    0  0.00000000000E+00  0.00000000000E+00 -0.11714925088E+04  0.11714925088E+04  0.25500000920E-02 0. -1.
    10030    2    1    2    0    0  0.00000000000E+00  0.00000000000E+00  0.38242087261E+02  0.23812271049E+04  0.23809200045E+04 0.  0.
        5    1    3    3  502    0 -0.11313169930E+04  0.16299712587E+03  0.35192021904E+03  0.11959582485E+04  0.46999998093E+01 0.  1.
       -5    1    3    3    0  502  0.11313169930E+04 -0.16299712587E+03 -0.31367813178E+03  0.11852688564E+04  0.46999998093E+01 0. -1.
</event>
<event>
 5   0  0.2048028E-05  0.2481162E+04  0.7818609E-02  0.8409727E-01
        2   -1    0    0  501    0  0.00000000000E+00  0.00000000000E+00  0.24056798892E+04  0.24056798892E+04  0.25500000920E-02 0. -1.
       -2   -1    0    0    0  501  0.00000000000E+00  0.00000000000E+00 -0.63975329238E+03  0.63975329238E+03  0.25500000920E-02 0.  1.
    10030    2    1    2    0    0  0.00000000000E+00  0.00000000000E+00  0.17659265968E+04  0.30454331816E+04  0.24811623321E+04 0.  0.
        5    1    3    3  502    0  0.93408016244E+02 -0.68888694581E+03 -0.37819666364E+03  0.79141966617E+03  0.46999998093E+01 0.  1.
       -5    1    3    3    0  502 -0.93408016244E+02  0.68888694581E+03  0.21441232605E+04  0.22540135154E+04  0.46999998093E+01 0. -1.
</event>
<event>
 5   0  0.2025353E-05  0.2407874E+04  0.7818609E-02  0.8436561E-01
       -2   -1    0    0    0  501  0.00000000000E+00  0.00000000000E+00  0.11854936777E+04  0.11854936778E+04  0.25500000920E-02 0.  1.
        2   -1    0    0  501    0  0.00000000000E+00  0.00000000000E+00 -0.12226675384E+04  0.12226675384E+04  0.25500000920E-02 0. -1.
    10030    2    1    2    0    0  0.00000000000E+00  0.00000000000E+00 -0.37173860640E+02  0.24081612161E+04  0.24078742797E+04 0.  0.
        4    1    3    3  502    0 -0.78727834996E+03  0.90448342764E+03  0.88969144630E+02  0.12024203062E+04  0.12699999809E+01 0.  1.
       -4    1    3    3    0  502  0.78727834996E+03 -0.90448342764E+03 -0.12614300527E+03  0.12057409099E+04  0.12699999809E+01 0. -1.
</event>
<event>
 5   0  0.2025353E-05  0.2299312E+04  0.7818609E-02  0.8478192E-01
       -2   -1    0    0    0  501  0.00000000000E+00  0.00000000000E+00  0.10252567068E+04  0.10252567068E+04  0.25500000920E-02 0. -1.
        2   -1    0    0  501    0  0.00000000000E+00  0.00000000000E+00 -0.12891495589E+04  0.12891495589E+04  0.25500000920E-02 0.  1.
    10030    2    1    2    0    0  0.00000000000E+00  0.00000000000E+00 -0.26389285215E+03  0.23144062657E+04  0.22993122723E+04 0.  0.
        4    1    3    3  502    0 -0.45294879648E+03 -0.10558797124E+04 -0.17299451000E+03  0.11618835108E+04  0.12699999809E+01 0. -1.
       -4    1    3    3    0  502  0.45294879648E+03  0.10558797124E+04 -0.90898342156E+02  0.11525227550E+04  0.12699999809E+01 0.  1.
</event>
<event>
 5   0  0.8898848E-06  0.2394374E+04  0.7818609E-02  0.8441613E-01
       -1   -1    0    0    0  501  0.00000000000E+00  0.00000000000E+00  0.89584677312E+03  0.89584677314E+03  0.50400001928E-02 0. -1.
        1   -1    0    0  501    0  0.00000000000E+00  0.00000000000E+00 -0.15998900345E+04  0.15998900345E+04  0.50400001928E-02 0.  1.
    10030    2    1    2    0    0  0.00000000000E+00  0.00000000000E+00 -0.70404326136E+03  0.24957368076E+04  0.23943736757E+04 0.  0.
        5    1    3    3  502    0 -0.93096415736E+03 -0.69781669345E+03 -0.57958136548E+02  0.11649135743E+04  0.46999998093E+01 0. -1.
       -5    1    3    3    0  502  0.93096415736E+03  0.69781669345E+03 -0.64608512481E+03  0.13308232334E+04  0.46999998093E+01 0.  1.
</event>
<event>
 5   0  0.2122194E-05  0.2500359E+04  0.7818609E-02  0.8402858E-01
       -2   -1    0    0    0  501  0.00000000000E+00  0.00000000000E+00  0.88082334517E+03  0.88082334518E+03  0.25500000920E-02 0.  1.
        2   -1    0    0  501    0  0.00000000000E+00  0.00000000000E+00 -0.17744174313E+04  0.17744174313E+04  0.25500000920E-02 0. -1.
    10030    2    1    2    0    0  0.00000000000E+00  0.00000000000E+00 -0.89359408608E+03  0.26552407764E+04  0.25003586123E+04 0.  0.
        3    1    3    3  502    0  0.38836123804E+03 -0.98221798709E+03 -0.11570872760E+04  0.15666612907E+04  0.10100000352E+00 0. -1.
       -3    1    3    3    0  502 -0.38836123804E+03  0.98221798709E+03  0.26349318991E+03  0.10885794857E+04  0.10100000352E+00 0.  1.
</event>
<event>
 5   0  0.2087882E-05  0.2409087E+04  0.7818609E-02  0.8436109E-01
       -2   -1    0    0    0  501  0.00000000000E+00  0.00000000000E+00  0.11330278421E+04  0.11330278421E+04  0.25500000920E-02 0.  1.
        2   -1    0    0  501    0  0.00000000000E+00  0.00000000000E+00 -0.12805736370E+04  0.12805736370E+04  0.25500000920E-02 0. -1.
    10030    2    1    2    0    0  0.00000000000E+00  0.00000000000E+00 -0.14754579489E+03  0.24136014792E+04  0.24090874494E+04 0.  0.
        2    1    3    3  502    0 -0.54267348000E+03 -0.10618843464E+04  0.96347252969E+02  0.11964011301E+04  0.25500000920E-02 0.  1.
       -2    1    3    3    0  502  0.54267348000E+03  0.10618843464E+04 -0.24389304786E+03  0.12172003491E+04  0.25500000920E-02 0. -1.
</event>
<event>
 5   0  0.9176817E-06  0.2397363E+04  0.7818609E-02  0.8440492E-01
        1   -1    0    0  501    0  0.00000000000E+00  0.00000000000E+00  0.12836325437E+04  0.12836325437E+04  0.50400001928E-02 0. -1.
       -1   -1    0    0    0  501  0.00000000000E+00  0.00000000000E+00 -0.11193523065E+04  0.11193523065E+04  0.50400001928E-02 0.  1.
    10030    2    1    2    0    0  0.00000000000E+00  0.00000000000E+00  0.16428023714E+03  0.24029848502E+04  0.23973627581E+04 0.  0.
        3    1    3    3  502    0 -0.65126904441E+03 -0.93175519000E+03 -0.29890653634E+03  0.11754421423E+04  0.10100000352E+00 0.  1.
       -3    1    3    3    0  502  0.65126904441E+03  0.93175519000E+03  0.46318677347E+03  0.12275427079E+04  0.10100000352E+00 0. -1.
</event>
<event>
 5   0  0.2048028E-05  0.2389580E+04  0.7818609E-02  0.8443415E-01
       -2   -1    0    0    0  501  0.00000000000E+00  0.00000000000E+00  0.11849148831E+04  0.11849148831E+04  0.25500000920E-02 0.  1.
        2   -1    0    0  501    0  0.00000000000E+00  0.00000000000E+00 -0.12047478136E+04  0.12047478136E+04  0.25500000920E-02 0. -1.
    10030    2    1    2    0    0  0.00000000000E+00  0.00000000000E+00 -0.19832930539E+02  0.23896626967E+04  0.23895803938E+04 0.  0.
        5    1    3    3  502    0  0.25367709739E+03  0.73283909725E+03 -0.91884617590E+03  0.12023749819E+04  0.46999998093E+01 0. -1.
       -5    1    3    3    0  502 -0.25367709739E+03 -0.73283909725E+03  0.89901324536E+03  0.11872877147E+04  0.46999998093E+01 0.  1.
</event>
<event>
 5   0  0.2087882E-05  0.2402312E+04  0.7818609E-02  0.8438639E-01
        2   -1    0    0  501    0  0.00000000000E+00  0.00000000000E+00  0.13443766143E+04  0.13443766143E+04  0.25500000920E-02 0. -1.
       -2   -1    0    0    0  501  0.00000000000E+00  0.00000000000E+00 -0.10731929446E+04  0.10731929446E+04  0.25500000920E-02 0.  1.
    10030    2    1    2    0    0  0.00000000000E+00  0.00000000000E+00  0.27118366965E+03  0.24175695589E+04  0.24023118011E+04 0.  0.
        2    1    3    3  502    0 -0.69157765750E+03  0.38784869754E+03 -0.77239650906E+03  0.11069338895E+04  0.25500000920E-02 0.  1.
       -2    1    3    3    0  502  0.69157765750E+03 -0.38784869754E+03  0.10435801787E+04  0.13106356694E+04  0.25500000920E-02 0. -1.
</event>
<event>
 5   0  0.9038897E-06  0.2390593E+04  0.7818609E-02  0.8443034E-01
        1   -1    0    0  501    0  0.00000000000E+00  0.00000000000E+00  0.16534888035E+04  0.16534888035E+04  0.50400001928E-02 0.  1.
       -1   -1    0    0    0  501  0.00000000000E+00  0.00000000000E+00 -0.86407186419E+03  0.86407186421E+03  0.50400001928E-02 0. -1.
    10030    2    1    2    0    0  0.00000000000E+00  0.00000000000E+00  0.78941693930E+03  0.25175606677E+04  0.23905925231E+04 0.  0.
        1    1    3    3  502    0  0.21360295696E+02 -0.11384258600E+04  0.77770453703E+03  0.13788741958E+04  0.50400001928E-02 0. -1.
       -1    1    3    3    0  502 -0.21360295696E+02  0.11384258600E+04  0.11712402267E+02  0.11386864719E+04  0.50400001928E-02 0.  1.
</event>
<event>
 5   0  0.2048028E-05  0.2406196E+04  0.7818609E-02  0.8437187E-01
       -2   -1    0    0    0  501  0.00000000000E+00  0.00000000000E+00  0.24050435389E+04  0.24050435389E+04  0.25500000920E-02 0. -1.
        2   -1    0    0  501    0  0.00000000000E+00  0.00000000000E+00 -0.60183730496E+03  0.60183730497E+03  0.25500000920E-02 0.  1.
    10030    2    1    2    0    0  0.00000000000E+00  0.00000000000E+00  0.18032062339E+04  0.30068808438E+04  0.24061961032E+04 0.  0.
        5    1    3    3  502    0 -0.41776879473E+03 -0.72539077408E+03 -0.17823426883E+03  0.85586919886E+03  0.46999998093E+01 0.  1.
       -5    1    3    3    0  502  0.41776879473E+03  0.72539077408E+03  0.19814405027E+04  0.21510116450E+04  0.46999998093E+01 0. -1.
</event>
<event>
 5   0  0.2048028E-05  0.2403988E+04  0.7818609E-02  0.8438012E-01
        2   -1    0    0  501    0  0.00000000000E+00  0.00000000000E+00  0.91743907265E+03  0.91743907266E+03  0.25500000920E-02 0.  1.
       -2   -1    0    0    0  501  0.00000000000E+00  0.00000000000E+00 -0.15748075453E+04  0.15748075453E+04  0.25500000920E-02 0. -1.
    10030    2    1    2    0    0  0.00000000000E+00  0.00000000000E+00 -0.65736847267E+03  0.24922466180E+04  0.24039883311E+04 0.  0.
        5    1    3    3  502    0 -0.46242128401E+03  0.55258818666E+03 -0.13260760828E+04  0.15092007870E+04  0.46999998093E+01 0. -1.
       -5    1    3    3    0  502  0.46242128401E+03 -0.55258818666E+03  0.66870761018E+03  0.98304583100E+03  0.46999998093E+01 0.  1.
</event>
<event>
 5   0  0.2122194E-05  0.2169715E+04  0.7818609E-02  0.8531140E-01
        2   -1    0    0  501    0  0.00000000000E+00  0.00000000000E+00  0.21985835697E+04  0.21985835697E+04  0.25500000920E-02 0.  1.
       -2   -1    0    0    0  501  0.00000000000E+00  0.00000000000E+00 -0.53530622039E+03  0.53530622040E+03  0.25500000920E-02 0. -1.
    10030    2    1    2    0    0  0.00000000000E+00  0.00000000000E+00  0.16632773493E+04  0.27338897901E+04  0.21697146918E+04 0.  0.
        3    1    3    3  502    0 -0.40805199614E+03 -0.27826246539E+03  0.20487051848E+04  0.21073987225E+04  0.10100000352E+00 0.  1.
       -3    1    3    3    0  502  0.40805199614E+03  0.27826246539E+03 -0.38542783549E+03  0.62649106759E+03  0.10100000352E+00 0. -1.
</event>
<event>
 5   0  0.9083687E-06  0.2390842E+04  0.7818609E-02  0.8442940E-01
        1   -1    0    0  501    0  0.00000000000E+00  0.00000000000E+00  0.94810173410E+03  0.94810173411E+03  0.50400001928E-02 0. -1.
       -1   -1    0    0    0  501  0.00000000000E+00  0.00000000000E+00 -0.15072551944E+04  0.15072551944E+04  0.50400001928E-02 0.  1.
    10030    2    1    2    0    0  0.00000000000E+00  0.00000000000E+00 -0.55915346027E+03  0.24553569285E+04  0.23908419132E+04 0.  0.
        2    1    3    3  502    0  0.96897273893E+03  0.28326996482E+03 -0.93707222823E+03  0.13774085823E+04  0.25500000920E-02 0.  1.
       -2    1    3    3    0  502 -0.96897273893E+03 -0.28326996482E+03  0.37791876797E+03  0.10779483461E+04  0.25500000920E-02 0. -1.
</event>
<event>
 5   0  0.8898848E-06  0.2398040E+04  0.7818609E-02  0.8440238E-01
        1   -1    0    0  501    0  0.00000000000E+00  0.00000000000E+00  0.16833287802E+04  0.16833287802E+04  0.50400001928E-02 0. -1.
       -1   -1    0    0    0  501  0.00000000000E+00  0.00000000000E+00 -0.85405125175E+03  0.85405125177E+03  0.50400001928E-02 0.  1.
    10030    2    1    2    0    0  0.00000000000E+00  0.00000000000E+00  0.82927752849E+03  0.25373800320E+04  0.23980400763E+04 0.  0.
        5    1    3    3  502    0 -0.37082202871E+02  0.96737454027E+03  0.11631604412E+04  0.15133251114E+04  0.46999998093E+01 0. -1.
       -5    1    3    3    0  502  0.37082202871E+02 -0.96737454027E+03 -0.33388291272E+03  0.10240549206E+04  0.46999998093E+01 0.  1.
</event>
<event>
 5   0  0.2087882E-05  0.2297373E+04  0.7818609E-02  0.8478958E-01
        2   -1    0    0  501    0  0.00000000000E+00  0.00000000000E+00  0.10961916276E+04  0.10961916276E+04  0.25500000920E-02 0. -1.
       -2   -1    0    0    0  501  0.00000000000E+00  0.00000000000E+00 -0.12036948955E+04  0.12036948955E+04  0.25500000920E-02 0.  1.
    10030    2    1    2    0    0  0.00000000000E+00  0.00000000000E+00 -0.10750326795E+03  0.22998865231E+04  0.22973726442E+04 0.  0.
        2    1    3    3  502    0  0.67315018172E+03 -0.75168364032E+03  0.49577598146E+03  0.11242567705E+04  0.25500000920E-02 0. -1.
       -2    1    3    3    0  502 -0.67315018172E+03  0.75168364032E+03 -0.60327924941E+03  0.11756297525E+04  0.25500000920E-02 0.  1.
</event>
<event>
 5   0  0.2080257E-05  0.2417735E+04  0.7818609E-02  0.8432893E-01
       -2   -1    0    0    0  501  0.00000000000E+00  0.00000000000E+00  0.91447475113E+03  0.91447475113E+03  0.25500000920E-02 0.  1.
        2   -1    0    0  501    0  0.00000000000E+00  0.00000000000E+00 -0.15980331005E+04  0.15980331005E+04  0.25500000920E-02 0. -1.
    10030    2    1    2    0    0  0.00000000000E+00  0.00000000000E+00 -0.68355834933E+03  0.25125078516E+04  0.24177352393E+04 0.  0.
        1    1    3    3  502    0  0.25480990933E+03  0.87988306027E+03  0.47796279821E+03  0.10332331422E+04  0.50400001928E-02 0.  1.
       -1    1    3    3    0  502 -0.25480990933E+03 -0.87988306027E+03 -0.11615211475E+04  0.14792747094E+04  0.50400001928E-02 0. -1.
</event>
<event>
 5   0  0.9083687E-06  0.2391241E+04  0.7818609E-02  0.8442790E-01
       -1   -1    0    0    0  501  0.00000000000E+00  0.00000000000E+00  0.57564410728E+03  0.57564410730E+03  0.50400001928E-02 0.  1.
        1   -1    0    0  501    0  0.00000000000E+00  0.00000000000E+00 -0.24833191388E+04  0.24833191388E+04  0.50400001928E-02 0. -1.
    10030    2    1    2    0    0  0.00000000000E+00  0.00000000000E+00 -0.19076750315E+04  0.30589632461E+04  0.23912407062E+04 0.  0.
        2    1    3    3  502    0 -0.46507116331E+03 -0.11005681657E+04 -0.10105663635E+04  0.15648596900E+04  0.25500000920E-02 0. -1.
       -2    1    3    3    0  502  0.46507116331E+03  0.11005681657E+04 -0.89710866800E+03  0.14941035561E+04  0.25500000920E-02 0.  1.
</event>
<event>
 5   0  0.9176817E-06  0.2410080E+04  0.7818609E-02  0.8435739E-01
       -1   -1    0    0    0  501  0.00000000000E+00  0.00000000000E+00  0.11310159872E+04  0.11310159872E+04  0.50400001928E-02 0. -1.
        1   -1    0    0  501    0  0.00000000000E+00  0.00000000000E+00 -0.12839090425E+04  0.12839090425E+04  0.50400001928E-02 0.  1.
    10030    2    1    2    0    0  0.00000000000E+00  0.00000000000E+00 -0.15289305527E+03  0.24149250296E+04  0.24100802087E+04 0.  0.
        3    1    3    3  502    0  0.98404686497E+03  0.18090174847E+03 -0.74939764986E+03  0.12500682073E+04  0.10100000352E+00 0.  1.
       -3    1    3    3    0  502 -0.98404686497E+03 -0.18090174847E+03  0.59650459458E+03  0.11648568224E+04  0.10100000352E+00 0. -1.
</event>
<event>
 5   0  0.2087882E-05  0.2408357E+04  0.7818609E-02  0.8436381E-01
        2   -1    0    0  501    0  0.00000000000E+00  0.00000000000E+00  0.10685414310E+04  0.10685414310E+04  0.25500000920E-02 0. -1.
       -2   -1    0    0    0  501  0.00000000000E+00  0.00000000000E+00 -0.13570328418E+04  0.13570328418E+04  0.25500000920E-02 0.  1.
    10030    2    1    2    0    0  0.00000000000E+00  0.00000000000E+00 -0.28849141078E+03  0.24255742728E+04  0.24083569625E+04 0.  0.
        2    1    3    3  502    0 -0.10559679883E+04 -0.55022735801E+03 -0.32504866057E+03  0.12342913633E+04  0.25500000920E-02 0. -1.
       -2    1    3    3    0  502  0.10559679883E+04  0.55022735801E+03  0.36557249794E+02  0.11912829095E+04  0.25500000920E-02 0.  1.
</event>
<event>
 5   0  0.9038897E-06  0.2394449E+04  0.7818609E-02  0.8441585E-01
       -1   -1    0    0    0  501  0.00000000000E+00  0.00000000000E+00  0.84040033672E+03  0.84040033673E+03  0.50400001928E-02 0. -1.
        1   -1    0    0  501    0  0.00000000000E+00  0.00000000000E+00 -0.17055519633E+04  0.17055519633E+04  0.50400001928E-02 0.  1.
    10030    2    1    2    0    0  0.00000000000E+00  0.00000000000E+00 -0.86515162657E+03  0.25459523000E+04  0.23944489506E+04 0.  0.
        1    1    3    3  502    0  0.14561666222E+03  0.11817865610E+04 -0.56504934015E+03  0.13179925815E+04  0.50400001928E-02 0.  1.
       -1    1    3    3    0  502 -0.14561666222E+03 -0.11817865610E+04 -0.30010228642E+03  0.12279597185E+04  0.50400001928E-02 0. -1.
</event>
<event>
 5   0  0.9038897E-06  0.2401113E+04  0.7818609E-02  0.8439087E-01
       -1   -1    0    0    0  501  0.00000000000E+00  0.00000000000E+00  0.85867783841E+03  0.85867783843E+03  0.50400001928E-02 0.  1.
        1   -1    0    0  501    0  0.00000000000E+00  0.00000000000E+00 -0.16785528674E+04  0.16785528674E+04  0.50400001928E-02 0. -1.
    10030    2    1    2    0    0  0.00000000000E+00  0.00000000000E+00 -0.81987502901E+03  0.25372307059E+04  0.24011131984E+04 0.  0.
        1    1    3    3  502    0 -0.39190741831E+02 -0.50708437260E+03 -0.15590917428E+04  0.16399504681E+04  0.50400001928E-02 0. -1.
       -1    1    3    3    0  502  0.39190741831E+02  0.50708437260E+03  0.73921671379E+03  0.89728023780E+03  0.50400001928E-02 0.  1.
</event>
<event>
 5   0  0.9083687E-06  0.2406441E+04  0.7818609E-02  0.8437096E-01
        1   -1    0    0  501    0  0.00000000000E+00  0.00000000000E+00  0.18175952280E+04  0.18175952280E+04  0.50400001928E-02 0. -1.
       -1   -1    0    0    0  501  0.00000000000E+00  0.00000000000E+00 -0.79651367134E+03  0.79651367135E+03  0.50400001928E-02 0.  1.
    10030    2    1    2    0    0  0.00000000000E+00  0.00000000000E+00  0.10210815567E+04  0.26141088994E+04  0.24064408974E+04 0.  0.
        2    1    3    3  502    0  0.22782233529E+03  0.11087344926E+03  0.17882878271E+04  0.18061476382E+04  0.25500000920E-02 0. -1.
       -2    1    3    3    0  502 -0.22782233529E+03 -0.11087344926E+03 -0.76720627044E+03  0.80796126121E+03  0.25500000920E-02 0.  1.
</event>
<event>
 5   0  0.2025353E-05  0.2394409E+04  0.7818609E-02  0.8441600E-01
       -2   -1    0    0    0  501  0.00000000000E+00  0.00000000000E+00  0.11251546691E+04  0.11251546691E+04  0.25500000920E-02 0. -1.
        2   -1    0    0  501    0  0.00000000000E+00  0.00000000000E+00 -0.12738678072E+04  0.12738678072E+04  0.25500000920E-02 0.  1.
    10030    2    1    2    0    0  0.00000000000E+00  0.00000000000E+00 -0.14871313812E+03  0.23990224763E+04  0.23944087463E+04 0.  0.
        4    1    3    3  502    0  0.90918601316E+03  0.44162499838E+03 -0.71718839657E+03  0.12393597762E+04  0.12699999809E+01 0.  1.
       -4    1    3    3    0  502 -0.90918601316E+03 -0.44162499838E+03  0.56847525845E+03  0.11596627001E+04  0.12699999809E+01 0. -1.
</event>
<event>
 5   0  0.2048028E-05  0.2179218E+04  0.7818609E-02  0.8527128E-01
       -2   -1    0    0    0  501  0.00000000000E+00  0.00000000000E+00  0.11442429151E+04  0.11442429151E+04  0.25500000920E-02 0. -1.
        2   -1    0    0  501    0  0.00000000000E+00  0.00000000000E+00 -0.10375836170E+04  0.10375836170E+04  0.25500000920E-02 0.  1.
    10030    2    1    2    0    0  0.00000000000E+00  0.00000000000E+00  0.10665929814E+03  0.21818265321E+04  0.21792179355E+04 0.  0.
        5    1    3    3  502    0  0.94072739265E+03 -0.54973713593E+03  0.60169131368E+02  0.10912476164E+04  0.46999998093E+01 0. -1.
       -5    1    3    3    0  502 -0.94072739265E+03  0.54973713593E+03  0.46490166771E+02  0.10905789158E+04  0.46999998093E+01 0.  1.
</event>
<event>
 5   0  0.2025353E-05  0.2404487E+04  0.7818609E-02  0.8437826E-01
       -2   -1    0    0    0  501  0.00000000000E+00  0.00000000000E+00  0.13715691068E+04  0.13715691069E+04  0.25500000920E-02 0.  1.
        2   -1    0    0  501    0  0.00000000000E+00  0.00000000000E+00 -0.10538216532E+04  0.10538216532E+04  0.25500000920E-02 0. -1.
    10030    2    1    2    0    0  0.00000000000E+00  0.00000000000E+00  0.31774745369E+03  0.24253907600E+04  0.24044868256E+04 0.  0.
        4    1    3    3  502    0 -0.70012401482E+03 -0.97700552965E+03  0.18506423356E+03  0.12161265660E+04  0.12699999809E+01 0.  1.
       -4    1    3    3    0  502  0.70012401482E+03  0.97700552965E+03  0.13268322014E+03  0.12092641940E+04  0.12699999809E+01 0. -1.
</event>
<event>
 5   0  0.2080257E-05  0.2436992E+04  0.7818609E-02  0.8425783E-01
        2   -1    0    0  501    0  0.00000000000E+00  0.00000000000E+00  0.11149195169E+04  0.11149195169E+04  0.25500000920E-02 0.  1.
       -2   -1    0    0    0  501  0.00000000000E+00  0.00000000000E+00 -0.13316947108E+04  0.13316947108E+04  0.25500000920E-02 0. -1.
    10030    2    1    2    0    0  0.00000000000E+00  0.00000000000E+00 -0.21677519384E+03  0.24466142277E+04  0.24369919357E+04 0.  0.
        1    1    3    3  502    0  0.50039713699E+03 -0.84658142826E+03  0.61392173811E+03  0.11593089795E+04  0.50400001928E-02 0.  1.
       -1    1    3    3    0  502 -0.50039713699E+03  0.84658142826E+03 -0.83069693195E+03  0.12873052482E+04  0.50400001928E-02 0. -1.
</event>
<event>
 5   0  0.2048028E-05  0.2383694E+04  0.7818609E-02  0.8445633E-01
        2   -1    0    0  501    0  0.00000000000E+00  0.00000000000E+00  0.10518919713E+04  0.10518919713E+04  0.25500000920E-02 0. -1.
       -2   -1    0    0    0  501  0.00000000000E+00  0.00000000000E+00 -0.13504237162E+04  0.13504237162E+04  0.25500000920E-02 0.  1.
    10030    2    1    2    0    0  0.00000000000E+00  0.00000000000E+00 -0.29853174484E+03  0.24023156875E+04  0.23836944979E+04 0.  0.
        5    1    3    3  502    0 -0.26789636726E+03 -0.68059960041E+03  0.79909181920E+03  0.10833070226E+04  0.46999998093E+01 0. -1.
       -5    1    3    3    0  502  0.26789636726E+03  0.68059960041E+03 -0.10976235640E+04  0.13190086649E+04  0.46999998093E+01 0.  1.
</event>
<event>
 5   0  0.2122194E-05  0.2378403E+04  0.7818609E-02  0.8447634E-01
        2   -1    0    0  501    0  0.00000000000E+00  0.00000000000E+00  0.14434319934E+04  0.14434319934E+04  0.25500000920E-02 0. -1.
       -2   -1    0    0    0  501  0.00000000000E+00  0.00000000000E+00 -0.97974849348E+03  0.97974849349E+03  0.25500000920E-02 0.  1.
    10030    2    1    2    0    0  0.00000000000E+00  0.00000000000E+00  0.46368349987E+03  0.24231804868E+04  0.23784030953E+04 0.  0.
        3    1    3    3  502    0  0.10846950005E+04  0.26677424390E+03  0.64752873330E+03  0.12911333053E+04  0.10100000352E+00 0. -1.
       -3    1    3    3    0  502 -0.10846950005E+04 -0.26677424390E+03 -0.18384523343E+03  0.11320471816E+04  0.10100000352E+00 0.  1.
</event>
<event>
 5   0  0.2025353E-05  0.2403055E+04  0.7818609E-02  0.8438361E-01
        2   -1    0    0  501    0  0.00000000000E+00  0.00000000000E+00  0.12662324533E+04  0.12662324533E+04  0.25500000920E-02 0.  1.
       -2   -1    0    0    0  501  0.00000000000E+00  0.00000000000E+00 -0.11401289816E+04  0.11401289816E+04  0.25500000920E-02 0. -1.
    10030    2    1    2    0    0  0.00000000000E+00  0.00000000000E+00  0.12610347170E+03  0.24063614349E+04  0.24030549868E+04 0.  0.
        4    1    3    3  502    0 -0.16746121224E+03 -0.73744054031E+03 -0.87193791173E+03  0.11541833229E+04  0.12699999809E+01 0. -1.
       -4    1    3    3    0  502  0.16746121224E+03  0.73744054031E+03  0.99804138343E+03  0.12521781120E+04  0.12699999809E+01 0.  1.
</event>
<event>
 5   0  0.9176817E-06  0.2429686E+04  0.7818609E-02  0.8428472E-01
       -1   -1    0    0    0  501  0.00000000000E+00  0.00000000000E+00  0.82400908731E+03  0.82400908732E+03  0.50400001928E-02 0.  1.
        1   -1    0    0  501    0  0.00000000000E+00  0.00000000000E+00 -0.17910528836E+04  0.17910528836E+04  0.50400001928E-02 0. -1.
    10030    2    1    2    0    0  0.00000000000E+00  0.00000000000E+00 -0.96704379630E+03  0.26150619709E+04  0.24296862777E+04 0.  0.
        3    1    3    3  502    0 -0.56578166075E+03 -0.70808029911E+03  0.38711935559E+03  0.98556988758E+03  0.10100000352E+00 0.  1.
       -3    1    3    3    0  502  0.56578166075E+03  0.70808029911E+03 -0.13541631519E+04  0.16294920834E+04  0.10100000352E+00 0. -1.
</event>
<event>
 5   0  0.9083687E-06  0.2375104E+04  0.7818609E-02  0.8448883E-01
       -1   -1    0    0    0  501  0.00000000000E+00  0.00000000000E+00  0.13760138933E+04  0.13760138933E+04  0.50400001928E-02 0. -1.
        1   -1    0    0  501    0  0.00000000000E+00  0.00000000000E+00 -0.10249026357E+04  0.10249026357E+04  0.50400001928E-02 0.  1.
    10030    2    1    2    0    0  0.00000000000E+00  0.00000000000E+00  0.35111125761E+03  0.24009165290E+04  0.23751044322E+04 0.  0.
        2    1    3    3  502    0 -0.10925615444E+04 -0.27264393123E+03 -0.20571017388E+03  0.11447017591E+04  0.25500000920E-02 0. -1.
       -2    1    3    3    0  502  0.10925615444E+04  0.27264393123E+03  0.55682143149E+03  0.12562147699E+04  0.25500000920E-02 0.  1.
</event>
<event>
 5   0  0.8898848E-06  0.2401133E+04  0.7818609E-02  0.8439079E-01
       -1   -1    0    0    0  501  0.00000000000E+00  0.00000000000E+00  0.10357411890E+04  0.10357411890E+04  0.50400001928E-02 0. -1.
        1   -1    0    0  501    0  0.00000000000E+00  0.00000000000E+00 -0.13916222757E+04  0.13916222757E+04  0.50400001928E-02 0.  1.
    10030    2    1    2    0    0  0.00000000000E+00  0.00000000000E+00 -0.35588108665E+03  0.24273634647E+04  0.24011334911E+04 0.  0.
        5    1    3    3  502    0 -0.45056905964E+03  0.73149557410E+03  0.66981441799E+03  0.10893905163E+04  0.46999998093E+01 0. -1.
       -5    1    3    3    0  502  0.45056905964E+03 -0.73149557410E+03 -0.10256955046E+04  0.13379729484E+04  0.46999998093E+01 0.  1.
</event>
<event>
 5   0  0.2025353E-05  0.2385941E+04  0.7818609E-02  0.8444786E-01
        2   -1    0    0  501    0  0.00000000000E+00  0.00000000000E+00  0.12537081089E+04  0.12537081089E+04  0.25500000920E-02 0.  1.
       -2   -1    0    0    0  501  0.00000000000E+00  0.00000000000E+00 -0.11351751975E+04  0.11351751975E+04  0.25500000920E-02 0. -1.
    10030    2    1    2    0    0  0.00000000000E+00  0.00000000000E+00  0.11853291144E+03  0.23888833064E+04  0.23859407789E+04 0.  0.
        4    1    3    3  502    0  0.33063394592E+03  0.10192082761E+04 -0.46585383588E+03  0.11683859489E+04  0.12699999809E+01 0. -1.
       -4    1    3    3    0  502 -0.33063394592E+03 -0.10192082761E+04  0.58438674732E+03  0.12204973575E+04  0.12699999809E+01 0.  1.
</event>
<event>
 5   0  0.9038897E-06  0.2398825E+04  0.7818609E-02  0.8439943E-01
       -1   -1    0    0    0  501  0.00000000000E+00  0.00000000000E+00  0.14612968811E+04  0.14612968812E+04  0.50400001928E-02 0.  1.
        1   -1    0    0  501    0  0.00000000000E+00  0.00000000000E+00 -0.98446177219E+03  0.98446177221E+03  0.50400001928E-02 0. -1.
    10030    2    1    2    0    0  0.00000000000E+00  0.00000000000E+00  0.47683510895E+03  0.24457586534E+04  0.23988254771E+04 0.  0.
        1    1    3    3  502    0 -0.48050300098E+03  0.60685311178E+03  0.11725512151E+04  0.14050018453E+04  0.50400001928E-02 0.  1.
       -1    1    3    3    0  502  0.48050300098E+03 -0.60685311178E+03 -0.69571610613E+03  0.10407568081E+04  0.50400001928E-02 0. -1.
</event>
<event>
 5   0  0.8898848E-06  0.2388446E+04  0.7818609E-02  0.8443842E-01
        1   -1    0    0  501    0  0.00000000000E+00  0.00000000000E+00  0.14355082816E+04  0.14355082816E+04  0.50400001928E-02 0.  1.
       -1   -1    0    0    0  501  0.00000000000E+00  0.00000000000E+00 -0.99349410233E+03  0.99349410235E+03  0.50400001928E-02 0. -1.
    10030    2    1    2    0    0  0.00000000000E+00  0.00000000000E+00  0.44201417930E+03  0.24290023840E+04  0.23884463667E+04 0.  0.
        5    1    3    3  502    0 -0.97641373424E+03  0.55800417300E+03  0.62956798032E+03  0.12888484664E+04  0.46999998093E+01 0.  1.
       -5    1    3    3    0  502  0.97641373424E+03 -0.55800417300E+03 -0.18755380102E+03  0.11401539176E+04  0.46999998093E+01 0. -1.
</event>
<event>
 5   0  0.9038897E-06  0.2401462E+04  0.7818609E-02  0.8438956E-01
       -1   -1    0    0    0  501  0.00000000000E+00  0.00000000000E+00  0.77906265355E+03  0.77906265357E+03  0.50400001928E-02 0.  1.
        1   -1    0    0  501    0  0.00000000000E+00  0.00000000000E+00 -0.18506275058E+04  0.18506275058E+04  0.50400001928E-02 0. -1.
    10030    2    1    2    0    0  0.00000000000E+00  0.00000000000E+00 -0.10715648523E+04  0.26296901594E+04  0.24014618676E+04 0.  0.
        1    1    3    3  502    0  0.55420914790E+03 -0.10202461868E+04 -0.20057810673E+03  0.11782536392E+04  0.50400001928E-02 0. -1.
       -1    1    3    3    0  502 -0.55420914790E+03  0.10202461868E+04 -0.87098674553E+03  0.14514365202E+04  0.50400001928E-02 0.  1.
</event>
<event>
 5   0  0.9083687E-06  0.2386512E+04  0.7818609E-02  0.8444571E-01
       -1   -1    0    0    0  501  0.00000000000E+00  0.00000000000E+00  0.13192880982E+04  0.13192880982E+04  0.50400001928E-02 0.  1.
        1   -1    0    0  501    0  0.00000000000E+00  0.00000000000E+00 -0.10792636051E+04  0.10792636051E+04  0.50400001928E-02 0. -1.
    10030    2    1    2    0    0  0.00000000000E+00  0.00000000000E+00  0.24002449312E+03  0.23985517033E+04  0.23865117884E+04 0.  0.
        2    1    3    3  502    0 -0.57094045881E+03 -0.52316501787E+03 -0.79241416883E+03  0.11079687985E+04  0.25500000920E-02 0. -1.
       -2    1    3    3    0  502  0.57094045881E+03  0.52316501787E+03  0.10324386620E+04  0.12905829048E+04  0.25500000920E-02 0.  1.
</event>
<event>
 5   0  0.2048028E-05  0.2397007E+04  0.7818609E-02  0.8440625E-01
        2   -1    0    0  501    0  0.00000000000E+00  0.00000000000E+00  0.16855548843E+04  0.16855548843E+04  0.25500000920E-02 0.  1.
       -2   -1    0    0    0  501  0.00000000000E+00  0.00000000000E+00 -0.85218844343E+03  0.85218844343E+03  0.25500000920E-02 0. -1.
    10030    2    1    2    0    0  0.00000000000E+00  0.00000000000E+00  0.83336644089E+03  0.25377433278E+04  0.23970067945E+04 0.  0.
        5    1    3    3  502    0  0.86522367333E+03  0.81655902818E+03  0.26323311729E+03  0.12184803714E+04  0.46999998093E+01 0. -1.
       -5    1    3    3    0  502 -0.86522367333E+03 -0.81655902818E+03  0.57013332360E+03  0.13192629564E+04  0.46999998093E+01 0.  1.
</event>
<event>
 5   0  0.2025353E-05  0.2403629E+04  0.7818609E-02  0.8438146E-01
        2   -1    0    0  501    0  0.00000000000E+00  0.00000000000E+00  0.17027165346E+04  0.17027165346E+04  0.25500000920E-02 0.  1.
       -2   -1    0    0    0  501  0.00000000000E+00  0.00000000000E+00 -0.84826683049E+03  0.84826683049E+03  0.25500000920E-02 0. -1.
    10030    2    1    2    0    0  0.00000000000E+00  0.00000000000E+00  0.85444970407E+03  0.25509833650E+04  0.24036288882E+04 0.  0.
        4    1    3    3  502    0  0.86878348711E+03  0.82864078643E+03  0.36981575870E+03  0.12562625556E+04  0.12699999809E+01 0. -1.
       -4    1    3    3    0  502 -0.86878348711E+03 -0.82864078643E+03  0.48463394537E+03  0.12947208094E+04  0.12699999809E+01 0.  1.
</event>
<event>
 5   0  0.9176817E-06  0.2412366E+04  0.7818609E-02  0.8434888E-01
        1   -1    0    0  501    0  0.00000000000E+00  0.00000000000E+00  0.10027078946E+04  0.10027078946E+04  0.50400001928E-02 0.  1.
       -1   -1    0    0    0  501  0.00000000000E+00  0.00000000000E+00 -0.14509482844E+04  0.14509482844E+04  0.50400001928E-02 0. -1.
    10030    2    1    2    0    0  0.00000000000E+00  0.00000000000E+00 -0.44824038982E+03  0.24536561791E+04  0.24123658922E+04 0.  0.
        3    1    3    3  502    0  0.35426174656E+03  0.52837617696E+03 -0.12664505872E+04  0.14172437579E+04  0.10100000352E+00 0. -1.
       -3    1    3    3    0  502 -0.35426174656E+03 -0.52837617696E+03  0.81821019735E+03  0.10364124211E+04  0.10100000352E+00 0.  1.
</event>
<event>
 5   0  0.9083687E-06  0.2367383E+04  0.7818609E-02  0.8451817E-01
       -1   -1    0    0    0  501  0.00000000000E+00  0.00000000000E+00  0.14866294480E+04  0.14866294480E+04  0.50400001928E-02 0. -1.
        1   -1    0    0  501    0  0.00000000000E+00  0.00000000000E+00 -0.94248507220E+03  0.94248507221E+03  0.50400001928E-02 0.  1.
    10030    2    1    2    0    0  0.00000000000E+00  0.00000000000E+00  0.54414437581E+03  0.24291145202E+04  0.23673834186E+04 0.  0.
        2    1    3    3  502    0 -0.42544004599E+03  0.10074338091E+04 -0.19273437019E+03  0.11104362430E+04  0.25500000920E-02 0. -1.
       -2    1    3    3    0  502  0.42544004599E+03 -0.10074338091E+04  0.73687874601E+03  0.13186782772E+04  0.25500000920E-02 0.  1.
</event>
<event>
 5   0  0.2025353E-05  0.2399296E+04  0.7818609E-02  0.8439767E-01
        2   -1    0    0  501    0  0.00000000000E+00  0.00000000000E+00  0.20277508482E+04  0.20277508482E+04  0.25500000920E-02 0. -1.
       -2   -1    0    0    0  501  0.00000000000E+00  0.00000000000E+00 -0.70973011670E+03  0.70973011671E+03  0.25500000920E-02 0.  1.
    10030    2    1    2    0    0  0.00000000000E+00  0.00000000000E+00  0.13180207315E+04  0.27374809649E+04  0.23992964353E+04 0.  0.
        4    1    3    3  502    0  0.12105382384E+03  0.98037193449E+03 -0.11765092357E+03  0.99479973408E+03  0.12699999809E+01 0.  1.
       -4    1    3    3    0  502 -0.12105382384E+03 -0.98037193449E+03  0.14356716550E+04  0.17426812308E+04  0.12699999809E+01 0. -1.
</event>
<event>
 5   0  0.9038897E-06  0.2358978E+04  0.7818609E-02  0.8455023E-01
       -1   -1    0    0    0  501  0.00000000000E+00  0.00000000000E+00  0.97426499814E+03  0.97426499815E+03  0.50400001928E-02 0.  1.
        1   -1    0    0  501    0  0.00000000000E+00  0.00000000000E+00 -0.14279425805E+04  0.14279425806E+04  0.50400001928E-02 0. -1.
    10030    2    1    2    0    0  0.00000000000E+00  0.00000000000E+00 -0.45367758240E+03  0.24022075787E+04  0.23589781479E+04 0.  0.
        1    1    3    3  502    0  0.11412504444E+04  0.27363579312E+03 -0.10692971565E+03  0.11784579281E+04  0.50400001928E-02 0.  1.
       -1    1    3    3    0  502 -0.11412504444E+04 -0.27363579312E+03 -0.34674786676E+03  0.12237496506E+04  0.50400001928E-02 0. -1.
</event>
<event>
 5   0  0.2025353E-05  0.2412908E+04  0.7818609E-02  0.8434687E-01
       -2   -1    0    0    0  501  0.00000000000E+00  0.00000000000E+00  0.10059176290E+04  0.10059176290E+04  0.25500000920E-02 0. -1.
        2   -1    0    0  501    0  0.00000000000E+00  0.00000000000E+00 -0.14469683420E+04  0.14469683420E+04  0.25500000920E-02 0.  1.
    10030    2    1    2    0    0  0.00000000000E+00  0.00000000000E+00 -0.44105071303E+03  0.24528859710E+04  0.24129077593E+04 0.  0.
        4    1    3    3  502    0 -0.45191838601E+03  0.66113044043E+02  0.91463537908E+03  0.10223309893E+04  0.12699999809E+01 0. -1.
       -4    1    3    3    0  502  0.45191838601E+03 -0.66113044043E+02 -0.13556860921E+04  0.14305549816E+04  0.12699999809E+01 0.  1.
</event>
<event>
 5   0  0.9038897E-06  0.2387839E+04  0.7818609E-02  0.8444070E-01
       -1   -1    0    0    0  501  0.00000000000E+00  0.00000000000E+00  0.12058080160E+04  0.12058080160E+04  0.50400001928E-02 0. -1.
        1   -1    0    0  501    0  0.00000000000E+00  0.00000000000E+00 -0.11821486106E+04  0.11821486106E+04  0.50400001928E-02 0.  1.
    10030    2    1    2    0    0  0.00000000000E+00  0.00000000000E+00  0.23659405374E+02  0.23879566266E+04  0.23878394173E+04 0.  0.
        1    1    3    3  502    0  0.86177716148E+03 -0.72551626443E+03 -0.38367744032E+03  0.11900597062E+04  0.50400001928E-02 0.  1.
       -1    1    3    3    0  502 -0.86177716148E+03  0.72551626443E+03  0.40733684569E+03  0.11978969204E+04  0.50400001928E-02 0. -1.
</event>
<event>
 5   0  0.9038897E-06  0.2379652E+04  0.7818609E-02  0.8447161E-01
        1   -1    0    0  501    0  0.00000000000E+00  0.00000000000E+00  0.14180783781E+04  0.14180783781E+04  0.50400001928E-02 0.  1.
       -1   -1    0    0    0  501  0.00000000000E+00  0.00000000000E+00 -0.99831306946E+03  0.99831306947E+03  0.50400001928E-02 0. -1.
    10030    2    1    2    0    0  0.00000000000E+00  0.00000000000E+00  0.41976530864E+03  0.24163914476E+04  0.23796522253E+04 0.  0.
        1    1    3    3  502    0 -0.20887512593E+03 -0.86135878755E+03 -0.59617272160E+03  0.10681711909E+04  0.50400001928E-02 0. -1.
       -1    1    3    3    0  502  0.20887512593E+03  0.86135878755E+03  0.10159380302E+04  0.13482202566E+04  0.50400001928E-02 0.  1.
</event>
<event>
 5   0  0.2122194E-05  0.2357738E+04  0.7818609E-02  0.8455497E-01
       -2   -1    0    0    0  501  0.00000000000E+00  0.00000000000E+00  0.10272093360E+04  0.10272093360E+04  0.25500000920E-02 0.  1.
        2   -1    0    0  501    0  0.00000000000E+00  0.00000000000E+00 -0.13529204373E+04  0.13529204373E+04  0.25500000920E-02 0. -1.
    10030    2    1    2    0    0  0.00000000000E+00  0.00000000000E+00 -0.32571110127E+03  0.23801297733E+04  0.23577383265E+04 0.  0.
        3    1    3    3  502    0 -0.31177047219E+03 -0.10189893995E+04  0.34610744004E+03  0.11204153666E+04  0.10100000352E+00 0.  1.
       -3    1    3    3    0  502  0.31177047219E+03  0.10189893995E+04 -0.67181854131E+03  0.12597144066E+04  0.10100000352E+00 0. -1.
</event>
<event>
 5   0  0.8898848E-06  0.2432192E+04  0.7818609E-02  0.8427549E-01
       -1   -1    0    0    0  501  0.00000000000E+00  0.00000000000E+00  0.11999514417E+04  0.11999514417E+04  0.50400001928E-02 0.  1.
        1   -1    0    0  501    0  0.00000000000E+00  0.00000000000E+00 -0.12324576481E+04  0.12324576481E+04  0.50400001928E-02 0. -1.
    10030    2    1    2    0    0  0.00000000000E+00  0.00000000000E+00 -0.32506206381E+02  0.24324090898E+04  0.24321918770E+04 0.  0.
        5    1    3    3  502    0 -0.34045907497E+03 -0.19453159247E+03 -0.11674911389E+04  0.12315894493E+04  0.46999998093E+01 0. -1.
       -5    1    3    3    0  502  0.34045907497E+03  0.19453159247E+03  0.11349849325E+04  0.12008196406E+04  0.46999998093E+01 0.  1.
</event>
<event>
 5   0  0.2122194E-05  0.2417910E+04  0.7818609E-02  0.8432828E-01
       -2   -1    0    0    0  501  0.00000000000E+00  0.00000000000E+00  0.60628714845E+03  0.60628714846E+03  0.25500000920E-02 0. -1.
        2   -1    0    0  501    0  0.00000000000E+00  0.00000000000E+00 -0.24106936966E+04  0.24106936966E+04  0.25500000920E-02 0.  1.
    10030    2    1    2    0    0  0.00000000000E+00  0.00000000000E+00 -0.18044065482E+04  0.30169808451E+04  0.24179103434E+04 0.  0.
        3    1    3    3  502    0 -0.95138547419E+03  0.38456198116E+03 -0.10465834510E+03  0.10314919376E+04  0.10100000352E+00 0. -1.
       -3    1    3    3    0  502  0.95138547419E+03 -0.38456198116E+03 -0.16997482031E+04  0.19854889075E+04  0.10100000352E+00 0.  1.
</event>
<event>
 5   0  0.2025353E-05  0.2403358E+04  0.7818609E-02  0.8438247E-01
       -2   -1    0    0    0  501  0.00000000000E+00  0.00000000000E+00  0.60162336135E+03  0.60162336136E+03  0.25500000920E-02 0. -1.
        2   -1    0    0  501    0  0.00000000000E+00  0.00000000000E+00 -0.24002265300E+04  0.24002265300E+04  0.25500000920E-02 0.  1.
    10030    2    1    2    0    0  0.00000000000E+00  0.00000000000E+00 -0.17986031687E+04  0.30018498914E+04  0.24033579451E+04 0.  0.
        4    1    3    3  502    0  0.77126839674E+02  0.11617930867E+04 -0.52811042747E+03  0.12785202236E+04  0.12699999809E+01 0. -1.
       -4    1    3    3    0  502 -0.77126839674E+02 -0.11617930867E+04 -0.12704927412E+04  0.17233296678E+04  0.12699999809E+01 0.  1.
</event>
<event>
 5   0  0.2122194E-05  0.2416302E+04  0.7818609E-02  0.8433425E-01
       -2   -1    0    0    0  501  0.00000000000E+00  0.00000000000E+00  0.10293160564E+04  0.10293160564E+04  0.25500000920E-02 0. -1.
        2   -1    0    0  501    0  0.00000000000E+00  0.00000000000E+00 -0.14180572724E+04  0.14180572724E+04  0.25500000920E-02 0.  1.
    10030    2    1    2    0    0  0.00000000000E+00  0.00000000000E+00 -0.38874121595E+03  0.24473733288E+04  0.24163022323E+04 0.  0.
        3    1    3    3  502    0 -0.77803460095E+03 -0.92427848940E+03 -0.19511695458E+03  0.12238052142E+04  0.10100000352E+00 0. -1.
       -3    1    3    3    0  502  0.77803460095E+03  0.92427848940E+03 -0.19362426137E+03  0.12235681146E+04  0.10100000352E+00 0.  1.
</event>
<event>
 5   0  0.2080257E-05  0.2452708E+04  0.7818609E-02  0.8420030E-01
        2   -1    0    0  501    0  0.00000000000E+00  0.00000000000E+00  0.21210328610E+04  0.21210328610E+04  0.25500000920E-02 0. -1.
       -2   -1    0    0    0  501  0.00000000000E+00  0.00000000000E+00 -0.70906199423E+03  0.70906199423E+03  0.25500000920E-02 0.  1.
    10030    2    1    2    0    0  0.00000000000E+00  0.00000000000E+00  0.14119708667E+04  0.28300948552E+04  0.24527077202E+04 0.  0.
        1    1    3    3  502    0 -0.11664113210E+04 -0.10130663259E+03  0.28491875843E+03  0.12049718265E+04  0.50400001928E-02 0.  1.
       -1    1    3    3    0  502  0.11664113210E+04  0.10130663259E+03  0.11270521083E+04  0.16251230287E+04  0.50400001928E-02 0. -1.
</event>
<event>
 5   0  0.9083687E-06  0.2420038E+04  0.7818609E-02  0.8432039E-01
        1   -1    0    0  501    0  0.00000000000E+00  0.00000000000E+00  0.91043443463E+03  0.91043443465E+03  0.50400001928E-02 0. -1.
       -1   -1    0    0    0  501  0.00000000000E+00  0.00000000000E+00 -0.16081841585E+04  0.16081841585E+04  0.50400001928E-02 0.  1.
    10030    2    1    2    0    0  0.00000000000E+00  0.00000000000E+00 -0.69774972388E+03  0.25186185932E+04  0.24200382106E+04 0.  0.
        2    1    3    3  502    0  0.52030042788E+03 -0.75234069031E+03 -0.11732376646E+04  0.14876880275E+04  0.25500000920E-02 0.  1.
       -2    1    3    3    0  502 -0.52030042788E+03  0.75234069031E+03  0.47548794068E+03  0.10309305657E+04  0.25500000920E-02 0. -1.
</event>
<event>
 5   0  0.8528103E-06  0.2394482E+04  0.7818609E-02  0.8441572E-01
       -1   -1    0    0    0  501  0.00000000000E+00  0.00000000000E+00  0.69445167409E+03  0.69445167411E+03  0.50400001928E-02 0. -1.
        1   -1    0    0  501    0  0.00000000000E+00  0.00000000000E+00 -0.20640545198E+04  0.20640545198E+04  0.50400001928E-02 0.  1.
    10030    2    1    2    0    0  0.00000000000E+00  0.00000000000E+00 -0.13696028457E+04  0.27585061939E+04  0.23944820874E+04 0.  0.
        4    1    3    3  502    0 -0.78412903781E+03 -0.40321099703E+03  0.24823105603E+03  0.91600094221E+03  0.12699999809E+01 0. -1.
       -4    1    3    3    0  502  0.78412903781E+03  0.40321099703E+03 -0.16178339017E+04  0.18425052517E+04  0.12699999809E+01 0.  1.
</event>
<event>
 5   0  0.2048028E-05  0.2329348E+04  0.7818609E-02  0.8466439E-01
        2   -1    0    0  501    0  0.00000000000E+00  0.00000000000E+00  0.15776362879E+04  0.15776362879E+04  0.25500000920E-02 0. -1.
       -2   -1    0    0    0  501  0.00000000000E+00  0.00000000000E+00 -0.85980858712E+03  0.85980858713E+03  0.25500000920E-02 0.  1.
    10030    2    1    2    0    0  0.00000000000E+00  0.00000000000E+00  0.71782770080E+03  0.24374448751E+04  0.23293477437E+04 0.  0.
        5    1    3    3  502    0 -0.55489136870E+03 -0.11196684118E+03 -0.70616264117E+03  0.90505732988E+03  0.46999998093E+01 0.  1.
       -5    1    3    3    0  502  0.55489136870E+03  0.11196684118E+03  0.14239903420E+04  0.15323875452E+04  0.46999998093E+01 0. -1.
</event>
<event>
 5   0  0.9038897E-06  0.2411359E+04  0.7818609E-02  0.8435263E-01
       -1   -1    0    0    0  501  0.00000000000E+00  0.00000000000E+00  0.13036856473E+04  0.13036856473E+04  0.50400001928E-02 0.  1.
        1   -1    0    0  501    0  0.00000000000E+00  0.00000000000E+00 -0.11150407867E+04  0.11150407867E+04  0.50400001928E-02 0. -1.
    10030    2    1    2    0    0  0.00000000000E+00  0.00000000000E+00  0.18864486066E+03  0.24187264340E+04  0.24113586791E+04 0.  0.
        1    1    3    3  502    0 -0.78794950714E+03 -0.62094406844E+03 -0.57647100228E+03  0.11570457115E+04  0.50400001928E-02 0.  1.
       -1    1    3    3    0  502  0.78794950714E+03  0.62094406844E+03  0.76511586293E+03  0.12616807226E+04  0.50400001928E-02 0. -1.
</event>
<event>
 5   0  0.8528103E-06  0.2401164E+04  0.7818609E-02  0.8439068E-01
       -1   -1    0    0    0  501  0.00000000000E+00  0.00000000000E+00  0.12515922155E+04  0.12515922155E+04  0.50400001928E-02 0. -1.
        1   -1    0    0  501    0  0.00000000000E+00  0.00000000000E+00 -0.11516509050E+04  0.11516509050E+04  0.50400001928E-02 0.  1.
    10030    2    1    2    0    0  0.00000000000E+00  0.00000000000E+00  0.99941310541E+02  0.24032431205E+04  0.24011641407E+04 0.  0.
        4    1    3    3  502    0 -0.32869066908E+03 -0.71884744133E+03  0.95442142536E+03  0.12392340658E+04  0.12699999809E+01 0. -1.
       -4    1    3    3    0  502  0.32869066908E+03  0.71884744133E+03 -0.85448011482E+03  0.11640090547E+04  0.12699999809E+01 0.  1.
</event>
<event>
 5   0  0.8898848E-06  0.2408242E+04  0.7818609E-02  0.8436424E-01
        1   -1    0    0  501    0  0.00000000000E+00  0.00000000000E+00  0.10652888574E+04  0.10652888574E+04  0.50400001928E-02 0.  1.
       -1   -1    0    0    0  501  0.00000000000E+00  0.00000000000E+00 -0.13610458217E+04  0.13610458217E+04  0.50400001928E-02 0. -1.
    10030    2    1    2    0    0  0.00000000000E+00  0.00000000000E+00 -0.29575696423E+03  0.24263346791E+04  0.24082416393E+04 0.  0.
        5    1    3    3  502    0  0.11101126457E+04 -0.10967971029E+03  0.30885408680E+03  0.11574941304E+04  0.46999998093E+01 0.  1.
       -5    1    3    3    0  502 -0.11101126457E+04  0.10967971029E+03 -0.60461105104E+03  0.12688405487E+04  0.46999998093E+01 0. -1.
</event>
<event>
 5   0  0.2025353E-05  0.2401044E+04  0.7818609E-02  0.8439113E-01
        2   -1    0    0  501    0  0.00000000000E+00  0.00000000000E+00  0.21449877047E+04  0.21449877047E+04  0.25500000920E-02 0. -1.
       -2   -1    0    0    0  501  0.00000000000E+00  0.00000000000E+00 -0.67191647788E+03  0.67191647788E+03  0.25500000920E-02 0.  1.
    10030    2    1    2    0    0  0.00000000000E+00  0.00000000000E+00  0.14730712268E+04  0.28169041826E+04  0.24010435928E+04 0.  0.
        4    1    3    3  502    0 -0.99930872167E+03 -0.44800603813E+03  0.15948861926E+03  0.11066912686E+04  0.12699999809E+01 0. -1.
       -4    1    3    3    0  502  0.99930872167E+03  0.44800603813E+03  0.13135826076E+04  0.17102129140E+04  0.12699999809E+01 0.  1.
</event>
<event>
 5   0  0.9038897E-06  0.2390213E+04  0.7818609E-02  0.8443177E-01
        1   -1    0    0  501    0  0.00000000000E+00  0.00000000000E+00  0.93920844387E+03  0.93920844389E+03  0.50400001928E-02 0. -1.
       -1   -1    0    0    0  501  0.00000000000E+00  0.00000000000E+00 -0.15207274998E+04  0.15207274998E+04  0.50400001928E-02 0.  1.
    10030    2    1    2    0    0  0.00000000000E+00  0.00000000000E+00 -0.58151905589E+03  0.24599359437E+04  0.23902134705E+04 0.  0.
        1    1    3    3  502    0  0.26994584244E+03 -0.23538242004E+03 -0.14641958606E+04  0.15073636455E+04  0.50400001928E-02 0.  1.
       -1    1    3    3    0  502 -0.26994584244E+03  0.23538242004E+03  0.88267680475E+03  0.95257229814E+03  0.50400001928E-02 0. -1.
</event>
<event>
 5   0  0.2087882E-05  0.2391598E+04  0.7818609E-02  0.8442656E-01
        2   -1    0    0  501    0  0.00000000000E+00  0.00000000000E+00  0.27868763942E+04  0.27868763942E+04  0.25500000920E-02 0. -1.
       -2   -1    0    0    0  501  0.00000000000E+00  0.00000000000E+00 -0.51309602996E+03  0.51309602996E+03  0.25500000920E-02 0.  1.
    10030    2    1    2    0    0  0.00000000000E+00  0.00000000000E+00  0.22737803642E+04  0.32999724241E+04  0.23915979711E+04 0.  0.
        2    1    3    3  502    0 -0.31852593966E+02 -0.67597749735E+03  0.24972371494E+04  0.25873062333E+04  0.25500000920E-02 0. -1.
       -2    1    3    3    0  502  0.31852593966E+02  0.67597749735E+03 -0.22345678519E+03  0.71266619081E+03  0.25500000920E-02 0.  1.
</event>
<event>
 5   0  0.2048028E-05  0.2412662E+04  0.7818609E-02  0.8434778E-01
        2   -1    0    0  501    0  0.00000000000E+00  0.00000000000E+00  0.74045307647E+03  0.74045307647E+03  0.25500000920E-02 0. -1.
       -2   -1    0    0    0  501  0.00000000000E+00  0.00000000000E+00 -0.19653298392E+04  0.19653298393E+04  0.25500000920E-02 0.  1.
    10030    2    1    2    0    0  0.00000000000E+00  0.00000000000E+00 -0.12248767628E+04  0.27057829157E+04  0.24126620366E+04 0.  0.
        5    1    3    3  502    0  0.28535000607E+03 -0.13686924826E+03 -0.19179323211E+04  0.19438735287E+04  0.46999998093E+01 0.  1.
       -5    1    3    3    0  502 -0.28535000607E+03  0.13686924826E+03  0.69305555835E+03  0.76190938703E+03  0.46999998093E+01 0. -1.
</event>
<event>
 5   0  0.9176817E-06  0.2440931E+04  0.7818609E-02  0.8424336E-01
        1   -1    0    0  501    0  0.00000000000E+00  0.00000000000E+00  0.14188931652E+04  0.14188931652E+04  0.50400001928E-02 0.  1.
       -1   -1    0    0    0  501  0.00000000000E+00  0.00000000000E+00 -0.10497876673E+04  0.10497876673E+04  0.50400001928E-02 0. -1.
    10030    2    1    2    0    0  0.00000000000E+00  0.00000000000E+00  0.36910549795E+03  0.24686808325E+04  0.24409314174E+04 0.  0.
        3    1    3    3  502    0 -0.10174321222E+04 -0.11352766272E+03  0.85654586941E+03  0.13348136537E+04  0.10100000352E+00 0.  1.
       -3    1    3    3    0  502  0.10174321222E+04  0.11352766272E+03 -0.48744037146E+03  0.11338671789E+04  0.10100000352E+00 0. -1.
</event>
<event>
 5   0  0.8898848E-06  0.2431580E+04  0.7818609E-02  0.8427774E-01
        1   -1    0    0  501    0  0.00000000000E+00  0.00000000000E+00  0.15957546083E+04  0.15957546083E+04  0.50400001928E-02 0.  1.
       -1   -1    0    0    0  501  0.00000000000E+00  0.00000000000E+00 -0.92629895393E+03  0.92629895395E+03  0.50400001928E-02 0. -1.
    10030    2    1    2    0    0  0.00000000000E+00  0.00000000000E+00  0.66945565437E+03  0.25220535623E+04  0.24315804115E+04 0.  0.
        5    1    3    3  502    0 -0.60960903610E+03  0.51986877772E+03  0.12832125983E+04  0.15127932395E+04  0.46999998093E+01 0.  1.
       -5    1    3    3    0  502  0.60960903610E+03 -0.51986877772E+03 -0.61375694393E+03  0.10092603228E+04  0.46999998093E+01 0. -1.
</event>
<event>
 5   0  0.2087882E-05  0.2371622E+04  0.7818609E-02  0.8450205E-01
       -2   -1    0    0    0  501  0.00000000000E+00  0.00000000000E+00  0.88082752517E+03  0.88082752518E+03  0.25500000920E-02 0. -1.
        2   -1    0    0  501    0  0.00000000000E+00  0.00000000000E+00 -0.15963936115E+04  0.15963936115E+04  0.25500000920E-02 0.  1.
    10030    2    1    2    0    0  0.00000000000E+00  0.00000000000E+00 -0.71556608637E+03  0.24772211367E+04  0.23716217524E+04 0.  0.
        2    1    3    3  502    0  0.83610110153E+03  0.47285076100E+03  0.36851544291E+03  0.10288131637E+04  0.25500000920E-02 0. -1.
       -2    1    3    3    0  502 -0.83610110153E+03 -0.47285076100E+03 -0.10840815293E+04  0.14484079730E+04  0.25500000920E-02 0.  1.
</event>
<event>
 5   0  0.8528103E-06  0.2387134E+04  0.7818609E-02  0.8444336E-01
       -1   -1    0    0    0  501  0.00000000000E+00  0.00000000000E+00  0.21408920412E+04  0.21408920412E+04  0.50400001928E-02 0.  1.
        1   -1    0    0  501    0  0.00000000000E+00  0.00000000000E+00 -0.66542460257E+03  0.66542460259E+03  0.50400001928E-02 0. -1.
    10030    2    1    2    0    0  0.00000000000E+00  0.00000000000E+00  0.14754674386E+04  0.28063166438E+04  0.23871340437E+04 0.  0.
        4    1    3    3  502    0  0.76715623330E+03  0.90876623725E+03  0.85655586377E+03  0.14656310316E+04  0.12699999809E+01 0. -1.
       -4    1    3    3    0  502 -0.76715623330E+03 -0.90876623725E+03  0.61891157487E+03  0.13406856122E+04  0.12699999809E+01 0.  1.
</event>
<event>
 5   0  0.2122194E-05  0.2405812E+04  0.7818609E-02  0.8437331E-01
        2   -1    0    0  501    0  0.00000000000E+00  0.00000000000E+00  0.70465516587E+03  0.70465516588E+03  0.25500000920E-02 0. -1.
       -2   -1    0    0    0  501  0.00000000000E+00  0.00000000000E+00 -0.20534621115E+04  0.20534621115E+04  0.25500000920E-02 0.  1.
    10030    2    1    2    0    0  0.00000000000E+00  0.00000000000E+00 -0.13488069456E+04  0.27581172774E+04  0.24058118670E+04 0.  0.
        3    1    3    3  502    0  0.41305530235E+03  0.33550942361E+03 -0.19111779295E+04  0.19838806276E+04  0.10100000352E+00 0.  1.
       -3    1    3    3    0  502 -0.41305530235E+03 -0.33550942361E+03  0.56237098389E+03  0.77423664977E+03  0.10100000352E+00 0. -1.
</event>
<event>
 5   0  0.2048028E-05  0.2400369E+04  0.7818609E-02  0.8439366E-01
       -2   -1    0    0    0  501  0.00000000000E+00  0.00000000000E+00  0.83777603519E+03  0.83777603520E+03  0.25500000920E-02 0.  1.
        2   -1    0    0  501    0  0.00000000000E+00  0.00000000000E+00 -0.17193646278E+04  0.17193646278E+04  0.25500000920E-02 0. -1.
    10030    2    1    2    0    0  0.00000000000E+00  0.00000000000E+00 -0.88158859259E+03  0.25571406630E+04  0.24003687058E+04 0.  0.
        5    1    3    3  502    0  0.11733879038E+04 -0.11138749253E+03 -0.68178569030E+03  0.13616534669E+04  0.46999998093E+01 0. -1.
       -5    1    3    3    0  502 -0.11733879038E+04  0.11138749253E+03 -0.19980290229E+03  0.11954871961E+04  0.46999998093E+01 0.  1.
</event>
<event>
 5   0  0.2025353E-05  0.2402367E+04  0.7818609E-02  0.8438618E-01
       -2   -1    0    0    0  501  0.00000000000E+00  0.00000000000E+00  0.19002581920E+04  0.19002581920E+04  0.25500000920E-02 0. -1.
        2   -1    0    0  501    0  0.00000000000E+00  0.00000000000E+00 -0.75928741917E+03  0.75928741917E+03  0.25500000920E-02 0.  1.
    10030    2    1    2    0    0  0.00000000000E+00  0.00000000000E+00  0.11409707729E+04  0.26595456112E+04  0.24023672812E+04 0.  0.
        4    1    3    3  502    0 -0.18430350721E+03  0.11381232609E+03  0.18784567179E+04  0.18909051489E+04  0.12699999809E+01 0. -1.
       -4    1    3    3    0  502  0.18430350721E+03 -0.11381232609E+03 -0.73748594500E+03  0.76864046232E+03  0.12699999809E+01 0.  1.
</event>
<event>
 5   0  0.8528103E-06  0.2396515E+04  0.7818609E-02  0.8440810E-01
       -1   -1    0    0    0  501  0.00000000000E+00  0.00000000000E+00  0.14139648181E+04  0.14139648181E+04  0.50400001928E-02 0. -1.
        1   -1    0    0  501    0  0.00000000000E+00  0.00000000000E+00 -0.10154570759E+04  0.10154570759E+04  0.50400001928E-02 0.  1.
    10030    2    1    2    0    0  0.00000000000E+00  0.00000000000E+00  0.39850774221E+03  0.24294218940E+04  0.23965146189E+04 0.  0.
        4    1    3    3  502    0 -0.11466991745E+04 -0.16644200803E+02 -0.15282325806E+03  0.11569583343E+04  0.12699999809E+01 0.  1.
       -4    1    3    3    0  502  0.11466991745E+04  0.16644200803E+02  0.55133100027E+03  0.12724635598E+04  0.12699999809E+01 0. -1.
</event>
<event>
 5   0  0.2080257E-05  0.2375865E+04  0.7818609E-02  0.8448595E-01
       -2   -1    0    0    0  501  0.00000000000E+00  0.00000000000E+00  0.16803530586E+04  0.16803530586E+04  0.25500000920E-02 0.  1.
        2   -1    0    0  501    0  0.00000000000E+00  0.00000000000E+00 -0.83981405335E+03  0.83981405335E+03  0.25500000920E-02 0. -1.
    10030    2    1    2    0    0  0.00000000000E+00  0.00000000000E+00  0.84053900521E+03  0.25201671119E+04  0.23758654113E+04 0.  0.
        1    1    3    3  502    0  0.47468505684E+02 -0.43765972794E+03 -0.75009581960E+03  0.86973733685E+03  0.50400001928E-02 0. -1.
       -1    1    3    3    0  502 -0.47468505684E+02  0.43765972794E+03  0.15906348248E+04  0.16504297751E+04  0.50400001928E-02 0.  1.
</event>
<event>
 5   0  0.8528103E-06  0.2380217E+04  0.7818609E-02  0.8446947E-01
        1   -1    0    0  501    0  0.00000000000E+00  0.00000000000E+00  0.13495134817E+04  0.13495134817E+04  0.50400001928E-02 0. -1.
       -1   -1    0    0    0  501  0.00000000000E+00  0.00000000000E+00 -0.10495323954E+04  0.10495323954E+04  0.50400001928E-02 0.  1.
    10030    2    1    2    0    0  0.00000000000E+00  0.00000000000E+00  0.29998108630E+03  0.23990458771E+04  0.23802168953E+04 0.  0.
        4    1    3    3  502    0  0.14176859334E+03  0.19958162856E+03  0.13238604448E+04  0.13463057790E+04  0.12699999809E+01 0. -1.
       -4    1    3    3    0  502 -0.14176859334E+03 -0.19958162856E+03 -0.10238793585E+04  0.10527400981E+04  0.12699999809E+01 0.  1.
</event>
<event>
 5   0  0.2025353E-05  0.2408400E+04  0.7818609E-02  0.8436365E-01
       -2   -1    0    0    0  501  0.00000000000E+00  0.00000000000E+00  0.10574212241E+04  0.10574212241E+04  0.25500000920E-02 0. -1.
        2   -1    0    0  501    0  0.00000000000E+00  0.00000000000E+00 -0.13713528799E+04  0.13713528799E+04  0.25500000920E-02 0.  1.
    10030    2    1    2    0    0  0.00000000000E+00  0.00000000000E+00 -0.31393165587E+03  0.24287741040E+04  0.24084000008E+04 0.  0.
        4    1    3    3  502    0 -0.49518044905E+03  0.31680909825E+03  0.90288843656E+03  0.10773953887E+04  0.12699999809E+01 0. -1.
       -4    1    3    3    0  502  0.49518044905E+03 -0.31680909825E+03 -0.12168200924E+04  0.13513787153E+04  0.12699999809E+01 0.  1.
</event>
<event>
 5   0  0.9038897E-06  0.2431312E+04  0.7818609E-02  0.8427873E-01
        1   -1    0    0  501    0  0.00000000000E+00  0.00000000000E+00  0.10267645970E+04  0.10267645970E+04  0.50400001928E-02 0. -1.
       -1   -1    0    0    0  501  0.00000000000E+00  0.00000000000E+00 -0.14392967938E+04  0.14392967938E+04  0.50400001928E-02 0.  1.
    10030    2    1    2    0    0  0.00000000000E+00  0.00000000000E+00 -0.41253219685E+03  0.24660613908E+04  0.24313115740E+04 0.  0.
        1    1    3    3  502    0 -0.92847473957E+03  0.53604424008E+03 -0.78752765454E+03  0.13302663553E+04  0.50400001928E-02 0.  1.
       -1    1    3    3    0  502  0.92847473957E+03 -0.53604424008E+03  0.37499545768E+03  0.11357950355E+04  0.50400001928E-02 0. -1.
</event>
<event>
 5   0  0.2048028E-05  0.2426073E+04  0.7818609E-02  0.8429806E-01
       -2   -1    0    0    0  501  0.00000000000E+00  0.00000000000E+00  0.86532564954E+03  0.86532564955E+03  0.25500000920E-02 0.  1.
        2   -1    0    0  501    0  0.00000000000E+00  0.00000000000E+00 -0.17004668228E+04  0.17004668228E+04  0.25500000920E-02 0. -1.
    10030    2    1    2    0    0  0.00000000000E+00  0.00000000000E+00 -0.83514117328E+03  0.25657924724E+04  0.24260730063E+04 0.  0.
        5    1    3    3  502    0  0.11034738967E+04  0.35394576998E+01  0.11519522250E+03  0.11094860061E+04  0.46999998093E+01 0.  1.
       -5    1    3    3    0  502 -0.11034738967E+04 -0.35394576998E+01 -0.95033639578E+03  0.14563064662E+04  0.46999998093E+01 0. -1.
</event>
<event>
 5   0  0.2048028E-05  0.2392138E+04  0.7818609E-02  0.8442453E-01
       -2   -1    0    0    0  501  0.00000000000E+00  0.00000000000E+00  0.67183105007E+03  0.67183105008E+03  0.25500000920E-02 0. -1.
        2   -1    0    0  501    0  0.00000000000E+00  0.00000000000E+00 -0.21293766216E+04  0.21293766216E+04  0.25500000920E-02 0.  1.
    10030    2    1    2    0    0  0.00000000000E+00  0.00000000000E+00 -0.14575455715E+04  0.28012076717E+04  0.23921382332E+04 0.  0.
        5    1    3    3  502    0 -0.61507064954E+02  0.11249258023E+04 -0.11991004592E+04  0.16453282897E+04  0.46999998093E+01 0.  1.
       -5    1    3    3    0  502  0.61507064954E+02 -0.11249258023E+04 -0.25844511238E+03  0.11558793820E+04  0.46999998093E+01 0. -1.
</event>
<event>
 5   0  0.2087882E-05  0.2353955E+04  0.7818609E-02  0.8456946E-01
        2   -1    0    0  501    0  0.00000000000E+00  0.00000000000E+00  0.83977084317E+03  0.83977084318E+03  0.25500000920E-02 0.  1.
       -2   -1    0    0    0  501  0.00000000000E+00  0.00000000000E+00 -0.16495887494E+04  0.16495887494E+04  0.25500000920E-02 0. -1.
    10030    2    1    2    0    0  0.00000000000E+00  0.00000000000E+00 -0.80981790620E+03  0.24893595925E+04  0.23539554243E+04 0.  0.
        2    1    3    3  502    0 -0.33868493988E+03  0.88735283624E+03 -0.11400000709E+04  0.14838135685E+04  0.25500000920E-02 0. -1.
       -2    1    3    3    0  502  0.33868493988E+03 -0.88735283624E+03  0.33018216472E+03  0.10055460240E+04  0.25500000920E-02 0.  1.
</event>
<event>
 5   0  0.2087882E-05  0.2407334E+04  0.7818609E-02  0.8436763E-01
        2   -1    0    0  501    0  0.00000000000E+00  0.00000000000E+00  0.93786325344E+03  0.93786325344E+03  0.25500000920E-02 0. -1.
       -2   -1    0    0    0  501  0.00000000000E+00  0.00000000000E+00 -0.15448026823E+04  0.15448026823E+04  0.25500000920E-02 0.  1.
    10030    2    1    2    0    0  0.00000000000E+00  0.00000000000E+00 -0.60693942883E+03  0.24826659357E+04  0.24073335203E+04 0.  0.
        2    1    3    3  502    0  0.85885233703E+02  0.10865273181E+04 -0.83023306577E+03  0.13701112473E+04  0.25500000920E-02 0.  1.
       -2    1    3    3    0  502 -0.85885233703E+02 -0.10865273181E+04  0.22329363694E+03  0.11125546884E+04  0.25500000920E-02 0. -1.
</event>
<event>
 5   0  0.2080257E-05  0.2419095E+04  0.7818609E-02  0.8432389E-01
       -2   -1    0    0    0  501  0.00000000000E+00  0.00000000000E+00  0.14154226764E+04  0.14154226764E+04  0.25500000920E-02 0. -1.
        2   -1    0    0  501    0  0.00000000000E+00  0.00000000000E+00 -0.10336168668E+04  0.10336168668E+04  0.25500000920E-02 0.  1.
    10030    2    1    2    0    0  0.00000000000E+00  0.00000000000E+00  0.38180580963E+03  0.24490395432E+04  0.24190946670E+04 0.  0.
        1    1    3    3  502    0 -0.22801340664E+03  0.70192665944E+03  0.11610519090E+04  0.13757662172E+04  0.50400001928E-02 0. -1.
       -1    1    3    3    0  502  0.22801340664E+03 -0.70192665944E+03 -0.77924609939E+03  0.10732733260E+04  0.50400001928E-02 0.  1.
</event>
<event>
 5   0  0.9176817E-06  0.2430472E+04  0.7818609E-02  0.8428183E-01
       -1   -1    0    0    0  501  0.00000000000E+00  0.00000000000E+00  0.13088922355E+04  0.13088922355E+04  0.50400001928E-02 0.  1.
        1   -1    0    0  501    0  0.00000000000E+00  0.00000000000E+00 -0.11282809842E+04  0.11282809842E+04  0.50400001928E-02 0. -1.
    10030    2    1    2    0    0  0.00000000000E+00  0.00000000000E+00  0.18061125127E+03  0.24371732197E+04  0.24304717400E+04 0.  0.
        3    1    3    3  502    0 -0.19463866349E+03 -0.11661872610E+04 -0.19139827515E+03  0.11977104187E+04  0.10100000352E+00 0.  1.
       -3    1    3    3    0  502  0.19463866349E+03  0.11661872610E+04  0.37200952642E+03  0.12394628010E+04  0.10100000352E+00 0. -1.
</event>
<event>
 5   0  0.9176817E-06  0.2337428E+04  0.7818609E-02  0.8463308E-01
       -1   -1    0    0    0  501  0.00000000000E+00  0.00000000000E+00  0.76358398544E+03  0.76358398546E+03  0.50400001928E-02 0. -1.
        1   -1    0    0  501    0  0.00000000000E+00  0.00000000000E+00 -0.17887918649E+04  0.17887918649E+04  0.50400001928E-02 0.  1.
    10030    2    1    2    0    0  0.00000000000E+00  0.00000000000E+00 -0.10252078794E+04  0.25523758504E+04  0.23374283487E+04 0.  0.
        3    1    3    3  502    0 -0.32674252341E+03 -0.10025598655E+04  0.37732385887E+02  0.10551353959E+04  0.10100000352E+00 0. -1.
       -3    1    3    3    0  502  0.32674252341E+03  0.10025598655E+04 -0.10629402653E+04  0.14972404544E+04  0.10100000352E+00 0.  1.
</event>
<event>
 5   0  0.7233625E-06  0.2398084E+04  0.7818609E-02  0.8440221E-01
        3   -1    0    0  501    0  0.00000000000E+00  0.00000000000E+00  0.16415540347E+04  0.16415540378E+04  0.10100000352E+00 0.  1.
       -3   -1    0    0    0  501  0.00000000000E+00  0.00000000000E+00 -0.87581711999E+03  0.87581712581E+03  0.10100000352E+00 0. -1.
    10030    2    1    2    0    0  0.00000000000E+00  0.00000000000E+00  0.76573691473E+03  0.25173711636E+04  0.23980835167E+04 0.  0.
        5    1    3    3  502    0 -0.63632806656E+03  0.42844690549E+03 -0.58449050088E+03  0.96443319869E+03  0.46999998093E+01 0. -1.
       -5    1    3    3    0  502  0.63632806656E+03 -0.42844690549E+03  0.13502274156E+04  0.15529379649E+04  0.46999998093E+01 0.  1.
</event>
<event>
 5   0  0.2122194E-05  0.2410141E+04  0.7818609E-02  0.8435717E-01
        2   -1    0    0  501    0  0.00000000000E+00  0.00000000000E+00  0.11287443507E+04  0.11287443507E+04  0.25500000920E-02 0.  1.
       -2   -1    0    0    0  501  0.00000000000E+00  0.00000000000E+00 -0.12865579157E+04  0.12865579157E+04  0.25500000920E-02 0. -1.
    10030    2    1    2    0    0  0.00000000000E+00  0.00000000000E+00 -0.15781356502E+03  0.24153022663E+04  0.24101410574E+04 0.  0.
        3    1    3    3  502    0  0.52268482080E+03 -0.34724366236E+03 -0.11099040407E+04  0.12750155186E+04  0.10100000352E+00 0. -1.
       -3    1    3    3    0  502 -0.52268482080E+03  0.34724366236E+03  0.95209047568E+03  0.11402867477E+04  0.10100000352E+00 0.  1.
</event>
<event>
 5   0  0.9038897E-06  0.2388483E+04  0.7818609E-02  0.8443828E-01
        1   -1    0    0  501    0  0.00000000000E+00  0.00000000000E+00  0.20483430769E+04  0.20483430769E+04  0.50400001928E-02 0.  1.
       -1   -1    0    0    0  501  0.00000000000E+00  0.00000000000E+00 -0.69627655427E+03  0.69627655429E+03  0.50400001928E-02 0. -1.
    10030    2    1    2    0    0  0.00000000000E+00  0.00000000000E+00  0.13520665226E+04  0.27446196312E+04  0.23884834180E+04 0.  0.
        1    1    3    3  502    0  0.32340931259E+03  0.45939451325E+03 -0.53493886443E+03  0.77575543245E+03  0.50400001928E-02 0. -1.
       -1    1    3    3    0  502 -0.32340931259E+03 -0.45939451325E+03  0.18870053870E+04  0.19688641987E+04  0.50400001928E-02 0.  1.
</event>
<event>
 5   0  0.2087882E-05  0.2406131E+04  0.7818609E-02  0.8437212E-01
        2   -1    0    0  501    0  0.00000000000E+00  0.00000000000E+00  0.14230750507E+04  0.14230750507E+04  0.25500000920E-02 0. -1.
       -2   -1    0    0    0  501  0.00000000000E+00  0.00000000000E+00 -0.10170696080E+04  0.10170696080E+04  0.25500000920E-02 0.  1.
    10030    2    1    2    0    0  0.00000000000E+00  0.00000000000E+00  0.40600544271E+03  0.24401446587E+04  0.24061308227E+04 0.  0.
        2    1    3    3  502    0  0.49630042210E+03 -0.84461751912E+03 -0.50520543599E+03  0.11022365423E+04  0.25500000920E-02 0.  1.
       -2    1    3    3    0  502 -0.49630042210E+03  0.84461751912E+03  0.91121087870E+03  0.13379081164E+04  0.25500000920E-02 0. -1.
</event>
<event>
 5   0  0.8528103E-06  0.2429598E+04  0.7818609E-02  0.8428505E-01
        1   -1    0    0  501    0  0.00000000000E+00  0.00000000000E+00  0.22218511964E+04  0.22218511964E+04  0.50400001928E-02 0. -1.
       -1   -1    0    0    0  501  0.00000000000E+00  0.00000000000E+00 -0.66419236149E+03  0.66419236151E+03  0.50400001928E-02 0.  1.
    10030    2    1    2    0    0  0.00000000000E+00  0.00000000000E+00  0.15576588349E+04  0.28860435579E+04  0.24295979857E+04 0.  0.
        4    1    3    3  502    0  0.34573899518E+03 -0.21637775101E+03  0.21380856926E+04  0.21766411799E+04  0.12699999809E+01 0. -1.
       -4    1    3    3    0  502 -0.34573899518E+03  0.21637775101E+03 -0.58042685772E+03  0.70940237805E+03  0.12699999809E+01 0.  1.
</event>
<event>
 5   0  0.9038897E-06  0.2408435E+04  0.7818609E-02  0.8436352E-01
       -1   -1    0    0    0  501  0.00000000000E+00  0.00000000000E+00  0.12765281095E+04  0.12765281095E+04  0.50400001928E-02 0.  1.
        1   -1    0    0  501    0  0.00000000000E+00  0.00000000000E+00 -0.11360027438E+04  0.11360027438E+04  0.50400001928E-02 0. -1.
    10030    2    1    2    0    0  0.00000000000E+00  0.00000000000E+00  0.14052536570E+03  0.24125308533E+04  0.24084347074E+04 0.  0.
        1    1    3    3  502    0  0.73430124532E+03 -0.93791859927E+03 -0.10681414745E+03  0.11959510357E+04  0.50400001928E-02 0. -1.
       -1    1    3    3    0  502 -0.73430124532E+03  0.93791859927E+03  0.24733951315E+03  0.12165798176E+04  0.50400001928E-02 0.  1.
</event>
<event>
 5   0  0.9083687E-06  0.2392595E+04  0.7818609E-02  0.8442281E-01
        1   -1    0    0  501    0  0.00000000000E+00  0.00000000000E+00  0.16119055733E+04  0.16119055733E+04  0.50400001928E-02 0.  1.
       -1   -1    0    0    0  501  0.00000000000E+00  0.00000000000E+00 -0.88784823811E+03  0.88784823812E+03  0.50400001928E-02 0. -1.
    10030    2    1    2    0    0  0.00000000000E+00  0.00000000000E+00  0.72405733519E+03  0.24997538114E+04  0.23925948452E+04 0.  0.
        2    1    3    3  502    0 -0.10221189930E+04  0.29176129288E+03 -0.21144051174E+03  0.10837707220E+04  0.25500000920E-02 0. -1.
       -2    1    3    3    0  502  0.10221189930E+04 -0.29176129288E+03  0.93549784692E+03  0.14159830894E+04  0.25500000920E-02 0.  1.
</event>
<event>
 5   0  0.9176817E-06  0.2376686E+04  0.7818609E-02  0.8448284E-01
       -1   -1    0    0    0  501  0.00000000000E+00  0.00000000000E+00  0.75145029046E+03  0.75145029048E+03  0.50400001928E-02 0.  1.
        1   -1    0    0  501    0  0.00000000000E+00  0.00000000000E+00 -0.18792441954E+04  0.18792441954E+04  0.50400001928E-02 0. -1.
    10030    2    1    2    0    0  0.00000000000E+00  0.00000000000E+00 -0.11277939049E+04  0.26306944859E+04  0.23766855884E+04 0.  0.
        3    1    3    3  502    0  0.34170246615E+03 -0.52846938113E+03  0.55186302892E+03  0.83701450110E+03  0.10100000352E+00 0.  1.
       -3    1    3    3    0  502 -0.34170246615E+03  0.52846938113E+03 -0.16796569339E+04  0.17936799848E+04  0.10100000352E+00 0. -1.
</event>
<event>
 5   0  0.2025353E-05  0.2347157E+04  0.7818609E-02  0.8459556E-01
       -2   -1    0    0    0  501  0.00000000000E+00  0.00000000000E+00  0.97997620723E+03  0.97997620724E+03  0.25500000920E-02 0.  1.
        2   -1    0    0  501    0  0.00000000000E+00  0.00000000000E+00 -0.14054283565E+04  0.14054283565E+04  0.25500000920E-02 0. -1.
    10030    2    1    2    0    0  0.00000000000E+00  0.00000000000E+00 -0.42545214927E+03  0.23854045637E+04  0.23471568762E+04 0.  0.
        4    1    3    3  502    0  0.20315967904E+03  0.74066988729E+03 -0.11145523268E+04  0.13535487576E+04  0.12699999809E+01 0. -1.
       -4    1    3    3    0  502 -0.20315967904E+03 -0.74066988729E+03  0.68910017752E+03  0.10318558061E+04  0.12699999809E+01 0.  1.
</event>
<event>
 5   0  0.2025353E-05  0.2394541E+04  0.7818609E-02  0.8441550E-01
        2   -1    0    0  501    0  0.00000000000E+00  0.00000000000E+00  0.16772324525E+04  0.16772324525E+04  0.25500000920E-02 0. -1.
       -2   -1    0    0    0  501  0.00000000000E+00  0.00000000000E+00 -0.85465601930E+03  0.85465601931E+03  0.25500000920E-02 0.  1.
    10030    2    1    2    0    0  0.00000000000E+00  0.00000000000E+00  0.82257643323E+03  0.25318884718E+04  0.23945411346E+04 0.  0.
        4    1    3    3  502    0  0.56214613924E+03  0.79188425695E+03 -0.32913930132E+03  0.10253893167E+04  0.12699999809E+01 0.  1.
       -4    1    3    3    0  502 -0.56214613924E+03 -0.79188425695E+03  0.11517157345E+04  0.15064991551E+04  0.12699999809E+01 0. -1.
</event>
<event>
 5   0  0.9083687E-06  0.2401702E+04  0.7818609E-02  0.8438867E-01
        1   -1    0    0  501    0  0.00000000000E+00  0.00000000000E+00  0.13998830246E+04  0.13998830246E+04  0.50400001928E-02 0. -1.
       -1   -1    0    0    0  501  0.00000000000E+00  0.00000000000E+00 -0.10301167083E+04  0.10301167083E+04  0.50400001928E-02 0.  1.
    10030    2    1    2    0    0  0.00000000000E+00  0.00000000000E+00  0.36976631630E+03  0.24299997329E+04  0.24017018077E+04 0.  0.
        2    1    3    3  502    0  0.98122200246E+03  0.33600554231E+03 -0.42751403900E+03  0.11218130843E+04  0.25500000920E-02 0.  1.
       -2    1    3    3    0  502 -0.98122200246E+03 -0.33600554231E+03  0.79728035530E+03  0.13081866486E+04  0.25500000920E-02 0. -1.
</event>
<event>
 5   0  0.2025353E-05  0.2603317E+04  0.7818609E-02  0.8367075E-01
        2   -1    0    0  501    0  0.00000000000E+00  0.00000000000E+00  0.16585335816E+04  0.16585335816E+04  0.25500000920E-02 0. -1.
       -2   -1    0    0    0  501  0.00000000000E+00  0.00000000000E+00 -0.10215737428E+04  0.10215737428E+04  0.25500000920E-02 0.  1.
    10030    2    1    2    0    0  0.00000000000E+00  0.00000000000E+00  0.63695983885E+03  0.26801073244E+04  0.26033166219E+04 0.  0.
        4    1    3    3  502    0 -0.59003654989E+02 -0.12959759484E+04  0.20915111383E+03  0.13140703526E+04  0.12699999809E+01 0.  1.
       -4    1    3    3    0  502  0.59003654989E+02  0.12959759484E+04  0.42780872502E+03  0.13660369718E+04  0.12699999809E+01 0. -1.
</event>
<event>
 5   0  0.2080257E-05  0.2399779E+04  0.7818609E-02  0.8439586E-01
       -2   -1    0    0    0  501  0.00000000000E+00  0.00000000000E+00  0.11811158312E+04  0.11811158312E+04  0.25500000920E-02 0.  1.
        2   -1    0    0  501    0  0.00000000000E+00  0.00000000000E+00 -0.12189611960E+04  0.12189611960E+04  0.25500000920E-02 0. -1.
    10030    2    1    2    0    0  0.00000000000E+00  0.00000000000E+00 -0.37845364770E+02  0.24000770272E+04  0.23997786283E+04 0.  0.
        1    1    3    3  502    0  0.54295310119E+03  0.57063280623E+03  0.88634979784E+03  0.11857638187E+04  0.50400001928E-02 0.  1.
       -1    1    3    3    0  502 -0.54295310119E+03 -0.57063280623E+03 -0.92419516261E+03  0.12143132085E+04  0.50400001928E-02 0. -1.
</event>
<event>
 5   0  0.2025353E-05  0.2468411E+04  0.7818609E-02  0.8414326E-01
       -2   -1    0    0    0  501  0.00000000000E+00  0.00000000000E+00  0.88712776732E+03  0.88712776732E+03  0.25500000920E-02 0.  1.
        2   -1    0    0  501    0  0.00000000000E+00  0.00000000000E+00 -0.17170733152E+04  0.17170733152E+04  0.25500000920E-02 0. -1.
    10030    2    1    2    0    0  0.00000000000E+00  0.00000000000E+00 -0.82994554785E+03  0.26042010825E+04  0.24684111622E+04 0.  0.
        4    1    3    3  502    0 -0.58877555104E+03 -0.63402583187E+03  0.51356666940E+03  0.10061797761E+04  0.12699999809E+01 0.  1.
       -4    1    3    3    0  502  0.58877555104E+03  0.63402583187E+03 -0.13435122173E+04  0.15980213064E+04  0.12699999809E+01 0. -1.
</event>
<event>
 5   0  0.9176817E-06  0.2409765E+04  0.7818609E-02  0.8435857E-01
        1   -1    0    0  501    0  0.00000000000E+00  0.00000000000E+00  0.11156792353E+04  0.11156792353E+04  0.50400001928E-02 0. -1.
       -1   -1    0    0    0  501  0.00000000000E+00  0.00000000000E+00 -0.13012181648E+04  0.13012181648E+04  0.50400001928E-02 0.  1.
    10030    2    1    2    0    0  0.00000000000E+00  0.00000000000E+00 -0.18553892955E+03  0.24168974001E+04  0.24097652060E+04 0.  0.
        3    1    3    3  502    0 -0.26444043666E+03  0.47483219825E+03 -0.11712882367E+04  0.12912437820E+04  0.10100000352E+00 0.  1.
       -3    1    3    3    0  502  0.26444043666E+03 -0.47483219825E+03  0.98574930716E+03  0.11256536180E+04  0.10100000352E+00 0. -1.
</event>
<event>
 5   0  0.2048028E-05  0.2436738E+04  0.7818609E-02  0.8425876E-01
       -2   -1    0    0    0  501  0.00000000000E+00  0.00000000000E+00  0.86067116157E+03  0.86067116158E+03  0.25500000920E-02 0.  1.
        2   -1    0    0  501    0  0.00000000000E+00  0.00000000000E+00 -0.17247270551E+04  0.17247270551E+04  0.25500000920E-02 0. -1.
    10030    2    1    2    0    0  0.00000000000E+00  0.00000000000E+00 -0.86405589349E+03  0.25853982166E+04  0.24367378504E+04 0.  0.
        5    1    3    3  502    0 -0.74557998447E+03  0.21163884145E+03  0.56538737506E+03  0.95935680866E+03  0.46999998093E+01 0.  1.
       -5    1    3    3    0  502  0.74557998447E+03 -0.21163884145E+03 -0.14294432685E+04  0.16260414080E+04  0.46999998093E+01 0. -1.
</event>
<event>
 5   0  0.9176817E-06  0.2389732E+04  0.7818609E-02  0.8443358E-01
        1   -1    0    0  501    0  0.00000000000E+00  0.00000000000E+00  0.10333204254E+04  0.10333204255E+04  0.50400001928E-02 0. -1.
       -1   -1    0    0    0  501  0.00000000000E+00  0.00000000000E+00 -0.13816673292E+04  0.13816673292E+04  0.50400001928E-02 0.  1.
    10030    2    1    2    0    0  0.00000000000E+00  0.00000000000E+00 -0.34834690377E+03  0.24149877547E+04  0.23897322632E+04 0.  0.
        3    1    3    3  502    0 -0.77992279059E+03 -0.90483471516E+03 -0.14744317984E+03  0.12036382025E+04  0.10100000352E+00 0.  1.
       -3    1    3    3    0  502  0.77992279059E+03  0.90483471516E+03 -0.20090372392E+03  0.12113495522E+04  0.10100000352E+00 0. -1.
</event>
<event>
 5   0  0.9176817E-06  0.2404184E+04  0.7818609E-02  0.8437939E-01
        1   -1    0    0  501    0  0.00000000000E+00  0.00000000000E+00  0.13790537387E+04  0.13790537387E+04  0.50400001928E-02 0. -1.
       -1   -1    0    0    0  501  0.00000000000E+00  0.00000000000E+00 -0.10478386085E+04  0.10478386085E+04  0.50400001928E-02 0.  1.
    10030    2    1    2    0    0  0.00000000000E+00  0.00000000000E+00  0.33121513020E+03  0.24268923472E+04  0.24041844776E+04 0.  0.
        3    1    3    3  502    0 -0.80838623594E+03 -0.40269537147E+03 -0.63521643110E+03  0.11041520698E+04  0.10100000352E+00 0.  1.
       -3    1    3    3    0  502  0.80838623594E+03  0.40269537147E+03  0.96643156130E+03  0.13227402774E+04  0.10100000352E+00 0. -1.
</event>
<event>
 5   0  0.2122194E-05  0.2500626E+04  0.7818609E-02  0.8402762E-01
        2   -1    0    0  501    0  0.00000000000E+00  0.00000000000E+00  0.14537916683E+04  0.14537916683E+04  0.25500000920E-02 0. -1.
       -2   -1    0    0    0  501  0.00000000000E+00  0.00000000000E+00 -0.10753144510E+04  0.10753144510E+04  0.25500000920E-02 0.  1.
    10030    2    1    2    0    0  0.00000000000E+00  0.00000000000E+00  0.37847721724E+03  0.25291061193E+04  0.25006264732E+04 0.  0.
        3    1    3    3  502    0  0.68434684096E+03 -0.73376375099E+03 -0.56527612052E+03  0.11516409786E+04  0.10100000352E+00 0.  1.
       -3    1    3    3    0  502 -0.68434684096E+03  0.73376375099E+03  0.94375333776E+03  0.13774651407E+04  0.10100000352E+00 0. -1.
</event>
<event>
 5   0  0.9038897E-06  0.2424125E+04  0.7818609E-02  0.8430526E-01
       -1   -1    0    0    0  501  0.00000000000E+00  0.00000000000E+00  0.86655803838E+03  0.86655803840E+03  0.50400001928E-02 0. -1.
        1   -1    0    0  501    0  0.00000000000E+00  0.00000000000E+00 -0.16953228995E+04  0.16953228995E+04  0.50400001928E-02 0.  1.
    10030    2    1    2    0    0  0.00000000000E+00  0.00000000000E+00 -0.82876486111E+03  0.25618809379E+04  0.24241251504E+04 0.  0.
        1    1    3    3  502    0  0.99207746186E+03  0.67351807972E+03 -0.22755588264E+03  0.12205023449E+04  0.50400001928E-02 0. -1.
       -1    1    3    3    0  502 -0.99207746186E+03 -0.67351807972E+03 -0.60120897846E+03  0.13413785930E+04  0.50400001928E-02 0.  1.
</event>
<event>
 5   0  0.8528103E-06  0.2408893E+04  0.7818609E-02  0.8436182E-01
        1   -1    0    0  501    0  0.00000000000E+00  0.00000000000E+00  0.14214727385E+04  0.14214727385E+04  0.50400001928E-02 0.  1.
       -1   -1    0    0    0  501  0.00000000000E+00  0.00000000000E+00 -0.10205550708E+04  0.10205550708E+04  0.50400001928E-02 0. -1.
    10030    2    1    2    0    0  0.00000000000E+00  0.00000000000E+00  0.40091766769E+03  0.24420278093E+04  0.24088928671E+04 0.  0.
        4    1    3    3  502    0 -0.11856345052E+04  0.85691797685E+02  0.38390892943E+01  0.11887340391E+04  0.12699999809E+01 0.  1.
       -4    1    3    3    0  502  0.11856345052E+04 -0.85691797685E+02  0.39707857840E+03  0.12532937702E+04  0.12699999809E+01 0. -1.
</event>
<event>
 5   0  0.8898848E-06  0.2398133E+04  0.7818609E-02  0.8440203E-01
        1   -1    0    0  501    0  0.00000000000E+00  0.00000000000E+00  0.16151309459E+04  0.16151309459E+04  0.50400001928E-02 0. -1.
       -1   -1    0    0    0  501  0.00000000000E+00  0.00000000000E+00 -0.89018229963E+03  0.89018229964E+03  0.50400001928E-02 0.  1.
    10030    2    1    2    0    0  0.00000000000E+00  0.00000000000E+00  0.72494864631E+03  0.25053132456E+04  0.23981334239E+04 0.  0.
        5    1    3    3  502    0  0.11106587636E+04 -0.31514506567E+03  0.24181514210E+02  0.11547667025E+04  0.46999998093E+01 0.  1.
       -5    1    3    3    0  502 -0.11106587636E+04  0.31514506567E+03  0.70076713210E+03  0.13505465431E+04  0.46999998093E+01 0. -1.
</event>
<event>
 5   0  0.8528103E-06  0.2400322E+04  0.7818609E-02  0.8439383E-01
       -1   -1    0    0    0  501  0.00000000000E+00  0.00000000000E+00  0.10886030927E+04  0.10886030927E+04  0.50400001928E-02 0.  1.
        1   -1    0    0  501    0  0.00000000000E+00  0.00000000000E+00 -0.13231511367E+04  0.13231511367E+04  0.50400001928E-02 0. -1.
    10030    2    1    2    0    0  0.00000000000E+00  0.00000000000E+00 -0.23454804400E+03  0.24117542293E+04  0.24003219946E+04 0.  0.
        4    1    3    3  502    0 -0.93778406267E+03 -0.53897436375E+02 -0.86785329780E+03  0.12788724883E+04  0.12699999809E+01 0. -1.
       -4    1    3    3    0  502  0.93778406267E+03  0.53897436375E+02  0.63330525380E+03  0.11328817411E+04  0.12699999809E+01 0.  1.
</event>
<event>
 5   0  0.9038897E-06  0.2206753E+04  0.7818609E-02  0.8515623E-01
       -1   -1    0    0    0  501  0.00000000000E+00  0.00000000000E+00  0.61173182913E+03  0.61173182915E+03  0.50400001928E-02 0.  1.
        1   -1    0    0  501    0  0.00000000000E+00  0.00000000000E+00 -0.19901522585E+04  0.19901522585E+04  0.50400001928E-02 0. -1.
    10030    2    1    2    0    0  0.00000000000E+00  0.00000000000E+00 -0.13784204293E+04  0.26018840876E+04  0.22067528012E+04 0.  0.
        1    1    3    3  502    0 -0.69206545395E+03 -0.51433865044E+03  0.12249107232E+03  0.87092072125E+03  0.50400001928E-02 0.  1.
       -1    1    3    3    0  502  0.69206545395E+03  0.51433865044E+03 -0.15009115016E+04  0.17309633664E+04  0.50400001928E-02 0. -1.
</event>
<event>
 5   0  0.2025353E-05  0.2317259E+04  0.7818609E-02  0.8471147E-01
       -2   -1    0    0    0  501  0.00000000000E+00  0.00000000000E+00  0.15165148531E+04  0.15165148531E+04  0.25500000920E-02 0.  1.
        2   -1    0    0  501    0  0.00000000000E+00  0.00000000000E+00 -0.88520208983E+03  0.88520208984E+03  0.25500000920E-02 0. -1.
    10030    2    1    2    0    0  0.00000000000E+00  0.00000000000E+00  0.63131276326E+03  0.24017169429E+04  0.23172588265E+04 0.  0.
        4    1    3    3  502    0  0.27644885037E+03 -0.89898030585E+03 -0.38563717633E+03  0.10165171921E+04  0.12699999809E+01 0.  1.
       -4    1    3    3    0  502 -0.27644885037E+03  0.89898030585E+03  0.10169499396E+04  0.13851997508E+04  0.12699999809E+01 0. -1.
</event>
<event>
 5   0  0.8528103E-06  0.2376918E+04  0.7818609E-02  0.8448196E-01
        1   -1    0    0  501    0  0.00000000000E+00  0.00000000000E+00  0.16785100574E+04  0.16785100574E+04  0.50400001928E-02 0.  1.
       -1   -1    0    0    0  501  0.00000000000E+00  0.00000000000E+00 -0.84148101668E+03  0.84148101670E+03  0.50400001928E-02 0. -1.
    10030    2    1    2    0    0  0.00000000000E+00  0.00000000000E+00  0.83702904074E+03  0.25199910741E+04  0.23769176255E+04 0.  0.
        4    1    3    3  502    0  0.51760706897E+03 -0.10696675091E+04  0.39934059408E+03  0.12536268109E+04  0.12699999809E+01 0. -1.
       -4    1    3    3    0  502 -0.51760706897E+03  0.10696675091E+04  0.43768844665E+03  0.12663642632E+04  0.12699999809E+01 0.  1.
</event>
<event>
 5   0  0.8528103E-06  0.2406238E+04  0.7818609E-02  0.8437172E-01
       -1   -1    0    0    0  501  0.00000000000E+00  0.00000000000E+00  0.81320061826E+03  0.81320061827E+03  0.50400001928E-02 0.  1.
        1   -1    0    0  501    0  0.00000000000E+00  0.00000000000E+00 -0.17799983919E+04  0.17799983919E+04  0.50400001928E-02 0. -1.
    10030    2    1    2    0    0  0.00000000000E+00  0.00000000000E+00 -0.96679777365E+03  0.25931990102E+04  0.24062383862E+04 0.  0.
        4    1    3    3  502    0 -0.50636710173E+03 -0.10445584786E+04 -0.82416995628E+03  0.14236459485E+04  0.12699999809E+01 0. -1.
       -4    1    3    3    0  502  0.50636710173E+03  0.10445584786E+04 -0.14262781737E+03  0.11695530617E+04  0.12699999809E+01 0.  1.
</event>
<event>
 5   0  0.9176817E-06  0.2427937E+04  0.7818609E-02  0.8429118E-01
       -1   -1    0    0    0  501  0.00000000000E+00  0.00000000000E+00  0.59864595594E+03  0.59864595596E+03  0.50400001928E-02 0. -1.
        1   -1    0    0  501    0  0.00000000000E+00  0.00000000000E+00 -0.24617557435E+04  0.24617557435E+04  0.50400001928E-02 0.  1.
    10030    2    1    2    0    0  0.00000000000E+00  0.00000000000E+00 -0.18631097876E+04  0.30604016995E+04  0.24279374954E+04 0.  0.
        3    1    3    3  502    0 -0.78125657729E+03 -0.34509306202E+03 -0.20189964161E+04  0.21922129457E+04  0.10100000352E+00 0.  1.
       -3    1    3    3    0  502  0.78125657729E+03  0.34509306202E+03  0.15588662850E+03  0.86818875376E+03  0.10100000352E+00 0. -1.
</event>
<event>
 5   0  0.9176817E-06  0.2394531E+04  0.7818609E-02  0.8441554E-01
        1   -1    0    0  501    0  0.00000000000E+00  0.00000000000E+00  0.15459686803E+04  0.15459686803E+04  0.50400001928E-02 0. -1.
       -1   -1    0    0    0  501  0.00000000000E+00  0.00000000000E+00 -0.92721456222E+03  0.92721456224E+03  0.50400001928E-02 0.  1.
    10030    2    1    2    0    0  0.00000000000E+00  0.00000000000E+00  0.61875411804E+03  0.24731832425E+04  0.23945309963E+04 0.  0.
        3    1    3    3  502    0 -0.21472673268E+03 -0.11404994202E+04  0.61331868204E+03  0.13126333507E+04  0.10100000352E+00 0. -1.
       -3    1    3    3    0  502  0.21472673268E+03  0.11404994202E+04  0.54354359978E+01  0.11605498919E+04  0.10100000352E+00 0.  1.
</event>
<event>
 5   0  0.2025353E-05  0.2378234E+04  0.7818609E-02  0.8447698E-01
        2   -1    0    0  501    0  0.00000000000E+00  0.00000000000E+00  0.20570430082E+04  0.20570430082E+04  0.25500000920E-02 0. -1.
       -2   -1    0    0    0  501  0.00000000000E+00  0.00000000000E+00 -0.68739425545E+03  0.68739425545E+03  0.25500000920E-02 0.  1.
    10030    2    1    2    0    0  0.00000000000E+00  0.00000000000E+00  0.13696487528E+04  0.27444372637E+04  0.23782342585E+04 0.  0.
        4    1    3    3  502    0  0.10446021031E+04  0.56807348613E+03  0.67346515393E+03  0.13665496573E+04  0.12699999809E+01 0.  1.
       -4    1    3    3    0  502 -0.10446021031E+04 -0.56807348613E+03  0.69618359885E+03  0.13778876063E+04  0.12699999809E+01 0. -1.
</event>
<event>
 5   0  0.9083687E-06  0.2395407E+04  0.7818609E-02  0.8441225E-01
        1   -1    0    0  501    0  0.00000000000E+00  0.00000000000E+00  0.21314339205E+04  0.21314339205E+04  0.50400001928E-02 0. -1.
       -1   -1    0    0    0  501  0.00000000000E+00  0.00000000000E+00 -0.67301838666E+03  0.67301838668E+03  0.50400001928E-02 0.  1.
    10030    2    1    2    0    0  0.00000000000E+00  0.00000000000E+00  0.14584155338E+04  0.28044523072E+04  0.23954074547E+04 0.  0.
        2    1    3    3  502    0 -0.78849264460E+03 -0.85191455400E+03  0.38385246719E+03  0.12226290421E+04  0.25500000920E-02 0. -1.
       -2    1    3    3    0  502  0.78849264460E+03  0.85191455400E+03  0.10745630666E+04  0.15818232651E+04  0.25500000920E-02 0.  1.
</event>
<event>
 5   0  0.8528103E-06  0.2415182E+04  0.7818609E-02  0.8433841E-01
        1   -1    0    0  501    0  0.00000000000E+00  0.00000000000E+00  0.12343996956E+04  0.12343996956E+04  0.50400001928E-02 0.  1.
       -1   -1    0    0    0  501  0.00000000000E+00  0.00000000000E+00 -0.11813649183E+04  0.11813649183E+04  0.50400001928E-02 0. -1.
    10030    2    1    2    0    0  0.00000000000E+00  0.00000000000E+00  0.53034777319E+02  0.24157646139E+04  0.24151823911E+04 0.  0.
        4    1    3    3  502    0  0.33162264286E+03 -0.66656518236E+03 -0.92449683968E+03  0.11870041024E+04  0.12699999809E+01 0. -1.
       -4    1    3    3    0  502 -0.33162264286E+03  0.66656518236E+03  0.97753161700E+03  0.12287605115E+04  0.12699999809E+01 0.  1.
</event>
<event>
 5   0  0.2025353E-05  0.2221278E+04  0.7818609E-02  0.8509624E-01
        2   -1    0    0  501    0  0.00000000000E+00  0.00000000000E+00  0.28066553181E+04  0.28066553181E+04  0.25500000920E-02 0. -1.
       -2   -1    0    0    0  501  0.00000000000E+00  0.00000000000E+00 -0.43949790858E+03  0.43949790858E+03  0.25500000920E-02 0.  1.
    10030    2    1    2    0    0  0.00000000000E+00  0.00000000000E+00  0.23671574096E+04  0.32461532267E+04  0.22212781388E+04 0.  0.
        4    1    3    3  502    0 -0.27978923998E+03  0.59287502044E+03  0.24937329800E+04  0.25784663266E+04  0.12699999809E+01 0. -1.
       -4    1    3    3    0  502  0.27978923998E+03 -0.59287502044E+03 -0.12657557048E+03  0.66768690014E+03  0.12699999809E+01 0.  1.
</event>
<event>
 5   0  0.2048028E-05  0.2304745E+04  0.7818609E-02  0.8476053E-01
       -2   -1    0    0    0  501  0.00000000000E+00  0.00000000000E+00  0.69568125439E+03  0.69568125440E+03  0.25500000920E-02 0.  1.
        2   -1    0    0  501    0  0.00000000000E+00  0.00000000000E+00 -0.19088654233E+04  0.19088654233E+04  0.25500000920E-02 0. -1.
    10030    2    1    2    0    0  0.00000000000E+00  0.00000000000E+00 -0.12131841689E+04  0.26045466777E+04  0.23047445778E+04 0.  0.
        5    1    3    3  502    0  0.73537847158E+03  0.50525312315E+03  0.21757485291E+03  0.91838070621E+03  0.46999998093E+01 0.  1.
       -5    1    3    3    0  502 -0.73537847158E+03 -0.50525312315E+03 -0.14307590219E+04  0.16861659715E+04  0.46999998093E+01 0. -1.
</event>
<event>
 5   0  0.8528103E-06  0.2292501E+04  0.7818609E-02  0.8480884E-01
       -1   -1    0    0    0  501  0.00000000000E+00  0.00000000000E+00  0.14662739428E+04  0.14662739428E+04  0.50400001928E-02 0. -1.
        1   -1    0    0  501    0  0.00000000000E+00  0.00000000000E+00 -0.89607402840E+03  0.89607402842E+03  0.50400001928E-02 0.  1.
    10030    2    1    2    0    0  0.00000000000E+00  0.00000000000E+00  0.57019991441E+03  0.23623479712E+04  0.22925008168E+04 0.  0.
        4    1    3    3  502    0  0.37826184926E+03  0.51170939804E+03 -0.69734159008E+03  0.94404207576E+03  0.12699999809E+01 0.  1.
       -4    1    3    3    0  502 -0.37826184926E+03 -0.51170939804E+03  0.12675415045E+04  0.14183058955E+04  0.12699999809E+01 0. -1.
</event>
<event>
 5   0  0.2025353E-05  0.2376138E+04  0.7818609E-02  0.8448492E-01
       -2   -1    0    0    0  501  0.00000000000E+00  0.00000000000E+00  0.16949990584E+04  0.16949990584E+04  0.25500000920E-02 0. -1.
        2   -1    0    0  501    0  0.00000000000E+00  0.00000000000E+00 -0.83274839230E+03  0.83274839230E+03  0.25500000920E-02 0.  1.
    10030    2    1    2    0    0  0.00000000000E+00  0.00000000000E+00  0.86225066610E+03  0.25277474507E+04  0.23761378250E+04 0.  0.
        4    1    3    3  502    0 -0.58699407780E+03 -0.56204378738E+03  0.13530527439E+04  0.15783562991E+04  0.12699999809E+01 0. -1.
       -4    1    3    3    0  502  0.58699407780E+03  0.56204378738E+03 -0.49080207777E+03  0.94939115161E+03  0.12699999809E+01 0.  1.
</event>
<event>
 5   0  0.2122194E-05  0.2457473E+04  0.7818609E-02  0.8418294E-01
       -2   -1    0    0    0  501  0.00000000000E+00  0.00000000000E+00  0.83070895067E+03  0.83070895067E+03  0.25500000920E-02 0.  1.
        2   -1    0    0  501    0  0.00000000000E+00  0.00000000000E+00 -0.18174761706E+04  0.18174761706E+04  0.25500000920E-02 0. -1.
    10030    2    1    2    0    0  0.00000000000E+00  0.00000000000E+00 -0.98676721992E+03  0.26481851213E+04  0.24574732735E+04 0.  0.
        3    1    3    3  502    0  0.30671898023E+03  0.96229950067E+03  0.26070641023E+03  0.10431034006E+04  0.10100000352E+00 0.  1.
       -3    1    3    3    0  502 -0.30671898023E+03 -0.96229950067E+03 -0.12474736302E+04  0.16050817206E+04  0.10100000352E+00 0. -1.
</event>
<event>
 5   0  0.8898848E-06  0.2395672E+04  0.7818609E-02  0.8441126E-01
       -1   -1    0    0    0  501  0.00000000000E+00  0.00000000000E+00  0.92843349676E+03  0.92843349677E+03  0.50400001928E-02 0.  1.
        1   -1    0    0  501    0  0.00000000000E+00  0.00000000000E+00 -0.15454100824E+04  0.15454100824E+04  0.50400001928E-02 0. -1.
    10030    2    1    2    0    0  0.00000000000E+00  0.00000000000E+00 -0.61697658565E+03  0.24738435792E+04  0.23956715023E+04 0.  0.
        5    1    3    3  502    0 -0.65219262421E+03  0.50666158528E+03 -0.12043970432E+04  0.14603614309E+04  0.46999998093E+01 0. -1.
       -5    1    3    3    0  502  0.65219262421E+03 -0.50666158528E+03  0.58742045754E+03  0.10134821483E+04  0.46999998093E+01 0.  1.
</event>
<event>
 5   0  0.2087882E-05  0.2402484E+04  0.7818609E-02  0.8438574E-01
        2   -1    0    0  501    0  0.00000000000E+00  0.00000000000E+00  0.12666540808E+04  0.12666540808E+04  0.25500000920E-02 0. -1.
       -2   -1    0    0    0  501  0.00000000000E+00  0.00000000000E+00 -0.11392076050E+04  0.11392076050E+04  0.25500000920E-02 0.  1.
    10030    2    1    2    0    0  0.00000000000E+00  0.00000000000E+00  0.12744647573E+03  0.24058616858E+04  0.24024836830E+04 0.  0.
        2    1    3    3  502    0 -0.71590416200E+02 -0.10885066861E+03 -0.11321116972E+04  0.11395834988E+04  0.25500000920E-02 0.  1.
       -2    1    3    3    0  502  0.71590416200E+02  0.10885066861E+03  0.12595581730E+04  0.12662781870E+04  0.25500000920E-02 0. -1.
</event>
<event>
 5   0  0.8898848E-06  0.2378163E+04  0.7818609E-02  0.8447725E-01
        1   -1    0    0  501    0  0.00000000000E+00  0.00000000000E+00  0.88955298063E+03  0.88955298065E+03  0.50400001928E-02 0. -1.
       -1   -1    0    0    0  501  0.00000000000E+00  0.00000000000E+00 -0.15894666715E+04  0.15894666715E+04  0.50400001928E-02 0.  1.
    10030    2    1    2    0    0  0.00000000000E+00  0.00000000000E+00 -0.69991369089E+03  0.24790196522E+04  0.23781630014E+04 0.  0.
        5    1    3    3  502    0 -0.11375663550E+04  0.11350995330E+03 -0.69085981473E+03  0.13357586216E+04  0.46999998093E+01 0.  1.
       -5    1    3    3    0  502  0.11375663550E+04 -0.11350995330E+03 -0.90538761568E+01  0.11432610306E+04  0.46999998093E+01 0. -1.
</event>
<event>
 5   0  0.2087882E-05  0.2402120E+04  0.7818609E-02  0.8438710E-01
        2   -1    0    0  501    0  0.00000000000E+00  0.00000000000E+00  0.14616179383E+04  0.14616179383E+04  0.25500000920E-02 0. -1.
       -2   -1    0    0    0  501  0.00000000000E+00  0.00000000000E+00 -0.98695055866E+03  0.98695055867E+03  0.25500000920E-02 0.  1.
    10030    2    1    2    0    0  0.00000000000E+00  0.00000000000E+00  0.47466737964E+03  0.24485684970E+04  0.24021195980E+04 0.  0.
        2    1    3    3  502    0 -0.77233230259E+03 -0.68066964047E+03  0.86795327674E+03  0.13465330429E+04  0.25500000920E-02 0. -1.
       -2    1    3    3    0  502  0.77233230259E+03  0.68066964047E+03 -0.39328589711E+03  0.11020354540E+04  0.25500000920E-02 0.  1.
</event>
<event>
 5   0  0.9176817E-06  0.2517564E+04  0.7818609E-02  0.8396755E-01
        1   -1    0    0  501    0  0.00000000000E+00  0.00000000000E+00  0.21430225849E+04  0.21430225849E+04  0.50400001928E-02 0.  1.
       -1   -1    0    0    0  501  0.00000000000E+00  0.00000000000E+00 -0.73939151350E+03  0.73939151351E+03  0.50400001928E-02 0. -1.
    10030    2    1    2    0    0  0.00000000000E+00  0.00000000000E+00  0.14036310714E+04  0.28824140984E+04  0.25175644679E+04 0.  0.
        3    1    3    3  502    0 -0.53255597767E+03 -0.10622939096E+04  0.11772662032E+04  0.16727342715E+04  0.10100000352E+00 0.  1.
       -3    1    3    3    0  502  0.53255597767E+03  0.10622939096E+04  0.22636486824E+03  0.12096798269E+04  0.10100000352E+00 0. -1.
</event>
<event>
 5   0  0.2122194E-05  0.2416127E+04  0.7818609E-02  0.8433490E-01
       -2   -1    0    0    0  501  0.00000000000E+00  0.00000000000E+00  0.19416404977E+04  0.19416404977E+04  0.25500000920E-02 0.  1.
        2   -1    0    0  501    0  0.00000000000E+00  0.00000000000E+00 -0.75164160419E+03  0.75164160419E+03  0.25500000920E-02 0. -1.
    10030    2    1    2    0    0  0.00000000000E+00  0.00000000000E+00  0.11899988935E+04  0.26932821019E+04  0.24161272967E+04 0.  0.
        3    1    3    3  502    0  0.11475731759E+04 -0.31895925409E+03  0.82004554801E+03  0.14460753476E+04  0.10100000352E+00 0. -1.
       -3    1    3    3    0  502 -0.11475731759E+04  0.31895925409E+03  0.36995334550E+03  0.12472067543E+04  0.10100000352E+00 0.  1.
</event>
<event>
 5   0  0.9083687E-06  0.2433733E+04  0.7818609E-02  0.8426981E-01
        1   -1    0    0  501    0  0.00000000000E+00  0.00000000000E+00  0.12176701260E+04  0.12176701260E+04  0.50400001928E-02 0.  1.
       -1   -1    0    0    0  501  0.00000000000E+00  0.00000000000E+00 -0.12160634059E+04  0.12160634059E+04  0.50400001928E-02 0. -1.
    10030    2    1    2    0    0  0.00000000000E+00  0.00000000000E+00  0.16067200921E+01  0.24337335319E+04  0.24337330015E+04 0.  0.
        2    1    3    3  502    0  0.66051364630E+03 -0.26273651543E+03 -0.98684827504E+03  0.12162147308E+04  0.25500000920E-02 0. -1.
       -2    1    3    3    0  502 -0.66051364630E+03  0.26273651543E+03  0.98845499513E+03  0.12175188010E+04  0.25500000920E-02 0.  1.
</event>
<event>
 5   0  0.9038897E-06  0.2410318E+04  0.7818609E-02  0.8435651E-01
       -1   -1    0    0    0  501  0.00000000000E+00  0.00000000000E+00  0.33399666674E+04  0.33399666674E+04  0.50400001928E-02 0.  1.
        1   -1    0    0  501    0  0.00000000000E+00  0.00000000000E+00 -0.43485717362E+03  0.43485717364E+03  0.50400001928E-02 0. -1.
    10030    2    1    2    0    0  0.00000000000E+00  0.00000000000E+00  0.29051094938E+04  0.37748238410E+04  0.24103182072E+04 0.  0.
        1    1    3    3  502    0  0.72970903632E+03 -0.89273417674E+03  0.20017189900E+04  0.23100494590E+04  0.50400001928E-02 0.  1.
       -1    1    3    3    0  502 -0.72970903632E+03  0.89273417674E+03  0.90339050380E+03  0.14647743821E+04  0.50400001928E-02 0. -1.
</event>
<event>
 5   0  0.2087882E-05  0.2391270E+04  0.7818609E-02  0.8442779E-01
        2   -1    0    0  501    0  0.00000000000E+00  0.00000000000E+00  0.12988525828E+04  0.12988525828E+04  0.25500000920E-02 0.  1.
       -2   -1    0    0    0  501  0.00000000000E+00  0.00000000000E+00 -0.11006195693E+04  0.11006195693E+04  0.25500000920E-02 0. -1.
    10030    2    1    2    0    0  0.00000000000E+00  0.00000000000E+00  0.19823301346E+03  0.23994721521E+04  0.23912695961E+04 0.  0.
        2    1    3    3  502    0  0.22545208762E+03  0.11312894359E+03  0.12718494667E+04  0.12966217134E+04  0.25500000920E-02 0.  1.
       -2    1    3    3    0  502 -0.22545208762E+03 -0.11312894359E+03 -0.10736164532E+04  0.11028504388E+04  0.25500000920E-02 0. -1.
</event>
<event>
 5   0  0.9176817E-06  0.2417705E+04  0.7818609E-02  0.8432905E-01
       -1   -1    0    0    0  501  0.00000000000E+00  0.00000000000E+00  0.84651541945E+03  0.84651541947E+03  0.50400001928E-02 0.  1.
        1   -1    0    0  501    0  0.00000000000E+00  0.00000000000E+00 -0.17262826585E+04  0.17262826585E+04  0.50400001928E-02 0. -1.
    10030    2    1    2    0    0  0.00000000000E+00  0.00000000000E+00 -0.87976723908E+03  0.25727980780E+04  0.24177054319E+04 0.  0.
        3    1    3    3  502    0 -0.11890419147E+04 -0.55019100171E+02 -0.21545896839E+03  0.12096571223E+04  0.10100000352E+00 0. -1.
       -3    1    3    3    0  502  0.11890419147E+04  0.55019100171E+02 -0.66430827069E+03  0.13631409557E+04  0.10100000352E+00 0.  1.
</event>
<event>
 5   0  0.2025353E-05  0.2480224E+04  0.7818609E-02  0.8410065E-01
       -2   -1    0    0    0  501  0.00000000000E+00  0.00000000000E+00  0.13068703954E+04  0.13068703954E+04  0.25500000920E-02 0.  1.
        2   -1    0    0  501    0  0.00000000000E+00  0.00000000000E+00 -0.11767633522E+04  0.11767633522E+04  0.25500000920E-02 0. -1.
    10030    2    1    2    0    0  0.00000000000E+00  0.00000000000E+00  0.13010704319E+03  0.24836337476E+04  0.24802235281E+04 0.  0.
        4    1    3    3  502    0 -0.10261858432E+04 -0.63640379036E+03  0.34794576899E+03  0.12566363994E+04  0.12699999809E+01 0.  1.
       -4    1    3    3    0  502  0.10261858432E+04  0.63640379036E+03 -0.21783872580E+03  0.12269973482E+04  0.12699999809E+01 0. -1.
</event>
<event>
 5   0  0.2122194E-05  0.2397791E+04  0.7818609E-02  0.8440331E-01
       -2   -1    0    0    0  501  0.00000000000E+00  0.00000000000E+00  0.13433856102E+04  0.13433856102E+04  0.25500000920E-02 0.  1.
        2   -1    0    0  501    0  0.00000000000E+00  0.00000000000E+00 -0.10699461419E+04  0.10699461419E+04  0.25500000920E-02 0. -1.
    10030    2    1    2    0    0  0.00000000000E+00  0.00000000000E+00  0.27343946829E+03  0.24133317520E+04  0.23977908588E+04 0.  0.
        3    1    3    3  502    0  0.57446296974E+03  0.94785216428E+03  0.59675857448E+03  0.12587899886E+04  0.10100000352E+00 0.  1.
       -3    1    3    3    0  502 -0.57446296974E+03 -0.94785216428E+03 -0.32331910619E+03  0.11545417635E+04  0.10100000352E+00 0. -1.
</event>
<event>
 5   0  0.2048028E-05  0.2300223E+04  0.7818609E-02  0.8477833E-01
       -2   -1    0    0    0  501  0.00000000000E+00  0.00000000000E+00  0.44223092749E+03  0.44223092750E+03  0.25500000920E-02 0. -1.
        2   -1    0    0  501    0  0.00000000000E+00  0.00000000000E+00 -0.29910981347E+04  0.29910981347E+04  0.25500000920E-02 0.  1.
    10030    2    1    2    0    0  0.00000000000E+00  0.00000000000E+00 -0.25488672072E+04  0.34333290622E+04  0.23002226869E+04 0.  0.
        5    1    3    3  502    0  0.10204471337E+04 -0.51106012768E+03 -0.14867787199E+04  0.18743073010E+04  0.46999998093E+01 0.  1.
       -5    1    3    3    0  502 -0.10204471337E+04  0.51106012768E+03 -0.10620884874E+04  0.15590217612E+04  0.46999998093E+01 0. -1.
</event>
<event>
 5   0  0.8528103E-06  0.2451622E+04  0.7818609E-02  0.8420426E-01
        1   -1    0    0  501    0  0.00000000000E+00  0.00000000000E+00  0.19410942153E+04  0.19410942153E+04  0.50400001928E-02 0. -1.
       -1   -1    0    0    0  501  0.00000000000E+00  0.00000000000E+00 -0.77410603570E+03  0.77410603572E+03  0.50400001928E-02 0.  1.
    10030    2    1    2    0    0  0.00000000000E+00  0.00000000000E+00  0.11669881796E+04  0.27152002510E+04  0.24516221144E+04 0.  0.
        4    1    3    3  502    0 -0.70166529569E+03 -0.35912185508E+03  0.16232042784E+04  0.18044656927E+04  0.12699999809E+01 0. -1.
       -4    1    3    3    0  502  0.70166529569E+03  0.35912185508E+03 -0.45621609879E+03  0.91073455829E+03  0.12699999809E+01 0.  1.
</event>
<event>
 5   0  0.9176817E-06  0.2394210E+04  0.7818609E-02  0.8441675E-01
        1   -1    0    0  501    0  0.00000000000E+00  0.00000000000E+00  0.15208341176E+04  0.15208341176E+04  0.50400001928E-02 0. -1.
       -1   -1    0    0    0  501  0.00000000000E+00  0.00000000000E+00 -0.94228542246E+03  0.94228542247E+03  0.50400001928E-02 0.  1.
    10030    2    1    2    0    0  0.00000000000E+00  0.00000000000E+00  0.57854869510E+03  0.24631195400E+04  0.23942095305E+04 0.  0.
        3    1    3    3  502    0 -0.57728203513E+03 -0.12242328630E+03 -0.78224923966E+03  0.97987544732E+03  0.10100000352E+00 0.  1.
       -3    1    3    3    0  502  0.57728203513E+03  0.12242328630E+03  0.13607979348E+04  0.14832440927E+04  0.10100000352E+00 0. -1.
</event>
<event>
 5   0  0.8898848E-06  0.2397290E+04  0.7818609E-02  0.8440519E-01
        1   -1    0    0  501    0  0.00000000000E+00  0.00000000000E+00  0.30356681345E+04  0.30356681345E+04  0.50400001928E-02 0. -1.
       -1   -1    0    0    0  501  0.00000000000E+00  0.00000000000E+00 -0.47328937719E+03  0.47328937722E+03  0.50400001928E-02 0.  1.
    10030    2    1    2    0    0  0.00000000000E+00  0.00000000000E+00  0.25623787573E+04  0.35089575117E+04  0.23972897036E+04 0.  0.
        5    1    3    3  502    0 -0.18010399451E+02 -0.87184810853E+03  0.77478706127E+02  0.87548188944E+03  0.46999998093E+01 0.  1.
       -5    1    3    3    0  502  0.18010399451E+02  0.87184810853E+03  0.24849000511E+04  0.26334756223E+04  0.46999998093E+01 0. -1.
</event>
<event>
 5   0  0.2025353E-05  0.2341488E+04  0.7818609E-02  0.8461740E-01
        2   -1    0    0  501    0  0.00000000000E+00  0.00000000000E+00  0.11875703191E+04  0.11875703191E+04  0.25500000920E-02 0.  1.
       -2   -1    0    0    0  501  0.00000000000E+00  0.00000000000E+00 -0.11541557661E+04  0.11541557661E+04  0.25500000920E-02 0. -1.
    10030    2    1    2    0    0  0.00000000000E+00  0.00000000000E+00  0.33414552946E+02  0.23417260852E+04  0.23414876736E+04 0.  0.
        4    1    3    3  502    0 -0.60203861367E+03  0.28967451690E+03  0.97819879018E+03  0.11845827553E+04  0.12699999809E+01 0.  1.
       -4    1    3    3    0  502  0.60203861367E+03 -0.28967451690E+03 -0.94478423723E+03  0.11571433299E+04  0.12699999809E+01 0. -1.
</event>
<event>
 5   0  0.2025353E-05  0.2472477E+04  0.7818609E-02  0.8412857E-01
       -2   -1    0    0    0  501  0.00000000000E+00  0.00000000000E+00  0.11834383993E+04  0.11834383993E+04  0.25500000920E-02 0.  1.
        2   -1    0    0  501    0  0.00000000000E+00  0.00000000000E+00 -0.12913941288E+04  0.12913941288E+04  0.25500000920E-02 0. -1.
    10030    2    1    2    0    0  0.00000000000E+00  0.00000000000E+00 -0.10795572947E+03  0.24748325281E+04  0.24724768154E+04 0.  0.
        4    1    3    3  502    0  0.20731776956E+03  0.70206401300E+03 -0.10511244122E+04  0.12809132206E+04  0.12699999809E+01 0. -1.
       -4    1    3    3    0  502 -0.20731776956E+03 -0.70206401300E+03  0.94316868271E+03  0.11939193075E+04  0.12699999809E+01 0.  1.
</event>
<event>
 5   0  0.2048028E-05  0.2398500E+04  0.7818609E-02  0.8440065E-01
       -2   -1    0    0    0  501  0.00000000000E+00  0.00000000000E+00  0.63401097133E+03  0.63401097134E+03  0.25500000920E-02 0. -1.
        2   -1    0    0  501    0  0.00000000000E+00  0.00000000000E+00 -0.22684167375E+04  0.22684167375E+04  0.25500000920E-02 0.  1.
    10030    2    1    2    0    0  0.00000000000E+00  0.00000000000E+00 -0.16344057662E+04  0.29024277089E+04  0.23985004475E+04 0.  0.
        5    1    3    3  502    0 -0.63383376816E+03 -0.67304648808E+03 -0.17415189930E+04  0.19717117725E+04  0.46999998093E+01 0.  1.
       -5    1    3    3    0  502  0.63383376816E+03  0.67304648808E+03  0.10711322686E+03  0.93071593633E+03  0.46999998093E+01 0. -1.
</event>
<event>
 5   0  0.2025353E-05  0.2254948E+04  0.7818609E-02  0.8495899E-01
        2   -1    0    0  501    0  0.00000000000E+00  0.00000000000E+00  0.13131219073E+04  0.13131219073E+04  0.25500000920E-02 0. -1.
       -2   -1    0    0    0  501  0.00000000000E+00  0.00000000000E+00 -0.96807302435E+03  0.96807302436E+03  0.25500000920E-02 0.  1.
    10030    2    1    2    0    0  0.00000000000E+00  0.00000000000E+00  0.34504888295E+03  0.22811949317E+04  0.22549482443E+04 0.  0.
        4    1    3    3  502    0 -0.94535224111E+01  0.10238701427E+04 -0.30498321313E+03  0.10683706339E+04  0.12699999809E+01 0. -1.
       -4    1    3    3    0  502  0.94535224111E+01 -0.10238701427E+04  0.65003209608E+03  0.12128242977E+04  0.12699999809E+01 0.  1.
</event>
<event>
 5   0  0.2087882E-05  0.2401101E+04  0.7818609E-02  0.8439091E-01
       -2   -1    0    0    0  501  0.00000000000E+00  0.00000000000E+00  0.94732121998E+03  0.94732121998E+03  0.25500000920E-02 0. -1.
        2   -1    0    0  501    0  0.00000000000E+00  0.00000000000E+00 -0.15214707349E+04  0.15214707349E+04  0.25500000920E-02 0.  1.
    10030    2    1    2    0    0  0.00000000000E+00  0.00000000000E+00 -0.57414951492E+03  0.24687919549E+04  0.24011010081E+04 0.  0.
        2    1    3    3  502    0 -0.10213277472E+04 -0.13153138920E+03  0.34750412410E+03  0.10868164472E+04  0.25500000920E-02 0. -1.
       -2    1    3    3    0  502  0.10213277472E+04  0.13153138920E+03 -0.92165363902E+03  0.13819755077E+04  0.25500000920E-02 0.  1.
</event>
<event>
 5   0  0.2048028E-05  0.2258854E+04  0.7818609E-02  0.8494323E-01
        2   -1    0    0  501    0  0.00000000000E+00  0.00000000000E+00  0.16677634863E+04  0.16677634863E+04  0.25500000920E-02 0.  1.
       -2   -1    0    0    0  501  0.00000000000E+00  0.00000000000E+00 -0.76485990487E+03  0.76485990488E+03  0.25500000920E-02 0. -1.
    10030    2    1    2    0    0  0.00000000000E+00  0.00000000000E+00  0.90290358144E+03  0.24326233912E+04  0.22588540648E+04 0.  0.
        5    1    3    3  502    0 -0.74830361285E+03  0.39183323344E+03  0.12588547015E+04  0.15159910387E+04  0.46999998093E+01 0.  1.
       -5    1    3    3    0  502  0.74830361285E+03 -0.39183323344E+03 -0.35595112005E+03  0.91663235253E+03  0.46999998093E+01 0. -1.
</event>
<event>
 5   0  0.2048028E-05  0.2379536E+04  0.7818609E-02  0.8447205E-01
       -2   -1    0    0    0  501  0.00000000000E+00  0.00000000000E+00  0.10847495737E+04  0.10847495737E+04  0.25500000920E-02 0.  1.
        2   -1    0    0  501    0  0.00000000000E+00  0.00000000000E+00 -0.13049534597E+04  0.13049534597E+04  0.25500000920E-02 0. -1.
    10030    2    1    2    0    0  0.00000000000E+00  0.00000000000E+00 -0.22020388595E+03  0.23897030334E+04  0.23795358448E+04 0.  0.
        5    1    3    3  502    0  0.95128353147E+03 -0.64419421193E+03 -0.42061404997E+03  0.12234642655E+04  0.46999998093E+01 0. -1.
       -5    1    3    3    0  502 -0.95128353147E+03  0.64419421193E+03  0.20041016402E+03  0.11662387679E+04  0.46999998093E+01 0.  1.
</event>
<event>
 5   0  0.9083687E-06  0.2395922E+04  0.7818609E-02  0.8441032E-01
        1   -1    0    0  501    0  0.00000000000E+00  0.00000000000E+00  0.30053074594E+04  0.30053074594E+04  0.50400001928E-02 0.  1.
       -1   -1    0    0    0  501  0.00000000000E+00  0.00000000000E+00 -0.47752552703E+03  0.47752552706E+03  0.50400001928E-02 0. -1.
    10030    2    1    2    0    0  0.00000000000E+00  0.00000000000E+00  0.25277819324E+04  0.34828329865E+04  0.23959223931E+04 0.  0.
        2    1    3    3  502    0 -0.54479235291E+03  0.28098462825E+03 -0.23228157294E+03  0.65551948731E+03  0.25500000920E-02 0. -1.
       -2    1    3    3    0  502  0.54479235291E+03 -0.28098462825E+03  0.27600635053E+04  0.28273134992E+04  0.25500000920E-02 0.  1.
</event>
<event>
 5   0  0.9083687E-06  0.2393007E+04  0.7818609E-02  0.8442126E-01
        1   -1    0    0  501    0  0.00000000000E+00  0.00000000000E+00  0.19794855277E+04  0.19794855277E+04  0.50400001928E-02 0. -1.
       -1   -1    0    0    0  501  0.00000000000E+00  0.00000000000E+00 -0.72322859993E+03  0.72322859995E+03  0.50400001928E-02 0.  1.
    10030    2    1    2    0    0  0.00000000000E+00  0.00000000000E+00  0.12562569277E+04  0.27027141276E+04  0.23930069342E+04 0.  0.
        2    1    3    3  502    0 -0.98429648683E+03 -0.49627275541E+03  0.11536365621E+04  0.15956201112E+04  0.25500000920E-02 0. -1.
       -2    1    3    3    0  502  0.98429648683E+03  0.49627275541E+03  0.10262036560E+03  0.11070940164E+04  0.25500000920E-02 0.  1.
</event>
<event>
 5   0  0.7233625E-06  0.2400838E+04  0.7818609E-02  0.8439190E-01
        4   -1    0    0  501    0  0.00000000000E+00  0.00000000000E+00  0.15428500193E+04  0.15428505420E+04  0.12699999809E+01 0.  1.
       -4   -1    0    0    0  501  0.00000000000E+00  0.00000000000E+00 -0.93398879215E+03  0.93398965560E+03  0.12699999809E+01 0. -1.
    10030    2    1    2    0    0  0.00000000000E+00  0.00000000000E+00  0.60886122720E+03  0.24768401976E+04  0.24008384724E+04 0.  0.
        4    1    3    3  502    0  0.40725356408E+03  0.20971312582E+03  0.14491367197E+04  0.15198137734E+04  0.12699999809E+01 0.  1.
       -4    1    3    3    0  502 -0.40725356408E+03 -0.20971312582E+03 -0.84027549247E+03  0.95702642426E+03  0.12699999809E+01 0. -1.
</event>
<event>
 5   0  0.8898848E-06  0.2183385E+04  0.7818609E-02  0.8525376E-01
        1   -1    0    0  501    0  0.00000000000E+00  0.00000000000E+00  0.15279060328E+04  0.15279060328E+04  0.50400001928E-02 0.  1.
       -1   -1    0    0    0  501  0.00000000000E+00  0.00000000000E+00 -0.78001681940E+03  0.78001681942E+03  0.50400001928E-02 0. -1.
    10030    2    1    2    0    0  0.00000000000E+00  0.00000000000E+00  0.74788921342E+03  0.23079228522E+04  0.21833848988E+04 0.  0.
        5    1    3    3  502    0  0.16665129577E+03  0.32366783481E+03  0.14618409424E+04  0.15064974452E+04  0.46999998093E+01 0.  1.
       -5    1    3    3    0  502 -0.16665129577E+03 -0.32366783481E+03 -0.71395172898E+03  0.80142540700E+03  0.46999998093E+01 0. -1.
</event>
<event>
 5   0  0.2122194E-05  0.2427738E+04  0.7818609E-02  0.8429191E-01
       -2   -1    0    0    0  501  0.00000000000E+00  0.00000000000E+00  0.10733227363E+04  0.10733227363E+04  0.25500000920E-02 0. -1.
        2   -1    0    0  501    0  0.00000000000E+00  0.00000000000E+00 -0.13728194794E+04  0.13728194794E+04  0.25500000920E-02 0.  1.
    10030    2    1    2    0    0  0.00000000000E+00  0.00000000000E+00 -0.29949674306E+03  0.24461422157E+04  0.24277383385E+04 0.  0.
        3    1    3    3  502    0 -0.76392007013E+02  0.60679540790E+03  0.90674305431E+03  0.10937181458E+04  0.10100000352E+00 0. -1.
       -3    1    3    3    0  502  0.76392007013E+02 -0.60679540790E+03 -0.12062397974E+04  0.13524240699E+04  0.10100000352E+00 0.  1.
</event>
<event>
 5   0  0.9038897E-06  0.2383667E+04  0.7818609E-02  0.8445644E-01
       -1   -1    0    0    0  501  0.00000000000E+00  0.00000000000E+00  0.82282905582E+03  0.82282905584E+03  0.50400001928E-02 0. -1.
        1   -1    0    0  501    0  0.00000000000E+00  0.00000000000E+00 -0.17263211954E+04  0.17263211954E+04  0.50400001928E-02 0.  1.
    10030    2    1    2    0    0  0.00000000000E+00  0.00000000000E+00 -0.90349213962E+03  0.25491502513E+04  0.23836671238E+04 0.  0.
        1    1    3    3  502    0 -0.82017373744E+03  0.65744835192E+03 -0.10524766671E+04  0.14874913209E+04  0.50400001928E-02 0.  1.
       -1    1    3    3    0  502  0.82017373744E+03 -0.65744835192E+03  0.14898452744E+03  0.10616589304E+04  0.50400001928E-02 0. -1.
</event>
<event>
 5   0  0.9083687E-06  0.2400578E+04  0.7818609E-02  0.8439287E-01
       -1   -1    0    0    0  501  0.00000000000E+00  0.00000000000E+00  0.14191211894E+04  0.14191211894E+04  0.50400001928E-02 0. -1.
        1   -1    0    0  501    0  0.00000000000E+00  0.00000000000E+00 -0.10152011766E+04  0.10152011766E+04  0.50400001928E-02 0.  1.
    10030    2    1    2    0    0  0.00000000000E+00  0.00000000000E+00  0.40392001284E+03  0.24343223661E+04  0.24005778482E+04 0.  0.
        2    1    3    3  502    0  0.44161372293E+02 -0.60538356819E+03  0.12520127998E+04  0.13913933816E+04  0.25500000920E-02 0. -1.
       -2    1    3    3    0  502 -0.44161372293E+02  0.60538356819E+03 -0.84809278694E+03  0.10429289845E+04  0.25500000920E-02 0.  1.
</event>
<event>
 5   0  0.8898848E-06  0.2408371E+04  0.7818609E-02  0.8436376E-01
        1   -1    0    0  501    0  0.00000000000E+00  0.00000000000E+00  0.25193565894E+04  0.25193565894E+04  0.50400001928E-02 0. -1.
       -1   -1    0    0    0  501  0.00000000000E+00  0.00000000000E+00 -0.57556848528E+03  0.57556848530E+03  0.50400001928E-02 0.  1.
    10030    2    1    2    0    0  0.00000000000E+00  0.00000000000E+00  0.19437881041E+04  0.30949250747E+04  0.24083706161E+04 0.  0.
        5    1    3    3  502    0  0.81857710019E+03 -0.46969528170E+03  0.10787004168E+02  0.94383291745E+03  0.46999998093E+01 0.  1.
       -5    1    3    3    0  502 -0.81857710019E+03  0.46969528170E+03  0.19330011000E+04  0.21510921573E+04  0.46999998093E+01 0. -1.
</event>
<event>
 5   0  0.2087882E-05  0.2436859E+04  0.7818609E-02  0.8425832E-01
        2   -1    0    0  501    0  0.00000000000E+00  0.00000000000E+00  0.15009330875E+04  0.15009330875E+04  0.25500000920E-02 0. -1.
       -2   -1    0    0    0  501  0.00000000000E+00  0.00000000000E+00 -0.98909854886E+03  0.98909854887E+03  0.25500000920E-02 0.  1.
    10030    2    1    2    0    0  0.00000000000E+00  0.00000000000E+00  0.51183453859E+03  0.24900316363E+04  0.24368592399E+04 0.  0.
        2    1    3    3  502    0 -0.38692898228E+03 -0.11552235828E+04  0.27405781502E+03  0.12487446695E+04  0.25500000920E-02 0.  1.
       -2    1    3    3    0  502  0.38692898228E+03  0.11552235828E+04  0.23777672357E+03  0.12412869668E+04  0.25500000920E-02 0. -1.
</event>
<event>
 5   0  0.2025353E-05  0.2343774E+04  0.7818609E-02  0.8460859E-01
        2   -1    0    0  501    0  0.00000000000E+00  0.00000000000E+00  0.15599911912E+04  0.15599911912E+04  0.25500000920E-02 0. -1.
       -2   -1    0    0    0  501  0.00000000000E+00  0.00000000000E+00 -0.88033742124E+03  0.88033742124E+03  0.25500000920E-02 0.  1.
    10030    2    1    2    0    0  0.00000000000E+00  0.00000000000E+00  0.67965376994E+03  0.24403286124E+04  0.23437735577E+04 0.  0.
        4    1    3    3  502    0 -0.89013667531E+03 -0.19779641684E+03 -0.42660279648E+03  0.10067066515E+04  0.12699999809E+01 0.  1.
       -4    1    3    3    0  502  0.89013667531E+03  0.19779641684E+03  0.11062565664E+04  0.14336219609E+04  0.12699999809E+01 0. -1.
</event>
<event>
 5   0  0.9176817E-06  0.2317406E+04  0.7818609E-02  0.8471090E-01
       -1   -1    0    0    0  501  0.00000000000E+00  0.00000000000E+00  0.88730784150E+03  0.88730784151E+03  0.50400001928E-02 0. -1.
        1   -1    0    0  501    0  0.00000000000E+00  0.00000000000E+00 -0.15131075951E+04  0.15131075951E+04  0.50400001928E-02 0.  1.
    10030    2    1    2    0    0  0.00000000000E+00  0.00000000000E+00 -0.62579975359E+03  0.24004154366E+04  0.23174056479E+04 0.  0.
        3    1    3    3  502    0 -0.72279061562E+03 -0.80574405612E+03  0.11536191752E+03  0.10885578258E+04  0.10100000352E+00 0. -1.
       -3    1    3    3    0  502  0.72279061562E+03  0.80574405612E+03 -0.74116167111E+03  0.13118576108E+04  0.10100000352E+00 0.  1.
</event>
<event>
 5   0  0.2087882E-05  0.2423214E+04  0.7818609E-02  0.8430863E-01
       -2   -1    0    0    0  501  0.00000000000E+00  0.00000000000E+00  0.98771333946E+03  0.98771333947E+03  0.25500000920E-02 0. -1.
        2   -1    0    0  501    0  0.00000000000E+00  0.00000000000E+00 -0.14862525982E+04  0.14862525982E+04  0.25500000920E-02 0.  1.
    10030    2    1    2    0    0  0.00000000000E+00  0.00000000000E+00 -0.49853925875E+03  0.24739659377E+04  0.24232139956E+04 0.  0.
        2    1    3    3  502    0 -0.14659346607E+03 -0.60359717899E+02 -0.14756179196E+04  0.14841095595E+04  0.25500000920E-02 0.  1.
       -2    1    3    3    0  502  0.14659346607E+03  0.60359717899E+02  0.97707866089E+03  0.98985637818E+03  0.25500000920E-02 0. -1.
</event>
<event>
 5   0  0.8898848E-06  0.2384978E+04  0.7818609E-02  0.8445149E-01
        1   -1    0    0  501    0  0.00000000000E+00  0.00000000000E+00  0.18823518493E+04  0.18823518494E+04  0.50400001928E-02 0. -1.
       -1   -1    0    0    0  501  0.00000000000E+00  0.00000000000E+00 -0.75545358386E+03  0.75545358387E+03  0.50400001928E-02 0.  1.
    10030    2    1    2    0    0  0.00000000000E+00  0.00000000000E+00  0.11268982655E+04  0.26378054332E+04  0.23849775267E+04 0.  0.
        5    1    3    3  502    0 -0.76901875310E+03 -0.90152462218E+03  0.71130254769E+03  0.13820672528E+04  0.46999998093E+01 0. -1.
       -5    1    3    3    0  502  0.76901875310E+03  0.90152462218E+03  0.41559571780E+03  0.12557381804E+04  0.46999998093E+01 0.  1.
</event>
<event>
 5   0  0.7233625E-06  0.2413322E+04  0.7818609E-02  0.8434533E-01
        3   -1    0    0  501    0  0.00000000000E+00  0.00000000000E+00  0.97311286696E+03  0.97311287220E+03  0.10100000352E+00 0.  1.
       -3   -1    0    0    0  501  0.00000000000E+00  0.00000000000E+00 -0.14962604684E+04  0.14962604718E+04  0.10100000352E+00 0. -1.
    10030    2    1    2    0    0  0.00000000000E+00  0.00000000000E+00 -0.52314760141E+03  0.24693733440E+04  0.24133216319E+04 0.  0.
        5    1    3    3  502    0 -0.35744758820E+02  0.11827810219E+04 -0.50319296585E+03  0.12858747546E+04  0.46999998093E+01 0. -1.
       -5    1    3    3    0  502  0.35744758820E+02 -0.11827810219E+04 -0.19954635555E+02  0.11834985894E+04  0.46999998093E+01 0.  1.
</event>
<event>
 5   0  0.8528103E-06  0.2391612E+04  0.7818609E-02  0.8442650E-01
        1   -1    0    0  501    0  0.00000000000E+00  0.00000000000E+00  0.20876935374E+04  0.20876935374E+04  0.50400001928E-02 0.  1.
       -1   -1    0    0    0  501  0.00000000000E+00  0.00000000000E+00 -0.68494365562E+03  0.68494365564E+03  0.50400001928E-02 0. -1.
    10030    2    1    2    0    0  0.00000000000E+00  0.00000000000E+00  0.14027498818E+04  0.27726371931E+04  0.23916123794E+04 0.  0.
        4    1    3    3  502    0 -0.10210755026E+04  0.34229806237E+01 -0.20148807626E+02  0.10212808067E+04  0.12699999809E+01 0. -1.
       -4    1    3    3    0  502  0.10210755026E+04 -0.34229806237E+01  0.14228986894E+04  0.17513563864E+04  0.12699999809E+01 0.  1.
</event>
<event>
 5   0  0.9083687E-06  0.2409345E+04  0.7818609E-02  0.8436013E-01
       -1   -1    0    0    0  501  0.00000000000E+00  0.00000000000E+00  0.10736774322E+04  0.10736774322E+04  0.50400001928E-02 0. -1.
        1   -1    0    0  501    0  0.00000000000E+00  0.00000000000E+00 -0.13516494740E+04  0.13516494740E+04  0.50400001928E-02 0.  1.
    10030    2    1    2    0    0  0.00000000000E+00  0.00000000000E+00 -0.27797204181E+03  0.24253269063E+04  0.24093447545E+04 0.  0.
        2    1    3    3  502    0 -0.10743850929E+04 -0.71495397220E+02 -0.68277364889E+03  0.12749881471E+04  0.25500000920E-02 0.  1.
       -2    1    3    3    0  502  0.10743850929E+04  0.71495397220E+02  0.40480160709E+03  0.11503387591E+04  0.25500000920E-02 0. -1.
</event>
<event>
 5   0  0.8898848E-06  0.2415418E+04  0.7818609E-02  0.8433754E-01
       -1   -1    0    0    0  501  0.00000000000E+00  0.00000000000E+00  0.97855497311E+03  0.97855497312E+03  0.50400001928E-02 0. -1.
        1   -1    0    0  501    0  0.00000000000E+00  0.00000000000E+00 -0.14905254930E+04  0.14905254930E+04  0.50400001928E-02 0.  1.
    10030    2    1    2    0    0  0.00000000000E+00  0.00000000000E+00 -0.51197051993E+03  0.24690804662E+04  0.24154180870E+04 0.  0.
        5    1    3    3  502    0  0.10398340890E+04 -0.49805617950E+02 -0.88179851157E+03  0.13643043053E+04  0.46999998093E+01 0.  1.
       -5    1    3    3    0  502 -0.10398340890E+04  0.49805617950E+02  0.36982799164E+03  0.11047761609E+04  0.46999998093E+01 0. -1.
</event>
<event>
 5   0  0.9038897E-06  0.2409226E+04  0.7818609E-02  0.8436058E-01
       -1   -1    0    0    0  501  0.00000000000E+00  0.00000000000E+00  0.13909055648E+04  0.13909055648E+04  0.50400001928E-02 0.  1.
        1   -1    0    0  501    0  0.00000000000E+00  0.00000000000E+00 -0.10432716942E+04  0.10432716942E+04  0.50400001928E-02 0. -1.
    10030    2    1    2    0    0  0.00000000000E+00  0.00000000000E+00  0.34763387060E+03  0.24341772591E+04  0.24092259381E+04 0.  0.
        1    1    3    3  502    0 -0.83149489117E+03  0.10643139463E+03 -0.70023260717E+03  0.10922623769E+04  0.50400001928E-02 0. -1.
       -1    1    3    3    0  502  0.83149489117E+03 -0.10643139463E+03  0.10478664778E+04  0.13419148822E+04  0.50400001928E-02 0.  1.
</event>
<event>
 5   0  0.2122194E-05  0.2415598E+04  0.7818609E-02  0.8433687E-01
        2   -1    0    0  501    0  0.00000000000E+00  0.00000000000E+00  0.21096803861E+04  0.21096803861E+04  0.25500000920E-02 0. -1.
       -2   -1    0    0    0  501  0.00000000000E+00  0.00000000000E+00 -0.69146869686E+03  0.69146869686E+03  0.25500000920E-02 0.  1.
    10030    2    1    2    0    0  0.00000000000E+00  0.00000000000E+00  0.14182116892E+04  0.28011490829E+04  0.24155976050E+04 0.  0.
        3    1    3    3  502    0 -0.94560942978E+02 -0.11920077819E+04  0.90642216865E+03  0.15004750855E+04  0.10100000352E+00 0.  1.
       -3    1    3    3    0  502  0.94560942978E+02  0.11920077819E+04  0.51178952055E+03  0.13006739975E+04  0.10100000352E+00 0. -1.
</event>
<event>
 5   0  0.2122194E-05  0.2476961E+04  0.7818609E-02  0.8411240E-01
       -2   -1    0    0    0  501  0.00000000000E+00  0.00000000000E+00  0.10441077387E+04  0.10441077387E+04  0.25500000920E-02 0. -1.
        2   -1    0    0  501    0  0.00000000000E+00  0.00000000000E+00 -0.14690374114E+04  0.14690374114E+04  0.25500000920E-02 0.  1.
    10030    2    1    2    0    0  0.00000000000E+00  0.00000000000E+00 -0.42492967263E+03  0.25131451501E+04  0.24769605001E+04 0.  0.
        3    1    3    3  502    0  0.31310091656E+03 -0.54065152959E+03 -0.12974305587E+04  0.14400216406E+04  0.10100000352E+00 0.  1.
       -3    1    3    3    0  502 -0.31310091656E+03  0.54065152959E+03  0.87250088607E+03  0.10731235096E+04  0.10100000352E+00 0. -1.
</event>
<event>
 5   0  0.8898848E-06  0.2399025E+04  0.7818609E-02  0.8439869E-01
       -1   -1    0    0    0  501  0.00000000000E+00  0.00000000000E+00  0.14241752131E+04  0.14241752131E+04  0.50400001928E-02 0. -1.
        1   -1    0    0  501    0  0.00000000000E+00  0.00000000000E+00 -0.10102900014E+04  0.10102900014E+04  0.50400001928E-02 0.  1.
    10030    2    1    2    0    0  0.00000000000E+00  0.00000000000E+00  0.41388521168E+03  0.24344652145E+04  0.23990247835E+04 0.  0.
        5    1    3    3  502    0 -0.35217353711E+03  0.74425052686E+03  0.10921089241E+04  0.13677203804E+04  0.46999998093E+01 0. -1.
       -5    1    3    3    0  502  0.35217353711E+03 -0.74425052686E+03 -0.67822371238E+03  0.10667448341E+04  0.46999998093E+01 0.  1.
</event>
<event>
 5   0  0.9176817E-06  0.2396339E+04  0.7818609E-02  0.8440875E-01
        1   -1    0    0  501    0  0.00000000000E+00  0.00000000000E+00  0.12807577910E+04  0.12807577910E+04  0.50400001928E-02 0.  1.
       -1   -1    0    0    0  501  0.00000000000E+00  0.00000000000E+00 -0.11209071547E+04  0.11209071547E+04  0.50400001928E-02 0. -1.
    10030    2    1    2    0    0  0.00000000000E+00  0.00000000000E+00  0.15985063631E+03  0.24016649456E+04  0.23963393510E+04 0.  0.
        3    1    3    3  502    0 -0.10998235178E+04 -0.36282885116E+03  0.38777895874E+03  0.12213226750E+04  0.10100000352E+00 0.  1.
       -3    1    3    3    0  502  0.10998235178E+04  0.36282885116E+03 -0.22792832243E+03  0.11803422706E+04  0.10100000352E+00 0. -1.
</event>
<event>
 5   0  0.9176817E-06  0.2330778E+04  0.7818609E-02  0.8465884E-01
       -1   -1    0    0    0  501  0.00000000000E+00  0.00000000000E+00  0.86168531773E+03  0.86168531775E+03  0.50400001928E-02 0.  1.
        1   -1    0    0  501    0  0.00000000000E+00  0.00000000000E+00 -0.15761336937E+04  0.15761336937E+04  0.50400001928E-02 0. -1.
    10030    2    1    2    0    0  0.00000000000E+00  0.00000000000E+00 -0.71444837598E+03  0.24378190115E+04  0.23307777781E+04 0.  0.
        3    1    3    3  502    0 -0.14491135008E+03  0.32562624990E+03  0.80328121826E+03  0.87880172952E+03  0.10100000352E+00 0.  1.
       -3    1    3    3    0  502  0.14491135008E+03 -0.32562624990E+03 -0.15177295942E+04  0.15590172820E+04  0.10100000352E+00 0. -1.
</event>
<event>
 5   0  0.2087882E-05  0.2364454E+04  0.7818609E-02  0.8452933E-01
        2   -1    0    0  501    0  0.00000000000E+00  0.00000000000E+00  0.11574479523E+04  0.11574479523E+04  0.25500000920E-02 0. -1.
       -2   -1    0    0    0  501  0.00000000000E+00  0.00000000000E+00 -0.12075362708E+04  0.12075362708E+04  0.25500000920E-02 0.  1.
    10030    2    1    2    0    0  0.00000000000E+00  0.00000000000E+00 -0.50088318505E+02  0.23649842232E+04  0.23644537501E+04 0.  0.
        2    1    3    3  502    0  0.58673464807E+03 -0.39842448700E+03 -0.97112145540E+03  0.12025292097E+04  0.25500000920E-02 0.  1.
       -2    1    3    3    0  502 -0.58673464807E+03  0.39842448700E+03  0.92103313689E+03  0.11624550135E+04  0.25500000920E-02 0. -1.
</event>
<event>
 5   0  0.2087882E-05  0.2392985E+04  0.7818609E-02  0.8442134E-01
       -2   -1    0    0    0  501  0.00000000000E+00  0.00000000000E+00  0.82943994807E+03  0.82943994808E+03  0.25500000920E-02 0.  1.
        2   -1    0    0  501    0  0.00000000000E+00  0.00000000000E+00 -0.17259775442E+04  0.17259775442E+04  0.25500000920E-02 0. -1.
    10030    2    1    2    0    0  0.00000000000E+00  0.00000000000E+00 -0.89653759610E+03  0.25554174923E+04  0.23929853528E+04 0.  0.
        2    1    3    3  502    0 -0.42999112046E+03 -0.95853780425E+03 -0.10597703870E+04  0.14922467487E+04  0.25500000920E-02 0. -1.
       -2    1    3    3    0  502  0.42999112046E+03  0.95853780425E+03  0.16323279093E+03  0.10631707435E+04  0.25500000920E-02 0.  1.
</event>
<event>
 5   0  0.8528103E-06  0.2394537E+04  0.7818609E-02  0.8441552E-01
        1   -1    0    0  501    0  0.00000000000E+00  0.00000000000E+00  0.17569182346E+04  0.17569182346E+04  0.50400001928E-02 0.  1.
       -1   -1    0    0    0  501  0.00000000000E+00  0.00000000000E+00 -0.81589006581E+03  0.81589006583E+03  0.50400001928E-02 0. -1.
    10030    2    1    2    0    0  0.00000000000E+00  0.00000000000E+00  0.94102816876E+03  0.25728083004E+04  0.23945372280E+04 0.  0.
        4    1    3    3  502    0 -0.37639764833E+03 -0.94031373164E+02 -0.74647839969E+03  0.84127801761E+03  0.12699999809E+01 0. -1.
       -4    1    3    3    0  502  0.37639764833E+03  0.94031373164E+02  0.16875065684E+04  0.17315302828E+04  0.12699999809E+01 0.  1.
</event>
<event>
 5   0  0.2080257E-05  0.2667595E+04  0.7818609E-02  0.8345597E-01
       -2   -1    0    0    0  501  0.00000000000E+00  0.00000000000E+00  0.10143805532E+04  0.10143805532E+04  0.25500000920E-02 0.  1.
        2   -1    0    0  501    0  0.00000000000E+00  0.00000000000E+00 -0.17537949554E+04  0.17537949554E+04  0.25500000920E-02 0. -1.
    10030    2    1    2    0    0  0.00000000000E+00  0.00000000000E+00 -0.73941440223E+03  0.27681755085E+04  0.26675947945E+04 0.  0.
        1    1    3    3  502    0  0.42952469972E+03  0.78406348583E+03  0.65744663479E+03  0.11097220801E+04  0.50400001928E-02 0.  1.
       -1    1    3    3    0  502 -0.42952469972E+03 -0.78406348583E+03 -0.13968610370E+04  0.16584534284E+04  0.50400001928E-02 0. -1.
</event>
<event>
 5   0  0.7233625E-06  0.2391071E+04  0.7818609E-02  0.8442854E-01
        3   -1    0    0  501    0  0.00000000000E+00  0.00000000000E+00  0.16216303064E+04  0.16216303096E+04  0.10100000352E+00 0. -1.
       -3   -1    0    0    0  501  0.00000000000E+00  0.00000000000E+00 -0.88140005387E+03  0.88140005966E+03  0.10100000352E+00 0.  1.
    10030    2    1    2    0    0  0.00000000000E+00  0.00000000000E+00  0.74023025256E+03  0.25030303692E+04  0.23910709321E+04 0.  0.
        3    1    3    3  502    0  0.62021165628E+03  0.86921551055E+03 -0.19274815245E+03  0.10850575850E+04  0.10100000352E+00 0. -1.
       -3    1    3    3    0  502 -0.62021165628E+03 -0.86921551055E+03  0.93297840501E+03  0.14179727842E+04  0.10100000352E+00 0.  1.
</event>
<event>
 5   0  0.2048028E-05  0.2391659E+04  0.7818609E-02  0.8442633E-01
       -2   -1    0    0    0  501  0.00000000000E+00  0.00000000000E+00  0.25777053981E+04  0.25777053981E+04  0.25500000920E-02 0. -1.
        2   -1    0    0  501    0  0.00000000000E+00  0.00000000000E+00 -0.55476033971E+03  0.55476033971E+03  0.25500000920E-02 0.  1.
    10030    2    1    2    0    0  0.00000000000E+00  0.00000000000E+00  0.20229450584E+04  0.31324657378E+04  0.23916594426E+04 0.  0.
        5    1    3    3  502    0 -0.31870867225E+03  0.91956613538E+03  0.19215427649E+04  0.21539558450E+04  0.46999998093E+01 0. -1.
       -5    1    3    3    0  502  0.31870867225E+03 -0.91956613538E+03  0.10140229350E+03  0.97850989276E+03  0.46999998093E+01 0.  1.
</event>
<event>
 5   0  0.2048028E-05  0.2391396E+04  0.7818609E-02  0.8442732E-01
       -2   -1    0    0    0  501  0.00000000000E+00  0.00000000000E+00  0.81335862581E+03  0.81335862581E+03  0.25500000920E-02 0. -1.
        2   -1    0    0  501    0  0.00000000000E+00  0.00000000000E+00 -0.17577660388E+04  0.17577660388E+04  0.25500000920E-02 0.  1.
    10030    2    1    2    0    0  0.00000000000E+00  0.00000000000E+00 -0.94440741303E+03  0.25711246646E+04  0.23913963869E+04 0.  0.
        5    1    3    3  502    0 -0.58059350250E+03 -0.26038276579E+03  0.61619433293E+03  0.88577962598E+03  0.46999998093E+01 0. -1.
       -5    1    3    3    0  502  0.58059350250E+03  0.26038276579E+03 -0.15606017460E+04  0.16853450387E+04  0.46999998093E+01 0.  1.
</event>
<event>
 5   0  0.2087882E-05  0.2359123E+04  0.7818609E-02  0.8454968E-01
        2   -1    0    0  501    0  0.00000000000E+00  0.00000000000E+00  0.22642359523E+04  0.22642359523E+04  0.25500000920E-02 0. -1.
       -2   -1    0    0    0  501  0.00000000000E+00  0.00000000000E+00 -0.61449663738E+03  0.61449663739E+03  0.25500000920E-02 0.  1.
    10030    2    1    2    0    0  0.00000000000E+00  0.00000000000E+00  0.16497393149E+04  0.28787325897E+04  0.23591230395E+04 0.  0.
        2    1    3    3  502    0  0.63263172141E+03 -0.39000674255E+03 -0.29287176811E+03  0.79881288593E+03  0.25500000920E-02 0.  1.
       -2    1    3    3    0  502 -0.63263172141E+03  0.39000674255E+03  0.19426110830E+04  0.20799197038E+04  0.25500000920E-02 0. -1.
</event>
<event>
 5   0  0.8898848E-06  0.2334099E+04  0.7818609E-02  0.8464596E-01
        1   -1    0    0  501    0  0.00000000000E+00  0.00000000000E+00  0.19139203885E+04  0.19139203886E+04  0.50400001928E-02 0.  1.
       -1   -1    0    0    0  501  0.00000000000E+00  0.00000000000E+00 -0.71163075740E+03  0.71163075742E+03  0.50400001928E-02 0. -1.
    10030    2    1    2    0    0  0.00000000000E+00  0.00000000000E+00  0.12022896311E+04  0.26255511460E+04  0.23340990688E+04 0.  0.
        5    1    3    3  502    0  0.44342206517E+03  0.67570857860E+01  0.18154354096E+04  0.18688222502E+04  0.46999998093E+01 0.  1.
       -5    1    3    3    0  502 -0.44342206517E+03 -0.67570857860E+01 -0.61314577849E+03  0.75672889582E+03  0.46999998093E+01 0. -1.
</event>
<event>
 5   0  0.2122194E-05  0.2410807E+04  0.7818609E-02  0.8435469E-01
        2   -1    0    0  501    0  0.00000000000E+00  0.00000000000E+00  0.95089678154E+03  0.95089678155E+03  0.25500000920E-02 0. -1.
       -2   -1    0    0    0  501  0.00000000000E+00  0.00000000000E+00 -0.15280282816E+04  0.15280282816E+04  0.25500000920E-02 0.  1.
    10030    2    1    2    0    0  0.00000000000E+00  0.00000000000E+00 -0.57713150009E+03  0.24789250632E+04  0.24108066493E+04 0.  0.
        3    1    3    3  502    0  0.84744142042E+03 -0.82105723609E+03 -0.54191173896E+03  0.12984453354E+04  0.10100000352E+00 0.  1.
       -3    1    3    3    0  502 -0.84744142042E+03  0.82105723609E+03 -0.35219761132E+02  0.11804797278E+04  0.10100000352E+00 0. -1.
</event>
<event>
 5   0  0.9176817E-06  0.2393839E+04  0.7818609E-02  0.8441814E-01
       -1   -1    0    0    0  501  0.00000000000E+00  0.00000000000E+00  0.76950518954E+03  0.76950518956E+03  0.50400001928E-02 0.  1.
        1   -1    0    0  501    0  0.00000000000E+00  0.00000000000E+00 -0.18617369112E+04  0.18617369112E+04  0.50400001928E-02 0. -1.
    10030    2    1    2    0    0  0.00000000000E+00  0.00000000000E+00 -0.10922317217E+04  0.26312421008E+04  0.23938389376E+04 0.  0.
        3    1    3    3  502    0  0.21608370880E+03  0.93439668428E+03  0.24102284696E+03  0.98887883775E+03  0.10100000352E+00 0.  1.
       -3    1    3    3    0  502 -0.21608370880E+03 -0.93439668428E+03 -0.13332545687E+04  0.16423632631E+04  0.10100000352E+00 0. -1.
</event>
<event>
 5   0  0.2025353E-05  0.2403193E+04  0.7818609E-02  0.8438309E-01
        2   -1    0    0  501    0  0.00000000000E+00  0.00000000000E+00  0.13112728905E+04  0.13112728905E+04  0.25500000920E-02 0.  1.
       -2   -1    0    0    0  501  0.00000000000E+00  0.00000000000E+00 -0.11010937097E+04  0.11010937097E+04  0.25500000920E-02 0. -1.
    10030    2    1    2    0    0  0.00000000000E+00  0.00000000000E+00  0.21017918079E+03  0.24123666001E+04  0.24031931519E+04 0.  0.
        4    1    3    3  502    0  0.15320475214E+03 -0.50912426362E+03 -0.97659202452E+03  0.11119410088E+04  0.12699999809E+01 0. -1.
       -4    1    3    3    0  502 -0.15320475214E+03  0.50912426362E+03  0.11867712053E+04  0.13004255913E+04  0.12699999809E+01 0.  1.
</event>
<event>
 5   0  0.9083687E-06  0.2400690E+04  0.7818609E-02  0.8439245E-01
        1   -1    0    0  501    0  0.00000000000E+00  0.00000000000E+00  0.12287560829E+04  0.12287560830E+04  0.50400001928E-02 0. -1.
       -1   -1    0    0    0  501  0.00000000000E+00  0.00000000000E+00 -0.11725905167E+04  0.11725905167E+04  0.50400001928E-02 0.  1.
    10030    2    1    2    0    0  0.00000000000E+00  0.00000000000E+00  0.56165566268E+02  0.24013465996E+04  0.24006896761E+04 0.  0.
        2    1    3    3  502    0  0.33158204838E+03  0.45230713830E+03  0.10896456934E+04  0.12255024028E+04  0.25500000920E-02 0. -1.
       -2    1    3    3    0  502 -0.33158204838E+03 -0.45230713830E+03 -0.10334801271E+04  0.11758441969E+04  0.25500000920E-02 0.  1.
</event>
<event>
 5   0  0.9038897E-06  0.2445825E+04  0.7818609E-02  0.8422544E-01
        1   -1    0    0  501    0  0.00000000000E+00  0.00000000000E+00  0.12061598685E+04  0.12061598685E+04  0.50400001928E-02 0.  1.
       -1   -1    0    0    0  501  0.00000000000E+00  0.00000000000E+00 -0.12398979021E+04  0.12398979021E+04  0.50400001928E-02 0. -1.
    10030    2    1    2    0    0  0.00000000000E+00  0.00000000000E+00 -0.33738033575E+02  0.24460577707E+04  0.24458250883E+04 0.  0.
        1    1    3    3  502    0 -0.10820854545E+04 -0.52111085340E+03 -0.24721599943E+03  0.12262060197E+04  0.50400001928E-02 0. -1.
       -1    1    3    3    0  502  0.10820854545E+04  0.52111085340E+03  0.21347796585E+03  0.12198517510E+04  0.50400001928E-02 0.  1.
</event>
<event>
 5   0  0.2048028E-05  0.2399491E+04  0.7818609E-02  0.8439694E-01
       -2   -1    0    0    0  501  0.00000000000E+00  0.00000000000E+00  0.69789358433E+03  0.69789358433E+03  0.25500000920E-02 0.  1.
        2   -1    0    0  501    0  0.00000000000E+00  0.00000000000E+00 -0.20624767846E+04  0.20624767846E+04  0.25500000920E-02 0. -1.
    10030    2    1    2    0    0  0.00000000000E+00  0.00000000000E+00 -0.13645832003E+04  0.27603703689E+04  0.23994910425E+04 0.  0.
        5    1    3    3  502    0  0.14659017278E+03  0.11643330729E+04 -0.39536685778E+03  0.12383445505E+04  0.46999998093E+01 0.  1.
       -5    1    3    3    0  502 -0.14659017278E+03 -0.11643330729E+04 -0.96921634250E+03  0.15220258185E+04  0.46999998093E+01 0. -1.
</event>
<event>
 5   0  0.8898848E-06  0.2396027E+04  0.7818609E-02  0.8440992E-01
        1   -1    0    0  501    0  0.00000000000E+00  0.00000000000E+00  0.21012565321E+04  0.21012565321E+04  0.50400001928E-02 0. -1.
       -1   -1    0    0    0  501  0.00000000000E+00  0.00000000000E+00 -0.68303722801E+03  0.68303722803E+03  0.50400001928E-02 0.  1.
    10030    2    1    2    0    0  0.00000000000E+00  0.00000000000E+00  0.14182193041E+04  0.27842937601E+04  0.23960270758E+04 0.  0.
        5    1    3    3  502    0  0.30789389685E+03 -0.51481541815E+03 -0.49593868546E+03  0.77833851004E+03  0.46999998093E+01 0.  1.
       -5    1    3    3    0  502 -0.30789389685E+03  0.51481541815E+03  0.19141579895E+04  0.20059552501E+04  0.46999998093E+01 0. -1.
</event>
<event>
 5   0  0.2122194E-05  0.2405543E+04  0.7818609E-02  0.8437431E-01
       -2   -1    0    0    0  501  0.00000000000E+00  0.00000000000E+00  0.60093365084E+03  0.60093365084E+03  0.25500000920E-02 0.  1.
        2   -1    0    0  501    0  0.00000000000E+00  0.00000000000E+00 -0.24073518489E+04  0.24073518489E+04  0.25500000920E-02 0. -1.
    10030    2    1    2    0    0  0.00000000000E+00  0.00000000000E+00 -0.18064181981E+04  0.30082854998E+04  0.24055425462E+04 0.  0.
        3    1    3    3  502    0  0.10071756704E+04  0.64984946167E+03 -0.10279623399E+04  0.15790546971E+04  0.10100000352E+00 0. -1.
       -3    1    3    3    0  502 -0.10071756704E+04 -0.64984946167E+03 -0.77845585823E+03  0.14292308027E+04  0.10100000352E+00 0.  1.
</event>
<event>
 5   0  0.2080257E-05  0.2391268E+04  0.7818609E-02  0.8442780E-01
       -2   -1    0    0    0  501  0.00000000000E+00  0.00000000000E+00  0.83639408617E+03  0.83639408617E+03  0.25500000920E-02 0.  1.
        2   -1    0    0  501    0  0.00000000000E+00  0.00000000000E+00 -0.17091716147E+04  0.17091716147E+04  0.25500000920E-02 0. -1.
    10030    2    1    2    0    0  0.00000000000E+00  0.00000000000E+00 -0.87277752857E+03  0.25455657009E+04  0.23912683085E+04 0.  0.
        1    1    3    3  502    0  0.11504070931E+04  0.27020472919E+03 -0.24273303934E+03  0.12063856779E+04  0.50400001928E-02 0.  1.
       -1    1    3    3    0  502 -0.11504070931E+04 -0.27020472919E+03 -0.63004448924E+03  0.13391800230E+04  0.50400001928E-02 0. -1.
</event>
<event>
 5   0  0.9083687E-06  0.2380052E+04  0.7818609E-02  0.8447010E-01
        1   -1    0    0  501    0  0.00000000000E+00  0.00000000000E+00  0.79138093990E+03  0.79138093991E+03  0.50400001928E-02 0. -1.
       -1   -1    0    0    0  501  0.00000000000E+00  0.00000000000E+00 -0.17894820107E+04  0.17894820107E+04  0.50400001928E-02 0.  1.
    10030    2    1    2    0    0  0.00000000000E+00  0.00000000000E+00 -0.99810107077E+03  0.25808629506E+04  0.23800520629E+04 0.  0.
        2    1    3    3  502    0  0.70060090317E+03 -0.68355159044E+03 -0.12329692995E+04  0.15742609999E+04  0.25500000920E-02 0.  1.
       -2    1    3    3    0  502 -0.70060090317E+03  0.68355159044E+03  0.23486822869E+03  0.10066019507E+04  0.25500000920E-02 0. -1.
</event>
<event>
 5   0  0.9083687E-06  0.2387755E+04  0.7818609E-02  0.8444102E-01
        1   -1    0    0  501    0  0.00000000000E+00  0.00000000000E+00  0.19284606540E+04  0.19284606540E+04  0.50400001928E-02 0. -1.
       -1   -1    0    0    0  501  0.00000000000E+00  0.00000000000E+00 -0.73910945616E+03  0.73910945617E+03  0.50400001928E-02 0.  1.
    10030    2    1    2    0    0  0.00000000000E+00  0.00000000000E+00  0.11893511978E+04  0.26675701101E+04  0.23877550169E+04 0.  0.
        2    1    3    3  502    0 -0.25806670246E+03 -0.96696780116E+03  0.13218937572E+04  0.16580193777E+04  0.25500000920E-02 0. -1.
       -2    1    3    3    0  502  0.25806670246E+03  0.96696780116E+03 -0.13254255938E+03  0.10095507325E+04  0.25500000920E-02 0.  1.
</event>
<event>
 5   0  0.2122194E-05  0.2390938E+04  0.7818609E-02  0.8442904E-01
       -2   -1    0    0    0  501  0.00000000000E+00  0.00000000000E+00  0.74815124455E+03  0.74815124455E+03  0.25500000920E-02 0.  1.
        2   -1    0    0  501    0  0.00000000000E+00  0.00000000000E+00 -0.19102373197E+04  0.19102373197E+04  0.25500000920E-02 0. -1.
    10030    2    1    2    0    0  0.00000000000E+00  0.00000000000E+00 -0.11620860751E+04  0.26583885642E+04  0.23909382494E+04 0.  0.
        3    1    3    3  502    0 -0.16094031199E+03  0.10186438407E+04  0.91250215674E+02  0.10353084904E+04  0.10100000352E+00 0.  1.
       -3    1    3    3    0  502  0.16094031199E+03 -0.10186438407E+04 -0.12533362908E+04  0.16230800739E+04  0.10100000352E+00 0. -1.
</event>
<event>
 5   0  0.2122194E-05  0.2394499E+04  0.7818609E-02  0.8441566E-01
        2   -1    0    0  501    0  0.00000000000E+00  0.00000000000E+00  0.16593066017E+04  0.16593066017E+04  0.25500000920E-02 0.  1.
       -2   -1    0    0    0  501  0.00000000000E+00  0.00000000000E+00 -0.86385876860E+03  0.86385876860E+03  0.25500000920E-02 0. -1.
    10030    2    1    2    0    0  0.00000000000E+00  0.00000000000E+00  0.79544783310E+03  0.25231653703E+04  0.23944991607E+04 0.  0.
        3    1    3    3  502    0 -0.69188685634E+03 -0.29007140833E+03  0.13808966095E+04  0.15715356503E+04  0.10100000352E+00 0.  1.
       -3    1    3    3    0  502  0.69188685634E+03  0.29007140833E+03 -0.58544877642E+03  0.95162971997E+03  0.10100000352E+00 0. -1.
</event>
<event>
 5   0  0.8528103E-06  0.2404611E+04  0.7818609E-02  0.8437779E-01
       -1   -1    0    0    0  501  0.00000000000E+00  0.00000000000E+00  0.13576686649E+04  0.13576686649E+04  0.50400001928E-02 0.  1.
        1   -1    0    0  501    0  0.00000000000E+00  0.00000000000E+00 -0.10647213100E+04  0.10647213100E+04  0.50400001928E-02 0. -1.
    10030    2    1    2    0    0  0.00000000000E+00  0.00000000000E+00  0.29294735491E+03  0.24223899749E+04  0.24046112030E+04 0.  0.
        4    1    3    3  502    0 -0.14412798965E+03  0.66913091296E+03  0.11422291902E+04  0.13316148813E+04  0.12699999809E+01 0.  1.
       -4    1    3    3    0  502  0.14412798965E+03 -0.66913091296E+03 -0.84928183533E+03  0.10907750936E+04  0.12699999809E+01 0. -1.
</event>
<event>
 5   0  0.8528103E-06  0.2408589E+04  0.7818609E-02  0.8436295E-01
        1   -1    0    0  501    0  0.00000000000E+00  0.00000000000E+00  0.12949189643E+04  0.12949189643E+04  0.50400001928E-02 0.  1.
       -1   -1    0    0    0  501  0.00000000000E+00  0.00000000000E+00 -0.11200122390E+04  0.11200122390E+04  0.50400001928E-02 0. -1.
    10030    2    1    2    0    0  0.00000000000E+00  0.00000000000E+00  0.17490672533E+03  0.24149312033E+04  0.24085888719E+04 0.  0.
        4    1    3    3  502    0  0.72466413005E+03 -0.96178786325E+03  0.75194953860E+02  0.12065777593E+04  0.12699999809E+01 0. -1.
       -4    1    3    3    0  502 -0.72466413005E+03  0.96178786325E+03  0.99711771469E+02  0.12083534440E+04  0.12699999809E+01 0.  1.
</event>
<event>
 5   0  0.9038897E-06  0.2402139E+04  0.7818609E-02  0.8438703E-01
       -1   -1    0    0    0  501  0.00000000000E+00  0.00000000000E+00  0.15800988633E+04  0.15800988633E+04  0.50400001928E-02 0.  1.
        1   -1    0    0  501    0  0.00000000000E+00  0.00000000000E+00 -0.91296030087E+03  0.91296030089E+03  0.50400001928E-02 0. -1.
    10030    2    1    2    0    0  0.00000000000E+00  0.00000000000E+00  0.66713856246E+03  0.24930591642E+04  0.24021386585E+04 0.  0.
        1    1    3    3  502    0 -0.56075410140E+02 -0.51560845787E+03 -0.79074880561E+03  0.94566389751E+03  0.50400001928E-02 0. -1.
       -1    1    3    3    0  502  0.56075410140E+02  0.51560845787E+03  0.14578873681E+04  0.15473952667E+04  0.50400001928E-02 0.  1.
</event>
<event>
 5   0  0.9038897E-06  0.2409998E+04  0.7818609E-02  0.8435770E-01
       -1   -1    0    0    0  501  0.00000000000E+00  0.00000000000E+00  0.13215995431E+04  0.13215995431E+04  0.50400001928E-02 0. -1.
        1   -1    0    0  501    0  0.00000000000E+00  0.00000000000E+00 -0.10986859505E+04  0.10986859505E+04  0.50400001928E-02 0.  1.
    10030    2    1    2    0    0  0.00000000000E+00  0.00000000000E+00  0.22291359262E+03  0.24202854937E+04  0.24099982160E+04 0.  0.
        1    1    3    3  502    0 -0.76666381715E+03 -0.92047877831E+03  0.24227510705E+03  0.12221913996E+04  0.50400001928E-02 0. -1.
       -1    1    3    3    0  502  0.76666381715E+03  0.92047877831E+03 -0.19361514433E+02  0.11980940940E+04  0.50400001928E-02 0.  1.
</event>
<event>
 5   0  0.9083687E-06  0.2389249E+04  0.7818609E-02  0.8443539E-01
        1   -1    0    0  501    0  0.00000000000E+00  0.00000000000E+00  0.12060870269E+04  0.12060870269E+04  0.50400001928E-02 0. -1.
       -1   -1    0    0    0  501  0.00000000000E+00  0.00000000000E+00 -0.11832711536E+04  0.11832711537E+04  0.50400001928E-02 0.  1.
    10030    2    1    2    0    0  0.00000000000E+00  0.00000000000E+00  0.22815873271E+02  0.23893581806E+04  0.23892492442E+04 0.  0.
        2    1    3    3  502    0 -0.20969237675E+03 -0.32824725753E+03 -0.11179844392E+04  0.11838945735E+04  0.25500000920E-02 0.  1.
       -2    1    3    3    0  502  0.20969237675E+03  0.32824725753E+03  0.11408003125E+04  0.12054636070E+04  0.25500000920E-02 0. -1.
</event>
<event>
 5   0  0.8898848E-06  0.2429683E+04  0.7818609E-02  0.8428473E-01
        1   -1    0    0  501    0  0.00000000000E+00  0.00000000000E+00  0.12531024768E+04  0.12531024768E+04  0.50400001928E-02 0. -1.
       -1   -1    0    0    0  501  0.00000000000E+00  0.00000000000E+00 -0.11777490944E+04  0.11777490944E+04  0.50400001928E-02 0.  1.
    10030    2    1    2    0    0  0.00000000000E+00  0.00000000000E+00  0.75353382394E+02  0.24308515712E+04  0.24296833598E+04 0.  0.
        5    1    3    3  502    0 -0.15533744647E+03  0.11986964613E+04  0.15945328476E+03  0.12192007089E+04  0.46999998093E+01 0. -1.
       -5    1    3    3    0  502  0.15533744647E+03 -0.11986964613E+04 -0.84099902369E+02  0.12116508623E+04  0.46999998093E+01 0.  1.
</event>
<event>
 5   0  0.9083687E-06  0.2398000E+04  0.7818609E-02  0.8440253E-01
       -1   -1    0    0    0  501  0.00000000000E+00  0.00000000000E+00  0.16986355166E+04  0.16986355166E+04  0.50400001928E-02 0. -1.
        1   -1    0    0  501    0  0.00000000000E+00  0.00000000000E+00 -0.84632708722E+03  0.84632708723E+03  0.50400001928E-02 0.  1.
    10030    2    1    2    0    0  0.00000000000E+00  0.00000000000E+00  0.85230842939E+03  0.25449626039E+04  0.23980002077E+04 0.  0.
        2    1    3    3  502    0 -0.85609687485E+02  0.39878402211E+03 -0.77043908652E+03  0.87174199218E+03  0.25500000920E-02 0.  1.
       -2    1    3    3    0  502  0.85609687485E+02 -0.39878402211E+03  0.16227475159E+04  0.16732206117E+04  0.25500000920E-02 0. -1.
</event>
<event>
 5   0  0.2080257E-05  0.2389448E+04  0.7818609E-02  0.8443465E-01
        2   -1    0    0  501    0  0.00000000000E+00  0.00000000000E+00  0.25814325828E+04  0.25814325828E+04  0.25500000920E-02 0.  1.
       -2   -1    0    0    0  501  0.00000000000E+00  0.00000000000E+00 -0.55293543969E+03  0.55293543970E+03  0.25500000920E-02 0. -1.
    10030    2    1    2    0    0  0.00000000000E+00  0.00000000000E+00  0.20284971431E+04  0.31343680225E+04  0.23894481038E+04 0.  0.
        1    1    3    3  502    0 -0.93228529598E+03 -0.62704220175E+03  0.48136676444E+03  0.12223140995E+04  0.50400001928E-02 0.  1.
       -1    1    3    3    0  502  0.93228529598E+03  0.62704220175E+03  0.15471303787E+04  0.19120539230E+04  0.50400001928E-02 0. -1.
</event>
<event>
 5   0  0.2080257E-05  0.2414225E+04  0.7818609E-02  0.8434197E-01
       -2   -1    0    0    0  501  0.00000000000E+00  0.00000000000E+00  0.61798589225E+03  0.61798589226E+03  0.25500000920E-02 0. -1.
        2   -1    0    0  501    0  0.00000000000E+00  0.00000000000E+00 -0.23578535859E+04  0.23578535859E+04  0.25500000920E-02 0.  1.
    10030    2    1    2    0    0  0.00000000000E+00  0.00000000000E+00 -0.17398676937E+04  0.29758394782E+04  0.24142247220E+04 0.  0.
        1    1    3    3  502    0 -0.11132979217E+04  0.45621656921E+03 -0.74944849843E+03  0.14174762334E+04  0.50400001928E-02 0.  1.
       -1    1    3    3    0  502  0.11132979217E+04 -0.45621656921E+03 -0.99041919525E+03  0.15583632448E+04  0.50400001928E-02 0. -1.
</event>
<event>
 5   0  0.2087882E-05  0.2403189E+04  0.7818609E-02  0.8438311E-01
        2   -1    0    0  501    0  0.00000000000E+00  0.00000000000E+00  0.24928589856E+04  0.24928589856E+04  0.25500000920E-02 0. -1.
       -2   -1    0    0    0  501  0.00000000000E+00  0.00000000000E+00 -0.57918609199E+03  0.57918609200E+03  0.25500000920E-02 0.  1.
    10030    2    1    2    0    0  0.00000000000E+00  0.00000000000E+00  0.19136728936E+04  0.30720450776E+04  0.24031889262E+04 0.  0.
        2    1    3    3  502    0 -0.10278725721E+04 -0.60415891829E+03  0.11477270765E+04  0.16549342782E+04  0.25500000920E-02 0.  1.
       -2    1    3    3    0  502  0.10278725721E+04  0.60415891829E+03  0.76594581708E+03  0.14171107994E+04  0.25500000920E-02 0. -1.
</event>
<event>
 5   0  0.8528103E-06  0.2427795E+04  0.7818609E-02  0.8429170E-01
        1   -1    0    0  501    0  0.00000000000E+00  0.00000000000E+00  0.15320151032E+04  0.15320151032E+04  0.50400001928E-02 0.  1.
       -1   -1    0    0    0  501  0.00000000000E+00  0.00000000000E+00 -0.96183564732E+03  0.96183564733E+03  0.50400001928E-02 0. -1.
    10030    2    1    2    0    0  0.00000000000E+00  0.00000000000E+00  0.57017945584E+03  0.24938507505E+04  0.24277946688E+04 0.  0.
        4    1    3    3  502    0  0.21416625290E+03  0.78086303378E+03 -0.64391260256E+03  0.10345237136E+04  0.12699999809E+01 0. -1.
       -4    1    3    3    0  502 -0.21416625290E+03 -0.78086303378E+03  0.12140920584E+04  0.14593270369E+04  0.12699999809E+01 0.  1.
</event>
<event>
 5   0  0.8528103E-06  0.2402060E+04  0.7818609E-02  0.8438733E-01
        1   -1    0    0  501    0  0.00000000000E+00  0.00000000000E+00  0.15424639192E+04  0.15424639192E+04  0.50400001928E-02 0.  1.
       -1   -1    0    0    0  501  0.00000000000E+00  0.00000000000E+00 -0.93517440413E+03  0.93517440415E+03  0.50400001928E-02 0. -1.
    10030    2    1    2    0    0  0.00000000000E+00  0.00000000000E+00  0.60728951510E+03  0.24776383234E+04  0.24020597633E+04 0.  0.
        4    1    3    3  502    0 -0.54548329776E+03 -0.10489214982E+04  0.85610659156E+02  0.11853772123E+04  0.12699999809E+01 0. -1.
       -4    1    3    3    0  502  0.54548329776E+03  0.10489214982E+04  0.52167885594E+03  0.12922611111E+04  0.12699999809E+01 0.  1.
</event>
<event>
 5   0  0.9038897E-06  0.2385664E+04  0.7818609E-02  0.8444890E-01
        1   -1    0    0  501    0  0.00000000000E+00  0.00000000000E+00  0.14839487546E+04  0.14839487546E+04  0.50400001928E-02 0.  1.
       -1   -1    0    0    0  501  0.00000000000E+00  0.00000000000E+00 -0.95882606472E+03  0.95882606474E+03  0.50400001928E-02 0. -1.
    10030    2    1    2    0    0  0.00000000000E+00  0.00000000000E+00  0.52512268986E+03  0.24427748193E+04  0.23856644732E+04 0.  0.
        1    1    3    3  502    0  0.50609436072E+03  0.13881078111E+03 -0.83427221781E+03  0.98560137395E+03  0.50400001928E-02 0. -1.
       -1    1    3    3    0  502 -0.50609436072E+03 -0.13881078111E+03  0.13593949077E+04  0.14571734454E+04  0.50400001928E-02 0.  1.
</event>
<event>
 5   0  0.9083687E-06  0.2404865E+04  0.7818609E-02  0.8437684E-01
        1   -1    0    0  501    0  0.00000000000E+00  0.00000000000E+00  0.11980611825E+04  0.11980611825E+04  0.50400001928E-02 0.  1.
       -1   -1    0    0    0  501  0.00000000000E+00  0.00000000000E+00 -0.12068201530E+04  0.12068201530E+04  0.50400001928E-02 0. -1.
    10030    2    1    2    0    0  0.00000000000E+00  0.00000000000E+00 -0.87589704863E+01  0.24048813355E+04  0.24048653847E+04 0.  0.
        2    1    3    3  502    0 -0.58120048274E+03 -0.97469946085E+03 -0.40188852363E+03  0.12038884606E+04  0.25500000920E-02 0. -1.
       -2    1    3    3    0  502  0.58120048274E+03  0.97469946085E+03  0.39312955315E+03  0.12009928749E+04  0.25500000920E-02 0.  1.
</event>
<event>
 5   0  0.9083687E-06  0.2337264E+04  0.7818609E-02  0.8463372E-01
        1   -1    0    0  501    0  0.00000000000E+00  0.00000000000E+00  0.11248872335E+04  0.11248872335E+04  0.50400001928E-02 0. -1.
       -1   -1    0    0    0  501  0.00000000000E+00  0.00000000000E+00 -0.12140775249E+04  0.12140775249E+04  0.50400001928E-02 0.  1.
    10030    2    1    2    0    0  0.00000000000E+00  0.00000000000E+00 -0.89190291404E+02  0.23389647583E+04  0.23372636207E+04 0.  0.
        2    1    3    3  502    0  0.80161750947E+03  0.80489663265E+03 -0.31911412087E+03  0.11799504409E+04  0.25500000920E-02 0.  1.
       -2    1    3    3    0  502 -0.80161750947E+03 -0.80489663265E+03  0.22992382947E+03  0.11590143175E+04  0.25500000920E-02 0. -1.
</event>
<event>
 5   0  0.2122194E-05  0.2398255E+04  0.7818609E-02  0.8440157E-01
       -2   -1    0    0    0  501  0.00000000000E+00  0.00000000000E+00  0.15513310262E+04  0.15513310262E+04  0.25500000920E-02 0.  1.
        2   -1    0    0  501    0  0.00000000000E+00  0.00000000000E+00 -0.92688564739E+03  0.92688564739E+03  0.25500000920E-02 0. -1.
    10030    2    1    2    0    0  0.00000000000E+00  0.00000000000E+00  0.62444537884E+03  0.24782166736E+04  0.23982547509E+04 0.  0.
        3    1    3    3  502    0 -0.88977549414E+03  0.80126588878E+03  0.24542213979E+03  0.12222763564E+04  0.10100000352E+00 0. -1.
       -3    1    3    3    0  502  0.88977549414E+03 -0.80126588878E+03  0.37902323905E+03  0.12559403172E+04  0.10100000352E+00 0.  1.
</event>
<event>
 5   0  0.2080257E-05  0.2409230E+04  0.7818609E-02  0.8436056E-01
       -2   -1    0    0    0  501  0.00000000000E+00  0.00000000000E+00  0.61256552658E+03  0.61256552659E+03  0.25500000920E-02 0. -1.
        2   -1    0    0  501    0  0.00000000000E+00  0.00000000000E+00 -0.23688845156E+04  0.23688845156E+04  0.25500000920E-02 0.  1.
    10030    2    1    2    0    0  0.00000000000E+00  0.00000000000E+00 -0.17563189890E+04  0.29814500422E+04  0.24092297447E+04 0.  0.
        1    1    3    3  502    0  0.18866706445E+03 -0.53862587392E+03  0.43464383226E+03  0.71737602010E+03  0.50400001928E-02 0. -1.
       -1    1    3    3    0  502 -0.18866706445E+03  0.53862587392E+03 -0.21909628213E+04  0.22640740221E+04  0.50400001928E-02 0.  1.
</event>
<event>
 5   0  0.2122194E-05  0.2376460E+04  0.7818609E-02  0.8448370E-01
        2   -1    0    0  501    0  0.00000000000E+00  0.00000000000E+00  0.46179510570E+03  0.46179510571E+03  0.25500000920E-02 0. -1.
       -2   -1    0    0    0  501  0.00000000000E+00  0.00000000000E+00 -0.30573951220E+04  0.30573951220E+04  0.25500000920E-02 0.  1.
    10030    2    1    2    0    0  0.00000000000E+00  0.00000000000E+00 -0.25956000163E+04  0.35191902277E+04  0.23764596387E+04 0.  0.
        3    1    3    3  502    0 -0.72895954768E+03 -0.92397163614E+03 -0.10554439026E+04  0.15808439039E+04  0.10100000352E+00 0.  1.
       -3    1    3    3    0  502  0.72895954768E+03  0.92397163614E+03 -0.15401561137E+04  0.19383463239E+04  0.10100000352E+00 0. -1.
</event>
<event>
 5   0  0.9038897E-06  0.2378396E+04  0.7818609E-02  0.8447636E-01
        1   -1    0    0  501    0  0.00000000000E+00  0.00000000000E+00  0.15984251093E+04  0.15984251093E+04  0.50400001928E-02 0.  1.
       -1   -1    0    0    0  501  0.00000000000E+00  0.00000000000E+00 -0.88474057455E+03  0.88474057456E+03  0.50400001928E-02 0. -1.
    10030    2    1    2    0    0  0.00000000000E+00  0.00000000000E+00  0.71368453478E+03  0.24831656839E+04  0.23783957195E+04 0.  0.
        1    1    3    3  502    0  0.59794037194E+03 -0.88003282508E+03  0.91146916190E+03  0.14009876854E+04  0.50400001928E-02 0.  1.
       -1    1    3    3    0  502 -0.59794037194E+03  0.88003282508E+03 -0.19778462711E+03  0.10821779985E+04  0.50400001928E-02 0. -1.
</event>
<event>
 5   0  0.2087882E-05  0.2390273E+04  0.7818609E-02  0.8443154E-01
       -2   -1    0    0    0  501  0.00000000000E+00  0.00000000000E+00  0.66543869841E+03  0.66543869842E+03  0.25500000920E-02 0. -1.
        2   -1    0    0  501    0  0.00000000000E+00  0.00000000000E+00 -0.21464814331E+04  0.21464814331E+04  0.25500000920E-02 0.  1.
    10030    2    1    2    0    0  0.00000000000E+00  0.00000000000E+00 -0.14810427347E+04  0.28119201315E+04  0.23902734664E+04 0.  0.
        2    1    3    3  502    0  0.40838802131E+03  0.86822443919E+03 -0.15787905556E+04  0.18474777593E+04  0.25500000920E-02 0.  1.
       -2    1    3    3    0  502 -0.40838802131E+03 -0.86822443919E+03  0.97747820923E+02  0.96444237218E+03  0.25500000920E-02 0. -1.
</event>
<event>
 5   0  0.2087882E-05  0.2397871E+04  0.7818609E-02  0.8440301E-01
        2   -1    0    0  501    0  0.00000000000E+00  0.00000000000E+00  0.77124457900E+03  0.77124457900E+03  0.25500000920E-02 0. -1.
       -2   -1    0    0    0  501  0.00000000000E+00  0.00000000000E+00 -0.18638016654E+04  0.18638016654E+04  0.25500000920E-02 0.  1.
    10030    2    1    2    0    0  0.00000000000E+00  0.00000000000E+00 -0.10925570864E+04  0.26350462444E+04  0.23978714984E+04 0.  0.
        2    1    3    3  502    0  0.41891104572E+03 -0.11226292114E+04 -0.50144999519E+03  0.12989360678E+04  0.25500000920E-02 0. -1.
       -2    1    3    3    0  502 -0.41891104572E+03  0.11226292114E+04 -0.59110709117E+03  0.13361101765E+04  0.25500000920E-02 0.  1.
</event>
<event>
 5   0  0.8528103E-06  0.2361430E+04  0.7818609E-02  0.8454087E-01
        1   -1    0    0  501    0  0.00000000000E+00  0.00000000000E+00  0.77641006409E+03  0.77641006411E+03  0.50400001928E-02 0.  1.
       -1   -1    0    0    0  501  0.00000000000E+00  0.00000000000E+00 -0.17955554997E+04  0.17955554997E+04  0.50400001928E-02 0. -1.
    10030    2    1    2    0    0  0.00000000000E+00  0.00000000000E+00 -0.10191454356E+04  0.25719655638E+04  0.23614295337E+04 0.  0.
        4    1    3    3  502    0 -0.63400735513E+03 -0.40160656033E+03  0.48319334216E+03  0.89259765542E+03  0.12699999809E+01 0.  1.
       -4    1    3    3    0  502  0.63400735513E+03  0.40160656033E+03 -0.15023387778E+04  0.16793679084E+04  0.12699999809E+01 0. -1.
</event>
<event>
 5   0  0.8528103E-06  0.2416050E+04  0.7818609E-02  0.8433519E-01
       -1   -1    0    0    0  501  0.00000000000E+00  0.00000000000E+00  0.74127192259E+03  0.74127192261E+03  0.50400001928E-02 0. -1.
        1   -1    0    0  501    0  0.00000000000E+00  0.00000000000E+00 -0.19686769163E+04  0.19686769164E+04  0.50400001928E-02 0.  1.
    10030    2    1    2    0    0  0.00000000000E+00  0.00000000000E+00 -0.12274049938E+04  0.27099488390E+04  0.24160504322E+04 0.  0.
        4    1    3    3  502    0  0.44594811422E+03  0.52395320942E+03 -0.17274260228E+04  0.18594082293E+04  0.12699999809E+01 0.  1.
       -4    1    3    3    0  502 -0.44594811422E+03 -0.52395320942E+03  0.50002102903E+03  0.85054060962E+03  0.12699999809E+01 0. -1.
</event>
<event>
 5   0  0.8898848E-06  0.2378389E+04  0.7818609E-02  0.8447639E-01
        1   -1    0    0  501    0  0.00000000000E+00  0.00000000000E+00  0.16642654124E+04  0.16642654124E+04  0.50400001928E-02 0. -1.
       -1   -1    0    0    0  501  0.00000000000E+00  0.00000000000E+00 -0.84973468794E+03  0.84973468796E+03  0.50400001928E-02 0.  1.
    10030    2    1    2    0    0  0.00000000000E+00  0.00000000000E+00  0.81453072444E+03  0.25140001003E+04  0.23783894138E+04 0.  0.
        5    1    3    3  502    0  0.78923070309E+03 -0.67108725150E+03  0.10244395824E+04  0.14569631944E+04  0.46999998093E+01 0. -1.
       -5    1    3    3    0  502 -0.78923070309E+03  0.67108725150E+03 -0.20990885800E+03  0.10570369059E+04  0.46999998093E+01 0.  1.
</event>
<event>
 5   0  0.2025353E-05  0.2398180E+04  0.7818609E-02  0.8440185E-01
        2   -1    0    0  501    0  0.00000000000E+00  0.00000000000E+00  0.10902709611E+04  0.10902709611E+04  0.25500000920E-02 0.  1.
       -2   -1    0    0    0  501  0.00000000000E+00  0.00000000000E+00 -0.13187702466E+04  0.13187702466E+04  0.25500000920E-02 0. -1.
    10030    2    1    2    0    0  0.00000000000E+00  0.00000000000E+00 -0.22849928552E+03  0.24090412077E+04  0.23981800635E+04 0.  0.
        4    1    3    3  502    0 -0.25810137722E+03  0.99809324227E+03 -0.72940271758E+03  0.12628683140E+04  0.12699999809E+01 0. -1.
       -4    1    3    3    0  502  0.25810137722E+03 -0.99809324227E+03  0.50090343206E+03  0.11461728937E+04  0.12699999809E+01 0.  1.
</event>
<event>
 5   0  0.8898848E-06  0.2393056E+04  0.7818609E-02  0.8442108E-01
       -1   -1    0    0    0  501  0.00000000000E+00  0.00000000000E+00  0.65622578703E+03  0.65622578705E+03  0.50400001928E-02 0.  1.
        1   -1    0    0  501    0  0.00000000000E+00  0.00000000000E+00 -0.21816866543E+04  0.21816866543E+04  0.50400001928E-02 0. -1.
    10030    2    1    2    0    0  0.00000000000E+00  0.00000000000E+00 -0.15254608673E+04  0.28379124414E+04  0.23930558220E+04 0.  0.
        5    1    3    3  502    0  0.31009471735E+03 -0.45989104995E+03 -0.20200017769E+04  0.20947763079E+04  0.46999998093E+01 0. -1.
       -5    1    3    3    0  502 -0.31009471735E+03  0.45989104995E+03  0.49454090962E+03  0.74313613345E+03  0.46999998093E+01 0.  1.
</event>
<event>
 5   0  0.2080257E-05  0.2413535E+04  0.7818609E-02  0.8434454E-01
       -2   -1    0    0    0  501  0.00000000000E+00  0.00000000000E+00  0.14598412253E+04  0.14598412253E+04  0.25500000920E-02 0. -1.
        2   -1    0    0  501    0  0.00000000000E+00  0.00000000000E+00 -0.99756572903E+03  0.99756572903E+03  0.25500000920E-02 0.  1.
    10030    2    1    2    0    0  0.00000000000E+00  0.00000000000E+00  0.46227549629E+03  0.24574069543E+04  0.24135348153E+04 0.  0.
        1    1    3    3  502    0  0.77925283628E+03  0.31489033503E+03 -0.65056912787E+03  0.10628410493E+04  0.50400001928E-02 0.  1.
       -1    1    3    3    0  502 -0.77925283628E+03 -0.31489033503E+03  0.11128446242E+04  0.13945659050E+04  0.50400001928E-02 0. -1.
</event>
<event>
 5   0  0.8898848E-06  0.2400363E+04  0.7818609E-02  0.8439368E-01
       -1   -1    0    0    0  501  0.00000000000E+00  0.00000000000E+00  0.82262928526E+03  0.82262928527E+03  0.50400001928E-02 0.  1.
        1   -1    0    0  501    0  0.00000000000E+00  0.00000000000E+00 -0.17510144444E+04  0.17510144444E+04  0.50400001928E-02 0. -1.
    10030    2    1    2    0    0  0.00000000000E+00  0.00000000000E+00 -0.92838515917E+03  0.25736437297E+04  0.24003631066E+04 0.  0.
        5    1    3    3  502    0 -0.13787171196E+03  0.11828672652E+04 -0.62405343822E+03  0.13444881405E+04  0.46999998093E+01 0.  1.
       -5    1    3    3    0  502  0.13787171196E+03 -0.11828672652E+04 -0.30433172095E+03  0.12291555892E+04  0.46999998093E+01 0. -1.
</event>
<event>
 5   0  0.9176817E-06  0.2386973E+04  0.7818609E-02  0.8444397E-01
        1   -1    0    0  501    0  0.00000000000E+00  0.00000000000E+00  0.12039182783E+04  0.12039182783E+04  0.50400001928E-02 0. -1.
       -1   -1    0    0    0  501  0.00000000000E+00  0.00000000000E+00 -0.11831451629E+04  0.11831451629E+04  0.50400001928E-02 0.  1.
    10030    2    1    2    0    0  0.00000000000E+00  0.00000000000E+00  0.20773115415E+02  0.23870634412E+04  0.23869730518E+04 0.  0.
        3    1    3    3  502    0  0.43929779896E+03 -0.95228303444E+03 -0.55935823299E+03  0.11885735892E+04  0.10100000352E+00 0.  1.
       -3    1    3    3    0  502 -0.43929779896E+03  0.95228303444E+03  0.58013134840E+03  0.11984898520E+04  0.10100000352E+00 0. -1.
</event>
<event>
 5   0  0.9176817E-06  0.2392101E+04  0.7818609E-02  0.8442467E-01
       -1   -1    0    0    0  501  0.00000000000E+00  0.00000000000E+00  0.82829077210E+03  0.82829077211E+03  0.50400001928E-02 0.  1.
        1   -1    0    0  501    0  0.00000000000E+00  0.00000000000E+00 -0.17270955564E+04  0.17270955565E+04  0.50400001928E-02 0. -1.
    10030    2    1    2    0    0  0.00000000000E+00  0.00000000000E+00 -0.89880478435E+03  0.25553863286E+04  0.23921014293E+04 0.  0.
        3    1    3    3  502    0 -0.44027518079E+03  0.68551127858E+03  0.48602342025E+03  0.94867630049E+03  0.10100000352E+00 0.  1.
       -3    1    3    3    0  502  0.44027518079E+03 -0.68551127858E+03 -0.13848282046E+04  0.16067100281E+04  0.10100000352E+00 0. -1.
</event>
<event>
 5   0  0.8898848E-06  0.2394326E+04  0.7818609E-02  0.8441631E-01
        1   -1    0    0  501    0  0.00000000000E+00  0.00000000000E+00  0.91338512862E+03  0.91338512863E+03  0.50400001928E-02 0. -1.
       -1   -1    0    0    0  501  0.00000000000E+00  0.00000000000E+00 -0.15691074394E+04  0.15691074394E+04  0.50400001928E-02 0.  1.
    10030    2    1    2    0    0  0.00000000000E+00  0.00000000000E+00 -0.65572231082E+03  0.24824925681E+04  0.23943261268E+04 0.  0.
        5    1    3    3  502    0 -0.54316971092E+03 -0.91522210790E+03  0.24051506615E+03  0.10911161390E+04  0.46999998093E+01 0. -1.
       -5    1    3    3    0  502  0.54316971092E+03  0.91522210790E+03 -0.89623737697E+03  0.13913764291E+04  0.46999998093E+01 0.  1.
</event>
<event>
 5   0  0.2025353E-05  0.2401555E+04  0.7818609E-02  0.8438921E-01
        2   -1    0    0  501    0  0.00000000000E+00  0.00000000000E+00  0.11268016915E+04  0.11268016915E+04  0.25500000920E-02 0.  1.
       -2   -1    0    0    0  501  0.00000000000E+00  0.00000000000E+00 -0.12796103028E+04  0.12796103028E+04  0.25500000920E-02 0. -1.
    10030    2    1    2    0    0  0.00000000000E+00  0.00000000000E+00 -0.15280861135E+03  0.24064119943E+04  0.24015553741E+04 0.  0.
        4    1    3    3  502    0 -0.53420917797E+03 -0.27943234546E+03 -0.11169664806E+04  0.12692823221E+04  0.12699999809E+01 0. -1.
       -4    1    3    3    0  502  0.53420917797E+03  0.27943234546E+03  0.96415786929E+03  0.11371296722E+04  0.12699999809E+01 0.  1.
</event>
<event>
 5   0  0.2122194E-05  0.2330464E+04  0.7818609E-02  0.8466006E-01
        2   -1    0    0  501    0  0.00000000000E+00  0.00000000000E+00  0.75324989957E+03  0.75324989957E+03  0.25500000920E-02 0.  1.
       -2   -1    0    0    0  501  0.00000000000E+00  0.00000000000E+00 -0.18025429186E+04  0.18025429186E+04  0.25500000920E-02 0. -1.
    10030    2    1    2    0    0  0.00000000000E+00  0.00000000000E+00 -0.10492930190E+04  0.25557928181E+04  0.23304637070E+04 0.  0.
        3    1    3    3  502    0 -0.74633028325E+03 -0.89343055524E+03 -0.57989842910E+03  0.13005803501E+04  0.10100000352E+00 0. -1.
       -3    1    3    3    0  502  0.74633028325E+03  0.89343055524E+03 -0.46939458989E+03  0.12552124681E+04  0.10100000352E+00 0.  1.
</event>
<event>
 5   0  0.2087882E-05  0.2395214E+04  0.7818609E-02  0.8441297E-01
       -2   -1    0    0    0  501  0.00000000000E+00  0.00000000000E+00  0.10922874544E+04  0.10922874544E+04  0.25500000920E-02 0. -1.
        2   -1    0    0  501    0  0.00000000000E+00  0.00000000000E+00 -0.13130820085E+04  0.13130820085E+04  0.25500000920E-02 0.  1.
    10030    2    1    2    0    0  0.00000000000E+00  0.00000000000E+00 -0.22079455410E+03  0.24053694630E+04  0.23952143992E+04 0.  0.
        2    1    3    3  502    0 -0.67607858582E+03 -0.13952888160E+03 -0.10931742315E+04  0.12928961534E+04  0.25500000920E-02 0. -1.
       -2    1    3    3    0  502  0.67607858582E+03  0.13952888160E+03  0.87237967741E+03  0.11124733096E+04  0.25500000920E-02 0.  1.
</event>
<event>
 5   0  0.2080257E-05  0.2391349E+04  0.7818609E-02  0.8442749E-01
        2   -1    0    0  501    0  0.00000000000E+00  0.00000000000E+00  0.24036980438E+04  0.24036980438E+04  0.25500000920E-02 0. -1.
       -2   -1    0    0    0  501  0.00000000000E+00  0.00000000000E+00 -0.59476595406E+03  0.59476595407E+03  0.25500000920E-02 0.  1.
    10030    2    1    2    0    0  0.00000000000E+00  0.00000000000E+00  0.18089320897E+04  0.29984639978E+04  0.23913492094E+04 0.  0.
        1    1    3    3  502    0 -0.51922340946E+03  0.99699800904E+03  0.14153966454E+04  0.18074694030E+04  0.50400001928E-02 0. -1.
       -1    1    3    3    0  502  0.51922340946E+03 -0.99699800904E+03  0.39353544430E+03  0.11909945948E+04  0.50400001928E-02 0.  1.
</event>
<event>
 5   0  0.2048028E-05  0.2378172E+04  0.7818609E-02  0.8447721E-01
        2   -1    0    0  501    0  0.00000000000E+00  0.00000000000E+00  0.11899193685E+04  0.11899193685E+04  0.25500000920E-02 0.  1.
       -2   -1    0    0    0  501  0.00000000000E+00  0.00000000000E+00 -0.11882527655E+04  0.11882527656E+04  0.25500000920E-02 0. -1.
    10030    2    1    2    0    0  0.00000000000E+00  0.00000000000E+00  0.16666029178E+01  0.23781721340E+04  0.23781715500E+04 0.  0.
        5    1    3    3  502    0 -0.38829994706E+03 -0.49335398210E+02  0.11236390189E+04  0.11898729198E+04  0.46999998093E+01 0.  1.
       -5    1    3    3    0  502  0.38829994706E+03  0.49335398210E+02 -0.11219724160E+04  0.11882992143E+04  0.46999998093E+01 0. -1.
</event>
<event>
 5   0  0.2122194E-05  0.2407084E+04  0.7818609E-02  0.8436856E-01
        2   -1    0    0  501    0  0.00000000000E+00  0.00000000000E+00  0.99704331917E+03  0.99704331918E+03  0.25500000920E-02 0.  1.
       -2   -1    0    0    0  501  0.00000000000E+00  0.00000000000E+00 -0.14528089286E+04  0.14528089286E+04  0.25500000920E-02 0. -1.
    10030    2    1    2    0    0  0.00000000000E+00  0.00000000000E+00 -0.45576560940E+03  0.24498522477E+04  0.24070840752E+04 0.  0.
        3    1    3    3  502    0 -0.45052803857E+03  0.10316866378E+04 -0.66107487753E+03  0.13055163102E+04  0.10100000352E+00 0. -1.
       -3    1    3    3    0  502  0.45052803857E+03 -0.10316866378E+04  0.20530926814E+03  0.11443359376E+04  0.10100000352E+00 0.  1.
</event>
<event>
 5   0  0.9038897E-06  0.2292909E+04  0.7818609E-02  0.8480722E-01
       -1   -1    0    0    0  501  0.00000000000E+00  0.00000000000E+00  0.12000583006E+04  0.12000583007E+04  0.50400001928E-02 0.  1.
        1   -1    0    0  501    0  0.00000000000E+00  0.00000000000E+00 -0.10952454760E+04  0.10952454760E+04  0.50400001928E-02 0. -1.
    10030    2    1    2    0    0  0.00000000000E+00  0.00000000000E+00  0.10481282466E+03  0.22953037766E+04  0.22929094397E+04 0.  0.
        1    1    3    3  502    0  0.99300615938E+03  0.57267296917E+03  0.70942294907E+02  0.11484983115E+04  0.50400001928E-02 0. -1.
       -1    1    3    3    0  502 -0.99300615938E+03 -0.57267296917E+03  0.33870529752E+02  0.11468054652E+04  0.50400001928E-02 0.  1.
</event>
<event>
 5   0  0.9176817E-06  0.2415236E+04  0.7818609E-02  0.8433821E-01
        1   -1    0    0  501    0  0.00000000000E+00  0.00000000000E+00  0.17161278988E+04  0.17161278988E+04  0.50400001928E-02 0.  1.
       -1   -1    0    0    0  501  0.00000000000E+00  0.00000000000E+00 -0.84978590736E+03  0.84978590737E+03  0.50400001928E-02 0. -1.
    10030    2    1    2    0    0  0.00000000000E+00  0.00000000000E+00  0.86634199143E+03  0.25659138062E+04  0.24152360577E+04 0.  0.
        3    1    3    3  502    0 -0.73523664093E+03 -0.16715310623E+03  0.14353275376E+04  0.16213199035E+04  0.10100000352E+00 0.  1.
       -3    1    3    3    0  502  0.73523664093E+03  0.16715310623E+03 -0.56898554614E+03  0.94459390269E+03  0.10100000352E+00 0. -1.
</event>
<event>
 5   0  0.8898848E-06  0.2416578E+04  0.7818609E-02  0.8433323E-01
       -1   -1    0    0    0  501  0.00000000000E+00  0.00000000000E+00  0.62131961466E+03  0.62131961468E+03  0.50400001928E-02 0. -1.
        1   -1    0    0  501    0  0.00000000000E+00  0.00000000000E+00 -0.23497760336E+04  0.23497760336E+04  0.50400001928E-02 0.  1.
    10030    2    1    2    0    0  0.00000000000E+00  0.00000000000E+00 -0.17284564189E+04  0.29710956483E+04  0.24165776956E+04 0.  0.
        5    1    3    3  502    0  0.52319455205E+03 -0.10486672419E+04 -0.50262291198E+03  0.12751813225E+04  0.46999998093E+01 0. -1.
       -5    1    3    3    0  502 -0.52319455205E+03  0.10486672419E+04 -0.12258335069E+04  0.16959143258E+04  0.46999998093E+01 0.  1.
</event>
<event>
 5   0  0.9176817E-06  0.2419021E+04  0.7818609E-02  0.8432416E-01
        1   -1    0    0  501    0  0.00000000000E+00  0.00000000000E+00  0.16651452416E+04  0.16651452416E+04  0.50400001928E-02 0. -1.
       -1   -1    0    0    0  501  0.00000000000E+00  0.00000000000E+00 -0.87855160548E+03  0.87855160549E+03  0.50400001928E-02 0.  1.
    10030    2    1    2    0    0  0.00000000000E+00  0.00000000000E+00  0.78659363609E+03  0.25436968471E+04  0.24190213107E+04 0.  0.
        3    1    3    3  502    0 -0.22864590855E+03  0.26150138023E+03 -0.82497171150E+03  0.89512024797E+03  0.10100000352E+00 0.  1.
       -3    1    3    3    0  502  0.22864590855E+03 -0.26150138023E+03  0.16115653476E+04  0.16485765991E+04  0.10100000352E+00 0. -1.
</event>
<event>
 5   0  0.2087882E-05  0.2372922E+04  0.7818609E-02  0.8449711E-01
        2   -1    0    0  501    0  0.00000000000E+00  0.00000000000E+00  0.14117232917E+04  0.14117232917E+04  0.25500000920E-02 0.  1.
       -2   -1    0    0    0  501  0.00000000000E+00  0.00000000000E+00 -0.99714296507E+03  0.99714296507E+03  0.25500000920E-02 0. -1.
    10030    2    1    2    0    0  0.00000000000E+00  0.00000000000E+00  0.41458032663E+03  0.24088662568E+04  0.23729222060E+04 0.  0.
        2    1    3    3  502    0  0.15960579849E+03  0.11752457058E+04  0.23960741546E+03  0.12099951213E+04  0.25500000920E-02 0.  1.
       -2    1    3    3    0  502 -0.15960579849E+03 -0.11752457058E+04  0.17497291117E+03  0.11988711355E+04  0.25500000920E-02 0. -1.
</event>
<event>
 5   0  0.2122194E-05  0.2388470E+04  0.7818609E-02  0.8443833E-01
       -2   -1    0    0    0  501  0.00000000000E+00  0.00000000000E+00  0.82230109154E+03  0.82230109154E+03  0.25500000920E-02 0. -1.
        2   -1    0    0  501    0  0.00000000000E+00  0.00000000000E+00 -0.17343974219E+04  0.17343974219E+04  0.25500000920E-02 0.  1.
    10030    2    1    2    0    0  0.00000000000E+00  0.00000000000E+00 -0.91209633031E+03  0.25566985134E+04  0.23884697136E+04 0.  0.
        3    1    3    3  502    0 -0.85680111459E+03  0.37126378023E+03  0.34086938388E+03  0.99405074898E+03  0.10100000352E+00 0. -1.
       -3    1    3    3    0  502  0.85680111459E+03 -0.37126378023E+03 -0.12529657142E+04  0.15626477644E+04  0.10100000352E+00 0.  1.
</event>
<event>
 5   0  0.9176817E-06  0.2347410E+04  0.7818609E-02  0.8459459E-01
        1   -1    0    0  501    0  0.00000000000E+00  0.00000000000E+00  0.98721715064E+03  0.98721715066E+03  0.50400001928E-02 0. -1.
       -1   -1    0    0    0  501  0.00000000000E+00  0.00000000000E+00 -0.13954214217E+04  0.13954214217E+04  0.50400001928E-02 0.  1.
    10030    2    1    2    0    0  0.00000000000E+00  0.00000000000E+00 -0.40820427108E+03  0.23826385724E+04  0.23474104540E+04 0.  0.
        3    1    3    3  502    0 -0.49363821323E+03 -0.78079735775E+03 -0.93902677206E+03  0.13172298540E+04  0.10100000352E+00 0.  1.
       -3    1    3    3    0  502  0.49363821323E+03  0.78079735775E+03  0.53082250099E+03  0.10654087184E+04  0.10100000352E+00 0. -1.
</event>
<event>
 5   0  0.9083687E-06  0.2361556E+04  0.7818609E-02  0.8454038E-01
       -1   -1    0    0    0  501  0.00000000000E+00  0.00000000000E+00  0.10634597150E+04  0.10634597150E+04  0.50400001928E-02 0. -1.
        1   -1    0    0  501    0  0.00000000000E+00  0.00000000000E+00 -0.13110386484E+04  0.13110386484E+04  0.50400001928E-02 0.  1.
    10030    2    1    2    0    0  0.00000000000E+00  0.00000000000E+00 -0.24757893342E+03  0.23744983635E+04  0.23615560865E+04 0.  0.
        2    1    3    3  502    0  0.44310415994E+03  0.46182592909E+03 -0.11215038634E+04  0.12912766555E+04  0.25500000920E-02 0.  1.
       -2    1    3    3    0  502 -0.44310415994E+03 -0.46182592909E+03  0.87392493000E+03  0.10832217080E+04  0.25500000920E-02 0. -1.
</event>
<event>
 5   0  0.2087882E-05  0.2395405E+04  0.7818609E-02  0.8441226E-01
       -2   -1    0    0    0  501  0.00000000000E+00  0.00000000000E+00  0.88625798823E+03  0.88625798823E+03  0.25500000920E-02 0. -1.
        2   -1    0    0  501    0  0.00000000000E+00  0.00000000000E+00 -0.16185935767E+04  0.16185935767E+04  0.25500000920E-02 0.  1.
    10030    2    1    2    0    0  0.00000000000E+00  0.00000000000E+00 -0.73233558845E+03  0.25048515649E+04  0.23954051741E+04 0.  0.
        2    1    3    3  502    0  0.10223036129E+04 -0.13188161999E+03  0.27161236933E+03  0.10659599982E+04  0.25500000920E-02 0. -1.
       -2    1    3    3    0  502 -0.10223036129E+04  0.13188161999E+03 -0.10039479578E+04  0.14388915667E+04  0.25500000920E-02 0.  1.
</event>
<event>
 5   0  0.8528103E-06  0.2406852E+04  0.7818609E-02  0.8436943E-01
        1   -1    0    0  501    0  0.00000000000E+00  0.00000000000E+00  0.14058294003E+04  0.14058294003E+04  0.50400001928E-02 0. -1.
       -1   -1    0    0    0  501  0.00000000000E+00  0.00000000000E+00 -0.10301633789E+04  0.10301633789E+04  0.50400001928E-02 0.  1.
    10030    2    1    2    0    0  0.00000000000E+00  0.00000000000E+00  0.37566602140E+03  0.24359927793E+04  0.24068518569E+04 0.  0.
        4    1    3    3  502    0  0.99402602924E+03 -0.52942136625E+03 -0.24139797013E+03  0.11518026405E+04  0.12699999809E+01 0.  1.
       -4    1    3    3    0  502 -0.99402602924E+03  0.52942136625E+03  0.61706399153E+03  0.12841901387E+04  0.12699999809E+01 0. -1.
</event>
<event>
 5   0  0.2080257E-05  0.2395851E+04  0.7818609E-02  0.8441059E-01
       -2   -1    0    0    0  501  0.00000000000E+00  0.00000000000E+00  0.84354709810E+03  0.84354709811E+03  0.25500000920E-02 0. -1.
        2   -1    0    0  501    0  0.00000000000E+00  0.00000000000E+00 -0.17011795576E+04  0.17011795576E+04  0.25500000920E-02 0.  1.
    10030    2    1    2    0    0  0.00000000000E+00  0.00000000000E+00 -0.85763245954E+03  0.25447266557E+04  0.23958506458E+04 0.  0.
        1    1    3    3  502    0  0.11284351937E+04  0.54959258137E+02 -0.85186047793E+03  0.14149391437E+04  0.50400001928E-02 0.  1.
       -1    1    3    3    0  502 -0.11284351937E+04 -0.54959258137E+02 -0.57719816118E+01  0.11297875120E+04  0.50400001928E-02 0. -1.
</event>
<event>
 5   0  0.8528103E-06  0.2402308E+04  0.7818609E-02  0.8438640E-01
       -1   -1    0    0    0  501  0.00000000000E+00  0.00000000000E+00  0.49926880492E+03  0.49926880494E+03  0.50400001928E-02 0.  1.
        1   -1    0    0  501    0  0.00000000000E+00  0.00000000000E+00 -0.28897679642E+04  0.28897679642E+04  0.50400001928E-02 0. -1.
    10030    2    1    2    0    0  0.00000000000E+00  0.00000000000E+00 -0.23904991593E+04  0.33890367692E+04  0.24023080552E+04 0.  0.
        4    1    3    3  502    0 -0.89651408721E+03  0.53890096763E+03 -0.20282059468E+04  0.22820544991E+04  0.12699999809E+01 0. -1.
       -4    1    3    3    0  502  0.89651408721E+03 -0.53890096763E+03 -0.36229321254E+03  0.11069822701E+04  0.12699999809E+01 0.  1.
</event>
<event>
 5   0  0.9038897E-06  0.2420792E+04  0.7818609E-02  0.8431760E-01
        1   -1    0    0  501    0  0.00000000000E+00  0.00000000000E+00  0.18272104241E+04  0.18272104241E+04  0.50400001928E-02 0.  1.
       -1   -1    0    0    0  501  0.00000000000E+00  0.00000000000E+00 -0.80180037018E+03  0.80180037020E+03  0.50400001928E-02 0. -1.
    10030    2    1    2    0    0  0.00000000000E+00  0.00000000000E+00  0.10254100539E+04  0.26290107943E+04  0.24207916015E+04 0.  0.
        1    1    3    3  502    0 -0.17269241974E+03  0.74238900204E+03 -0.50843232022E+03  0.91622460481E+03  0.50400001928E-02 0. -1.
       -1    1    3    3    0  502  0.17269241974E+03 -0.74238900204E+03  0.15338423741E+04  0.17127861895E+04  0.50400001928E-02 0.  1.
</event>
<event>
 5   0  0.9083687E-06  0.2396170E+04  0.7818609E-02  0.8440939E-01
        1   -1    0    0  501    0  0.00000000000E+00  0.00000000000E+00  0.14782391290E+04  0.14782391290E+04  0.50400001928E-02 0.  1.
       -1   -1    0    0    0  501  0.00000000000E+00  0.00000000000E+00 -0.97102507705E+03  0.97102507706E+03  0.50400001928E-02 0. -1.
    10030    2    1    2    0    0  0.00000000000E+00  0.00000000000E+00  0.50721405197E+03  0.24492642061E+04  0.23961696636E+04 0.  0.
        2    1    3    3  502    0 -0.99843302029E+03  0.61329654089E+03  0.50895455813E+03  0.12775115989E+04  0.25500000920E-02 0.  1.
       -2    1    3    3    0  502  0.99843302029E+03 -0.61329654089E+03 -0.17405061692E+01  0.11717526072E+04  0.25500000920E-02 0. -1.
</event>
<event>
 5   0  0.2080257E-05  0.2343347E+04  0.7818609E-02  0.8461023E-01
       -2   -1    0    0    0  501  0.00000000000E+00  0.00000000000E+00  0.67408974895E+03  0.67408974896E+03  0.25500000920E-02 0.  1.
        2   -1    0    0  501    0  0.00000000000E+00  0.00000000000E+00 -0.20365518473E+04  0.20365518473E+04  0.25500000920E-02 0. -1.
    10030    2    1    2    0    0  0.00000000000E+00  0.00000000000E+00 -0.13624620983E+04  0.27106415962E+04  0.23433469427E+04 0.  0.
        1    1    3    3  502    0  0.57651226789E+03  0.53853630162E+03  0.32082239110E+03  0.85165412572E+03  0.50400001928E-02 0.  1.
       -1    1    3    3    0  502 -0.57651226789E+03 -0.53853630162E+03 -0.16832844894E+04  0.18589874705E+04  0.50400001928E-02 0. -1.
</event>
<event>
 5   0  0.2048028E-05  0.2395764E+04  0.7818609E-02  0.8441091E-01
        2   -1    0    0  501    0  0.00000000000E+00  0.00000000000E+00  0.11451686565E+04  0.11451686565E+04  0.25500000920E-02 0.  1.
       -2   -1    0    0    0  501  0.00000000000E+00  0.00000000000E+00 -0.12530215021E+04  0.12530215021E+04  0.25500000920E-02 0. -1.
    10030    2    1    2    0    0  0.00000000000E+00  0.00000000000E+00 -0.10785284559E+03  0.23981901587E+04  0.23957637197E+04 0.  0.
        5    1    3    3  502    0  0.43623873611E+03 -0.58807609852E+03 -0.10029167216E+04  0.12417736400E+04  0.46999998093E+01 0. -1.
       -5    1    3    3    0  502 -0.43623873611E+03  0.58807609852E+03  0.89506387600E+03  0.11564165187E+04  0.46999998093E+01 0.  1.
</event>
<event>
 5   0  0.8898848E-06  0.2394614E+04  0.7818609E-02  0.8441523E-01
       -1   -1    0    0    0  501  0.00000000000E+00  0.00000000000E+00  0.12318961882E+04  0.12318961882E+04  0.50400001928E-02 0. -1.
        1   -1    0    0  501    0  0.00000000000E+00  0.00000000000E+00 -0.11636885907E+04  0.11636885907E+04  0.50400001928E-02 0.  1.
    10030    2    1    2    0    0  0.00000000000E+00  0.00000000000E+00  0.68207597516E+02  0.23955847789E+04  0.23946135715E+04 0.  0.
        5    1    3    3  502    0  0.30797546189E+03 -0.98901780127E+03  0.63477746106E+03  0.12148948973E+04  0.46999998093E+01 0. -1.
       -5    1    3    3    0  502 -0.30797546189E+03  0.98901780127E+03 -0.56656986354E+03  0.11806898816E+04  0.46999998093E+01 0.  1.
</event>
<event>
 5   0  0.2025353E-05  0.2420965E+04  0.7818609E-02  0.8431696E-01
        2   -1    0    0  501    0  0.00000000000E+00  0.00000000000E+00  0.14773102019E+04  0.14773102019E+04  0.25500000920E-02 0.  1.
       -2   -1    0    0    0  501  0.00000000000E+00  0.00000000000E+00 -0.99184834151E+03  0.99184834151E+03  0.25500000920E-02 0. -1.
    10030    2    1    2    0    0  0.00000000000E+00  0.00000000000E+00  0.48546186043E+03  0.24691585435E+04  0.24209648273E+04 0.  0.
        4    1    3    3  502    0  0.20265431635E+03  0.28949384548E+03 -0.93806863322E+03  0.10024219830E+04  0.12699999809E+01 0. -1.
       -4    1    3    3    0  502 -0.20265431635E+03 -0.28949384548E+03  0.14235304936E+04  0.14667365604E+04  0.12699999809E+01 0.  1.
</event>
<event>
 5   0  0.9038897E-06  0.2420661E+04  0.7818609E-02  0.8431809E-01
       -1   -1    0    0    0  501  0.00000000000E+00  0.00000000000E+00  0.98533998819E+03  0.98533998820E+03  0.50400001928E-02 0.  1.
        1   -1    0    0  501    0  0.00000000000E+00  0.00000000000E+00 -0.14866951641E+04  0.14866951641E+04  0.50400001928E-02 0. -1.
    10030    2    1    2    0    0  0.00000000000E+00  0.00000000000E+00 -0.50135517592E+03  0.24720351523E+04  0.24206612282E+04 0.  0.
        1    1    3    3  502    0 -0.50614116781E+03  0.22186356808E+03 -0.13503304420E+04  0.14590389396E+04  0.50400001928E-02 0. -1.
       -1    1    3    3    0  502  0.50614116781E+03 -0.22186356808E+03  0.84897526608E+03  0.10129962127E+04  0.50400001928E-02 0.  1.
</event>
<event>
 5   0  0.8898848E-06  0.2347913E+04  0.7818609E-02  0.8459266E-01
        1   -1    0    0  501    0  0.00000000000E+00  0.00000000000E+00  0.13972369292E+04  0.13972369292E+04  0.50400001928E-02 0. -1.
       -1   -1    0    0    0  501  0.00000000000E+00  0.00000000000E+00 -0.98635653908E+03  0.98635653909E+03  0.50400001928E-02 0.  1.
    10030    2    1    2    0    0  0.00000000000E+00  0.00000000000E+00  0.41088039009E+03  0.23835934683E+04  0.23479129300E+04 0.  0.
        5    1    3    3  502    0  0.41878040241E+02  0.87834475386E+03  0.99501814609E+03  0.13279030379E+04  0.46999998093E+01 0. -1.
       -5    1    3    3    0  502 -0.41878040241E+02 -0.87834475386E+03 -0.58413775600E+03  0.10556904304E+04  0.46999998093E+01 0.  1.
</event>
<event>
 5   0  0.9083687E-06  0.2407519E+04  0.7818609E-02  0.8436694E-01
        1   -1    0    0  501    0  0.00000000000E+00  0.00000000000E+00  0.14298377857E+04  0.14298377858E+04  0.50400001928E-02 0.  1.
       -1   -1    0    0    0  501  0.00000000000E+00  0.00000000000E+00 -0.10134277678E+04  0.10134277678E+04  0.50400001928E-02 0. -1.
    10030    2    1    2    0    0  0.00000000000E+00  0.00000000000E+00  0.41641001794E+03  0.24432655536E+04  0.24075193171E+04 0.  0.
        2    1    3    3  502    0 -0.98366800084E+03 -0.47952460532E+03 -0.30072948229E+03  0.11348941821E+04  0.25500000920E-02 0. -1.
       -2    1    3    3    0  502  0.98366800084E+03  0.47952460532E+03  0.71713950023E+03  0.13083713715E+04  0.25500000920E-02 0.  1.
</event>
<event>
 5   0  0.9083687E-06  0.2366651E+04  0.7818609E-02  0.8452095E-01
        1   -1    0    0  501    0  0.00000000000E+00  0.00000000000E+00  0.10929023210E+04  0.10929023210E+04  0.50400001928E-02 0.  1.
       -1   -1    0    0    0  501  0.00000000000E+00  0.00000000000E+00 -0.12812303880E+04  0.12812303880E+04  0.50400001928E-02 0. -1.
    10030    2    1    2    0    0  0.00000000000E+00  0.00000000000E+00 -0.18832806699E+03  0.23741327090E+04  0.23666513599E+04 0.  0.
        2    1    3    3  502    0 -0.79771655052E+03 -0.48174700432E+03 -0.82573459549E+03  0.12450981862E+04  0.25500000920E-02 0. -1.
       -2    1    3    3    0  502  0.79771655052E+03  0.48174700432E+03  0.63740652850E+03  0.11290345228E+04  0.25500000920E-02 0.  1.
</event>
<event>
 5   0  0.8898848E-06  0.2399641E+04  0.7818609E-02  0.8439638E-01
       -1   -1    0    0    0  501  0.00000000000E+00  0.00000000000E+00  0.67879483047E+03  0.67879483049E+03  0.50400001928E-02 0. -1.
        1   -1    0    0  501    0  0.00000000000E+00  0.00000000000E+00 -0.21207719344E+04  0.21207719344E+04  0.50400001928E-02 0.  1.
    10030    2    1    2    0    0  0.00000000000E+00  0.00000000000E+00 -0.14419771039E+04  0.27995667649E+04  0.23996408279E+04 0.  0.
        5    1    3    3  502    0  0.10280463755E+04  0.40860533404E+03 -0.12628384398E+04  0.16788748268E+04  0.46999998093E+01 0.  1.
       -5    1    3    3    0  502 -0.10280463755E+04 -0.40860533404E+03 -0.17913866414E+03  0.11206919381E+04  0.46999998093E+01 0. -1.
</event>
<event>
 5   0  0.8898848E-06  0.2402146E+04  0.7818609E-02  0.8438701E-01
       -1   -1    0    0    0  501  0.00000000000E+00  0.00000000000E+00  0.11958277209E+04  0.11958277209E+04  0.50400001928E-02 0.  1.
        1   -1    0    0  501    0  0.00000000000E+00  0.00000000000E+00 -0.12063414042E+04  0.12063414043E+04  0.50400001928E-02 0. -1.
    10030    2    1    2    0    0  0.00000000000E+00  0.00000000000E+00 -0.10513683333E+02  0.24021691252E+04  0.24021461172E+04 0.  0.
        5    1    3    3  502    0  0.71539049248E+03  0.96472811555E+03 -0.13653852610E+02  0.12011213142E+04  0.46999998093E+01 0. -1.
       -5    1    3    3    0  502 -0.71539049248E+03 -0.96472811555E+03  0.31401692765E+01  0.12010478110E+04  0.46999998093E+01 0.  1.
</event>
<event>
 5   0  0.9083687E-06  0.2349059E+04  0.7818609E-02  0.8458825E-01
       -1   -1    0    0    0  501  0.00000000000E+00  0.00000000000E+00  0.84476303446E+03  0.84476303448E+03  0.50400001928E-02 0. -1.
        1   -1    0    0  501    0  0.00000000000E+00  0.00000000000E+00 -0.16330248238E+04  0.16330248238E+04  0.50400001928E-02 0.  1.
    10030    2    1    2    0    0  0.00000000000E+00  0.00000000000E+00 -0.78826178935E+03  0.24777878583E+04  0.23490585395E+04 0.  0.
        2    1    3    3  502    0 -0.92909701556E+03  0.43261125579E+03  0.21102054646E+03  0.10463763348E+04  0.25500000920E-02 0. -1.
       -2    1    3    3    0  502  0.92909701556E+03 -0.43261125579E+03 -0.99928233581E+03  0.14314115235E+04  0.25500000920E-02 0.  1.
</event>
<event>
 5   0  0.9083687E-06  0.2403079E+04  0.7818609E-02  0.8438352E-01
        1   -1    0    0  501    0  0.00000000000E+00  0.00000000000E+00  0.26726869739E+04  0.26726869739E+04  0.50400001928E-02 0. -1.
       -1   -1    0    0    0  501  0.00000000000E+00  0.00000000000E+00 -0.54016707834E+03  0.54016707837E+03  0.50400001928E-02 0.  1.
    10030    2    1    2    0    0  0.00000000000E+00  0.00000000000E+00  0.21325198955E+04  0.32128540523E+04  0.24030792863E+04 0.  0.
        2    1    3    3  502    0  0.10144510135E+04  0.57876000710E+03  0.14435223755E+04  0.18568335556E+04  0.25500000920E-02 0. -1.
       -2    1    3    3    0  502 -0.10144510135E+04 -0.57876000710E+03  0.68899752003E+03  0.13560204966E+04  0.25500000920E-02 0.  1.
</event>
<event>
 5   0  0.7233625E-06  0.2397639E+04  0.7818609E-02  0.8440388E-01
        4   -1    0    0  501    0  0.00000000000E+00  0.00000000000E+00  0.10353191292E+04  0.10353199081E+04  0.12699999809E+01 0.  1.
       -4   -1    0    0    0  501  0.00000000000E+00  0.00000000000E+00 -0.13881388318E+04  0.13881394127E+04  0.12699999809E+01 0. -1.
    10030    2    1    2    0    0  0.00000000000E+00  0.00000000000E+00 -0.35281970261E+03  0.24234593208E+04  0.23976391174E+04 0.  0.
        4    1    3    3  502    0  0.20578558355E+03  0.11807493182E+04 -0.20218074467E+03  0.12154815199E+04  0.12699999809E+01 0. -1.
       -4    1    3    3    0  502 -0.20578558355E+03 -0.11807493182E+04 -0.15063895794E+03  0.12079778009E+04  0.12699999809E+01 0.  1.
</event>
<event>
 5   0  0.2080257E-05  0.2389072E+04  0.7818609E-02  0.8443606E-01
       -2   -1    0    0    0  501  0.00000000000E+00  0.00000000000E+00  0.77428664389E+03  0.77428664390E+03  0.25500000920E-02 0.  1.
        2   -1    0    0  501    0  0.00000000000E+00  0.00000000000E+00 -0.18428783721E+04  0.18428783721E+04  0.25500000920E-02 0. -1.
    10030    2    1    2    0    0  0.00000000000E+00  0.00000000000E+00 -0.10685917283E+04  0.26171650160E+04  0.23890718783E+04 0.  0.
        1    1    3    3  502    0 -0.45304217929E+03 -0.58561322283E+03  0.49260528548E+03  0.88929749256E+03  0.50400001928E-02 0.  1.
       -1    1    3    3    0  502  0.45304217929E+03  0.58561322283E+03 -0.15611970137E+04  0.17278675235E+04  0.50400001928E-02 0. -1.
</event>
<event>
 5   0  0.8898848E-06  0.2398764E+04  0.7818609E-02  0.8439966E-01
        1   -1    0    0  501    0  0.00000000000E+00  0.00000000000E+00  0.11967019413E+04  0.11967019413E+04  0.50400001928E-02 0. -1.
       -1   -1    0    0    0  501  0.00000000000E+00  0.00000000000E+00 -0.12020684652E+04  0.12020684653E+04  0.50400001928E-02 0.  1.
    10030    2    1    2    0    0  0.00000000000E+00  0.00000000000E+00 -0.53665239663E+01  0.23987704065E+04  0.23987644035E+04 0.  0.
        5    1    3    3  502    0 -0.72597082772E+03 -0.63581414827E+03 -0.71486641306E+03  0.12009784979E+04  0.46999998093E+01 0.  1.
       -5    1    3    3    0  502  0.72597082772E+03  0.63581414827E+03  0.70949988909E+03  0.11977919087E+04  0.46999998093E+01 0. -1.
</event>
<event>
 5   0  0.9083687E-06  0.2373743E+04  0.7818609E-02  0.8449400E-01
       -1   -1    0    0    0  501  0.00000000000E+00  0.00000000000E+00  0.70877916958E+03  0.70877916960E+03  0.50400001928E-02 0. -1.
        1   -1    0    0  501    0  0.00000000000E+00  0.00000000000E+00 -0.19874510810E+04  0.19874510811E+04  0.50400001928E-02 0.  1.
    10030    2    1    2    0    0  0.00000000000E+00  0.00000000000E+00 -0.12786719115E+04  0.26962302507E+04  0.23737429742E+04 0.  0.
        2    1    3    3  502    0  0.10183024111E+03  0.77185960490E+03  0.37820801787E+03  0.86555066429E+03  0.25500000920E-02 0. -1.
       -2    1    3    3    0  502 -0.10183024111E+03 -0.77185960490E+03 -0.16568799293E+04  0.18306795864E+04  0.25500000920E-02 0.  1.
</event>
<event>
 5   0  0.9038897E-06  0.2392490E+04  0.7818609E-02  0.8442321E-01
       -1   -1    0    0    0  501  0.00000000000E+00  0.00000000000E+00  0.12460303951E+04  0.12460303951E+04  0.50400001928E-02 0.  1.
        1   -1    0    0  501    0  0.00000000000E+00  0.00000000000E+00 -0.11484487905E+04  0.11484487905E+04  0.50400001928E-02 0. -1.
    10030    2    1    2    0    0  0.00000000000E+00  0.00000000000E+00  0.97581604649E+02  0.23944791856E+04  0.23924900001E+04 0.  0.
        1    1    3    3  502    0  0.35536327283E+03  0.26011118391E+03  0.11619480817E+04  0.12426038099E+04  0.50400001928E-02 0.  1.
       -1    1    3    3    0  502 -0.35536327283E+03 -0.26011118391E+03 -0.10643664771E+04  0.11518753757E+04  0.50400001928E-02 0. -1.
</event>
<event>
 5   0  0.2048028E-05  0.2395865E+04  0.7818609E-02  0.8441053E-01
       -2   -1    0    0    0  501  0.00000000000E+00  0.00000000000E+00  0.61234486705E+03  0.61234486705E+03  0.25500000920E-02 0. -1.
        2   -1    0    0  501    0  0.00000000000E+00  0.00000000000E+00 -0.23435201126E+04  0.23435201126E+04  0.25500000920E-02 0.  1.
    10030    2    1    2    0    0  0.00000000000E+00  0.00000000000E+00 -0.17311752455E+04  0.29558649796E+04  0.23958651980E+04 0.  0.
        5    1    3    3  502    0 -0.30976488372E+03  0.57753151202E+03 -0.21027261261E+04  0.22024931741E+04  0.46999998093E+01 0.  1.
       -5    1    3    3    0  502  0.30976488372E+03 -0.57753151202E+03  0.37155088055E+03  0.75337180555E+03  0.46999998093E+01 0. -1.
</event>
<event>
 5   0  0.2048028E-05  0.2394585E+04  0.7818609E-02  0.8441534E-01
        2   -1    0    0  501    0  0.00000000000E+00  0.00000000000E+00  0.19164617150E+04  0.19164617150E+04  0.25500000920E-02 0.  1.
       -2   -1    0    0    0  501  0.00000000000E+00  0.00000000000E+00 -0.74799788154E+03  0.74799788155E+03  0.25500000920E-02 0. -1.
    10030    2    1    2    0    0  0.00000000000E+00  0.00000000000E+00  0.11684638334E+04  0.26644595965E+04  0.23945849769E+04 0.  0.
        5    1    3    3  502    0 -0.16905113547E+03 -0.11843062368E+04  0.53054864031E+03  0.13086877010E+04  0.46999998093E+01 0.  1.
       -5    1    3    3    0  502  0.16905113547E+03  0.11843062368E+04  0.63791519312E+03  0.13557718955E+04  0.46999998093E+01 0. -1.
</event>
<event>
 5   0  0.2025353E-05  0.2387411E+04  0.7818609E-02  0.8444232E-01
        2   -1    0    0  501    0  0.00000000000E+00  0.00000000000E+00  0.15191579197E+04  0.15191579197E+04  0.25500000920E-02 0. -1.
       -2   -1    0    0    0  501  0.00000000000E+00  0.00000000000E+00 -0.93797552409E+03  0.93797552409E+03  0.25500000920E-02 0.  1.
    10030    2    1    2    0    0  0.00000000000E+00  0.00000000000E+00  0.58118239558E+03  0.24571334438E+04  0.23874111048E+04 0.  0.
        4    1    3    3  502    0  0.53489466534E+03  0.26040946164E+02 -0.80740174431E+03  0.96885996072E+03  0.12699999809E+01 0.  1.
       -4    1    3    3    0  502 -0.53489466534E+03 -0.26040946164E+02  0.13885841399E+04  0.14882734830E+04  0.12699999809E+01 0. -1.
</event>
<event>
 5   0  0.8898848E-06  0.2390465E+04  0.7818609E-02  0.8443082E-01
       -1   -1    0    0    0  501  0.00000000000E+00  0.00000000000E+00  0.88472821344E+03  0.88472821346E+03  0.50400001928E-02 0. -1.
        1   -1    0    0  501    0  0.00000000000E+00  0.00000000000E+00 -0.16147112506E+04  0.16147112507E+04  0.50400001928E-02 0.  1.
    10030    2    1    2    0    0  0.00000000000E+00  0.00000000000E+00 -0.72998303720E+03  0.24994394641E+04  0.23904648921E+04 0.  0.
        5    1    3    3  502    0  0.55142928596E+03 -0.72147331581E+03 -0.11775685150E+04  0.14870399122E+04  0.46999998093E+01 0.  1.
       -5    1    3    3    0  502 -0.55142928596E+03  0.72147331581E+03  0.44758547780E+03  0.10123995519E+04  0.46999998093E+01 0. -1.
</event>
<event>
 5   0  0.2087882E-05  0.2413410E+04  0.7818609E-02  0.8434500E-01
       -2   -1    0    0    0  501  0.00000000000E+00  0.00000000000E+00  0.77846357557E+03  0.77846357557E+03  0.25500000920E-02 0. -1.
        2   -1    0    0  501    0  0.00000000000E+00  0.00000000000E+00 -0.18705269504E+04  0.18705269504E+04  0.25500000920E-02 0.  1.
    10030    2    1    2    0    0  0.00000000000E+00  0.00000000000E+00 -0.10920633748E+04  0.26489905260E+04  0.24134101168E+04 0.  0.
        2    1    3    3  502    0 -0.10043335039E+04 -0.59101632881E+03 -0.20215980761E+03  0.11827318698E+04  0.25500000920E-02 0. -1.
       -2    1    3    3    0  502  0.10043335039E+04  0.59101632881E+03 -0.88990356720E+03  0.14662586562E+04  0.25500000920E-02 0.  1.
</event>
<event>
 5   0  0.9083687E-06  0.2404597E+04  0.7818609E-02  0.8437785E-01
       -1   -1    0    0    0  501  0.00000000000E+00  0.00000000000E+00  0.86720888371E+03  0.86720888373E+03  0.50400001928E-02 0.  1.
        1   -1    0    0  501    0  0.00000000000E+00  0.00000000000E+00 -0.16668666111E+04  0.16668666111E+04  0.50400001928E-02 0. -1.
    10030    2    1    2    0    0  0.00000000000E+00  0.00000000000E+00 -0.79965772743E+03  0.25340754949E+04  0.24045968753E+04 0.  0.
        2    1    3    3  502    0 -0.10749976171E+03  0.11541331855E+04 -0.73630454792E+03  0.13732166602E+04  0.25500000920E-02 0. -1.
       -2    1    3    3    0  502  0.10749976171E+03 -0.11541331855E+04 -0.63353179514E+02  0.11608588347E+04  0.25500000920E-02 0.  1.
</event>
<event>
 5   0  0.2087882E-05  0.2393611E+04  0.7818609E-02  0.8441899E-01
        2   -1    0    0  501    0  0.00000000000E+00  0.00000000000E+00  0.20712275666E+04  0.20712275666E+04  0.25500000920E-02 0. -1.
       -2   -1    0    0    0  501  0.00000000000E+00  0.00000000000E+00 -0.69154344170E+03  0.69154344170E+03  0.25500000920E-02 0.  1.
    10030    2    1    2    0    0  0.00000000000E+00  0.00000000000E+00  0.13796841249E+04  0.27627710083E+04  0.23936113636E+04 0.  0.
        2    1    3    3  502    0  0.39411305916E+02  0.10495974085E+04  0.27657794073E+02  0.10507011586E+04  0.25500000920E-02 0.  1.
       -2    1    3    3    0  502 -0.39411305916E+02 -0.10495974085E+04  0.13520263308E+04  0.17120698497E+04  0.25500000920E-02 0. -1.
</event>
<event>
 5   0  0.8898848E-06  0.2463624E+04  0.7818609E-02  0.8416061E-01
        1   -1    0    0  501    0  0.00000000000E+00  0.00000000000E+00  0.14149122599E+04  0.14149122599E+04  0.50400001928E-02 0.  1.
       -1   -1    0    0    0  501  0.00000000000E+00  0.00000000000E+00 -0.10724061102E+04  0.10724061102E+04  0.50400001928E-02 0. -1.
    10030    2    1    2    0    0  0.00000000000E+00  0.00000000000E+00  0.34250614974E+03  0.24873183701E+04  0.24636237967E+04 0.  0.
        5    1    3    3  502    0  0.87850570981E+03  0.68769962526E+03 -0.35591380198E+03  0.11710677953E+04  0.46999998093E+01 0.  1.
       -5    1    3    3    0  502 -0.87850570981E+03 -0.68769962526E+03  0.69841995172E+03  0.13162505748E+04  0.46999998093E+01 0. -1.
</event>
<event>
 5   0  0.2025353E-05  0.2394220E+04  0.7818609E-02  0.8441671E-01
       -2   -1    0    0    0  501  0.00000000000E+00  0.00000000000E+00  0.71332226057E+03  0.71332226057E+03  0.25500000920E-02 0.  1.
        2   -1    0    0  501    0  0.00000000000E+00  0.00000000000E+00 -0.20090111100E+04  0.20090111100E+04  0.25500000920E-02 0. -1.
    10030    2    1    2    0    0  0.00000000000E+00  0.00000000000E+00 -0.12956888495E+04  0.27223333706E+04  0.23942199953E+04 0.  0.
        4    1    3    3  502    0 -0.10002356736E+04  0.38779859499E+03 -0.12518829921E+04  0.16486575727E+04  0.12699999809E+01 0. -1.
       -4    1    3    3    0  502  0.10002356736E+04 -0.38779859499E+03 -0.43805857324E+02  0.10736757979E+04  0.12699999809E+01 0.  1.
</event>
<event>
 5   0  0.9038897E-06  0.2390534E+04  0.7818609E-02  0.8443056E-01
        1   -1    0    0  501    0  0.00000000000E+00  0.00000000000E+00  0.12733300575E+04  0.12733300575E+04  0.50400001928E-02 0.  1.
       -1   -1    0    0    0  501  0.00000000000E+00  0.00000000000E+00 -0.11219899794E+04  0.11219899794E+04  0.50400001928E-02 0. -1.
    10030    2    1    2    0    0  0.00000000000E+00  0.00000000000E+00  0.15134007813E+03  0.23953200369E+04  0.23905343043E+04 0.  0.
        1    1    3    3  502    0  0.54446361156E+03 -0.83148392246E+03 -0.58963015199E+03  0.11556253086E+04  0.50400001928E-02 0. -1.
       -1    1    3    3    0  502 -0.54446361156E+03  0.83148392246E+03  0.74097023012E+03  0.12396947284E+04  0.50400001928E-02 0.  1.
</event>
<event>
 5   0  0.8898848E-06  0.2408380E+04  0.7818609E-02  0.8436373E-01
       -1   -1    0    0    0  501  0.00000000000E+00  0.00000000000E+00  0.91477341751E+03  0.91477341753E+03  0.50400001928E-02 0.  1.
        1   -1    0    0  501    0  0.00000000000E+00  0.00000000000E+00 -0.15851727115E+04  0.15851727115E+04  0.50400001928E-02 0. -1.
    10030    2    1    2    0    0  0.00000000000E+00  0.00000000000E+00 -0.67039929397E+03  0.24999461290E+04  0.24083802513E+04 0.  0.
        5    1    3    3  502    0  0.33458684500E+03 -0.11086085453E+04  0.76463389743E+01  0.11580336006E+04  0.46999998093E+01 0. -1.
       -5    1    3    3    0  502 -0.33458684500E+03  0.11086085453E+04 -0.67804563294E+03  0.13419125284E+04  0.46999998093E+01 0.  1.
</event>
<event>
 5   0  0.8528103E-06  0.2408365E+04  0.7818609E-02  0.8436378E-01
        1   -1    0    0  501    0  0.00000000000E+00  0.00000000000E+00  0.47895503377E+03  0.47895503380E+03  0.50400001928E-02 0. -1.
       -1   -1    0    0    0  501  0.00000000000E+00  0.00000000000E+00 -0.30275398872E+04  0.30275398872E+04  0.50400001928E-02 0.  1.
    10030    2    1    2    0    0  0.00000000000E+00  0.00000000000E+00 -0.25485848535E+04  0.35064949210E+04  0.24083649798E+04 0.  0.
        4    1    3    3  502    0 -0.13778845630E+03  0.10644316387E+04 -0.20691659151E+04  0.23309760980E+04  0.12699999809E+01 0.  1.
       -4    1    3    3    0  502  0.13778845630E+03 -0.10644316387E+04 -0.47941893833E+03  0.11755188231E+04  0.12699999809E+01 0. -1.
</event>
<event>
 5   0  0.2087882E-05  0.2405793E+04  0.7818609E-02  0.8437338E-01
       -2   -1    0    0    0  501  0.00000000000E+00  0.00000000000E+00  0.17893893976E+04  0.17893893976E+04  0.25500000920E-02 0.  1.
        2   -1    0    0  501    0  0.00000000000E+00  0.00000000000E+00 -0.80863369334E+03  0.80863369334E+03  0.25500000920E-02 0. -1.
    10030    2    1    2    0    0  0.00000000000E+00  0.00000000000E+00  0.98075570427E+03  0.25980230910E+04  0.24057934719E+04 0.  0.
        2    1    3    3  502    0  0.37853368849E+03 -0.96735302021E+03  0.11453911431E+04  0.15462795639E+04  0.25500000920E-02 0. -1.
       -2    1    3    3    0  502 -0.37853368849E+03  0.96735302021E+03 -0.16463543880E+03  0.10517435271E+04  0.25500000920E-02 0.  1.
</event>
<event>
 5   0  0.2080257E-05  0.2396236E+04  0.7818609E-02  0.8440914E-01
       -2   -1    0    0    0  501  0.00000000000E+00  0.00000000000E+00  0.11689076963E+04  0.11689076963E+04  0.25500000920E-02 0.  1.
        2   -1    0    0  501    0  0.00000000000E+00  0.00000000000E+00 -0.12280585369E+04  0.12280585369E+04  0.25500000920E-02 0. -1.
    10030    2    1    2    0    0  0.00000000000E+00  0.00000000000E+00 -0.59150840660E+02  0.23969662332E+04  0.23962362782E+04 0.  0.
        1    1    3    3  502    0  0.98831259047E+03  0.13274351215E+03 -0.69393469295E+03  0.12148777612E+04  0.50400001928E-02 0. -1.
       -1    1    3    3    0  502 -0.98831259047E+03 -0.13274351215E+03  0.63478385229E+03  0.11820884720E+04  0.50400001928E-02 0.  1.
</event>
<event>
 5   0  0.8898848E-06  0.2387515E+04  0.7818609E-02  0.8444193E-01
        1   -1    0    0  501    0  0.00000000000E+00  0.00000000000E+00  0.96542367783E+03  0.96542367785E+03  0.50400001928E-02 0.  1.
       -1   -1    0    0    0  501  0.00000000000E+00  0.00000000000E+00 -0.14760949763E+04  0.14760949763E+04  0.50400001928E-02 0. -1.
    10030    2    1    2    0    0  0.00000000000E+00  0.00000000000E+00 -0.51067129843E+03  0.24415186541E+04  0.23875150603E+04 0.  0.
        5    1    3    3  502    0  0.48368140049E+03  0.13157168969E+03 -0.13632509657E+04  0.14524923725E+04  0.46999998093E+01 0. -1.
       -5    1    3    3    0  502 -0.48368140049E+03 -0.13157168969E+03  0.85257966726E+03  0.98902628162E+03  0.46999998093E+01 0.  1.
</event>
<event>
 5   0  0.2048028E-05  0.2382594E+04  0.7818609E-02  0.8446049E-01
       -2   -1    0    0    0  501  0.00000000000E+00  0.00000000000E+00  0.11711429620E+04  0.11711429620E+04  0.25500000920E-02 0. -1.
        2   -1    0    0  501    0  0.00000000000E+00  0.00000000000E+00 -0.12117979997E+04  0.12117979997E+04  0.25500000920E-02 0.  1.
    10030    2    1    2    0    0  0.00000000000E+00  0.00000000000E+00 -0.40655037643E+02  0.23829409617E+04  0.23825941314E+04 0.  0.
        5    1    3    3  502    0 -0.30240378065E+03  0.13208564887E+03 -0.11651652539E+04  0.12110024046E+04  0.46999998093E+01 0.  1.
       -5    1    3    3    0  502  0.30240378065E+03 -0.13208564887E+03  0.11245102162E+04  0.11719385571E+04  0.46999998093E+01 0. -1.
</event>
<event>
 5   0  0.2048028E-05  0.2398917E+04  0.7818609E-02  0.8439909E-01
       -2   -1    0    0    0  501  0.00000000000E+00  0.00000000000E+00  0.14805900645E+04  0.14805900645E+04  0.25500000920E-02 0.  1.
        2   -1    0    0  501    0  0.00000000000E+00  0.00000000000E+00 -0.97170739724E+03  0.97170739724E+03  0.25500000920E-02 0. -1.
    10030    2    1    2    0    0  0.00000000000E+00  0.00000000000E+00  0.50888266730E+03  0.24522974618E+04  0.23989166872E+04 0.  0.
        5    1    3    3  502    0  0.10220255144E+04  0.37555028868E+03 -0.25984802233E+03  0.11194272000E+04  0.46999998093E+01 0.  1.
       -5    1    3    3    0  502 -0.10220255144E+04 -0.37555028868E+03  0.76873068963E+03  0.13328702617E+04  0.46999998093E+01 0. -1.
</event>
<event>
 5   0  0.2048028E-05  0.2391039E+04  0.7818609E-02  0.8442866E-01
        2   -1    0    0  501    0  0.00000000000E+00  0.00000000000E+00  0.26778949507E+04  0.26778949507E+04  0.25500000920E-02 0. -1.
       -2   -1    0    0    0  501  0.00000000000E+00  0.00000000000E+00 -0.53372764006E+03  0.53372764007E+03  0.25500000920E-02 0.  1.
    10030    2    1    2    0    0  0.00000000000E+00  0.00000000000E+00  0.21441673106E+04  0.32116225908E+04  0.23910387302E+04 0.  0.
        5    1    3    3  502    0 -0.91934273864E+03 -0.25929548919E+03  0.10646148157E+03  0.96113545292E+03  0.46999998093E+01 0. -1.
       -5    1    3    3    0  502  0.91934273864E+03  0.25929548919E+03  0.20377058291E+04  0.22504871379E+04  0.46999998093E+01 0.  1.
</event>
<event>
 5   0  0.9038897E-06  0.2395843E+04  0.7818609E-02  0.8441062E-01
       -1   -1    0    0    0  501  0.00000000000E+00  0.00000000000E+00  0.13765308345E+04  0.13765308345E+04  0.50400001928E-02 0. -1.
        1   -1    0    0  501    0  0.00000000000E+00  0.00000000000E+00 -0.10424871940E+04  0.10424871941E+04  0.50400001928E-02 0.  1.
    10030    2    1    2    0    0  0.00000000000E+00  0.00000000000E+00  0.33404364049E+03  0.24190180286E+04  0.23958428723E+04 0.  0.
        1    1    3    3  502    0 -0.48305039647E+03 -0.10469729119E+04  0.49501144551E+03  0.12548012970E+04  0.50400001928E-02 0. -1.
       -1    1    3    3    0  502  0.48305039647E+03  0.10469729119E+04 -0.16096780502E+03  0.11642167316E+04  0.50400001928E-02 0.  1.
</event>
<event>
 5   0  0.2025353E-05  0.2403629E+04  0.7818609E-02  0.8438146E-01
       -2   -1    0    0    0  501  0.00000000000E+00  0.00000000000E+00  0.53120733636E+03  0.53120733637E+03  0.25500000920E-02 0.  1.
        2   -1    0    0  501    0  0.00000000000E+00  0.00000000000E+00 -0.27190094171E+04  0.27190094171E+04  0.25500000920E-02 0. -1.
    10030    2    1    2    0    0  0.00000000000E+00  0.00000000000E+00 -0.21878020807E+04  0.32502167534E+04  0.24036287151E+04 0.  0.
        4    1    3    3  502    0  0.66498750934E+03  0.95367586109E+03 -0.68230812514E+03  0.13480549047E+04  0.12699999809E+01 0.  1.
       -4    1    3    3    0  502 -0.66498750934E+03 -0.95367586109E+03 -0.15054939556E+04  0.19021618487E+04  0.12699999809E+01 0. -1.
</event>
<event>
 5   0  0.9038897E-06  0.2391716E+04  0.7818609E-02  0.8442611E-01
        1   -1    0    0  501    0  0.00000000000E+00  0.00000000000E+00  0.20535552935E+04  0.20535552935E+04  0.50400001928E-02 0. -1.
       -1   -1    0    0    0  501  0.00000000000E+00  0.00000000000E+00 -0.69639075373E+03  0.69639075375E+03  0.50400001928E-02 0.  1.
    10030    2    1    2    0    0  0.00000000000E+00  0.00000000000E+00  0.13571645397E+04  0.27499460472E+04  0.23917164704E+04 0.  0.
        1    1    3    3  502    0 -0.87557333184E+03 -0.55980822524E+03  0.13588620935E+04  0.17107074845E+04  0.50400001928E-02 0. -1.
       -1    1    3    3    0  502  0.87557333184E+03  0.55980822524E+03 -0.16975537639E+01  0.10392385627E+04  0.50400001928E-02 0.  1.
</event>
<event>
 5   0  0.9038897E-06  0.2360903E+04  0.7818609E-02  0.8454288E-01
       -1   -1    0    0    0  501  0.00000000000E+00  0.00000000000E+00  0.20366593610E+04  0.20366593610E+04  0.50400001928E-02 0.  1.
        1   -1    0    0  501    0  0.00000000000E+00  0.00000000000E+00 -0.68419194373E+03  0.68419194375E+03  0.50400001928E-02 0. -1.
    10030    2    1    2    0    0  0.00000000000E+00  0.00000000000E+00  0.13524674173E+04  0.27208513048E+04  0.23609031551E+04 0.  0.
        1    1    3    3  502    0  0.19268046854E+03  0.18358974975E+03  0.20016327000E+04  0.20192484802E+04  0.50400001928E-02 0.  1.
       -1    1    3    3    0  502 -0.19268046854E+03 -0.18358974975E+03 -0.64916528269E+03  0.70160282457E+03  0.50400001928E-02 0. -1.
</event>
<event>
 5   0  0.9083687E-06  0.2392336E+04  0.7818609E-02  0.8442378E-01
       -1   -1    0    0    0  501  0.00000000000E+00  0.00000000000E+00  0.14311263319E+04  0.14311263319E+04  0.50400001928E-02 0. -1.
        1   -1    0    0  501    0  0.00000000000E+00  0.00000000000E+00 -0.99978457494E+03  0.99978457495E+03  0.50400001928E-02 0.  1.
    10030    2    1    2    0    0  0.00000000000E+00  0.00000000000E+00  0.43134175700E+03  0.24309109069E+04  0.23923361231E+04 0.  0.
        2    1    3    3  502    0  0.43095013149E+03  0.44142808469E+03  0.12570080774E+04  0.14002307226E+04  0.25500000920E-02 0. -1.
       -2    1    3    3    0  502 -0.43095013149E+03 -0.44142808469E+03 -0.82566632038E+03  0.10306801843E+04  0.25500000920E-02 0.  1.
</event>
<event>
 5   0  0.2025353E-05  0.2344152E+04  0.7818609E-02  0.8460713E-01
        2   -1    0    0  501    0  0.00000000000E+00  0.00000000000E+00  0.97174315326E+03  0.97174315327E+03  0.25500000920E-02 0. -1.
       -2   -1    0    0    0  501  0.00000000000E+00  0.00000000000E+00 -0.14137086915E+04  0.14137086915E+04  0.25500000920E-02 0.  1.
    10030    2    1    2    0    0  0.00000000000E+00  0.00000000000E+00 -0.44196553825E+03  0.23854518448E+04  0.23441516518E+04 0.  0.
        4    1    3    3  502    0 -0.46194195678E+03 -0.10104803211E+04  0.15882109786E+03  0.11223576100E+04  0.12699999809E+01 0.  1.
       -4    1    3    3    0  502  0.46194195678E+03  0.10104803211E+04 -0.60078663611E+03  0.12630942347E+04  0.12699999809E+01 0. -1.
</event>
<event>
 5   0  0.8528103E-06  0.2378061E+04  0.7818609E-02  0.8447763E-01
        1   -1    0    0  501    0  0.00000000000E+00  0.00000000000E+00  0.16720722427E+04  0.16720722427E+04  0.50400001928E-02 0. -1.
       -1   -1    0    0    0  501  0.00000000000E+00  0.00000000000E+00 -0.84553384807E+03  0.84553384808E+03  0.50400001928E-02 0.  1.
    10030    2    1    2    0    0  0.00000000000E+00  0.00000000000E+00  0.82653839467E+03  0.25176060908E+04  0.23780611243E+04 0.  0.
        4    1    3    3  502    0 -0.55812076639E+03  0.77360898963E+03 -0.33818671562E+03  0.10120975873E+04  0.12699999809E+01 0.  1.
       -4    1    3    3    0  502  0.55812076639E+03 -0.77360898963E+03  0.11647251103E+04  0.15055085035E+04  0.12699999809E+01 0. -1.
</event>
<event>
 5   0  0.9176817E-06  0.2394376E+04  0.7818609E-02  0.8441612E-01
        1   -1    0    0  501    0  0.00000000000E+00  0.00000000000E+00  0.23648939491E+04  0.23648939491E+04  0.50400001928E-02 0.  1.
       -1   -1    0    0    0  501  0.00000000000E+00  0.00000000000E+00 -0.60605662050E+03  0.60605662052E+03  0.50400001928E-02 0. -1.
    10030    2    1    2    0    0  0.00000000000E+00  0.00000000000E+00  0.17588373286E+04  0.29709505696E+04  0.23943764405E+04 0.  0.
        3    1    3    3  502    0 -0.33727018771E+03 -0.76862586080E+03 -0.17979641249E+03  0.85840762669E+03  0.10100000352E+00 0. -1.
       -3    1    3    3    0  502  0.33727018771E+03  0.76862586080E+03  0.19386337411E+04  0.21125429429E+04  0.10100000352E+00 0.  1.
</event>
<event>
 5   0  0.2080257E-05  0.2400386E+04  0.7818609E-02  0.8439359E-01
       -2   -1    0    0    0  501  0.00000000000E+00  0.00000000000E+00  0.10386559090E+04  0.10386559090E+04  0.25500000920E-02 0.  1.
        2   -1    0    0  501    0  0.00000000000E+00  0.00000000000E+00 -0.13868531274E+04  0.13868531274E+04  0.25500000920E-02 0. -1.
    10030    2    1    2    0    0  0.00000000000E+00  0.00000000000E+00 -0.34819721840E+03  0.24255090364E+04  0.24003859654E+04 0.  0.
        1    1    3    3  502    0 -0.69746839296E+03 -0.89447411973E+03 -0.57052744205E+03  0.12696643935E+04  0.50400001928E-02 0. -1.
       -1    1    3    3    0  502  0.69746839296E+03  0.89447411973E+03  0.22233022365E+03  0.11558446429E+04  0.50400001928E-02 0.  1.
</event>
<event>
 5   0  0.2048028E-05  0.2365010E+04  0.7818609E-02  0.8452721E-01
        2   -1    0    0  501    0  0.00000000000E+00  0.00000000000E+00  0.13474480009E+04  0.13474480009E+04  0.25500000920E-02 0.  1.
       -2   -1    0    0    0  501  0.00000000000E+00  0.00000000000E+00 -0.10377527462E+04  0.10377527462E+04  0.25500000920E-02 0. -1.
    10030    2    1    2    0    0  0.00000000000E+00  0.00000000000E+00  0.30969525471E+03  0.23852007470E+04  0.23650098209E+04 0.  0.
        5    1    3    3  502    0 -0.59737943082E+03  0.64431910371E+03 -0.64329132549E+03  0.10889697476E+04  0.46999998093E+01 0. -1.
       -5    1    3    3    0  502  0.59737943082E+03 -0.64431910371E+03  0.95298658020E+03  0.12962309994E+04  0.46999998093E+01 0.  1.
</event>
<event>
 5   0  0.8528103E-06  0.2408487E+04  0.7818609E-02  0.8436333E-01
       -1   -1    0    0    0  501  0.00000000000E+00  0.00000000000E+00  0.29262153490E+04  0.29262153490E+04  0.50400001928E-02 0.  1.
        1   -1    0    0  501    0  0.00000000000E+00  0.00000000000E+00 -0.49558958372E+03  0.49558958375E+03  0.50400001928E-02 0. -1.
    10030    2    1    2    0    0  0.00000000000E+00  0.00000000000E+00  0.24306257652E+04  0.34218049327E+04  0.24084865345E+04 0.  0.
        4    1    3    3  502    0  0.44715232023E+02 -0.86613093494E+03  0.28330339316E+02  0.86774792968E+03  0.12699999809E+01 0. -1.
       -4    1    3    3    0  502 -0.44715232023E+02  0.86613093494E+03  0.24022954259E+04  0.25540570030E+04  0.12699999809E+01 0.  1.
</event>
<event>
 5   0  0.2025353E-05  0.2385379E+04  0.7818609E-02  0.8444998E-01
        2   -1    0    0  501    0  0.00000000000E+00  0.00000000000E+00  0.12706719159E+04  0.12706719159E+04  0.25500000920E-02 0.  1.
       -2   -1    0    0    0  501  0.00000000000E+00  0.00000000000E+00 -0.11194929970E+04  0.11194929970E+04  0.25500000920E-02 0. -1.
    10030    2    1    2    0    0  0.00000000000E+00  0.00000000000E+00  0.15117891888E+03  0.23901649129E+04  0.23853790570E+04 0.  0.
        4    1    3    3  502    0  0.40848645530E+02  0.19159191685E+03  0.12544406966E+04  0.12696452846E+04  0.12699999809E+01 0.  1.
       -4    1    3    3    0  502 -0.40848645530E+02 -0.19159191685E+03 -0.11032617777E+04  0.11205196284E+04  0.12699999809E+01 0. -1.
</event>
<event>
 5   0  0.2087882E-05  0.2398438E+04  0.7818609E-02  0.8440089E-01
       -2   -1    0    0    0  501  0.00000000000E+00  0.00000000000E+00  0.74434264288E+03  0.74434264289E+03  0.25500000920E-02 0.  1.
        2   -1    0    0  501    0  0.00000000000E+00  0.00000000000E+00 -0.19320753423E+04  0.19320753423E+04  0.25500000920E-02 0. -1.
    10030    2    1    2    0    0  0.00000000000E+00  0.00000000000E+00 -0.11877326994E+04  0.26764179852E+04  0.23984378804E+04 0.  0.
        2    1    3    3  502    0  0.10235643953E+04  0.61848548256E+03 -0.69316082173E+03  0.13822735938E+04  0.25500000920E-02 0. -1.
       -2    1    3    3    0  502 -0.10235643953E+04 -0.61848548256E+03 -0.49457187768E+03  0.12941443913E+04  0.25500000920E-02 0.  1.
</event>
<event>
 5   0  0.9038897E-06  0.2322860E+04  0.7818609E-02  0.8468962E-01
       -1   -1    0    0    0  501  0.00000000000E+00  0.00000000000E+00  0.25285133725E+04  0.25285133725E+04  0.50400001928E-02 0. -1.
        1   -1    0    0  501    0  0.00000000000E+00  0.00000000000E+00 -0.53348315175E+03  0.53348315177E+03  0.50400001928E-02 0.  1.
    10030    2    1    2    0    0  0.00000000000E+00  0.00000000000E+00  0.19950302207E+04  0.30619965242E+04  0.23228596886E+04 0.  0.
        1    1    3    3  502    0 -0.90920275834E+03 -0.53750973613E+03  0.16342935166E+04  0.19458884014E+04  0.50400001928E-02 0. -1.
       -1    1    3    3    0  502  0.90920275834E+03  0.53750973613E+03  0.36073670415E+03  0.11161081229E+04  0.50400001928E-02 0.  1.
</event>
<event>
 5   0  0.2087882E-05  0.2397763E+04  0.7818609E-02  0.8440341E-01
        2   -1    0    0  501    0  0.00000000000E+00  0.00000000000E+00  0.10118437815E+04  0.10118437815E+04  0.25500000920E-02 0. -1.
       -2   -1    0    0    0  501  0.00000000000E+00  0.00000000000E+00 -0.14204930639E+04  0.14204930639E+04  0.25500000920E-02 0.  1.
    10030    2    1    2    0    0  0.00000000000E+00  0.00000000000E+00 -0.40864928240E+03  0.24323368454E+04  0.23977631854E+04 0.  0.
        2    1    3    3  502    0  0.70644231531E+03  0.41802090765E+03 -0.10907173493E+04  0.13650884807E+04  0.25500000920E-02 0.  1.
       -2    1    3    3    0  502 -0.70644231531E+03 -0.41802090765E+03  0.68206806686E+03  0.10672483647E+04  0.25500000920E-02 0. -1.
</event>
<event>
 5   0  0.9083687E-06  0.2284711E+04  0.7818609E-02  0.8483974E-01
        1   -1    0    0  501    0  0.00000000000E+00  0.00000000000E+00  0.10098955263E+04  0.10098955263E+04  0.50400001928E-02 0. -1.
       -1   -1    0    0    0  501  0.00000000000E+00  0.00000000000E+00 -0.12921889773E+04  0.12921889773E+04  0.50400001928E-02 0.  1.
    10030    2    1    2    0    0  0.00000000000E+00  0.00000000000E+00 -0.28229345096E+03  0.23020845036E+04  0.22847108065E+04 0.  0.
        2    1    3    3  502    0 -0.31635427285E+03 -0.10976291402E+04 -0.15152612489E+03  0.11523150272E+04  0.25500000920E-02 0.  1.
       -2    1    3    3    0  502  0.31635427285E+03  0.10976291402E+04 -0.13076732607E+03  0.11497694764E+04  0.25500000920E-02 0. -1.
</event>
<event>
 5   0  0.8528103E-06  0.2391460E+04  0.7818609E-02  0.8442708E-01
       -1   -1    0    0    0  501  0.00000000000E+00  0.00000000000E+00  0.54241290374E+03  0.54241290376E+03  0.50400001928E-02 0. -1.
        1   -1    0    0  501    0  0.00000000000E+00  0.00000000000E+00 -0.26359448295E+04  0.26359448295E+04  0.50400001928E-02 0.  1.
    10030    2    1    2    0    0  0.00000000000E+00  0.00000000000E+00 -0.20935319258E+04  0.31783577333E+04  0.23914602143E+04 0.  0.
        4    1    3    3  502    0 -0.46127596750E+03 -0.56988086141E+03  0.20862160490E+03  0.76227573838E+03  0.12699999809E+01 0. -1.
       -4    1    3    3    0  502  0.46127596750E+03  0.56988086141E+03 -0.23021535307E+04  0.24160819949E+04  0.12699999809E+01 0.  1.
</event>
<event>
 5   0  0.2080257E-05  0.2395270E+04  0.7818609E-02  0.8441277E-01
       -2   -1    0    0    0  501  0.00000000000E+00  0.00000000000E+00  0.79993050030E+03  0.79993050031E+03  0.25500000920E-02 0. -1.
        2   -1    0    0  501    0  0.00000000000E+00  0.00000000000E+00 -0.17930670621E+04  0.17930670621E+04  0.25500000920E-02 0.  1.
    10030    2    1    2    0    0  0.00000000000E+00  0.00000000000E+00 -0.99313656177E+03  0.25929975624E+04  0.23952695314E+04 0.  0.
        1    1    3    3  502    0 -0.34668205263E+03 -0.73094363492E+03  0.45942886315E+03  0.93034505607E+03  0.50400001928E-02 0. -1.
       -1    1    3    3    0  502  0.34668205263E+03  0.73094363492E+03 -0.14525654249E+04  0.16626525063E+04  0.50400001928E-02 0.  1.
</event>
<event>
 5   0  0.2087882E-05  0.2482792E+04  0.7818609E-02  0.8409142E-01
        2   -1    0    0  501    0  0.00000000000E+00  0.00000000000E+00  0.16435346641E+04  0.16435346641E+04  0.25500000920E-02 0.  1.
       -2   -1    0    0    0  501  0.00000000000E+00  0.00000000000E+00 -0.93765238996E+03  0.93765238996E+03  0.25500000920E-02 0. -1.
    10030    2    1    2    0    0  0.00000000000E+00  0.00000000000E+00  0.70588227414E+03  0.25811870541E+04  0.24827921425E+04 0.  0.
        2    1    3    3  502    0 -0.21694295943E+02 -0.17687273288E+03  0.16301687028E+04  0.16398794485E+04  0.25500000920E-02 0.  1.
       -2    1    3    3    0  502  0.21694295943E+02  0.17687273288E+03 -0.92428642864E+03  0.94130760556E+03  0.25500000920E-02 0. -1.
</event>
<event>
 5   0  0.9038897E-06  0.2400049E+04  0.7818609E-02  0.8439485E-01
        1   -1    0    0  501    0  0.00000000000E+00  0.00000000000E+00  0.81514148514E+03  0.81514148516E+03  0.50400001928E-02 0.  1.
       -1   -1    0    0    0  501  0.00000000000E+00  0.00000000000E+00 -0.17666368070E+04  0.17666368070E+04  0.50400001928E-02 0. -1.
    10030    2    1    2    0    0  0.00000000000E+00  0.00000000000E+00 -0.95149532186E+03  0.25817782922E+04  0.24000491250E+04 0.  0.
        1    1    3    3  502    0 -0.81431429704E+03 -0.36778072883E+03 -0.13374572898E+04  0.16084658657E+04  0.50400001928E-02 0. -1.
       -1    1    3    3    0  502  0.81431429704E+03  0.36778072883E+03  0.38596196797E+03  0.97331242651E+03  0.50400001928E-02 0.  1.
</event>
<event>
 5   0  0.9083687E-06  0.2392689E+04  0.7818609E-02  0.8442246E-01
        1   -1    0    0  501    0  0.00000000000E+00  0.00000000000E+00  0.17128271394E+04  0.17128271395E+04  0.50400001928E-02 0. -1.
       -1   -1    0    0    0  501  0.00000000000E+00  0.00000000000E+00 -0.83560117957E+03  0.83560117958E+03  0.50400001928E-02 0.  1.
    10030    2    1    2    0    0  0.00000000000E+00  0.00000000000E+00  0.87722595988E+03  0.25484283190E+04  0.23926891801E+04 0.  0.
        2    1    3    3  502    0  0.89137580280E+03  0.72186947200E+03  0.76491885970E+02  0.11495639891E+04  0.25500000920E-02 0.  1.
       -2    1    3    3    0  502 -0.89137580280E+03 -0.72186947200E+03  0.80073407391E+03  0.13988643299E+04  0.25500000920E-02 0. -1.
</event>
<event>
 5   0  0.2080257E-05  0.2604619E+04  0.7818609E-02  0.8366634E-01
        2   -1    0    0  501    0  0.00000000000E+00  0.00000000000E+00  0.21472980747E+04  0.21472980747E+04  0.25500000920E-02 0.  1.
       -2   -1    0    0    0  501  0.00000000000E+00  0.00000000000E+00 -0.78983452523E+03  0.78983452524E+03  0.25500000920E-02 0. -1.
    10030    2    1    2    0    0  0.00000000000E+00  0.00000000000E+00  0.13574635495E+04  0.29371325999E+04  0.26046190934E+04 0.  0.
        1    1    3    3  502    0  0.10353442187E+04  0.61600247820E+03  0.12100755950E+03  0.12108011950E+04  0.50400001928E-02 0.  1.
       -1    1    3    3    0  502 -0.10353442187E+04 -0.61600247820E+03  0.12364559900E+04  0.17263314049E+04  0.50400001928E-02 0. -1.
</event>
<event>
 5   0  0.9083687E-06  0.2388183E+04  0.7818609E-02  0.8443941E-01
       -1   -1    0    0    0  501  0.00000000000E+00  0.00000000000E+00  0.76700363527E+03  0.76700363529E+03  0.50400001928E-02 0.  1.
        1   -1    0    0  501    0  0.00000000000E+00  0.00000000000E+00 -0.18589938438E+04  0.18589938438E+04  0.50400001928E-02 0. -1.
    10030    2    1    2    0    0  0.00000000000E+00  0.00000000000E+00 -0.10919902086E+04  0.26259974791E+04  0.23881834404E+04 0.  0.
        2    1    3    3  502    0  0.20967336207E+03 -0.10943930729E+04 -0.10179131933E+04  0.15092403341E+04  0.25500000920E-02 0. -1.
       -2    1    3    3    0  502 -0.20967336207E+03  0.10943930729E+04 -0.74077015276E+02  0.11167571451E+04  0.25500000920E-02 0.  1.
</event>
<event>
 5   0  0.9176817E-06  0.2502106E+04  0.7818609E-02  0.8402235E-01
       -1   -1    0    0    0  501  0.00000000000E+00  0.00000000000E+00  0.98965379403E+03  0.98965379404E+03  0.50400001928E-02 0.  1.
        1   -1    0    0  501    0  0.00000000000E+00  0.00000000000E+00 -0.15814966826E+04  0.15814966826E+04  0.50400001928E-02 0. -1.
    10030    2    1    2    0    0  0.00000000000E+00  0.00000000000E+00 -0.59184288857E+03  0.25711504766E+04  0.25021064663E+04 0.  0.
        3    1    3    3  502    0 -0.41601863048E+03 -0.55397338758E+03  0.77454197969E+03  0.10391695259E+04  0.10100000352E+00 0.  1.
       -3    1    3    3    0  502  0.41601863048E+03  0.55397338758E+03 -0.13663848683E+04  0.15319809507E+04  0.10100000352E+00 0. -1.
</event>
<event>
 5   0  0.2025353E-05  0.2384126E+04  0.7818609E-02  0.8445470E-01
        2   -1    0    0  501    0  0.00000000000E+00  0.00000000000E+00  0.12329146738E+04  0.12329146738E+04  0.25500000920E-02 0.  1.
       -2   -1    0    0    0  501  0.00000000000E+00  0.00000000000E+00 -0.11525652800E+04  0.11525652801E+04  0.25500000920E-02 0. -1.
    10030    2    1    2    0    0  0.00000000000E+00  0.00000000000E+00  0.80349393713E+02  0.23854799538E+04  0.23841263777E+04 0.  0.
        4    1    3    3  502    0  0.63356945957E+03 -0.84203870960E+03 -0.51743299513E+03  0.11739582471E+04  0.12699999809E+01 0. -1.
       -4    1    3    3    0  502 -0.63356945957E+03  0.84203870960E+03  0.59778238884E+03  0.12115217067E+04  0.12699999809E+01 0.  1.
</event>
<event>
 5   0  0.2025353E-05  0.2388877E+04  0.7818609E-02  0.8443679E-01
        2   -1    0    0  501    0  0.00000000000E+00  0.00000000000E+00  0.20810734949E+04  0.20810734949E+04  0.25500000920E-02 0.  1.
       -2   -1    0    0    0  501  0.00000000000E+00  0.00000000000E+00 -0.68555180269E+03  0.68555180269E+03  0.25500000920E-02 0. -1.
    10030    2    1    2    0    0  0.00000000000E+00  0.00000000000E+00  0.13955216922E+04  0.27666252976E+04  0.23888772978E+04 0.  0.
        4    1    3    3  502    0  0.18087203080E+03  0.69384346984E+03 -0.40856868997E+03  0.82526567812E+03  0.12699999809E+01 0. -1.
       -4    1    3    3    0  502 -0.18087203080E+03 -0.69384346984E+03  0.18040903822E+04  0.19413596195E+04  0.12699999809E+01 0.  1.
</event>
<event>
 5   0  0.2025353E-05  0.2397883E+04  0.7818609E-02  0.8440297E-01
        2   -1    0    0  501    0  0.00000000000E+00  0.00000000000E+00  0.15307046835E+04  0.15307046835E+04  0.25500000920E-02 0.  1.
       -2   -1    0    0    0  501  0.00000000000E+00  0.00000000000E+00 -0.93908430230E+03  0.93908430231E+03  0.25500000920E-02 0. -1.
    10030    2    1    2    0    0  0.00000000000E+00  0.00000000000E+00  0.59162038119E+03  0.24697889858E+04  0.23978830161E+04 0.  0.
        4    1    3    3  502    0 -0.84722400793E+03 -0.34931278580E+03 -0.50045136923E+03  0.10441557009E+04  0.12699999809E+01 0. -1.
       -4    1    3    3    0  502  0.84722400793E+03  0.34931278580E+03  0.10920717504E+04  0.14256332849E+04  0.12699999809E+01 0.  1.
</event>
<event>
 5   0  0.2122194E-05  0.2358164E+04  0.7818609E-02  0.8455334E-01
        2   -1    0    0  501    0  0.00000000000E+00  0.00000000000E+00  0.16436866764E+04  0.16436866764E+04  0.25500000920E-02 0. -1.
       -2   -1    0    0    0  501  0.00000000000E+00  0.00000000000E+00 -0.84580274286E+03  0.84580274287E+03  0.25500000920E-02 0.  1.
    10030    2    1    2    0    0  0.00000000000E+00  0.00000000000E+00  0.79788393355E+03  0.24894894193E+04  0.23581642855E+04 0.  0.
        3    1    3    3  502    0  0.21932009307E+03  0.11096656213E+04  0.47577149646E+02  0.11321319224E+04  0.10100000352E+00 0.  1.
       -3    1    3    3    0  502 -0.21932009307E+03 -0.11096656213E+04  0.75030678391E+03  0.13573574969E+04  0.10100000352E+00 0. -1.
</event>
<event>
 5   0  0.9038897E-06  0.2392424E+04  0.7818609E-02  0.8442345E-01
        1   -1    0    0  501    0  0.00000000000E+00  0.00000000000E+00  0.10916138516E+04  0.10916138516E+04  0.50400001928E-02 0. -1.
       -1   -1    0    0    0  501  0.00000000000E+00  0.00000000000E+00 -0.13108329193E+04  0.13108329193E+04  0.50400001928E-02 0.  1.
    10030    2    1    2    0    0  0.00000000000E+00  0.00000000000E+00 -0.21921906772E+03  0.24024467709E+04  0.23924241863E+04 0.  0.
        1    1    3    3  502    0 -0.84218777395E+03 -0.38509272209E+03  0.65075921005E+03  0.11318410669E+04  0.50400001928E-02 0. -1.
       -1    1    3    3    0  502  0.84218777395E+03  0.38509272209E+03 -0.86997827777E+03  0.12706057040E+04  0.50400001928E-02 0.  1.
</event>
<event>
 5   0  0.2087882E-05  0.2400564E+04  0.7818609E-02  0.8439292E-01
       -2   -1    0    0    0  501  0.00000000000E+00  0.00000000000E+00  0.15087286795E+04  0.15087286795E+04  0.25500000920E-02 0.  1.
        2   -1    0    0  501    0  0.00000000000E+00  0.00000000000E+00 -0.95489485082E+03  0.95489485082E+03  0.25500000920E-02 0. -1.
    10030    2    1    2    0    0  0.00000000000E+00  0.00000000000E+00  0.55383382866E+03  0.24636235303E+04  0.24005643064E+04 0.  0.
        2    1    3    3  502    0  0.50306061907E+02 -0.87546169438E+03  0.11180272993E+04  0.14208972237E+04  0.25500000920E-02 0.  1.
       -2    1    3    3    0  502 -0.50306061907E+02  0.87546169438E+03 -0.56419347067E+03  0.10427263066E+04  0.25500000920E-02 0. -1.
</event>
<event>
 5   0  0.2080257E-05  0.2411890E+04  0.7818609E-02  0.8435066E-01
        2   -1    0    0  501    0  0.00000000000E+00  0.00000000000E+00  0.18029145782E+04  0.18029145782E+04  0.25500000920E-02 0. -1.
       -2   -1    0    0    0  501  0.00000000000E+00  0.00000000000E+00 -0.80663996630E+03  0.80663996631E+03  0.25500000920E-02 0.  1.
    10030    2    1    2    0    0  0.00000000000E+00  0.00000000000E+00  0.99627461193E+03  0.26095545445E+04  0.24118896779E+04 0.  0.
        1    1    3    3  502    0 -0.48716230328E+02  0.29663604076E+03 -0.76545232789E+03  0.82236456519E+03  0.50400001928E-02 0.  1.
       -1    1    3    3    0  502  0.48716230328E+02 -0.29663604076E+03  0.17617269398E+04  0.17871899794E+04  0.50400001928E-02 0. -1.
</event>
<event>
 5   0  0.9083687E-06  0.2400345E+04  0.7818609E-02  0.8439374E-01
        1   -1    0    0  501    0  0.00000000000E+00  0.00000000000E+00  0.96394576817E+03  0.96394576818E+03  0.50400001928E-02 0.  1.
       -1   -1    0    0    0  501  0.00000000000E+00  0.00000000000E+00 -0.14942895473E+04  0.14942895473E+04  0.50400001928E-02 0. -1.
    10030    2    1    2    0    0  0.00000000000E+00  0.00000000000E+00 -0.53034377915E+03  0.24582353155E+04  0.24003450465E+04 0.  0.
        2    1    3    3  502    0  0.55056574612E+03  0.84777323531E+03  0.39740282410E+03  0.10861726861E+04  0.25500000920E-02 0.  1.
       -2    1    3    3    0  502 -0.55056574612E+03 -0.84777323531E+03 -0.92774660325E+03  0.13720626295E+04  0.25500000920E-02 0. -1.
</event>
<event>
 5   0  0.9083687E-06  0.2415475E+04  0.7818609E-02  0.8433733E-01
        1   -1    0    0  501    0  0.00000000000E+00  0.00000000000E+00  0.17496202671E+04  0.17496202671E+04  0.50400001928E-02 0. -1.
       -1   -1    0    0    0  501  0.00000000000E+00  0.00000000000E+00 -0.83368358595E+03  0.83368358597E+03  0.50400001928E-02 0.  1.
    10030    2    1    2    0    0  0.00000000000E+00  0.00000000000E+00  0.91593668110E+03  0.25833038530E+04  0.24154748588E+04 0.  0.
        2    1    3    3  502    0  0.69659500436E+03 -0.93074987769E+03  0.80795134068E+03  0.14157419623E+04  0.25500000920E-02 0. -1.
       -2    1    3    3    0  502 -0.69659500436E+03  0.93074987769E+03  0.10798534042E+03  0.11675618907E+04  0.25500000920E-02 0.  1.
</event>
<event>
 5   0  0.2025353E-05  0.2399149E+04  0.7818609E-02  0.8439822E-01
       -2   -1    0    0    0  501  0.00000000000E+00  0.00000000000E+00  0.73332055408E+03  0.73332055408E+03  0.25500000920E-02 0. -1.
        2   -1    0    0  501    0  0.00000000000E+00  0.00000000000E+00 -0.19622781814E+04  0.19622781814E+04  0.25500000920E-02 0.  1.
    10030    2    1    2    0    0  0.00000000000E+00  0.00000000000E+00 -0.12289576273E+04  0.26955987355E+04  0.23991489518E+04 0.  0.
        4    1    3    3  502    0  0.44714712715E+03 -0.92326041173E+03  0.84146156958E+02  0.10292873893E+04  0.12699999809E+01 0. -1.
       -4    1    3    3    0  502 -0.44714712715E+03  0.92326041173E+03 -0.13131037843E+04  0.16663113462E+04  0.12699999809E+01 0.  1.
</event>
<event>
 5   0  0.2025353E-05  0.2272148E+04  0.7818609E-02  0.8488984E-01
       -2   -1    0    0    0  501  0.00000000000E+00  0.00000000000E+00  0.12378111380E+04  0.12378111380E+04  0.25500000920E-02 0. -1.
        2   -1    0    0  501    0  0.00000000000E+00  0.00000000000E+00 -0.10426989864E+04  0.10426989864E+04  0.25500000920E-02 0.  1.
    10030    2    1    2    0    0  0.00000000000E+00  0.00000000000E+00  0.19511215161E+03  0.22805101245E+04  0.22721482513E+04 0.  0.
        4    1    3    3  502    0  0.99721724322E+03  0.31606123290E+03  0.54227346237E+03  0.11783034643E+04  0.12699999809E+01 0. -1.
       -4    1    3    3    0  502 -0.99721724322E+03 -0.31606123290E+03 -0.34716131076E+03  0.11022066602E+04  0.12699999809E+01 0.  1.
</event>
<event>
 5   0  0.2025353E-05  0.2402089E+04  0.7818609E-02  0.8438722E-01
        2   -1    0    0  501    0  0.00000000000E+00  0.00000000000E+00  0.18777117916E+04  0.18777117916E+04  0.25500000920E-02 0. -1.
       -2   -1    0    0    0  501  0.00000000000E+00  0.00000000000E+00 -0.76822656032E+03  0.76822656033E+03  0.25500000920E-02 0.  1.
    10030    2    1    2    0    0  0.00000000000E+00  0.00000000000E+00  0.11094852313E+04  0.26459383519E+04  0.24020891498E+04 0.  0.
        4    1    3    3  502    0  0.26165000507E+03 -0.98170442568E+03 -0.15083126906E+03  0.10271105048E+04  0.12699999809E+01 0.  1.
       -4    1    3    3    0  502 -0.26165000507E+03  0.98170442568E+03  0.12603165003E+04  0.16188278471E+04  0.12699999809E+01 0. -1.
</event>
<event>
 5   0  0.9176817E-06  0.2377258E+04  0.7818609E-02  0.8448067E-01
        1   -1    0    0  501    0  0.00000000000E+00  0.00000000000E+00  0.15267811607E+04  0.15267811607E+04  0.50400001928E-02 0.  1.
       -1   -1    0    0    0  501  0.00000000000E+00  0.00000000000E+00 -0.92537105014E+03  0.92537105016E+03  0.50400001928E-02 0. -1.
    10030    2    1    2    0    0  0.00000000000E+00  0.00000000000E+00  0.60141011054E+03  0.24521522109E+04  0.23772581568E+04 0.  0.
        3    1    3    3  502    0 -0.24290347048E+03  0.32621504040E+03  0.14527715761E+04  0.15086297131E+04  0.10100000352E+00 0.  1.
       -3    1    3    3    0  502  0.24290347048E+03 -0.32621504040E+03 -0.85136146558E+03  0.94352249779E+03  0.10100000352E+00 0. -1.
</event>
<event>
 5   0  0.8898848E-06  0.2399011E+04  0.7818609E-02  0.8439874E-01
        1   -1    0    0  501    0  0.00000000000E+00  0.00000000000E+00  0.18276650022E+04  0.18276650022E+04  0.50400001928E-02 0.  1.
       -1   -1    0    0    0  501  0.00000000000E+00  0.00000000000E+00 -0.78724154989E+03  0.78724154991E+03  0.50400001928E-02 0. -1.
    10030    2    1    2    0    0  0.00000000000E+00  0.00000000000E+00  0.10404234523E+04  0.26149065521E+04  0.23990113206E+04 0.  0.
        5    1    3    3  502    0  0.94149996656E+03  0.24272087788E+03 -0.24546976501E+03  0.10028026262E+04  0.46999998093E+01 0. -1.
       -5    1    3    3    0  502 -0.94149996656E+03 -0.24272087788E+03  0.12858932173E+04  0.16121039259E+04  0.46999998093E+01 0.  1.
</event>
<event>
 5   0  0.2087882E-05  0.2395215E+04  0.7818609E-02  0.8441297E-01
        2   -1    0    0  501    0  0.00000000000E+00  0.00000000000E+00  0.11594520763E+04  0.11594520763E+04  0.25500000920E-02 0.  1.
       -2   -1    0    0    0  501  0.00000000000E+00  0.00000000000E+00 -0.12370189746E+04  0.12370189746E+04  0.25500000920E-02 0. -1.
    10030    2    1    2    0    0  0.00000000000E+00  0.00000000000E+00 -0.77566898315E+02  0.23964710508E+04  0.23952154128E+04 0.  0.
        2    1    3    3  502    0 -0.60002528110E+03 -0.28258264378E+03  0.95892581062E+03  0.11659425367E+04  0.25500000920E-02 0.  1.
       -2    1    3    3    0  502  0.60002528110E+03  0.28258264378E+03 -0.10364927089E+04  0.12305285142E+04  0.25500000920E-02 0. -1.
</event>
<event>
 5   0  0.9083687E-06  0.2398959E+04  0.7818609E-02  0.8439894E-01
        1   -1    0    0  501    0  0.00000000000E+00  0.00000000000E+00  0.67419927476E+03  0.67419927478E+03  0.50400001928E-02 0.  1.
       -1   -1    0    0    0  501  0.00000000000E+00  0.00000000000E+00 -0.21340136981E+04  0.21340136981E+04  0.50400001928E-02 0. -1.
    10030    2    1    2    0    0  0.00000000000E+00  0.00000000000E+00 -0.14598144233E+04  0.28082129729E+04  0.23989585137E+04 0.  0.
        2    1    3    3  502    0  0.11069918362E+04  0.92309795948E+02 -0.20015759518E+03  0.11287227679E+04  0.25500000920E-02 0.  1.
       -2    1    3    3    0  502 -0.11069918362E+04 -0.92309795948E+02 -0.12596568281E+04  0.16794902050E+04  0.25500000920E-02 0. -1.
</event>
<event>
 5   0  0.9083687E-06  0.2205880E+04  0.7818609E-02  0.8515985E-01
        1   -1    0    0  501    0  0.00000000000E+00  0.00000000000E+00  0.17241249282E+04  0.17241249282E+04  0.50400001928E-02 0. -1.
       -1   -1    0    0    0  501  0.00000000000E+00  0.00000000000E+00 -0.70556202831E+03  0.70556202832E+03  0.50400001928E-02 0.  1.
    10030    2    1    2    0    0  0.00000000000E+00  0.00000000000E+00  0.10185628999E+04  0.24296869565E+04  0.22058803970E+04 0.  0.
        2    1    3    3  502    0 -0.34343457891E+03 -0.10473357490E+04  0.55358147377E+03  0.12334147434E+04  0.25500000920E-02 0. -1.
       -2    1    3    3    0  502  0.34343457891E+03  0.10473357490E+04  0.46498142612E+03  0.11962722131E+04  0.25500000920E-02 0.  1.
</event>
<event>
 5   0  0.9038897E-06  0.2408781E+04  0.7818609E-02  0.8436224E-01
       -1   -1    0    0    0  501  0.00000000000E+00  0.00000000000E+00  0.94893991974E+03  0.94893991976E+03  0.50400001928E-02 0.  1.
        1   -1    0    0  501    0  0.00000000000E+00  0.00000000000E+00 -0.15286067849E+04  0.15286067849E+04  0.50400001928E-02 0. -1.
    10030    2    1    2    0    0  0.00000000000E+00  0.00000000000E+00 -0.57966686512E+03  0.24775467046E+04  0.24087806042E+04 0.  0.
        1    1    3    3  502    0 -0.17509573629E+03 -0.52823781474E+03  0.80877067390E+03  0.98173505019E+03  0.50400001928E-02 0.  1.
       -1    1    3    3    0  502  0.17509573629E+03  0.52823781474E+03 -0.13884375390E+04  0.14958116544E+04  0.50400001928E-02 0. -1.
</event>
<event>
 5   0  0.2087882E-05  0.2378749E+04  0.7818609E-02  0.8447503E-01
        2   -1    0    0  501    0  0.00000000000E+00  0.00000000000E+00  0.13021503459E+04  0.13021503459E+04  0.25500000920E-02 0.  1.
       -2   -1    0    0    0  501  0.00000000000E+00  0.00000000000E+00 -0.10863656118E+04  0.10863656118E+04  0.25500000920E-02 0. -1.
    10030    2    1    2    0    0  0.00000000000E+00  0.00000000000E+00  0.21578473409E+03  0.23885159576E+04  0.23787487107E+04 0.  0.
        2    1    3    3  502    0  0.23427453314E+03  0.41296524904E+03  0.12028682832E+04  0.12931809465E+04  0.25500000920E-02 0.  1.
       -2    1    3    3    0  502 -0.23427453314E+03 -0.41296524904E+03 -0.98708354906E+03  0.10953350111E+04  0.25500000920E-02 0. -1.
</event>
<event>
 5   0  0.2025353E-05  0.2360171E+04  0.7818609E-02  0.8454567E-01
       -2   -1    0    0    0  501  0.00000000000E+00  0.00000000000E+00  0.17911623894E+04  0.17911623894E+04  0.25500000920E-02 0. -1.
        2   -1    0    0  501    0  0.00000000000E+00  0.00000000000E+00 -0.77748515129E+03  0.77748515130E+03  0.25500000920E-02 0.  1.
    10030    2    1    2    0    0  0.00000000000E+00  0.00000000000E+00  0.10136772381E+04  0.25686475407E+04  0.23601713170E+04 0.  0.
        4    1    3    3  502    0  0.18991967863E+03 -0.72584710541E+03 -0.48448516280E+03  0.89311308950E+03  0.12699999809E+01 0.  1.
       -4    1    3    3    0  502 -0.18991967863E+03  0.72584710541E+03  0.14981624009E+04  0.16755344512E+04  0.12699999809E+01 0. -1.
</event>
<event>
 5   0  0.9038897E-06  0.2400948E+04  0.7818609E-02  0.8439149E-01
        1   -1    0    0  501    0  0.00000000000E+00  0.00000000000E+00  0.22370542811E+04  0.22370542811E+04  0.50400001928E-02 0. -1.
       -1   -1    0    0    0  501  0.00000000000E+00  0.00000000000E+00 -0.64421251963E+03  0.64421251965E+03  0.50400001928E-02 0.  1.
    10030    2    1    2    0    0  0.00000000000E+00  0.00000000000E+00  0.15928417615E+04  0.28812668008E+04  0.24009484584E+04 0.  0.
        1    1    3    3  502    0 -0.63602801781E+03 -0.27105051049E+03  0.19741488185E+04  0.20917130722E+04  0.50400001928E-02 0. -1.
       -1    1    3    3    0  502  0.63602801781E+03  0.27105051049E+03 -0.38130705698E+03  0.78955372863E+03  0.50400001928E-02 0.  1.
</event>
<event>
 5   0  0.2080257E-05  0.2398488E+04  0.7818609E-02  0.8440070E-01
       -2   -1    0    0    0  501  0.00000000000E+00  0.00000000000E+00  0.99705005736E+03  0.99705005737E+03  0.25500000920E-02 0.  1.
        2   -1    0    0  501    0  0.00000000000E+00  0.00000000000E+00 -0.14424410509E+04  0.14424410509E+04  0.25500000920E-02 0. -1.
    10030    2    1    2    0    0  0.00000000000E+00  0.00000000000E+00 -0.44539099352E+03  0.24394911083E+04  0.23984878007E+04 0.  0.
        1    1    3    3  502    0  0.10143448083E+03 -0.44842494951E+03  0.90385520111E+03  0.10140651428E+04  0.50400001928E-02 0.  1.
       -1    1    3    3    0  502 -0.10143448083E+03  0.44842494951E+03 -0.13492461946E+04  0.14254259655E+04  0.50400001928E-02 0. -1.
</event>
<event>
 5   0  0.9083687E-06  0.2398767E+04  0.7818609E-02  0.8439965E-01
       -1   -1    0    0    0  501  0.00000000000E+00  0.00000000000E+00  0.87330509050E+03  0.87330509052E+03  0.50400001928E-02 0.  1.
        1   -1    0    0  501    0  0.00000000000E+00  0.00000000000E+00 -0.16472143195E+04  0.16472143196E+04  0.50400001928E-02 0. -1.
    10030    2    1    2    0    0  0.00000000000E+00  0.00000000000E+00 -0.77390922904E+03  0.25205194101E+04  0.23987668919E+04 0.  0.
        2    1    3    3  502    0  0.11039774078E+04 -0.42423792810E+03 -0.59651850420E+03  0.13246049458E+04  0.25500000920E-02 0. -1.
       -2    1    3    3    0  502 -0.11039774078E+04  0.42423792810E+03 -0.17739072484E+03  0.11959144643E+04  0.25500000920E-02 0.  1.
</event>
<event>
 5   0  0.9038897E-06  0.2415815E+04  0.7818609E-02  0.8433606E-01
       -1   -1    0    0    0  501  0.00000000000E+00  0.00000000000E+00  0.73682006790E+03  0.73682006792E+03  0.50400001928E-02 0. -1.
        1   -1    0    0  501    0  0.00000000000E+00  0.00000000000E+00 -0.19801861692E+04  0.19801861692E+04  0.50400001928E-02 0.  1.
    10030    2    1    2    0    0  0.00000000000E+00  0.00000000000E+00 -0.12433661013E+04  0.27170062371E+04  0.24158153138E+04 0.  0.
        1    1    3    3  502    0  0.63544153459E+03 -0.10132992087E+04 -0.43188382399E+03  0.12716465184E+04  0.50400001928E-02 0. -1.
       -1    1    3    3    0  502 -0.63544153459E+03  0.10132992087E+04 -0.81148227726E+03  0.14453597187E+04  0.50400001928E-02 0.  1.
</event>
<event>
 5   0  0.9038897E-06  0.2389450E+04  0.7818609E-02  0.8443464E-01
        1   -1    0    0  501    0  0.00000000000E+00  0.00000000000E+00  0.16874449137E+04  0.16874449137E+04  0.50400001928E-02 0.  1.
       -1   -1    0    0    0  501  0.00000000000E+00  0.00000000000E+00 -0.84587535419E+03  0.84587535420E+03  0.50400001928E-02 0. -1.
    10030    2    1    2    0    0  0.00000000000E+00  0.00000000000E+00  0.84156955952E+03  0.25333202679E+04  0.23894501996E+04 0.  0.
        1    1    3    3  502    0 -0.10581922083E+04 -0.34916352963E+03  0.87763852054E+03  0.14184270488E+04  0.50400001928E-02 0.  1.
       -1    1    3    3    0  502  0.10581922083E+04  0.34916352963E+03 -0.36068961017E+02  0.11148932191E+04  0.50400001928E-02 0. -1.
</event>
<event>
 5   0  0.9038897E-06  0.2414050E+04  0.7818609E-02  0.8434262E-01
       -1   -1    0    0    0  501  0.00000000000E+00  0.00000000000E+00  0.75030032500E+03  0.75030032502E+03  0.50400001928E-02 0. -1.
        1   -1    0    0  501    0  0.00000000000E+00  0.00000000000E+00 -0.19417678723E+04  0.19417678723E+04  0.50400001928E-02 0.  1.
    10030    2    1    2    0    0  0.00000000000E+00  0.00000000000E+00 -0.11914675473E+04  0.26920681974E+04  0.24140497640E+04 0.  0.
        1    1    3    3  502    0  0.46938321641E+03  0.10938830082E+04 -0.81879062819E+03  0.14447555960E+04  0.50400001928E-02 0.  1.
       -1    1    3    3    0  502 -0.46938321641E+03 -0.10938830082E+04 -0.37267691915E+03  0.12473126013E+04  0.50400001928E-02 0. -1.
</event>
<event>
 5   0  0.9038897E-06  0.2413507E+04  0.7818609E-02  0.8434464E-01
       -1   -1    0    0    0  501  0.00000000000E+00  0.00000000000E+00  0.12884940418E+04  0.12884940418E+04  0.50400001928E-02 0.  1.
        1   -1    0    0  501    0  0.00000000000E+00  0.00000000000E+00 -0.11301981994E+04  0.11301981994E+04  0.50400001928E-02 0. -1.
    10030    2    1    2    0    0  0.00000000000E+00  0.00000000000E+00  0.15829584240E+03  0.24186922412E+04  0.24135066985E+04 0.  0.
        1    1    3    3  502    0  0.57201846064E+03 -0.94784054457E+03  0.56043682243E+03  0.12408449739E+04  0.50400001928E-02 0.  1.
       -1    1    3    3    0  502 -0.57201846064E+03  0.94784054457E+03 -0.40214098003E+03  0.11778472673E+04  0.50400001928E-02 0. -1.
</event>
<event>
 5   0  0.9083687E-06  0.2391645E+04  0.7818609E-02  0.8442638E-01
        1   -1    0    0  501    0  0.00000000000E+00  0.00000000000E+00  0.10835126595E+04  0.10835126595E+04  0.50400001928E-02 0. -1.
       -1   -1    0    0    0  501  0.00000000000E+00  0.00000000000E+00 -0.13197738248E+04  0.13197738248E+04  0.50400001928E-02 0.  1.
    10030    2    1    2    0    0  0.00000000000E+00  0.00000000000E+00 -0.23626116537E+03  0.24032864843E+04  0.23916451634E+04 0.  0.
        2    1    3    3  502    0 -0.35078141546E+03  0.61633334033E+03 -0.10856657561E+04  0.12967592382E+04  0.25500000920E-02 0.  1.
       -2    1    3    3    0  502  0.35078141546E+03 -0.61633334033E+03  0.84940459069E+03  0.11065272462E+04  0.25500000920E-02 0. -1.
</event>
<event>
 5   0  0.8528103E-06  0.2395392E+04  0.7818609E-02  0.8441231E-01
        1   -1    0    0  501    0  0.00000000000E+00  0.00000000000E+00  0.14483339998E+04  0.14483339998E+04  0.50400001928E-02 0.  1.
       -1   -1    0    0    0  501  0.00000000000E+00  0.00000000000E+00 -0.99043189752E+03  0.99043189753E+03  0.50400001928E-02 0. -1.
    10030    2    1    2    0    0  0.00000000000E+00  0.00000000000E+00  0.45790210224E+03  0.24387658973E+04  0.23953924035E+04 0.  0.
        4    1    3    3  502    0 -0.74655127397E+02 -0.10304279482E+04  0.84582599885E+03  0.13352072415E+04  0.12699999809E+01 0.  1.
       -4    1    3    3    0  502  0.74655127397E+02  0.10304279482E+04 -0.38792389661E+03  0.11035586558E+04  0.12699999809E+01 0. -1.
</event>
<event>
 5   0  0.2087882E-05  0.2391454E+04  0.7818609E-02  0.8442710E-01
       -2   -1    0    0    0  501  0.00000000000E+00  0.00000000000E+00  0.79333213932E+03  0.79333213932E+03  0.25500000920E-02 0.  1.
        2   -1    0    0  501    0  0.00000000000E+00  0.00000000000E+00 -0.18022253060E+04  0.18022253060E+04  0.25500000920E-02 0. -1.
    10030    2    1    2    0    0  0.00000000000E+00  0.00000000000E+00 -0.10088931667E+04  0.25955574453E+04  0.23914541664E+04 0.  0.
        2    1    3    3  502    0 -0.85838351897E+02  0.87306145389E+03 -0.13862926247E+04  0.16405522747E+04  0.25500000920E-02 0. -1.
       -2    1    3    3    0  502  0.85838351897E+02 -0.87306145389E+03  0.37739945799E+03  0.95500517058E+03  0.25500000920E-02 0.  1.
</event>
<event>
 5   0  0.9083687E-06  0.2175626E+04  0.7818609E-02  0.8528642E-01
        1   -1    0    0  501    0  0.00000000000E+00  0.00000000000E+00  0.11077815074E+04  0.11077815074E+04  0.50400001928E-02 0. -1.
       -1   -1    0    0    0  501  0.00000000000E+00  0.00000000000E+00 -0.10682044608E+04  0.10682044608E+04  0.50400001928E-02 0.  1.
    10030    2    1    2    0    0  0.00000000000E+00  0.00000000000E+00  0.39577046627E+02  0.21759859682E+04  0.21756260228E+04 0.  0.
        2    1    3    3  502    0  0.35168643200E+03 -0.23074778107E+03  0.10231540101E+04  0.11062422942E+04  0.25500000920E-02 0. -1.
       -2    1    3    3    0  502 -0.35168643200E+03  0.23074778107E+03 -0.98357696352E+03  0.10697436740E+04  0.25500000920E-02 0.  1.
</event>
<event>
 5   0  0.8898848E-06  0.2377674E+04  0.7818609E-02  0.8447910E-01
        1   -1    0    0  501    0  0.00000000000E+00  0.00000000000E+00  0.23467799168E+04  0.23467799168E+04  0.50400001928E-02 0.  1.
       -1   -1    0    0    0  501  0.00000000000E+00  0.00000000000E+00 -0.60224380633E+03  0.60224380636E+03  0.50400001928E-02 0. -1.
    10030    2    1    2    0    0  0.00000000000E+00  0.00000000000E+00  0.17445361105E+04  0.29490237232E+04  0.23776742163E+04 0.  0.
        5    1    3    3  502    0  0.48504796960E+03  0.84799201878E+03  0.17125178358E+04  0.19715733374E+04  0.46999998093E+01 0.  1.
       -5    1    3    3    0  502 -0.48504796960E+03 -0.84799201878E+03  0.32018274640E+02  0.97745038576E+03  0.46999998093E+01 0. -1.
</event>
<event>
 5   0  0.2080257E-05  0.2338704E+04  0.7818609E-02  0.8462815E-01
        2   -1    0    0  501    0  0.00000000000E+00  0.00000000000E+00  0.15821964284E+04  0.15821964284E+04  0.25500000920E-02 0.  1.
       -2   -1    0    0    0  501  0.00000000000E+00  0.00000000000E+00 -0.86423123507E+03  0.86423123507E+03  0.25500000920E-02 0. -1.
    10030    2    1    2    0    0  0.00000000000E+00  0.00000000000E+00  0.71796519337E+03  0.24464276635E+04  0.23387035498E+04 0.  0.
        1    1    3    3  502    0  0.41227065266E+02 -0.92702846462E+03 -0.38534150275E+03  0.10047733669E+04  0.50400001928E-02 0. -1.
       -1    1    3    3    0  502 -0.41227065266E+02  0.92702846462E+03  0.11033066961E+04  0.14416542966E+04  0.50400001928E-02 0.  1.
</event>
<event>
 5   0  0.2080257E-05  0.2403250E+04  0.7818609E-02  0.8438288E-01
       -2   -1    0    0    0  501  0.00000000000E+00  0.00000000000E+00  0.12799562128E+04  0.12799562128E+04  0.25500000920E-02 0. -1.
        2   -1    0    0  501    0  0.00000000000E+00  0.00000000000E+00 -0.11280873182E+04  0.11280873182E+04  0.25500000920E-02 0.  1.
    10030    2    1    2    0    0  0.00000000000E+00  0.00000000000E+00  0.15186889460E+03  0.24080435310E+04  0.24032497760E+04 0.  0.
        1    1    3    3  502    0 -0.51028377474E+03 -0.97410124093E+02  0.11616196799E+04  0.12724930427E+04  0.50400001928E-02 0. -1.
       -1    1    3    3    0  502  0.51028377474E+03  0.97410124093E+02 -0.10097507853E+04  0.11355504883E+04  0.50400001928E-02 0.  1.
</event>
<event>
 5   0  0.2087882E-05  0.2387425E+04  0.7818609E-02  0.8444227E-01
       -2   -1    0    0    0  501  0.00000000000E+00  0.00000000000E+00  0.14843907163E+04  0.14843907163E+04  0.25500000920E-02 0. -1.
        2   -1    0    0  501    0  0.00000000000E+00  0.00000000000E+00 -0.95995570918E+03  0.95995570919E+03  0.25500000920E-02 0.  1.
    10030    2    1    2    0    0  0.00000000000E+00  0.00000000000E+00  0.52443500714E+03  0.24443464255E+04  0.23874248410E+04 0.  0.
        2    1    3    3  502    0  0.12340783572E+03  0.11284506857E+04  0.64023428737E+03  0.13032767882E+04  0.25500000920E-02 0. -1.
       -2    1    3    3    0  502 -0.12340783572E+03 -0.11284506857E+04 -0.11579928023E+03  0.11410696373E+04  0.25500000920E-02 0.  1.
</event>
<event>
 5   0  0.2048028E-05  0.2345596E+04  0.7818609E-02  0.8460157E-01
       -2   -1    0    0    0  501  0.00000000000E+00  0.00000000000E+00  0.72090267338E+03  0.72090267339E+03  0.25500000920E-02 0.  1.
        2   -1    0    0  501    0  0.00000000000E+00  0.00000000000E+00 -0.19079617507E+04  0.19079617507E+04  0.25500000920E-02 0. -1.
    10030    2    1    2    0    0  0.00000000000E+00  0.00000000000E+00 -0.11870590773E+04  0.26288644241E+04  0.23455956402E+04 0.  0.
        5    1    3    3  502    0 -0.35202824901E+03  0.99161576599E+03 -0.13099294336E+02  0.10523399626E+04  0.46999998093E+01 0. -1.
       -5    1    3    3    0  502  0.35202824901E+03 -0.99161576599E+03 -0.11739597830E+04  0.15765244614E+04  0.46999998093E+01 0.  1.
</event>
<event>
 5   0  0.8528103E-06  0.2396293E+04  0.7818609E-02  0.8440893E-01
        1   -1    0    0  501    0  0.00000000000E+00  0.00000000000E+00  0.14151028084E+04  0.14151028084E+04  0.50400001928E-02 0. -1.
       -1   -1    0    0    0  501  0.00000000000E+00  0.00000000000E+00 -0.10144528867E+04  0.10144528867E+04  0.50400001928E-02 0.  1.
    10030    2    1    2    0    0  0.00000000000E+00  0.00000000000E+00  0.40064992165E+03  0.24295556951E+04  0.23962930781E+04 0.  0.
        4    1    3    3  502    0 -0.10127899611E+04 -0.44439441951E+03 -0.26685700696E+03  0.11377364284E+04  0.12699999809E+01 0.  1.
       -4    1    3    3    0  502  0.10127899611E+04  0.44439441951E+03  0.66750692861E+03  0.12918192668E+04  0.12699999809E+01 0. -1.
</event>
<event>
 5   0  0.2080257E-05  0.2413979E+04  0.7818609E-02  0.8434289E-01
        2   -1    0    0  501    0  0.00000000000E+00  0.00000000000E+00  0.97397003554E+03  0.97397003555E+03  0.25500000920E-02 0. -1.
       -2   -1    0    0    0  501  0.00000000000E+00  0.00000000000E+00 -0.14957581006E+04  0.14957581007E+04  0.25500000920E-02 0.  1.
    10030    2    1    2    0    0  0.00000000000E+00  0.00000000000E+00 -0.52178806510E+03  0.24697281362E+04  0.24139789315E+04 0.  0.
        1    1    3    3  502    0  0.37757959461E+02 -0.10996583592E+04 -0.76848637860E+03  0.13421048709E+04  0.50400001928E-02 0.  1.
       -1    1    3    3    0  502 -0.37757959461E+02  0.10996583592E+04  0.24669831349E+03  0.11276232653E+04  0.50400001928E-02 0. -1.
</event>
<event>
 5   0  0.9038897E-06  0.2406716E+04  0.7818609E-02  0.8436994E-01
       -1   -1    0    0    0  501  0.00000000000E+00  0.00000000000E+00  0.10244852625E+04  0.10244852625E+04  0.50400001928E-02 0. -1.
        1   -1    0    0  501    0  0.00000000000E+00  0.00000000000E+00 -0.14134613357E+04  0.14134613357E+04  0.50400001928E-02 0.  1.
    10030    2    1    2    0    0  0.00000000000E+00  0.00000000000E+00 -0.38897607321E+03  0.24379465982E+04  0.24067158599E+04 0.  0.
        1    1    3    3  502    0  0.55491269258E+03 -0.16179851631E+03  0.87465260669E+03  0.10483911668E+04  0.50400001928E-02 0. -1.
       -1    1    3    3    0  502 -0.55491269258E+03  0.16179851631E+03 -0.12636286799E+04  0.13895554314E+04  0.50400001928E-02 0.  1.
</event>
<event>
 5   0  0.9083687E-06  0.2418237E+04  0.7818609E-02  0.8432707E-01
        1   -1    0    0  501    0  0.00000000000E+00  0.00000000000E+00  0.14467934095E+04  0.14467934096E+04  0.50400001928E-02 0. -1.
       -1   -1    0    0    0  501  0.00000000000E+00  0.00000000000E+00 -0.10104877771E+04  0.10104877772E+04  0.50400001928E-02 0.  1.
    10030    2    1    2    0    0  0.00000000000E+00  0.00000000000E+00  0.43630563240E+03  0.24572811867E+04  0.24182365942E+04 0.  0.
        2    1    3    3  502    0 -0.89949752572E+03 -0.23029118844E+03 -0.56884363525E+03  0.10889044548E+04  0.25500000920E-02 0.  1.
       -2    1    3    3    0  502  0.89949752572E+03  0.23029118844E+03  0.10051492677E+04  0.13683767319E+04  0.25500000920E-02 0. -1.
</event>
<event>
 5   0  0.9038897E-06  0.2376953E+04  0.7818609E-02  0.8448183E-01
        1   -1    0    0  501    0  0.00000000000E+00  0.00000000000E+00  0.10484407296E+04  0.10484407296E+04  0.50400001928E-02 0. -1.
       -1   -1    0    0    0  501  0.00000000000E+00  0.00000000000E+00 -0.13472166244E+04  0.13472166244E+04  0.50400001928E-02 0.  1.
    10030    2    1    2    0    0  0.00000000000E+00  0.00000000000E+00 -0.29877589480E+03  0.23956573539E+04  0.23769533277E+04 0.  0.
        1    1    3    3  502    0 -0.78994369745E+03 -0.85415849153E+03 -0.39394730504E+03  0.12283290491E+04  0.50400001928E-02 0.  1.
       -1    1    3    3    0  502  0.78994369745E+03  0.85415849153E+03  0.95171410244E+02  0.11673283048E+04  0.50400001928E-02 0. -1.
</event>
<event>
 5   0  0.8898848E-06  0.2386241E+04  0.7818609E-02  0.8444673E-01
        1   -1    0    0  501    0  0.00000000000E+00  0.00000000000E+00  0.14622574741E+04  0.14622574741E+04  0.50400001928E-02 0. -1.
       -1   -1    0    0    0  501  0.00000000000E+00  0.00000000000E+00 -0.97352014206E+03  0.97352014207E+03  0.50400001928E-02 0.  1.
    10030    2    1    2    0    0  0.00000000000E+00  0.00000000000E+00  0.48873733208E+03  0.24357776162E+04  0.23862414831E+04 0.  0.
        5    1    3    3  502    0  0.89882822958E+03 -0.25884120237E+03 -0.51169900543E+03  0.10661842789E+04  0.46999998093E+01 0.  1.
       -5    1    3    3    0  502 -0.89882822958E+03  0.25884120237E+03  0.10004363375E+04  0.13695933374E+04  0.46999998093E+01 0. -1.
</event>
<event>
 5   0  0.9083687E-06  0.2407807E+04  0.7818609E-02  0.8436587E-01
       -1   -1    0    0    0  501  0.00000000000E+00  0.00000000000E+00  0.88017906138E+03  0.88017906139E+03  0.50400001928E-02 0.  1.
        1   -1    0    0  501    0  0.00000000000E+00  0.00000000000E+00 -0.16466918353E+04  0.16466918353E+04  0.50400001928E-02 0. -1.
    10030    2    1    2    0    0  0.00000000000E+00  0.00000000000E+00 -0.76651277389E+03  0.25268708967E+04  0.24078070305E+04 0.  0.
        2    1    3    3  502    0 -0.15264271107E+03 -0.36050392898E+03 -0.15780258509E+04  0.16258623761E+04  0.25500000920E-02 0. -1.
       -2    1    3    3    0  502  0.15264271107E+03  0.36050392898E+03  0.81151307696E+03  0.90100852057E+03  0.25500000920E-02 0.  1.
</event>
<event>
 5   0  0.2080257E-05  0.2415087E+04  0.7818609E-02  0.8433877E-01
       -2   -1    0    0    0  501  0.00000000000E+00  0.00000000000E+00  0.12484881135E+04  0.12484881135E+04  0.25500000920E-02 0. -1.
        2   -1    0    0  501    0  0.00000000000E+00  0.00000000000E+00 -0.11679413674E+04  0.11679413674E+04  0.25500000920E-02 0.  1.
    10030    2    1    2    0    0  0.00000000000E+00  0.00000000000E+00  0.80546746087E+02  0.24164294810E+04  0.24150866772E+04 0.  0.
        1    1    3    3  502    0 -0.65090765738E+03 -0.65053925223E+03  0.82255130085E+03  0.12342903790E+04  0.50400001928E-02 0. -1.
       -1    1    3    3    0  502  0.65090765738E+03  0.65053925223E+03 -0.74200455476E+03  0.11821391020E+04  0.50400001928E-02 0.  1.
</event>
<event>
 5   0  0.2122194E-05  0.2415776E+04  0.7818609E-02  0.8433621E-01
       -2   -1    0    0    0  501  0.00000000000E+00  0.00000000000E+00  0.62119176699E+03  0.62119176699E+03  0.25500000920E-02 0.  1.
        2   -1    0    0  501    0  0.00000000000E+00  0.00000000000E+00 -0.23487002665E+04  0.23487002665E+04  0.25500000920E-02 0. -1.
    10030    2    1    2    0    0  0.00000000000E+00  0.00000000000E+00 -0.17275084996E+04  0.29698920335E+04  0.24157758743E+04 0.  0.
        3    1    3    3  502    0 -0.90386351035E+03 -0.40543562993E+03 -0.17133984114E+04  0.19791617977E+04  0.10100000352E+00 0. -1.
       -3    1    3    3    0  502  0.90386351035E+03  0.40543562993E+03 -0.14110088203E+02  0.99073023581E+03  0.10100000352E+00 0.  1.
</event>
<event>
 5   0  0.9038897E-06  0.2323562E+04  0.7818609E-02  0.8468689E-01
        1   -1    0    0  501    0  0.00000000000E+00  0.00000000000E+00  0.18701613370E+04  0.18701613370E+04  0.50400001928E-02 0. -1.
       -1   -1    0    0    0  501  0.00000000000E+00  0.00000000000E+00 -0.72172100532E+03  0.72172100534E+03  0.50400001928E-02 0.  1.
    10030    2    1    2    0    0  0.00000000000E+00  0.00000000000E+00  0.11484403317E+04  0.25918823424E+04  0.23235616801E+04 0.  0.
        1    1    3    3  502    0  0.67064627646E+03  0.85749413069E+03  0.12156122808E+03  0.10953719663E+04  0.50400001928E-02 0.  1.
       -1    1    3    3    0  502 -0.67064627646E+03 -0.85749413069E+03  0.10268791036E+04  0.14965103761E+04  0.50400001928E-02 0. -1.
</event>
<event>
 5   0  0.9083687E-06  0.2407804E+04  0.7818609E-02  0.8436588E-01
       -1   -1    0    0    0  501  0.00000000000E+00  0.00000000000E+00  0.82471239190E+03  0.82471239191E+03  0.50400001928E-02 0.  1.
        1   -1    0    0  501    0  0.00000000000E+00  0.00000000000E+00 -0.17574363970E+04  0.17574363970E+04  0.50400001928E-02 0. -1.
    10030    2    1    2    0    0  0.00000000000E+00  0.00000000000E+00 -0.93272400511E+03  0.25821487889E+04  0.24078036254E+04 0.  0.
        2    1    3    3  502    0  0.29445165778E+03  0.51185685311E+03 -0.15914611815E+04  0.16974828156E+04  0.25500000920E-02 0. -1.
       -2    1    3    3    0  502 -0.29445165778E+03 -0.51185685311E+03  0.65873717641E+03  0.88466597337E+03  0.25500000920E-02 0.  1.
</event>
<event>
 5   0  0.8528103E-06  0.2405575E+04  0.7818609E-02  0.8437419E-01
        1   -1    0    0  501    0  0.00000000000E+00  0.00000000000E+00  0.18710702873E+04  0.18710702873E+04  0.50400001928E-02 0.  1.
       -1   -1    0    0    0  501  0.00000000000E+00  0.00000000000E+00 -0.77319268193E+03  0.77319268194E+03  0.50400001928E-02 0. -1.
    10030    2    1    2    0    0  0.00000000000E+00  0.00000000000E+00  0.10978776054E+04  0.26442629693E+04  0.24055750694E+04 0.  0.
        4    1    3    3  502    0 -0.11226242218E+04  0.17705217613E+03  0.98179206391E+03  0.15018488227E+04  0.12699999809E+01 0. -1.
       -4    1    3    3    0  502  0.11226242218E+04 -0.17705217613E+03  0.11608554150E+03  0.11424141466E+04  0.12699999809E+01 0.  1.
</event>
<event>
 5   0  0.9083687E-06  0.2394964E+04  0.7818609E-02  0.8441391E-01
        1   -1    0    0  501    0  0.00000000000E+00  0.00000000000E+00  0.20469098770E+04  0.20469098770E+04  0.50400001928E-02 0.  1.
       -1   -1    0    0    0  501  0.00000000000E+00  0.00000000000E+00 -0.70055033122E+03  0.70055033124E+03  0.50400001928E-02 0. -1.
    10030    2    1    2    0    0  0.00000000000E+00  0.00000000000E+00  0.13463595458E+04  0.27474602082E+04  0.23949642105E+04 0.  0.
        2    1    3    3  502    0 -0.24485968052E+03 -0.11715225528E+04  0.71822822336E+03  0.13958055508E+04  0.25500000920E-02 0. -1.
       -2    1    3    3    0  502  0.24485968052E+03  0.11715225528E+04  0.62813132241E+03  0.13516546574E+04  0.25500000920E-02 0.  1.
</event>
<event>
 5   0  0.9176817E-06  0.2416822E+04  0.7818609E-02  0.8433232E-01
        1   -1    0    0  501    0  0.00000000000E+00  0.00000000000E+00  0.93914907383E+03  0.93914907385E+03  0.50400001928E-02 0. -1.
       -1   -1    0    0    0  501  0.00000000000E+00  0.00000000000E+00 -0.15548722876E+04  0.15548722876E+04  0.50400001928E-02 0.  1.
    10030    2    1    2    0    0  0.00000000000E+00  0.00000000000E+00 -0.61572321374E+03  0.24940213614E+04  0.24168217715E+04 0.  0.
        3    1    3    3  502    0 -0.12879153621E+03  0.86266824371E+03  0.55519852048E+03  0.10339386664E+04  0.10100000352E+00 0. -1.
       -3    1    3    3    0  502  0.12879153621E+03 -0.86266824371E+03 -0.11709217342E+04  0.14600826950E+04  0.10100000352E+00 0.  1.
</event>
<event>
 5   0  0.2080257E-05  0.2424668E+04  0.7818609E-02  0.8430326E-01
       -2   -1    0    0    0  501  0.00000000000E+00  0.00000000000E+00  0.16567530821E+04  0.16567530821E+04  0.25500000920E-02 0.  1.
        2   -1    0    0  501    0  0.00000000000E+00  0.00000000000E+00 -0.88712887449E+03  0.88712887449E+03  0.25500000920E-02 0. -1.
    10030    2    1    2    0    0  0.00000000000E+00  0.00000000000E+00  0.76962420759E+03  0.25438819566E+04  0.24246678098E+04 0.  0.
        1    1    3    3  502    0 -0.92055169607E+03  0.26932298353E+03 -0.39313190541E+03  0.10365823603E+04  0.50400001928E-02 0. -1.
       -1    1    3    3    0  502  0.92055169607E+03 -0.26932298353E+03  0.11627561130E+04  0.15072995963E+04  0.50400001928E-02 0.  1.
</event>
<event>
 5   0  0.8898848E-06  0.2410003E+04  0.7818609E-02  0.8435768E-01
        1   -1    0    0  501    0  0.00000000000E+00  0.00000000000E+00  0.12542359565E+04  0.12542359565E+04  0.50400001928E-02 0. -1.
       -1   -1    0    0    0  501  0.00000000000E+00  0.00000000000E+00 -0.11576992692E+04  0.11576992692E+04  0.50400001928E-02 0.  1.
    10030    2    1    2    0    0  0.00000000000E+00  0.00000000000E+00  0.96536687218E+02  0.24119352257E+04  0.24100025313E+04 0.  0.
        5    1    3    3  502    0  0.23850748712E+03  0.11698203241E+04  0.21161856234E+03  0.12125056363E+04  0.46999998093E+01 0.  1.
       -5    1    3    3    0  502 -0.23850748712E+03 -0.11698203241E+04 -0.11508187512E+03  0.11994295894E+04  0.46999998093E+01 0. -1.
</event>
<event>
 5   0  0.2087882E-05  0.2453065E+04  0.7818609E-02  0.8419900E-01
        2   -1    0    0  501    0  0.00000000000E+00  0.00000000000E+00  0.13120593412E+04  0.13120593412E+04  0.25500000920E-02 0.  1.
       -2   -1    0    0    0  501  0.00000000000E+00  0.00000000000E+00 -0.11465811137E+04  0.11465811137E+04  0.25500000920E-02 0. -1.
    10030    2    1    2    0    0  0.00000000000E+00  0.00000000000E+00  0.16547822745E+03  0.24586404549E+04  0.24530653972E+04 0.  0.
        2    1    3    3  502    0 -0.67837911866E+03 -0.36317214470E+03 -0.87457047237E+03  0.11648887271E+04  0.25500000920E-02 0. -1.
       -2    1    3    3    0  502  0.67837911866E+03  0.36317214470E+03  0.10400486998E+04  0.12937517279E+04  0.25500000920E-02 0.  1.
</event>
<event>
 5   0  0.9083687E-06  0.2327753E+04  0.7818609E-02  0.8467058E-01
       -1   -1    0    0    0  501  0.00000000000E+00  0.00000000000E+00  0.15594635377E+04  0.15594635377E+04  0.50400001928E-02 0.  1.
        1   -1    0    0  501    0  0.00000000000E+00  0.00000000000E+00 -0.86863736416E+03  0.86863736417E+03  0.50400001928E-02 0. -1.
    10030    2    1    2    0    0  0.00000000000E+00  0.00000000000E+00  0.69082617353E+03  0.24281009019E+04  0.23277528193E+04 0.  0.
        2    1    3    3  502    0  0.62267380495E+03 -0.28445500212E+03  0.13272505919E+04  0.14933959453E+04  0.25500000920E-02 0.  1.
       -2    1    3    3    0  502 -0.62267380495E+03  0.28445500212E+03 -0.63642441838E+03  0.93470495661E+03  0.25500000920E-02 0. -1.
</event>
<event>
 5   0  0.2122194E-05  0.2383199E+04  0.7818609E-02  0.8445821E-01
       -2   -1    0    0    0  501  0.00000000000E+00  0.00000000000E+00  0.77979598332E+03  0.77979598333E+03  0.25500000920E-02 0. -1.
        2   -1    0    0  501    0  0.00000000000E+00  0.00000000000E+00 -0.18208726997E+04  0.18208726998E+04  0.25500000920E-02 0.  1.
    10030    2    1    2    0    0  0.00000000000E+00  0.00000000000E+00 -0.10410767164E+04  0.26006686831E+04  0.23831988733E+04 0.  0.
        3    1    3    3  502    0  0.93196914071E+03  0.37333694609E+03  0.17987344354E+03  0.10199516755E+04  0.10100000352E+00 0. -1.
       -3    1    3    3    0  502 -0.93196914071E+03 -0.37333694609E+03 -0.12209501600E+04  0.15807170075E+04  0.10100000352E+00 0.  1.
</event>
<event>
 5   0  0.9038897E-06  0.2397776E+04  0.7818609E-02  0.8440337E-01
       -1   -1    0    0    0  501  0.00000000000E+00  0.00000000000E+00  0.16520301650E+04  0.16520301650E+04  0.50400001928E-02 0. -1.
        1   -1    0    0  501    0  0.00000000000E+00  0.00000000000E+00 -0.87004035506E+03  0.87004035507E+03  0.50400001928E-02 0.  1.
    10030    2    1    2    0    0  0.00000000000E+00  0.00000000000E+00  0.78198980997E+03  0.25220705201E+04  0.23977763961E+04 0.  0.
        1    1    3    3  502    0  0.11534434712E+04  0.26994216194E+03  0.19695359773E+03  0.12008710720E+04  0.50400001928E-02 0.  1.
       -1    1    3    3    0  502 -0.11534434712E+04 -0.26994216194E+03  0.58503621224E+03  0.13211994481E+04  0.50400001928E-02 0. -1.
</event>
<event>
 5   0  0.2122194E-05  0.2409798E+04  0.7818609E-02  0.8435844E-01
       -2   -1    0    0    0  501  0.00000000000E+00  0.00000000000E+00  0.10671032383E+04  0.10671032383E+04  0.25500000920E-02 0. -1.
        2   -1    0    0  501    0  0.00000000000E+00  0.00000000000E+00 -0.13604883927E+04  0.13604883927E+04  0.25500000920E-02 0.  1.
    10030    2    1    2    0    0  0.00000000000E+00  0.00000000000E+00 -0.29338515442E+03  0.24275916310E+04  0.24097979746E+04 0.  0.
        3    1    3    3  502    0  0.82027602068E+03 -0.43338035712E+03  0.62782138460E+03  0.11201923876E+04  0.10100000352E+00 0. -1.
       -3    1    3    3    0  502 -0.82027602068E+03  0.43338035712E+03 -0.92120653903E+03  0.13073992435E+04  0.10100000352E+00 0.  1.
</event>
<event>
 5   0  0.9176817E-06  0.2416846E+04  0.7818609E-02  0.8433224E-01
       -1   -1    0    0    0  501  0.00000000000E+00  0.00000000000E+00  0.20360766126E+04  0.20360766126E+04  0.50400001928E-02 0. -1.
        1   -1    0    0  501    0  0.00000000000E+00  0.00000000000E+00 -0.71720587323E+03  0.71720587324E+03  0.50400001928E-02 0.  1.
    10030    2    1    2    0    0  0.00000000000E+00  0.00000000000E+00  0.13188707394E+04  0.27532824859E+04  0.24168459652E+04 0.  0.
        3    1    3    3  502    0 -0.10617389200E+03 -0.20605057247E+03 -0.69164246652E+03  0.72945119470E+03  0.10100000352E+00 0.  1.
       -3    1    3    3    0  502  0.10617389200E+03  0.20605057247E+03  0.20105132059E+04  0.20238312912E+04  0.10100000352E+00 0. -1.
</event>
<event>
 5   0  0.8898848E-06  0.2462526E+04  0.7818609E-02  0.8416459E-01
       -1   -1    0    0    0  501  0.00000000000E+00  0.00000000000E+00  0.72860024270E+03  0.72860024271E+03  0.50400001928E-02 0.  1.
        1   -1    0    0  501    0  0.00000000000E+00  0.00000000000E+00 -0.20807139681E+04  0.20807139681E+04  0.50400001928E-02 0. -1.
    10030    2    1    2    0    0  0.00000000000E+00  0.00000000000E+00 -0.13521137254E+04  0.28093142108E+04  0.24625261031E+04 0.  0.
        5    1    3    3  502    0 -0.46966927221E+03  0.52453055721E+03 -0.18283845180E+04  0.19592686305E+04  0.46999998093E+01 0. -1.
       -5    1    3    3    0  502  0.46966927221E+03 -0.52453055721E+03  0.47627079263E+03  0.85004558031E+03  0.46999998093E+01 0.  1.
</event>
<event>
 5   0  0.9176817E-06  0.2410545E+04  0.7818609E-02  0.8435566E-01
       -1   -1    0    0    0  501  0.00000000000E+00  0.00000000000E+00  0.75353667537E+03  0.75353667539E+03  0.50400001928E-02 0.  1.
        1   -1    0    0  501    0  0.00000000000E+00  0.00000000000E+00 -0.19278176994E+04  0.19278176994E+04  0.50400001928E-02 0. -1.
    10030    2    1    2    0    0  0.00000000000E+00  0.00000000000E+00 -0.11742810240E+04  0.26813543748E+04  0.24105446189E+04 0.  0.
        3    1    3    3  502    0  0.33667479934E+03  0.82520451203E+03  0.31541454070E+03  0.94540930282E+03  0.10100000352E+00 0.  1.
       -3    1    3    3    0  502 -0.33667479934E+03 -0.82520451203E+03 -0.14896955647E+04  0.17359450720E+04  0.10100000352E+00 0. -1.
</event>
<event>
 5   0  0.2048028E-05  0.2406277E+04  0.7818609E-02  0.8437157E-01
        2   -1    0    0  501    0  0.00000000000E+00  0.00000000000E+00  0.11220480862E+04  0.11220480862E+04  0.25500000920E-02 0. -1.
       -2   -1    0    0    0  501  0.00000000000E+00  0.00000000000E+00 -0.12900895339E+04  0.12900895339E+04  0.25500000920E-02 0.  1.
    10030    2    1    2    0    0  0.00000000000E+00  0.00000000000E+00 -0.16804144774E+03  0.24121376202E+04  0.24062772015E+04 0.  0.
        5    1    3    3  502    0  0.26267822356E+03  0.22969868201E+03 -0.12382410792E+04  0.12864775139E+04  0.46999998093E+01 0.  1.
       -5    1    3    3    0  502 -0.26267822356E+03 -0.22969868201E+03  0.10701996314E+04  0.11256601062E+04  0.46999998093E+01 0. -1.
</event>
<event>
 5   0  0.2080257E-05  0.2399500E+04  0.7818609E-02  0.8439691E-01
        2   -1    0    0  501    0  0.00000000000E+00  0.00000000000E+00  0.15963896860E+04  0.15963896860E+04  0.25500000920E-02 0. -1.
       -2   -1    0    0    0  501  0.00000000000E+00  0.00000000000E+00 -0.90165926612E+03  0.90165926612E+03  0.25500000920E-02 0.  1.
    10030    2    1    2    0    0  0.00000000000E+00  0.00000000000E+00  0.69473041990E+03  0.24980489522E+04  0.23994995751E+04 0.  0.
        1    1    3    3  502    0 -0.78810621709E+03  0.40969120552E+02  0.12881440217E+04  0.15106637279E+04  0.50400001928E-02 0. -1.
       -1    1    3    3    0  502  0.78810621709E+03 -0.40969120552E+02 -0.59341360177E+03  0.98738522424E+03  0.50400001928E-02 0.  1.
</event>
<event>
 5   0  0.2080257E-05  0.2395522E+04  0.7818609E-02  0.8441182E-01
        2   -1    0    0  501    0  0.00000000000E+00  0.00000000000E+00  0.99528780391E+03  0.99528780392E+03  0.25500000920E-02 0. -1.
       -2   -1    0    0    0  501  0.00000000000E+00  0.00000000000E+00 -0.14414238637E+04  0.14414238637E+04  0.25500000920E-02 0.  1.
    10030    2    1    2    0    0  0.00000000000E+00  0.00000000000E+00 -0.44613605975E+03  0.24367116676E+04  0.23955221492E+04 0.  0.
        1    1    3    3  502    0 -0.37588539227E+03  0.74874345946E+03  0.64764382112E+03  0.10589377296E+04  0.50400001928E-02 0. -1.
       -1    1    3    3    0  502  0.37588539227E+03 -0.74874345946E+03 -0.10937798809E+04  0.13777739379E+04  0.50400001928E-02 0.  1.
</event>
<event>
 5   0  0.9083687E-06  0.2408231E+04  0.7818609E-02  0.8436428E-01
       -1   -1    0    0    0  501  0.00000000000E+00  0.00000000000E+00  0.10899452966E+04  0.10899452966E+04  0.50400001928E-02 0. -1.
        1   -1    0    0  501    0  0.00000000000E+00  0.00000000000E+00 -0.13302453636E+04  0.13302453636E+04  0.50400001928E-02 0.  1.
    10030    2    1    2    0    0  0.00000000000E+00  0.00000000000E+00 -0.24030006696E+03  0.24201906603E+04  0.24082314486E+04 0.  0.
        2    1    3    3  502    0 -0.38842785522E+03  0.10485130093E+04 -0.56917862332E+03  0.12546792557E+04  0.25500000920E-02 0.  1.
       -2    1    3    3    0  502  0.38842785522E+03 -0.10485130093E+04  0.32887855636E+03  0.11655114046E+04  0.25500000920E-02 0. -1.
</event>
<event>
 5   0  0.2048028E-05  0.2395265E+04  0.7818609E-02  0.8441278E-01
       -2   -1    0    0    0  501  0.00000000000E+00  0.00000000000E+00  0.49430346028E+03  0.49430346029E+03  0.25500000920E-02 0. -1.
        2   -1    0    0  501    0  0.00000000000E+00  0.00000000000E+00 -0.29017065959E+04  0.29017065959E+04  0.25500000920E-02 0.  1.
    10030    2    1    2    0    0  0.00000000000E+00  0.00000000000E+00 -0.24074031356E+04  0.33960100562E+04  0.23952650050E+04 0.  0.
        5    1    3    3  502    0 -0.19203480171E+03 -0.38109348986E+03  0.38283776932E+03  0.57332055667E+03  0.46999998093E+01 0. -1.
       -5    1    3    3    0  502  0.19203480171E+03  0.38109348986E+03 -0.27902409049E+04  0.28226894995E+04  0.46999998093E+01 0.  1.
</event>
<event>
 5   0  0.2087882E-05  0.2404556E+04  0.7818609E-02  0.8437800E-01
        2   -1    0    0  501    0  0.00000000000E+00  0.00000000000E+00  0.13158911014E+04  0.13158911014E+04  0.25500000920E-02 0. -1.
       -2   -1    0    0    0  501  0.00000000000E+00  0.00000000000E+00 -0.10984744644E+04  0.10984744644E+04  0.25500000920E-02 0.  1.
    10030    2    1    2    0    0  0.00000000000E+00  0.00000000000E+00  0.21741663693E+03  0.24143655658E+04  0.24045563190E+04 0.  0.
        2    1    3    3  502    0  0.62142402195E+03  0.98659835688E+03  0.40304002198E+03  0.12336877207E+04  0.25500000920E-02 0.  1.
       -2    1    3    3    0  502 -0.62142402195E+03 -0.98659835688E+03 -0.18562338505E+03  0.11806778451E+04  0.25500000920E-02 0. -1.
</event>
<event>
 5   0  0.8898848E-06  0.2402922E+04  0.7818609E-02  0.8438410E-01
        1   -1    0    0  501    0  0.00000000000E+00  0.00000000000E+00  0.75860474076E+03  0.75860474077E+03  0.50400001928E-02 0. -1.
       -1   -1    0    0    0  501  0.00000000000E+00  0.00000000000E+00 -0.19028466029E+04  0.19028466029E+04  0.50400001928E-02 0.  1.
    10030    2    1    2    0    0  0.00000000000E+00  0.00000000000E+00 -0.11442418621E+04  0.26614513436E+04  0.24029219329E+04 0.  0.
        5    1    3    3  502    0 -0.69243261227E+03 -0.81091653206E+03 -0.11852473799E+04  0.15943280673E+04  0.46999998093E+01 0.  1.
       -5    1    3    3    0  502  0.69243261227E+03  0.81091653206E+03  0.41005517797E+02  0.10671232764E+04  0.46999998093E+01 0. -1.
</event>
<event>
 5   0  0.8528103E-06  0.2406351E+04  0.7818609E-02  0.8437130E-01
        1   -1    0    0  501    0  0.00000000000E+00  0.00000000000E+00  0.85998548011E+03  0.85998548013E+03  0.50400001928E-02 0.  1.
       -1   -1    0    0    0  501  0.00000000000E+00  0.00000000000E+00 -0.16833199857E+04  0.16833199857E+04  0.50400001928E-02 0. -1.
    10030    2    1    2    0    0  0.00000000000E+00  0.00000000000E+00 -0.82333450563E+03  0.25433054659E+04  0.24063505531E+04 0.  0.
        4    1    3    3  502    0  0.11687012841E+04 -0.10078823775E+03 -0.12884021408E+03  0.11800942225E+04  0.12699999809E+01 0.  1.
       -4    1    3    3    0  502 -0.11687012841E+04  0.10078823775E+03 -0.69449429155E+03  0.13632112434E+04  0.12699999809E+01 0. -1.
</event>
<event>
 5   0  0.9176817E-06  0.2377208E+04  0.7818609E-02  0.8448086E-01
        1   -1    0    0  501    0  0.00000000000E+00  0.00000000000E+00  0.19915306517E+04  0.19915306517E+04  0.50400001928E-02 0.  1.
       -1   -1    0    0    0  501  0.00000000000E+00  0.00000000000E+00 -0.70939349332E+03  0.70939349334E+03  0.50400001928E-02 0. -1.
    10030    2    1    2    0    0  0.00000000000E+00  0.00000000000E+00  0.12821371584E+04  0.27009241451E+04  0.23772075098E+04 0.  0.
        3    1    3    3  502    0  0.55632969963E+03 -0.10053896881E+04  0.98656246003E+03  0.15144691008E+04  0.10100000352E+00 0.  1.
       -3    1    3    3    0  502 -0.55632969963E+03  0.10053896881E+04  0.29557469838E+03  0.11864550443E+04  0.10100000352E+00 0. -1.
</event>
<event>
 5   0  0.8898848E-06  0.2395500E+04  0.7818609E-02  0.8441190E-01
        1   -1    0    0  501    0  0.00000000000E+00  0.00000000000E+00  0.21341943818E+04  0.21341943818E+04  0.50400001928E-02 0. -1.
       -1   -1    0    0    0  501  0.00000000000E+00  0.00000000000E+00 -0.67219967941E+03  0.67219967943E+03  0.50400001928E-02 0.  1.
    10030    2    1    2    0    0  0.00000000000E+00  0.00000000000E+00  0.14619947024E+04  0.28063940613E+04  0.23954997635E+04 0.  0.
        5    1    3    3  502    0  0.54340291872E+03  0.80200342863E+03 -0.94149422966E+02  0.97333572597E+03  0.46999998093E+01 0.  1.
       -5    1    3    3    0  502 -0.54340291872E+03 -0.80200342863E+03  0.15561441254E+04  0.18330583353E+04  0.46999998093E+01 0. -1.
</event>
<event>
 5   0  0.2087882E-05  0.2396744E+04  0.7818609E-02  0.8440724E-01
       -2   -1    0    0    0  501  0.00000000000E+00  0.00000000000E+00  0.14120732979E+04  0.14120732979E+04  0.25500000920E-02 0.  1.
        2   -1    0    0  501    0  0.00000000000E+00  0.00000000000E+00 -0.10170117295E+04  0.10170117295E+04  0.25500000920E-02 0. -1.
    10030    2    1    2    0    0  0.00000000000E+00  0.00000000000E+00  0.39506156841E+03  0.24290850274E+04  0.23967437133E+04 0.  0.
        2    1    3    3  502    0 -0.10108790404E+03 -0.11248153014E+04 -0.20871072841E+03  0.11484722002E+04  0.25500000920E-02 0. -1.
       -2    1    3    3    0  502  0.10108790404E+03  0.11248153014E+04  0.60377229682E+03  0.12806128271E+04  0.25500000920E-02 0.  1.
</event>
<event>
 5   0  0.2087882E-05  0.2390323E+04  0.7818609E-02  0.8443135E-01
       -2   -1    0    0    0  501  0.00000000000E+00  0.00000000000E+00  0.10908861883E+04  0.10908861883E+04  0.25500000920E-02 0.  1.
        2   -1    0    0  501    0  0.00000000000E+00  0.00000000000E+00 -0.13094046038E+04  0.13094046038E+04  0.25500000920E-02 0. -1.
    10030    2    1    2    0    0  0.00000000000E+00  0.00000000000E+00 -0.21851841555E+03  0.24002907921E+04  0.23903233230E+04 0.  0.
        2    1    3    3  502    0  0.49309821522E+03  0.66264962048E+03  0.75814892761E+03  0.11211780259E+04  0.25500000920E-02 0.  1.
       -2    1    3    3    0  502 -0.49309821522E+03 -0.66264962048E+03 -0.97666734316E+03  0.12791127662E+04  0.25500000920E-02 0. -1.
</event>
<event>
 5   0  0.8528103E-06  0.2398128E+04  0.7818609E-02  0.8440205E-01
        1   -1    0    0  501    0  0.00000000000E+00  0.00000000000E+00  0.84695178933E+03  0.84695178935E+03  0.50400001928E-02 0. -1.
       -1   -1    0    0    0  501  0.00000000000E+00  0.00000000000E+00 -0.16975642300E+04  0.16975642300E+04  0.50400001928E-02 0.  1.
    10030    2    1    2    0    0  0.00000000000E+00  0.00000000000E+00 -0.85061244065E+03  0.25445160193E+04  0.23981284887E+04 0.  0.
        4    1    3    3  502    0  0.16614043638E+03 -0.89841869779E+03  0.39862217397E+03  0.99682498545E+03  0.12699999809E+01 0. -1.
       -4    1    3    3    0  502 -0.16614043638E+03  0.89841869779E+03 -0.12492346146E+04  0.15476910339E+04  0.12699999809E+01 0.  1.
</event>
<event>
 5   0  0.9038897E-06  0.2414347E+04  0.7818609E-02  0.8434152E-01
        1   -1    0    0  501    0  0.00000000000E+00  0.00000000000E+00  0.73928902627E+03  0.73928902628E+03  0.50400001928E-02 0. -1.
       -1   -1    0    0    0  501  0.00000000000E+00  0.00000000000E+00 -0.19711745007E+04  0.19711745007E+04  0.50400001928E-02 0.  1.
    10030    2    1    2    0    0  0.00000000000E+00  0.00000000000E+00 -0.12318854744E+04  0.27104635269E+04  0.24143468493E+04 0.  0.
        1    1    3    3  502    0 -0.87313817393E+03  0.12468060655E+03 -0.15412615327E+04  0.17757822605E+04  0.50400001928E-02 0.  1.
       -1    1    3    3    0  502  0.87313817393E+03 -0.12468060655E+03  0.30937605830E+03  0.93468126647E+03  0.50400001928E-02 0. -1.
</event>
<event>
 5   0  0.9038897E-06  0.2406106E+04  0.7818609E-02  0.8437221E-01
        1   -1    0    0  501    0  0.00000000000E+00  0.00000000000E+00  0.17413424745E+04  0.17413424745E+04  0.50400001928E-02 0. -1.
       -1   -1    0    0    0  501  0.00000000000E+00  0.00000000000E+00 -0.83116165177E+03  0.83116165178E+03  0.50400001928E-02 0.  1.
    10030    2    1    2    0    0  0.00000000000E+00  0.00000000000E+00  0.91018082274E+03  0.25725041263E+04  0.24061064710E+04 0.  0.
        1    1    3    3  502    0 -0.41072338198E+03  0.10831525264E+04  0.10794536330E+03  0.11634282503E+04  0.50400001928E-02 0.  1.
       -1    1    3    3    0  502  0.41072338198E+03 -0.10831525264E+04  0.80223545944E+03  0.14090758760E+04  0.50400001928E-02 0. -1.
</event>
<event>
 5   0  0.8898848E-06  0.2305206E+04  0.7818609E-02  0.8475871E-01
       -1   -1    0    0    0  501  0.00000000000E+00  0.00000000000E+00  0.10654756802E+04  0.10654756802E+04  0.50400001928E-02 0.  1.
        1   -1    0    0  501    0  0.00000000000E+00  0.00000000000E+00 -0.12468552690E+04  0.12468552691E+04  0.50400001928E-02 0. -1.
    10030    2    1    2    0    0  0.00000000000E+00  0.00000000000E+00 -0.18137958889E+03  0.23123309492E+04  0.23052062518E+04 0.  0.
        5    1    3    3  502    0 -0.40367242504E+03 -0.83444472208E+02 -0.11703795831E+04  0.12408565047E+04  0.46999998093E+01 0. -1.
       -5    1    3    3    0  502  0.40367242504E+03  0.83444472208E+02  0.98899999423E+03  0.10714744445E+04  0.46999998093E+01 0.  1.
</event>
<event>
 5   0  0.2025353E-05  0.2402932E+04  0.7818609E-02  0.8438407E-01
       -2   -1    0    0    0  501  0.00000000000E+00  0.00000000000E+00  0.17565277792E+04  0.17565277792E+04  0.25500000920E-02 0.  1.
        2   -1    0    0  501    0  0.00000000000E+00  0.00000000000E+00 -0.82180330442E+03  0.82180330442E+03  0.25500000920E-02 0. -1.
    10030    2    1    2    0    0  0.00000000000E+00  0.00000000000E+00  0.93472447479E+03  0.25783310836E+04  0.24029318203E+04 0.  0.
        4    1    3    3  502    0  0.11797719366E+04  0.18909431178E+03  0.33206184200E+03  0.12401149789E+04  0.12699999809E+01 0. -1.
       -4    1    3    3    0  502 -0.11797719366E+04 -0.18909431178E+03  0.60266263279E+03  0.13382161047E+04  0.12699999809E+01 0.  1.
</event>
<event>
 5   0  0.2122194E-05  0.2398742E+04  0.7818609E-02  0.8439975E-01
        2   -1    0    0  501    0  0.00000000000E+00  0.00000000000E+00  0.86521515917E+03  0.86521515918E+03  0.25500000920E-02 0.  1.
       -2   -1    0    0    0  501  0.00000000000E+00  0.00000000000E+00 -0.16625821426E+04  0.16625821426E+04  0.25500000920E-02 0. -1.
    10030    2    1    2    0    0  0.00000000000E+00  0.00000000000E+00 -0.79736698346E+03  0.25277973018E+04  0.23987423982E+04 0.  0.
        3    1    3    3  502    0  0.45442839894E+03 -0.36106591275E+03 -0.15047316774E+04  0.16127898791E+04  0.10100000352E+00 0. -1.
       -3    1    3    3    0  502 -0.45442839894E+03  0.36106591275E+03  0.70736469393E+03  0.91500742267E+03  0.10100000352E+00 0.  1.
</event>
<event>
 5   0  0.2080257E-05  0.2405115E+04  0.7818609E-02  0.8437591E-01
       -2   -1    0    0    0  501  0.00000000000E+00  0.00000000000E+00  0.80327747434E+03  0.80327747434E+03  0.25500000920E-02 0. -1.
        2   -1    0    0  501    0  0.00000000000E+00  0.00000000000E+00 -0.18003049832E+04  0.18003049832E+04  0.25500000920E-02 0.  1.
    10030    2    1    2    0    0  0.00000000000E+00  0.00000000000E+00 -0.99702750882E+03  0.26035824575E+04  0.24051149161E+04 0.  0.
        1    1    3    3  502    0 -0.12939815371E+02  0.11743872335E+04 -0.21874673487E+03  0.11946559952E+04  0.50400001928E-02 0. -1.
       -1    1    3    3    0  502  0.12939815371E+02 -0.11743872335E+04 -0.77828077395E+03  0.14089264623E+04  0.50400001928E-02 0.  1.
</event>
<event>
 5   0  0.2122194E-05  0.2395166E+04  0.7818609E-02  0.8441315E-01
        2   -1    0    0  501    0  0.00000000000E+00  0.00000000000E+00  0.21041179806E+04  0.21041179806E+04  0.25500000920E-02 0.  1.
       -2   -1    0    0    0  501  0.00000000000E+00  0.00000000000E+00 -0.68161826651E+03  0.68161826651E+03  0.25500000920E-02 0. -1.
    10030    2    1    2    0    0  0.00000000000E+00  0.00000000000E+00  0.14224997141E+04  0.27857362471E+04  0.23951661741E+04 0.  0.
        3    1    3    3  502    0  0.10195538301E+04 -0.62800752755E+03  0.73211297320E+03  0.14035216004E+04  0.10100000352E+00 0.  1.
       -3    1    3    3    0  502 -0.10195538301E+04  0.62800752755E+03  0.69038674085E+03  0.13822146466E+04  0.10100000352E+00 0. -1.
</event>
<event>
 5   0  0.2048028E-05  0.2399841E+04  0.7818609E-02  0.8439563E-01
        2   -1    0    0  501    0  0.00000000000E+00  0.00000000000E+00  0.11101847129E+04  0.11101847129E+04  0.25500000920E-02 0. -1.
       -2   -1    0    0    0  501  0.00000000000E+00  0.00000000000E+00 -0.12969095858E+04  0.12969095858E+04  0.25500000920E-02 0.  1.
    10030    2    1    2    0    0  0.00000000000E+00  0.00000000000E+00 -0.18672487287E+03  0.24070942987E+04  0.23998409915E+04 0.  0.
        5    1    3    3  502    0 -0.71150693243E+03 -0.38320521666E+03 -0.98300359693E+03  0.12725590417E+04  0.46999998093E+01 0.  1.
       -5    1    3    3    0  502  0.71150693243E+03  0.38320521666E+03  0.79627872406E+03  0.11345352570E+04  0.46999998093E+01 0. -1.
</event>
<event>
 5   0  0.2048028E-05  0.2426628E+04  0.7818609E-02  0.8429601E-01
        2   -1    0    0  501    0  0.00000000000E+00  0.00000000000E+00  0.13463525459E+04  0.13463525459E+04  0.25500000920E-02 0. -1.
       -2   -1    0    0    0  501  0.00000000000E+00  0.00000000000E+00 -0.10934215550E+04  0.10934215550E+04  0.25500000920E-02 0.  1.
    10030    2    1    2    0    0  0.00000000000E+00  0.00000000000E+00  0.25293099082E+03  0.24397741009E+04  0.24266280262E+04 0.  0.
        5    1    3    3  502    0  0.14513268013E+03  0.12011736665E+04  0.21766041653E+03  0.12293412133E+04  0.46999998093E+01 0. -1.
       -5    1    3    3    0  502 -0.14513268013E+03 -0.12011736665E+04  0.35270574284E+02  0.12104328876E+04  0.46999998093E+01 0.  1.
</event>
<event>
 5   0  0.9038897E-06  0.2408635E+04  0.7818609E-02  0.8436278E-01
        1   -1    0    0  501    0  0.00000000000E+00  0.00000000000E+00  0.12072257481E+04  0.12072257481E+04  0.50400001928E-02 0. -1.
       -1   -1    0    0    0  501  0.00000000000E+00  0.00000000000E+00 -0.12014166242E+04  0.12014166242E+04  0.50400001928E-02 0.  1.
    10030    2    1    2    0    0  0.00000000000E+00  0.00000000000E+00  0.58091239168E+01  0.24086423723E+04  0.24086353671E+04 0.  0.
        1    1    3    3  502    0 -0.25199367803E+03  0.45043594619E+03 -0.10852106040E+04  0.12016968880E+04  0.50400001928E-02 0.  1.
       -1    1    3    3    0  502  0.25199367803E+03 -0.45043594619E+03  0.10910197280E+04  0.12069454844E+04  0.50400001928E-02 0. -1.
</event>
<event>
 5   0  0.2025353E-05  0.2414493E+04  0.7818609E-02  0.8434098E-01
       -2   -1    0    0    0  501  0.00000000000E+00  0.00000000000E+00  0.11827099776E+04  0.11827099776E+04  0.25500000920E-02 0. -1.
        2   -1    0    0  501    0  0.00000000000E+00  0.00000000000E+00 -0.12322916327E+04  0.12322916327E+04  0.25500000920E-02 0.  1.
    10030    2    1    2    0    0  0.00000000000E+00  0.00000000000E+00 -0.49581655053E+02  0.24150016104E+04  0.24144925839E+04 0.  0.
        4    1    3    3  502    0  0.44068731143E+03  0.31006667379E+03  0.10557587997E+04  0.11853163732E+04  0.12699999809E+01 0. -1.
       -4    1    3    3    0  502 -0.44068731143E+03 -0.31006667379E+03 -0.11053404547E+04  0.12296852371E+04  0.12699999809E+01 0.  1.
</event>
<event>
 5   0  0.9176817E-06  0.2403643E+04  0.7818609E-02  0.8438141E-01
        1   -1    0    0  501    0  0.00000000000E+00  0.00000000000E+00  0.12622504533E+04  0.12622504533E+04  0.50400001928E-02 0.  1.
       -1   -1    0    0    0  501  0.00000000000E+00  0.00000000000E+00 -0.11442853412E+04  0.11442853412E+04  0.50400001928E-02 0. -1.
    10030    2    1    2    0    0  0.00000000000E+00  0.00000000000E+00  0.11796511208E+03  0.24065357945E+04  0.24036428109E+04 0.  0.
        3    1    3    3  502    0  0.81946384150E+03  0.28774931224E+03  0.89067727191E+03  0.12440364412E+04  0.10100000352E+00 0.  1.
       -3    1    3    3    0  502 -0.81946384150E+03 -0.28774931224E+03 -0.77271215983E+03  0.11624993533E+04  0.10100000352E+00 0. -1.
</event>
<event>
 5   0  0.9083687E-06  0.2401603E+04  0.7818609E-02  0.8438904E-01
        1   -1    0    0  501    0  0.00000000000E+00  0.00000000000E+00  0.14653453188E+04  0.14653453188E+04  0.50400001928E-02 0.  1.
       -1   -1    0    0    0  501  0.00000000000E+00  0.00000000000E+00 -0.98401686201E+03  0.98401686202E+03  0.50400001928E-02 0. -1.
    10030    2    1    2    0    0  0.00000000000E+00  0.00000000000E+00  0.48132845677E+03  0.24493621808E+04  0.24016032165E+04 0.  0.
        2    1    3    3  502    0 -0.73598394762E+03 -0.65754573159E+03 -0.45696016335E+03  0.10875896980E+04  0.25500000920E-02 0. -1.
       -2    1    3    3    0  502  0.73598394762E+03  0.65754573159E+03  0.93828862012E+03  0.13617724828E+04  0.25500000920E-02 0.  1.
</event>
<event>
 5   0  0.8528103E-06  0.2389021E+04  0.7818609E-02  0.8443625E-01
        1   -1    0    0  501    0  0.00000000000E+00  0.00000000000E+00  0.17211518052E+04  0.17211518052E+04  0.50400001928E-02 0. -1.
       -1   -1    0    0    0  501  0.00000000000E+00  0.00000000000E+00 -0.82901174921E+03  0.82901174923E+03  0.50400001928E-02 0.  1.
    10030    2    1    2    0    0  0.00000000000E+00  0.00000000000E+00  0.89214005597E+03  0.25501635544E+04  0.23890207774E+04 0.  0.
        4    1    3    3  502    0 -0.85872602740E+02  0.10763660295E+04  0.99132303128E+03  0.14658311290E+04  0.12699999809E+01 0.  1.
       -4    1    3    3    0  502  0.85872602740E+02 -0.10763660295E+04 -0.99182975318E+02  0.10843324254E+04  0.12699999809E+01 0. -1.
</event>
<event>
 5   0  0.2025353E-05  0.2321837E+04  0.7818609E-02  0.8469361E-01
       -2   -1    0    0    0  501  0.00000000000E+00  0.00000000000E+00  0.56648619404E+03  0.56648619404E+03  0.25500000920E-02 0.  1.
        2   -1    0    0  501    0  0.00000000000E+00  0.00000000000E+00 -0.23791072067E+04  0.23791072067E+04  0.25500000920E-02 0. -1.
    10030    2    1    2    0    0  0.00000000000E+00  0.00000000000E+00 -0.18126210126E+04  0.29455934007E+04  0.23218366753E+04 0.  0.
        4    1    3    3  502    0  0.72181877048E+03 -0.89744576734E+03 -0.72116381405E+03  0.13588635334E+04  0.12699999809E+01 0.  1.
       -4    1    3    3    0  502 -0.72181877048E+03  0.89744576734E+03 -0.10914571986E+04  0.15867298674E+04  0.12699999809E+01 0. -1.
</event>
<event>
 5   0  0.8898848E-06  0.2338870E+04  0.7818609E-02  0.8462751E-01
        1   -1    0    0  501    0  0.00000000000E+00  0.00000000000E+00  0.24402144580E+04  0.24402144580E+04  0.50400001928E-02 0. -1.
       -1   -1    0    0    0  501  0.00000000000E+00  0.00000000000E+00 -0.56043356323E+03  0.56043356325E+03  0.50400001928E-02 0.  1.
    10030    2    1    2    0    0  0.00000000000E+00  0.00000000000E+00  0.18797808948E+04  0.30006480213E+04  0.23388698842E+04 0.  0.
        5    1    3    3  502    0 -0.86032906774E+03  0.50782600096E+03  0.16002843284E+03  0.10117729693E+04  0.46999998093E+01 0.  1.
       -5    1    3    3    0  502  0.86032906774E+03 -0.50782600096E+03  0.17197524619E+04  0.19888750520E+04  0.46999998093E+01 0. -1.
</event>
<event>
 5   0  0.8898848E-06  0.2388542E+04  0.7818609E-02  0.8443806E-01
       -1   -1    0    0    0  501  0.00000000000E+00  0.00000000000E+00  0.14001162555E+04  0.14001162555E+04  0.50400001928E-02 0.  1.
        1   -1    0    0  501    0  0.00000000000E+00  0.00000000000E+00 -0.10186892673E+04  0.10186892673E+04  0.50400001928E-02 0. -1.
    10030    2    1    2    0    0  0.00000000000E+00  0.00000000000E+00  0.38142698822E+03  0.24188055228E+04  0.23885421516E+04 0.  0.
        5    1    3    3  502    0  0.92125700921E+03 -0.49062677531E+03  0.77843941405E+03  0.13020826091E+04  0.46999998093E+01 0.  1.
       -5    1    3    3    0  502 -0.92125700921E+03  0.49062677531E+03 -0.39701242583E+03  0.11167229137E+04  0.46999998093E+01 0. -1.
</event>
<event>
 5   0  0.8898848E-06  0.2410055E+04  0.7818609E-02  0.8435749E-01
       -1   -1    0    0    0  501  0.00000000000E+00  0.00000000000E+00  0.14495386545E+04  0.14495386545E+04  0.50400001928E-02 0.  1.
        1   -1    0    0  501    0  0.00000000000E+00  0.00000000000E+00 -0.10017611299E+04  0.10017611299E+04  0.50400001928E-02 0. -1.
    10030    2    1    2    0    0  0.00000000000E+00  0.00000000000E+00  0.44777752468E+03  0.24512997844E+04  0.24100551698E+04 0.  0.
        5    1    3    3  502    0  0.32505756391E+03  0.51054838383E+03 -0.83593542155E+03  0.10320524168E+04  0.46999998093E+01 0. -1.
       -5    1    3    3    0  502 -0.32505756391E+03 -0.51054838383E+03  0.12837129462E+04  0.14192473676E+04  0.46999998093E+01 0.  1.
</event>
<event>
 5   0  0.2048028E-05  0.2450044E+04  0.7818609E-02  0.8421002E-01
       -2   -1    0    0    0  501  0.00000000000E+00  0.00000000000E+00  0.76536200148E+03  0.76536200148E+03  0.25500000920E-02 0. -1.
        2   -1    0    0  501    0  0.00000000000E+00  0.00000000000E+00 -0.19607436431E+04  0.19607436431E+04  0.25500000920E-02 0.  1.
    10030    2    1    2    0    0  0.00000000000E+00  0.00000000000E+00 -0.11953816416E+04  0.27261056446E+04  0.24500438193E+04 0.  0.
        5    1    3    3  502    0  0.65557847812E+03  0.28539301691E+03 -0.17044677830E+04  0.18483681528E+04  0.46999998093E+01 0.  1.
       -5    1    3    3    0  502 -0.65557847812E+03 -0.28539301691E+03  0.50908614139E+03  0.87773749175E+03  0.46999998093E+01 0. -1.
</event>
<event>
 5   0  0.2080257E-05  0.2387334E+04  0.7818609E-02  0.8444261E-01
        2   -1    0    0  501    0  0.00000000000E+00  0.00000000000E+00  0.10405410378E+04  0.10405410378E+04  0.25500000920E-02 0.  1.
       -2   -1    0    0    0  501  0.00000000000E+00  0.00000000000E+00 -0.13693264535E+04  0.13693264535E+04  0.25500000920E-02 0. -1.
    10030    2    1    2    0    0  0.00000000000E+00  0.00000000000E+00 -0.32878541570E+03  0.24098674913E+04  0.23873335493E+04 0.  0.
        1    1    3    3  502    0 -0.85150769672E+03 -0.12726507667E+03 -0.99898485638E+03  0.13187996439E+04  0.50400001928E-02 0. -1.
       -1    1    3    3    0  502  0.85150769672E+03  0.12726507667E+03  0.67019944069E+03  0.10910678474E+04  0.50400001928E-02 0.  1.
</event>
<event>
 5   0  0.9083687E-06  0.2453613E+04  0.7818609E-02  0.8419700E-01
        1   -1    0    0  501    0  0.00000000000E+00  0.00000000000E+00  0.13084221637E+04  0.13084221637E+04  0.50400001928E-02 0. -1.
       -1   -1    0    0    0  501  0.00000000000E+00  0.00000000000E+00 -0.11502821473E+04  0.11502821473E+04  0.50400001928E-02 0.  1.
    10030    2    1    2    0    0  0.00000000000E+00  0.00000000000E+00  0.15814001647E+03  0.24587043110E+04  0.24536133812E+04 0.  0.
        2    1    3    3  502    0  0.13237005890E+03 -0.12064540646E+04 -0.10019055315E+03  0.12178223965E+04  0.25500000920E-02 0.  1.
       -2    1    3    3    0  502 -0.13237005890E+03  0.12064540646E+04  0.25833056962E+03  0.12408819145E+04  0.25500000920E-02 0. -1.
</event>
<event>
 5   0  0.2048028E-05  0.2407491E+04  0.7818609E-02  0.8436704E-01
       -2   -1    0    0    0  501  0.00000000000E+00  0.00000000000E+00  0.10289949592E+04  0.10289949592E+04  0.25500000920E-02 0. -1.
        2   -1    0    0  501    0  0.00000000000E+00  0.00000000000E+00 -0.14081730268E+04  0.14081730268E+04  0.25500000920E-02 0.  1.
    10030    2    1    2    0    0  0.00000000000E+00  0.00000000000E+00 -0.37917806767E+03  0.24371679860E+04  0.24074907653E+04 0.  0.
        5    1    3    3  502    0  0.18448623131E+03  0.10197138482E+04  0.43043904800E+03  0.11221191406E+04  0.46999998093E+01 0.  1.
       -5    1    3    3    0  502 -0.18448623131E+03 -0.10197138482E+04 -0.80961711567E+03  0.13150488454E+04  0.46999998093E+01 0. -1.
</event>
<event>
 5   0  0.2080257E-05  0.2381289E+04  0.7818609E-02  0.8446542E-01
        2   -1    0    0  501    0  0.00000000000E+00  0.00000000000E+00  0.13731265448E+04  0.13731265448E+04  0.25500000920E-02 0.  1.
       -2   -1    0    0    0  501  0.00000000000E+00  0.00000000000E+00 -0.10324132089E+04  0.10324132089E+04  0.25500000920E-02 0. -1.
    10030    2    1    2    0    0  0.00000000000E+00  0.00000000000E+00  0.34071333584E+03  0.24055397537E+04  0.23812887119E+04 0.  0.
        1    1    3    3  502    0 -0.68690841478E+03 -0.44384507256E+03 -0.70378372415E+03  0.10789592898E+04  0.50400001928E-02 0. -1.
       -1    1    3    3    0  502  0.68690841478E+03  0.44384507256E+03  0.10444970600E+04  0.13265804638E+04  0.50400001928E-02 0.  1.
</event>
<event>
 5   0  0.7233625E-06  0.2390315E+04  0.7818609E-02  0.8443138E-01
        3   -1    0    0  501    0  0.00000000000E+00  0.00000000000E+00  0.18087538755E+04  0.18087538783E+04  0.10100000352E+00 0.  1.
       -3   -1    0    0    0  501  0.00000000000E+00  0.00000000000E+00 -0.78971606191E+03  0.78971606837E+03  0.10100000352E+00 0. -1.
    10030    2    1    2    0    0  0.00000000000E+00  0.00000000000E+00  0.10190378136E+04  0.25984699467E+04  0.23903154600E+04 0.  0.
        5    1    3    3  502    0  0.11115429414E+04  0.94175042407E+02  0.43233704366E+02  0.11163726494E+04  0.46999998093E+01 0. -1.
       -5    1    3    3    0  502 -0.11115429414E+04 -0.94175042407E+02  0.97580410924E+03  0.14820972973E+04  0.46999998093E+01 0.  1.
</event>
<event>
 5   0  0.2080257E-05  0.2394944E+04  0.7818609E-02  0.8441399E-01
        2   -1    0    0  501    0  0.00000000000E+00  0.00000000000E+00  0.19658468253E+04  0.19658468253E+04  0.25500000920E-02 0. -1.
       -2   -1    0    0    0  501  0.00000000000E+00  0.00000000000E+00 -0.72942570532E+03  0.72942570533E+03  0.25500000920E-02 0.  1.
    10030    2    1    2    0    0  0.00000000000E+00  0.00000000000E+00  0.12364211200E+04  0.26952725306E+04  0.23949440136E+04 0.  0.
        1    1    3    3  502    0  0.12976252055E+03 -0.28672654932E+03 -0.68204841841E+03  0.75115941777E+03  0.50400001928E-02 0.  1.
       -1    1    3    3    0  502 -0.12976252055E+03  0.28672654932E+03  0.19184695384E+04  0.19441131129E+04  0.50400001928E-02 0. -1.
</event>
<event>
 5   0  0.2122194E-05  0.2409546E+04  0.7818609E-02  0.8435938E-01
       -2   -1    0    0    0  501  0.00000000000E+00  0.00000000000E+00  0.12520957854E+04  0.12520957854E+04  0.25500000920E-02 0. -1.
        2   -1    0    0  501    0  0.00000000000E+00  0.00000000000E+00 -0.11592385353E+04  0.11592385353E+04  0.25500000920E-02 0.  1.
    10030    2    1    2    0    0  0.00000000000E+00  0.00000000000E+00  0.92857250085E+02  0.24113343207E+04  0.24095457533E+04 0.  0.
        3    1    3    3  502    0 -0.43757467432E+03 -0.73214398558E+03  0.89792521716E+03  0.12384571519E+04  0.10100000352E+00 0. -1.
       -3    1    3    3    0  502  0.43757467432E+03  0.73214398558E+03 -0.80506796707E+03  0.11728771688E+04  0.10100000352E+00 0.  1.
</event>
<event>
 5   0  0.8528103E-06  0.2346609E+04  0.7818609E-02  0.8459767E-01
        1   -1    0    0  501    0  0.00000000000E+00  0.00000000000E+00  0.12378197242E+04  0.12378197242E+04  0.50400001928E-02 0.  1.
       -1   -1    0    0    0  501  0.00000000000E+00  0.00000000000E+00 -0.11121516615E+04  0.11121516615E+04  0.50400001928E-02 0. -1.
    10030    2    1    2    0    0  0.00000000000E+00  0.00000000000E+00  0.12566806272E+03  0.23499713857E+04  0.23466088408E+04 0.  0.
        4    1    3    3  502    0  0.42802905459E+03  0.40449283407E+03  0.10790878243E+04  0.12293313101E+04  0.12699999809E+01 0.  1.
       -4    1    3    3    0  502 -0.42802905459E+03 -0.40449283407E+03 -0.95341976161E+03  0.11206400756E+04  0.12699999809E+01 0. -1.
</event>
<event>
 5   0  0.8528103E-06  0.2378714E+04  0.7818609E-02  0.8447516E-01
       -1   -1    0    0    0  501  0.00000000000E+00  0.00000000000E+00  0.12223080844E+04  0.12223080845E+04  0.50400001928E-02 0. -1.
        1   -1    0    0  501    0  0.00000000000E+00  0.00000000000E+00 -0.11572943840E+04  0.11572943840E+04  0.50400001928E-02 0.  1.
    10030    2    1    2    0    0  0.00000000000E+00  0.00000000000E+00  0.65013700455E+02  0.23796024685E+04  0.23787141751E+04 0.  0.
        4    1    3    3  502    0  0.47198939070E+02  0.24996620840E+03 -0.11297608376E+04  0.11580466347E+04  0.12699999809E+01 0.  1.
       -4    1    3    3    0  502 -0.47198939070E+02 -0.24996620840E+03  0.11947745380E+04  0.12215558337E+04  0.12699999809E+01 0. -1.
</event>
<event>
 5   0  0.9038897E-06  0.2384014E+04  0.7818609E-02  0.8445513E-01
       -1   -1    0    0    0  501  0.00000000000E+00  0.00000000000E+00  0.89659959425E+03  0.89659959427E+03  0.50400001928E-02 0.  1.
        1   -1    0    0  501    0  0.00000000000E+00  0.00000000000E+00 -0.15847441483E+04  0.15847441483E+04  0.50400001928E-02 0. -1.
    10030    2    1    2    0    0  0.00000000000E+00  0.00000000000E+00 -0.68814455403E+03  0.24813437426E+04  0.23840142285E+04 0.  0.
        1    1    3    3  502    0 -0.96746976798E+03  0.57680814602E+03  0.61950650882E+02  0.11280705973E+04  0.50400001928E-02 0.  1.
       -1    1    3    3    0  502  0.96746976798E+03 -0.57680814602E+03 -0.75009520491E+03  0.13532731453E+04  0.50400001928E-02 0. -1.
</event>
<event>
 5   0  0.2048028E-05  0.2413197E+04  0.7818609E-02  0.8434579E-01
        2   -1    0    0  501    0  0.00000000000E+00  0.00000000000E+00  0.99330002512E+03  0.99330002513E+03  0.25500000920E-02 0. -1.
       -2   -1    0    0    0  501  0.00000000000E+00  0.00000000000E+00 -0.14657004150E+04  0.14657004150E+04  0.25500000920E-02 0.  1.
    10030    2    1    2    0    0  0.00000000000E+00  0.00000000000E+00 -0.47240038991E+03  0.24590004402E+04  0.24131972643E+04 0.  0.
        5    1    3    3  502    0  0.96680344844E+02  0.90272323031E+03 -0.10460182938E+04  0.13850749729E+04  0.46999998093E+01 0.  1.
       -5    1    3    3    0  502 -0.96680344844E+02 -0.90272323031E+03  0.57361790387E+03  0.10739254673E+04  0.46999998093E+01 0. -1.
</event>
<event>
 5   0  0.9038897E-06  0.2342031E+04  0.7818609E-02  0.8461531E-01
       -1   -1    0    0    0  501  0.00000000000E+00  0.00000000000E+00  0.11221999649E+04  0.11221999650E+04  0.50400001928E-02 0. -1.
        1   -1    0    0  501    0  0.00000000000E+00  0.00000000000E+00 -0.12219545630E+04  0.12219545630E+04  0.50400001928E-02 0.  1.
    10030    2    1    2    0    0  0.00000000000E+00  0.00000000000E+00 -0.99754598019E+02  0.23441545279E+04  0.23420310568E+04 0.  0.
        1    1    3    3  502    0  0.50530178753E+03 -0.69199147748E+03 -0.84878347141E+03  0.12060744101E+04  0.50400001928E-02 0.  1.
       -1    1    3    3    0  502 -0.50530178753E+03  0.69199147748E+03  0.74902887339E+03  0.11380801178E+04  0.50400001928E-02 0. -1.
</event>
<event>
 5   0  0.2048028E-05  0.2398619E+04  0.7818609E-02  0.8440021E-01
       -2   -1    0    0    0  501  0.00000000000E+00  0.00000000000E+00  0.82105042465E+03  0.82105042466E+03  0.25500000920E-02 0.  1.
        2   -1    0    0  501    0  0.00000000000E+00  0.00000000000E+00 -0.17518324363E+04  0.17518324363E+04  0.25500000920E-02 0. -1.
    10030    2    1    2    0    0  0.00000000000E+00  0.00000000000E+00 -0.93078201162E+03  0.25728828609E+04  0.23986185739E+04 0.  0.
        5    1    3    3  502    0  0.46991755047E+03  0.10813953425E+04 -0.23018339544E+03  0.12013512711E+04  0.46999998093E+01 0.  1.
       -5    1    3    3    0  502 -0.46991755047E+03 -0.10813953425E+04 -0.70059861618E+03  0.13715315899E+04  0.46999998093E+01 0. -1.
</event>
<event>
 5   0  0.2080257E-05  0.2376538E+04  0.7818609E-02  0.8448340E-01
        2   -1    0    0  501    0  0.00000000000E+00  0.00000000000E+00  0.19159834392E+04  0.19159834392E+04  0.25500000920E-02 0. -1.
       -2   -1    0    0    0  501  0.00000000000E+00  0.00000000000E+00 -0.73694945708E+03  0.73694945709E+03  0.25500000920E-02 0.  1.
    10030    2    1    2    0    0  0.00000000000E+00  0.00000000000E+00  0.11790339821E+04  0.26529328962E+04  0.23765377803E+04 0.  0.
        1    1    3    3  502    0 -0.75647339397E+03  0.67383475784E+03  0.12827732424E+04  0.16345679760E+04  0.50400001928E-02 0. -1.
       -1    1    3    3    0  502  0.75647339397E+03 -0.67383475784E+03 -0.10373926034E+03  0.10183649203E+04  0.50400001928E-02 0.  1.
</event>
<event>
 5   0  0.2025353E-05  0.2404290E+04  0.7818609E-02  0.8437899E-01
       -2   -1    0    0    0  501  0.00000000000E+00  0.00000000000E+00  0.80649787795E+03  0.80649787795E+03  0.25500000920E-02 0.  1.
        2   -1    0    0  501    0  0.00000000000E+00  0.00000000000E+00 -0.17918860682E+04  0.17918860682E+04  0.25500000920E-02 0. -1.
    10030    2    1    2    0    0  0.00000000000E+00  0.00000000000E+00 -0.98538819022E+03  0.25983839461E+04  0.24042897592E+04 0.  0.
        4    1    3    3  502    0 -0.31296245036E+03  0.96634805277E+03  0.20215338260E+03  0.10356841495E+04  0.12699999809E+01 0.  1.
       -4    1    3    3    0  502  0.31296245036E+03 -0.96634805277E+03 -0.11875415728E+04  0.15626997967E+04  0.12699999809E+01 0. -1.
</event>
<event>
 5   0  0.2048028E-05  0.2406678E+04  0.7818609E-02  0.8437008E-01
        2   -1    0    0  501    0  0.00000000000E+00  0.00000000000E+00  0.12008522740E+04  0.12008522740E+04  0.25500000920E-02 0.  1.
       -2   -1    0    0    0  501  0.00000000000E+00  0.00000000000E+00 -0.12058312176E+04  0.12058312176E+04  0.25500000920E-02 0. -1.
    10030    2    1    2    0    0  0.00000000000E+00  0.00000000000E+00 -0.49789436035E+01  0.24066834916E+04  0.24066783414E+04 0.  0.
        5    1    3    3  502    0 -0.19620152911E+03 -0.43548722355E+03  0.11019851222E+04  0.12010568102E+04  0.46999998093E+01 0.  1.
       -5    1    3    3    0  502  0.19620152911E+03  0.43548722355E+03 -0.11069640658E+04  0.12056266814E+04  0.46999998093E+01 0. -1.
</event>
<event>
 5   0  0.8528103E-06  0.2338881E+04  0.7818609E-02  0.8462747E-01
       -1   -1    0    0    0  501  0.00000000000E+00  0.00000000000E+00  0.16037215582E+04  0.16037215583E+04  0.50400001928E-02 0.  1.
        1   -1    0    0  501    0  0.00000000000E+00  0.00000000000E+00 -0.85276101947E+03  0.85276101948E+03  0.50400001928E-02 0. -1.
    10030    2    1    2    0    0  0.00000000000E+00  0.00000000000E+00  0.75096053878E+03  0.24564825777E+04  0.23388811265E+04 0.  0.
        4    1    3    3  502    0 -0.25279646384E+03  0.17812566360E+03 -0.80903695578E+03  0.86612771165E+03  0.12699999809E+01 0. -1.
       -4    1    3    3    0  502  0.25279646384E+03 -0.17812566360E+03  0.15599974946E+04  0.15903548661E+04  0.12699999809E+01 0.  1.
</event>
<event>
 5   0  0.2080257E-05  0.2401588E+04  0.7818609E-02  0.8438909E-01
       -2   -1    0    0    0  501  0.00000000000E+00  0.00000000000E+00  0.79310643003E+03  0.79310643004E+03  0.25500000920E-02 0.  1.
        2   -1    0    0  501    0  0.00000000000E+00  0.00000000000E+00 -0.18180492206E+04  0.18180492206E+04  0.25500000920E-02 0. -1.
    10030    2    1    2    0    0  0.00000000000E+00  0.00000000000E+00 -0.10249427906E+04  0.26111556507E+04  0.24015882470E+04 0.  0.
        1    1    3    3  502    0  0.81868626445E+03 -0.10669559342E+03  0.43555335156E+03  0.93345480412E+03  0.50400001928E-02 0.  1.
       -1    1    3    3    0  502 -0.81868626445E+03  0.10669559342E+03 -0.14604961422E+04  0.16777008466E+04  0.50400001928E-02 0. -1.
</event>
<event>
 5   0  0.8528103E-06  0.2364246E+04  0.7818609E-02  0.8453012E-01
       -1   -1    0    0    0  501  0.00000000000E+00  0.00000000000E+00  0.79872438014E+03  0.79872438016E+03  0.50400001928E-02 0.  1.
        1   -1    0    0  501    0  0.00000000000E+00  0.00000000000E+00 -0.17495575886E+04  0.17495575886E+04  0.50400001928E-02 0. -1.
    10030    2    1    2    0    0  0.00000000000E+00  0.00000000000E+00 -0.95083320846E+03  0.25482819688E+04  0.23642455884E+04 0.  0.
        4    1    3    3  502    0  0.97246065595E+02 -0.10800854839E+04  0.31708944448E+02  0.10849186697E+04  0.12699999809E+01 0.  1.
       -4    1    3    3    0  502 -0.97246065595E+02  0.10800854839E+04 -0.98254215291E+03  0.14633632990E+04  0.12699999809E+01 0. -1.
</event>
<event>
 5   0  0.9083687E-06  0.2419181E+04  0.7818609E-02  0.8432357E-01
       -1   -1    0    0    0  501  0.00000000000E+00  0.00000000000E+00  0.76747953486E+03  0.76747953488E+03  0.50400001928E-02 0. -1.
        1   -1    0    0  501    0  0.00000000000E+00  0.00000000000E+00 -0.19063817074E+04  0.19063817074E+04  0.50400001928E-02 0.  1.
    10030    2    1    2    0    0  0.00000000000E+00  0.00000000000E+00 -0.11389021726E+04  0.26738612423E+04  0.24191808086E+04 0.  0.
        2    1    3    3  502    0  0.46965774674E+03  0.86712871544E+03  0.20472976650E+03  0.10071766903E+04  0.25500000920E-02 0. -1.
       -2    1    3    3    0  502 -0.46965774674E+03 -0.86712871544E+03 -0.13436319391E+04  0.16666845520E+04  0.25500000920E-02 0.  1.
</event>
<event>
 5   0  0.7233625E-06  0.2398912E+04  0.7818609E-02  0.8439911E-01
        4   -1    0    0  501    0  0.00000000000E+00  0.00000000000E+00  0.69232784934E+03  0.69232901417E+03  0.12699999809E+01 0.  1.
       -4   -1    0    0    0  501  0.00000000000E+00  0.00000000000E+00 -0.20780506920E+04  0.20780510801E+04  0.12699999809E+01 0. -1.
    10030    2    1    2    0    0  0.00000000000E+00  0.00000000000E+00 -0.13857228427E+04  0.27703800943E+04  0.23989118513E+04 0.  0.
        5    1    3    3  502    0  0.86081779416E+03  0.66845259152E+03 -0.11447212319E+03  0.10958841631E+04  0.46999998093E+01 0.  1.
       -5    1    3    3    0  502 -0.86081779416E+03 -0.66845259152E+03 -0.12712507195E+04  0.16744959312E+04  0.46999998093E+01 0. -1.
</event>
<event>
 5   0  0.9038897E-06  0.2408164E+04  0.7818609E-02  0.8436454E-01
        1   -1    0    0  501    0  0.00000000000E+00  0.00000000000E+00  0.14709470095E+04  0.14709470095E+04  0.50400001928E-02 0.  1.
       -1   -1    0    0    0  501  0.00000000000E+00  0.00000000000E+00 -0.98563234017E+03  0.98563234018E+03  0.50400001928E-02 0. -1.
    10030    2    1    2    0    0  0.00000000000E+00  0.00000000000E+00  0.48531466937E+03  0.24565793497E+04  0.24081635686E+04 0.  0.
        1    1    3    3  502    0  0.48734813290E+03  0.67643128639E+03  0.11288845203E+04  0.14033701393E+04  0.50400001928E-02 0.  1.
       -1    1    3    3    0  502 -0.48734813290E+03 -0.67643128639E+03 -0.64356985090E+03  0.10532092104E+04  0.50400001928E-02 0. -1.
</event>
<event>
 5   0  0.8528103E-06  0.2396327E+04  0.7818609E-02  0.8440880E-01
       -1   -1    0    0    0  501  0.00000000000E+00  0.00000000000E+00  0.89666320062E+03  0.89666320064E+03  0.50400001928E-02 0. -1.
        1   -1    0    0  501    0  0.00000000000E+00  0.00000000000E+00 -0.16010417954E+04  0.16010417954E+04  0.50400001928E-02 0.  1.
    10030    2    1    2    0    0  0.00000000000E+00  0.00000000000E+00 -0.70437859481E+03  0.24977049961E+04  0.23963265726E+04 0.  0.
        4    1    3    3  502    0  0.65580982711E+03 -0.16439418423E+03  0.67884113957E+03  0.95809127061E+03  0.12699999809E+01 0. -1.
       -4    1    3    3    0  502 -0.65580982711E+03  0.16439418423E+03 -0.13832197344E+04  0.15396137255E+04  0.12699999809E+01 0.  1.
</event>
<event>
 5   0  0.2025353E-05  0.2364983E+04  0.7818609E-02  0.8452731E-01
        2   -1    0    0  501    0  0.00000000000E+00  0.00000000000E+00  0.31102710539E+04  0.31102710539E+04  0.25500000920E-02 0. -1.
       -2   -1    0    0    0  501  0.00000000000E+00  0.00000000000E+00 -0.44957059480E+03  0.44957059481E+03  0.25500000920E-02 0.  1.
    10030    2    1    2    0    0  0.00000000000E+00  0.00000000000E+00  0.26607004591E+04  0.35598416487E+04  0.23649832200E+04 0.  0.
        4    1    3    3  502    0 -0.28270962892E+03 -0.62234836332E+03  0.27827540636E+04  0.28654779725E+04  0.12699999809E+01 0. -1.
       -4    1    3    3    0  502  0.28270962892E+03  0.62234836332E+03 -0.12205360445E+03  0.69436367623E+03  0.12699999809E+01 0.  1.
</event>
<event>
 5   0  0.2025353E-05  0.2405667E+04  0.7818609E-02  0.8437385E-01
       -2   -1    0    0    0  501  0.00000000000E+00  0.00000000000E+00  0.14573801042E+04  0.14573801042E+04  0.25500000920E-02 0. -1.
        2   -1    0    0  501    0  0.00000000000E+00  0.00000000000E+00 -0.99274591819E+03  0.99274591820E+03  0.25500000920E-02 0.  1.
    10030    2    1    2    0    0  0.00000000000E+00  0.00000000000E+00  0.46463418598E+03  0.24501260224E+04  0.24056667680E+04 0.  0.
        4    1    3    3  502    0 -0.20533023797E+02 -0.10647270883E+04  0.80188495327E+03  0.13330740672E+04  0.12699999809E+01 0. -1.
       -4    1    3    3    0  502  0.20533023797E+02  0.10647270883E+04 -0.33725076730E+03  0.11170519551E+04  0.12699999809E+01 0.  1.
</event>
<event>
 5   0  0.8898848E-06  0.2389346E+04  0.7818609E-02  0.8443503E-01
        1   -1    0    0  501    0  0.00000000000E+00  0.00000000000E+00  0.57425473416E+03  0.57425473418E+03  0.50400001928E-02 0. -1.
       -1   -1    0    0    0  501  0.00000000000E+00  0.00000000000E+00 -0.24853842710E+04  0.24853842710E+04  0.50400001928E-02 0.  1.
    10030    2    1    2    0    0  0.00000000000E+00  0.00000000000E+00 -0.19111295368E+04  0.30596390052E+04  0.23893460895E+04 0.  0.
        5    1    3    3  502    0  0.45329300814E+03  0.10430894872E+04 -0.14238120753E+04  0.18222988628E+04  0.46999998093E+01 0.  1.
       -5    1    3    3    0  502 -0.45329300814E+03 -0.10430894872E+04 -0.48731746156E+03  0.12373401424E+04  0.46999998093E+01 0. -1.
</event>
<event>
 5   0  0.2087882E-05  0.2402401E+04  0.7818609E-02  0.8438605E-01
       -2   -1    0    0    0  501  0.00000000000E+00  0.00000000000E+00  0.69816294740E+03  0.69816294740E+03  0.25500000920E-02 0. -1.
        2   -1    0    0  501    0  0.00000000000E+00  0.00000000000E+00 -0.20666852478E+04  0.20666852478E+04  0.25500000920E-02 0.  1.
    10030    2    1    2    0    0  0.00000000000E+00  0.00000000000E+00 -0.13685223004E+04  0.27648481952E+04  0.24024013520E+04 0.  0.
        2    1    3    3  502    0 -0.75837900752E+01  0.31923388009E+03 -0.20169427376E+04  0.20420641006E+04  0.25500000920E-02 0.  1.
       -2    1    3    3    0  502  0.75837900752E+01 -0.31923388009E+03  0.64842043720E+03  0.72278409463E+03  0.25500000920E-02 0. -1.
</event>
<event>
 5   0  0.8898848E-06  0.2392656E+04  0.7818609E-02  0.8442258E-01
       -1   -1    0    0    0  501  0.00000000000E+00  0.00000000000E+00  0.94017548178E+03  0.94017548180E+03  0.50400001928E-02 0.  1.
        1   -1    0    0  501    0  0.00000000000E+00  0.00000000000E+00 -0.15222695718E+04  0.15222695718E+04  0.50400001928E-02 0. -1.
    10030    2    1    2    0    0  0.00000000000E+00  0.00000000000E+00 -0.58209408997E+03  0.24624450536E+04  0.23926558700E+04 0.  0.
        5    1    3    3  502    0  0.27715781909E+03 -0.91025826497E+03  0.45521824657E+03  0.10548138735E+04  0.46999998093E+01 0.  1.
       -5    1    3    3    0  502 -0.27715781909E+03  0.91025826497E+03 -0.10373123365E+04  0.14076311801E+04  0.46999998093E+01 0. -1.
</event>
<event>
 5   0  0.2080257E-05  0.2401393E+04  0.7818609E-02  0.8438982E-01
       -2   -1    0    0    0  501  0.00000000000E+00  0.00000000000E+00  0.12146393317E+04  0.12146393317E+04  0.25500000920E-02 0.  1.
        2   -1    0    0  501    0  0.00000000000E+00  0.00000000000E+00 -0.11869140510E+04  0.11869140510E+04  0.25500000920E-02 0. -1.
    10030    2    1    2    0    0  0.00000000000E+00  0.00000000000E+00  0.27725280751E+02  0.24015533827E+04  0.24013933370E+04 0.  0.
        1    1    3    3  502    0 -0.40773026861E+03 -0.11275244684E+04 -0.50306197817E+02  0.12000358796E+04  0.50400001928E-02 0. -1.
       -1    1    3    3    0  502  0.40773026861E+03  0.11275244684E+04  0.78031478568E+02  0.12015175031E+04  0.50400001928E-02 0.  1.
</event>
<event>
 5   0  0.2025353E-05  0.2403147E+04  0.7818609E-02  0.8438326E-01
        2   -1    0    0  501    0  0.00000000000E+00  0.00000000000E+00  0.16657066190E+04  0.16657066190E+04  0.25500000920E-02 0.  1.
       -2   -1    0    0    0  501  0.00000000000E+00  0.00000000000E+00 -0.86676629926E+03  0.86676629927E+03  0.25500000920E-02 0. -1.
    10030    2    1    2    0    0  0.00000000000E+00  0.00000000000E+00  0.79894031972E+03  0.25324729183E+04  0.24031465721E+04 0.  0.
        4    1    3    3  502    0  0.72360597887E+03  0.85120708699E+03 -0.66618512039E+02  0.11191955846E+04  0.12699999809E+01 0. -1.
       -4    1    3    3    0  502 -0.72360597887E+03 -0.85120708699E+03  0.86555883176E+03  0.14132773336E+04  0.12699999809E+01 0.  1.
</event>
<event>
 5   0  0.9176817E-06  0.2405906E+04  0.7818609E-02  0.8437296E-01
       -1   -1    0    0    0  501  0.00000000000E+00  0.00000000000E+00  0.85434584274E+03  0.85434584275E+03  0.50400001928E-02 0.  1.
        1   -1    0    0  501    0  0.00000000000E+00  0.00000000000E+00 -0.16938058027E+04  0.16938058027E+04  0.50400001928E-02 0. -1.
    10030    2    1    2    0    0  0.00000000000E+00  0.00000000000E+00 -0.83945995992E+03  0.25481516454E+04  0.24059060214E+04 0.  0.
        3    1    3    3  502    0 -0.71567767138E+02  0.11895459521E+04 -0.24584519095E+03  0.12167914306E+04  0.10100000352E+00 0.  1.
       -3    1    3    3    0  502  0.71567767138E+02 -0.11895459521E+04 -0.59361476897E+03  0.13313602148E+04  0.10100000352E+00 0. -1.
</event>
<event>
 5   0  0.2025353E-05  0.2403766E+04  0.7818609E-02  0.8438095E-01
        2   -1    0    0  501    0  0.00000000000E+00  0.00000000000E+00  0.85644357418E+03  0.85644357418E+03  0.25500000920E-02 0. -1.
       -2   -1    0    0    0  501  0.00000000000E+00  0.00000000000E+00 -0.16866520436E+04  0.16866520436E+04  0.25500000920E-02 0.  1.
    10030    2    1    2    0    0  0.00000000000E+00  0.00000000000E+00 -0.83020846942E+03  0.25430956178E+04  0.24037656330E+04 0.  0.
        4    1    3    3  502    0  0.10592923198E+04  0.55111277779E+03 -0.55975987845E+03  0.13187714916E+04  0.12699999809E+01 0.  1.
       -4    1    3    3    0  502 -0.10592923198E+04 -0.55111277779E+03 -0.27044859096E+03  0.12243241262E+04  0.12699999809E+01 0. -1.
</event>
<event>
 5   0  0.2048028E-05  0.2415299E+04  0.7818609E-02  0.8433798E-01
       -2   -1    0    0    0  501  0.00000000000E+00  0.00000000000E+00  0.98065430760E+03  0.98065430760E+03  0.25500000920E-02 0.  1.
        2   -1    0    0  501    0  0.00000000000E+00  0.00000000000E+00 -0.14871880523E+04  0.14871880523E+04  0.25500000920E-02 0. -1.
    10030    2    1    2    0    0  0.00000000000E+00  0.00000000000E+00 -0.50653374470E+03  0.24678423599E+04  0.24152990454E+04 0.  0.
        5    1    3    3  502    0 -0.97796063245E+03 -0.50030615717E+03 -0.76585979906E+03  0.13391327684E+04  0.46999998093E+01 0. -1.
       -5    1    3    3    0  502  0.97796063245E+03  0.50030615717E+03  0.25932605436E+03  0.11287095915E+04  0.46999998093E+01 0.  1.
</event>
<event>
 5   0  0.2080257E-05  0.2388922E+04  0.7818609E-02  0.8443663E-01
       -2   -1    0    0    0  501  0.00000000000E+00  0.00000000000E+00  0.96421483780E+03  0.96421483781E+03  0.25500000920E-02 0.  1.
        2   -1    0    0  501    0  0.00000000000E+00  0.00000000000E+00 -0.14796881014E+04  0.14796881014E+04  0.25500000920E-02 0. -1.
    10030    2    1    2    0    0  0.00000000000E+00  0.00000000000E+00 -0.51547326358E+03  0.24439029392E+04  0.23889221190E+04 0.  0.
        1    1    3    3  502    0 -0.95180075475E+03  0.38742016880E+03 -0.88061592246E+03  0.13533305091E+04  0.50400001928E-02 0. -1.
       -1    1    3    3    0  502  0.95180075475E+03 -0.38742016880E+03  0.36514265888E+03  0.10905724301E+04  0.50400001928E-02 0.  1.
</event>
<event>
 5   0  0.8528103E-06  0.2448567E+04  0.7818609E-02  0.8421541E-01
       -1   -1    0    0    0  501  0.00000000000E+00  0.00000000000E+00  0.87421475945E+03  0.87421475947E+03  0.50400001928E-02 0.  1.
        1   -1    0    0  501    0  0.00000000000E+00  0.00000000000E+00 -0.17145328848E+04  0.17145328848E+04  0.50400001928E-02 0. -1.
    10030    2    1    2    0    0  0.00000000000E+00  0.00000000000E+00 -0.84031812536E+03  0.25887476443E+04  0.24485668898E+04 0.  0.
        4    1    3    3  502    0  0.34470925606E+01  0.96294830483E+03  0.37915770461E+03  0.10349123142E+04  0.12699999809E+01 0.  1.
       -4    1    3    3    0  502 -0.34470925606E+01 -0.96294830483E+03 -0.12194758300E+04  0.15538353301E+04  0.12699999809E+01 0. -1.
</event>
<event>
 5   0  0.2080257E-05  0.2389282E+04  0.7818609E-02  0.8443527E-01
        2   -1    0    0  501    0  0.00000000000E+00  0.00000000000E+00  0.10757037181E+04  0.10757037181E+04  0.25500000920E-02 0. -1.
       -2   -1    0    0    0  501  0.00000000000E+00  0.00000000000E+00 -0.13267288402E+04  0.13267288402E+04  0.25500000920E-02 0.  1.
    10030    2    1    2    0    0  0.00000000000E+00  0.00000000000E+00 -0.25102512216E+03  0.24024325583E+04  0.23892820230E+04 0.  0.
        1    1    3    3  502    0 -0.13149624425E+03  0.32243695576E+03 -0.12745666221E+04  0.13212785198E+04  0.50400001928E-02 0.  1.
       -1    1    3    3    0  502  0.13149624425E+03 -0.32243695576E+03  0.10235415000E+04  0.10811540385E+04  0.50400001928E-02 0. -1.
</event>
<event>
 5   0  0.9083687E-06  0.2400867E+04  0.7818609E-02  0.8439179E-01
       -1   -1    0    0    0  501  0.00000000000E+00  0.00000000000E+00  0.15456014827E+04  0.15456014827E+04  0.50400001928E-02 0. -1.
        1   -1    0    0  501    0  0.00000000000E+00  0.00000000000E+00 -0.93234910595E+03  0.93234910597E+03  0.50400001928E-02 0.  1.
    10030    2    1    2    0    0  0.00000000000E+00  0.00000000000E+00  0.61325237678E+03  0.24779505887E+04  0.24008666440E+04 0.  0.
        2    1    3    3  502    0 -0.41205577533E+03 -0.60834095968E+03 -0.67315325325E+03  0.99649585427E+03  0.25500000920E-02 0.  1.
       -2    1    3    3    0  502  0.41205577533E+03  0.60834095968E+03  0.12864056300E+04  0.14814547344E+04  0.25500000920E-02 0. -1.
</event>
<event>
 5   0  0.2122194E-05  0.2385555E+04  0.7818609E-02  0.8444932E-01
        2   -1    0    0  501    0  0.00000000000E+00  0.00000000000E+00  0.21445136902E+04  0.21445136902E+04  0.25500000920E-02 0. -1.
       -2   -1    0    0    0  501  0.00000000000E+00  0.00000000000E+00 -0.66342204450E+03  0.66342204450E+03  0.25500000920E-02 0.  1.
    10030    2    1    2    0    0  0.00000000000E+00  0.00000000000E+00  0.14810916457E+04  0.28079357347E+04  0.23855545744E+04 0.  0.
        3    1    3    3  502    0 -0.10012372682E+04 -0.47144234215E+03  0.12642819385E+04  0.16802210507E+04  0.10100000352E+00 0. -1.
       -3    1    3    3    0  502  0.10012372682E+04  0.47144234215E+03  0.21680970722E+03  0.11277146840E+04  0.10100000352E+00 0.  1.
</event>
<event>
 5   0  0.8528103E-06  0.2393225E+04  0.7818609E-02  0.8442044E-01
        1   -1    0    0  501    0  0.00000000000E+00  0.00000000000E+00  0.15845522536E+04  0.15845522536E+04  0.50400001928E-02 0. -1.
       -1   -1    0    0    0  501  0.00000000000E+00  0.00000000000E+00 -0.90365082465E+03  0.90365082466E+03  0.50400001928E-02 0.  1.
    10030    2    1    2    0    0  0.00000000000E+00  0.00000000000E+00  0.68090142897E+03  0.24882030783E+04  0.23932253974E+04 0.  0.
        4    1    3    3  502    0 -0.11930195881E+04 -0.62717528358E+02  0.41135632735E+03  0.12635049928E+04  0.12699999809E+01 0. -1.
       -4    1    3    3    0  502  0.11930195881E+04  0.62717528358E+02  0.26954510162E+03  0.12246980855E+04  0.12699999809E+01 0.  1.
</event>
<event>
 5   0  0.8528103E-06  0.2442634E+04  0.7818609E-02  0.8423712E-01
        1   -1    0    0  501    0  0.00000000000E+00  0.00000000000E+00  0.22931912962E+04  0.22931912963E+04  0.50400001928E-02 0.  1.
       -1   -1    0    0    0  501  0.00000000000E+00  0.00000000000E+00 -0.65045396184E+03  0.65045396186E+03  0.50400001928E-02 0. -1.
    10030    2    1    2    0    0  0.00000000000E+00  0.00000000000E+00  0.16427373344E+04  0.29436452581E+04  0.24426341224E+04 0.  0.
        4    1    3    3  502    0  0.52269714353E+03 -0.91967275073E+03  0.15569835454E+04  0.18823415327E+04  0.12699999809E+01 0.  1.
       -4    1    3    3    0  502 -0.52269714353E+03  0.91967275073E+03  0.85753789020E+02  0.10613037254E+04  0.12699999809E+01 0. -1.
</event>
<event>
 5   0  0.2080257E-05  0.2383440E+04  0.7818609E-02  0.8445729E-01
       -2   -1    0    0    0  501  0.00000000000E+00  0.00000000000E+00  0.84087921732E+03  0.84087921733E+03  0.25500000920E-02 0.  1.
        2   -1    0    0  501    0  0.00000000000E+00  0.00000000000E+00 -0.16889429899E+04  0.16889429899E+04  0.25500000920E-02 0. -1.
    10030    2    1    2    0    0  0.00000000000E+00  0.00000000000E+00 -0.84806377256E+03  0.25298222072E+04  0.23834404204E+04 0.  0.
        1    1    3    3  502    0 -0.11680314997E+04 -0.23635554702E+03 -0.41770506194E+03  0.12627901836E+04  0.50400001928E-02 0.  1.
       -1    1    3    3    0  502  0.11680314997E+04  0.23635554702E+03 -0.43035871062E+03  0.12670320236E+04  0.50400001928E-02 0. -1.
</event>
<event>
 5   0  0.2025353E-05  0.2387297E+04  0.7818609E-02  0.8444275E-01
        2   -1    0    0  501    0  0.00000000000E+00  0.00000000000E+00  0.22097080607E+04  0.22097080607E+04  0.25500000920E-02 0.  1.
       -2   -1    0    0    0  501  0.00000000000E+00  0.00000000000E+00 -0.64478977831E+03  0.64478977832E+03  0.25500000920E-02 0. -1.
    10030    2    1    2    0    0  0.00000000000E+00  0.00000000000E+00  0.15649182824E+04  0.28544978390E+04  0.23872973594E+04 0.  0.
        4    1    3    3  502    0  0.74045062191E+03 -0.85262238373E+03  0.32003977092E+03  0.11737372451E+04  0.12699999809E+01 0. -1.
       -4    1    3    3    0  502 -0.74045062191E+03  0.85262238373E+03  0.12448785114E+04  0.16807605939E+04  0.12699999809E+01 0.  1.
</event>
<event>
 5   0  0.8898848E-06  0.2397217E+04  0.7818609E-02  0.8440546E-01
       -1   -1    0    0    0  501  0.00000000000E+00  0.00000000000E+00  0.14134017350E+04  0.14134017350E+04  0.50400001928E-02 0. -1.
        1   -1    0    0  501    0  0.00000000000E+00  0.00000000000E+00 -0.10164573940E+04  0.10164573941E+04  0.50400001928E-02 0.  1.
    10030    2    1    2    0    0  0.00000000000E+00  0.00000000000E+00  0.39694434099E+03  0.24298591291E+04  0.23972172570E+04 0.  0.
        5    1    3    3  502    0  0.78828923015E+03 -0.30177125596E+03 -0.66409989761E+03  0.10740188850E+04  0.46999998093E+01 0.  1.
       -5    1    3    3    0  502 -0.78828923015E+03  0.30177125596E+03  0.10610442386E+04  0.13558402441E+04  0.46999998093E+01 0. -1.
</event>
<event>
 5   0  0.2080257E-05  0.2410676E+04  0.7818609E-02  0.8435518E-01
       -2   -1    0    0    0  501  0.00000000000E+00  0.00000000000E+00  0.85651412482E+03  0.85651412483E+03  0.25500000920E-02 0. -1.
        2   -1    0    0  501    0  0.00000000000E+00  0.00000000000E+00 -0.16962234354E+04  0.16962234354E+04  0.25500000920E-02 0.  1.
    10030    2    1    2    0    0  0.00000000000E+00  0.00000000000E+00 -0.83970931056E+03  0.25527375602E+04  0.24106756989E+04 0.  0.
        1    1    3    3  502    0 -0.14325531890E+03  0.11118271503E+04  0.49142257875E+02  0.11220947643E+04  0.50400001928E-02 0. -1.
       -1    1    3    3    0  502  0.14325531890E+03 -0.11118271503E+04 -0.88885156844E+03  0.14306427959E+04  0.50400001928E-02 0.  1.
</event>
<event>
 5   0  0.2122194E-05  0.2375170E+04  0.7818609E-02  0.8448858E-01
       -2   -1    0    0    0  501  0.00000000000E+00  0.00000000000E+00  0.21105272913E+04  0.21105272913E+04  0.25500000920E-02 0.  1.
        2   -1    0    0  501    0  0.00000000000E+00  0.00000000000E+00 -0.66824942967E+03  0.66824942967E+03  0.25500000920E-02 0. -1.
    10030    2    1    2    0    0  0.00000000000E+00  0.00000000000E+00  0.14422778616E+04  0.27787767210E+04  0.23751704433E+04 0.  0.
        3    1    3    3  502    0 -0.43266898613E+03 -0.49572517555E+03  0.18777780351E+04  0.19897226592E+04  0.10100000352E+00 0.  1.
       -3    1    3    3    0  502  0.43266898613E+03  0.49572517555E+03 -0.43550017342E+03  0.78905406182E+03  0.10100000352E+00 0. -1.
</event>
<event>
 5   0  0.9038897E-06  0.2404202E+04  0.7818609E-02  0.8437932E-01
        1   -1    0    0  501    0  0.00000000000E+00  0.00000000000E+00  0.23280202657E+04  0.23280202657E+04  0.50400001928E-02 0. -1.
       -1   -1    0    0    0  501  0.00000000000E+00  0.00000000000E+00 -0.62071936022E+03  0.62071936024E+03  0.50400001928E-02 0.  1.
    10030    2    1    2    0    0  0.00000000000E+00  0.00000000000E+00  0.17073009054E+04  0.29487396259E+04  0.24042023625E+04 0.  0.
        1    1    3    3  502    0 -0.31289491450E+03 -0.11093605553E+04  0.43508851773E+03  0.12320251975E+04  0.50400001928E-02 0.  1.
       -1    1    3    3    0  502  0.31289491450E+03  0.11093605553E+04  0.12722123877E+04  0.17167144284E+04  0.50400001928E-02 0. -1.
</event>
<event>
 5   0  0.8528103E-06  0.2359278E+04  0.7818609E-02  0.8454908E-01
        1   -1    0    0  501    0  0.00000000000E+00  0.00000000000E+00  0.14586039823E+04  0.14586039823E+04  0.50400001928E-02 0. -1.
       -1   -1    0    0    0  501  0.00000000000E+00  0.00000000000E+00 -0.95402770232E+03  0.95402770233E+03  0.50400001928E-02 0.  1.
    10030    2    1    2    0    0  0.00000000000E+00  0.00000000000E+00  0.50457627998E+03  0.24126316846E+04  0.23592783692E+04 0.  0.
        4    1    3    3  502    0  0.73115092092E+03  0.12012384510E+03  0.11909430745E+04  0.14026255476E+04  0.12699999809E+01 0. -1.
       -4    1    3    3    0  502 -0.73115092092E+03 -0.12012384510E+03 -0.68636679449E+03  0.10100061370E+04  0.12699999809E+01 0.  1.
</event>
<event>
 5   0  0.9176817E-06  0.2367019E+04  0.7818609E-02  0.8451955E-01
       -1   -1    0    0    0  501  0.00000000000E+00  0.00000000000E+00  0.13270285613E+04  0.13270285613E+04  0.50400001928E-02 0. -1.
        1   -1    0    0  501    0  0.00000000000E+00  0.00000000000E+00 -0.10555120062E+04  0.10555120062E+04  0.50400001928E-02 0.  1.
    10030    2    1    2    0    0  0.00000000000E+00  0.00000000000E+00  0.27151655509E+03  0.23825405676E+04  0.23670188669E+04 0.  0.
        3    1    3    3  502    0 -0.59387557155E+03  0.79554941041E+03  0.78427156649E+03  0.12651754657E+04  0.10100000352E+00 0. -1.
       -3    1    3    3    0  502  0.59387557155E+03 -0.79554941041E+03 -0.51275501140E+03  0.11173651018E+04  0.10100000352E+00 0.  1.
</event>
<event>
 5   0  0.8898848E-06  0.2378161E+04  0.7818609E-02  0.8447725E-01
        1   -1    0    0  501    0  0.00000000000E+00  0.00000000000E+00  0.16438728439E+04  0.16438728439E+04  0.50400001928E-02 0.  1.
       -1   -1    0    0    0  501  0.00000000000E+00  0.00000000000E+00 -0.86011050303E+03  0.86011050304E+03  0.50400001928E-02 0. -1.
    10030    2    1    2    0    0  0.00000000000E+00  0.00000000000E+00  0.78376234086E+03  0.25039833469E+04  0.23781608850E+04 0.  0.
        5    1    3    3  502    0  0.71974395102E+03 -0.88551382676E+03  0.74381715008E+03  0.13621498211E+04  0.46999998093E+01 0. -1.
       -5    1    3    3    0  502 -0.71974395102E+03  0.88551382676E+03  0.39945190774E+02  0.11418335258E+04  0.46999998093E+01 0.  1.
</event>
<event>
 5   0  0.9176817E-06  0.2401038E+04  0.7818609E-02  0.8439115E-01
       -1   -1    0    0    0  501  0.00000000000E+00  0.00000000000E+00  0.84658496241E+03  0.84658496242E+03  0.50400001928E-02 0.  1.
        1   -1    0    0  501    0  0.00000000000E+00  0.00000000000E+00 -0.17024237315E+04  0.17024237315E+04  0.50400001928E-02 0. -1.
    10030    2    1    2    0    0  0.00000000000E+00  0.00000000000E+00 -0.85583876913E+03  0.25490086940E+04  0.24010383844E+04 0.  0.
        3    1    3    3  502    0 -0.23228675092E+03 -0.11697452876E+04 -0.28164131873E+03  0.12253909642E+04  0.10100000352E+00 0.  1.
       -3    1    3    3    0  502  0.23228675092E+03  0.11697452876E+04 -0.57419745040E+03  0.13236177298E+04  0.10100000352E+00 0. -1.
</event>
<event>
 5   0  0.2025353E-05  0.2400154E+04  0.7818609E-02  0.8439446E-01
       -2   -1    0    0    0  501  0.00000000000E+00  0.00000000000E+00  0.11221085543E+04  0.11221085543E+04  0.25500000920E-02 0. -1.
        2   -1    0    0  501    0  0.00000000000E+00  0.00000000000E+00 -0.12834629923E+04  0.12834629923E+04  0.25500000920E-02 0.  1.
    10030    2    1    2    0    0  0.00000000000E+00  0.00000000000E+00 -0.16135443793E+03  0.24055715466E+04  0.24001539974E+04 0.  0.
        4    1    3    3  502    0  0.73893354354E+02 -0.94020309844E+02 -0.12774759998E+04  0.12830614129E+04  0.12699999809E+01 0.  1.
       -4    1    3    3    0  502 -0.73893354354E+02  0.94020309844E+02  0.11161215618E+04  0.11225101337E+04  0.12699999809E+01 0. -1.
</event>
<event>
 5   0  0.2080257E-05  0.2401260E+04  0.7818609E-02  0.8439032E-01
       -2   -1    0    0    0  501  0.00000000000E+00  0.00000000000E+00  0.60053156394E+03  0.60053156395E+03  0.25500000920E-02 0.  1.
        2   -1    0    0  501    0  0.00000000000E+00  0.00000000000E+00 -0.24003943296E+04  0.24003943296E+04  0.25500000920E-02 0. -1.
    10030    2    1    2    0    0  0.00000000000E+00  0.00000000000E+00 -0.17998627656E+04  0.30009258935E+04  0.24012601365E+04 0.  0.
        1    1    3    3  502    0 -0.14698533287E+03  0.87616031054E+03  0.10937595537E+03  0.89511154472E+03  0.50400001928E-02 0.  1.
       -1    1    3    3    0  502  0.14698533287E+03 -0.87616031054E+03 -0.19092387210E+04  0.21058143488E+04  0.50400001928E-02 0. -1.
</event>
<event>
 5   0  0.9083687E-06  0.2424829E+04  0.7818609E-02  0.8430266E-01
       -1   -1    0    0    0  501  0.00000000000E+00  0.00000000000E+00  0.13723048193E+04  0.13723048193E+04  0.50400001928E-02 0.  1.
        1   -1    0    0  501    0  0.00000000000E+00  0.00000000000E+00 -0.10711531816E+04  0.10711531816E+04  0.50400001928E-02 0. -1.
    10030    2    1    2    0    0  0.00000000000E+00  0.00000000000E+00  0.30115163770E+03  0.24434580010E+04  0.24248287968E+04 0.  0.
        2    1    3    3  502    0  0.41972715797E+03  0.40460641483E+03 -0.92063943024E+03  0.10897037206E+04  0.25500000920E-02 0. -1.
       -2    1    3    3    0  502 -0.41972715797E+03 -0.40460641483E+03  0.12217910679E+04  0.13537542804E+04  0.25500000920E-02 0.  1.
</event>
<event>
 5   0  0.2048028E-05  0.2397342E+04  0.7818609E-02  0.8440499E-01
       -2   -1    0    0    0  501  0.00000000000E+00  0.00000000000E+00  0.91677596514E+03  0.91677596514E+03  0.25500000920E-02 0.  1.
        2   -1    0    0  501    0  0.00000000000E+00  0.00000000000E+00 -0.15672452050E+04  0.15672452050E+04  0.25500000920E-02 0. -1.
    10030    2    1    2    0    0  0.00000000000E+00  0.00000000000E+00 -0.65046923989E+03  0.24840211702E+04  0.23973424749E+04 0.  0.
        5    1    3    3  502    0  0.29690102749E+03  0.58397451460E+03  0.71485880411E+03  0.96965027388E+03  0.46999998093E+01 0.  1.
       -5    1    3    3    0  502 -0.29690102749E+03 -0.58397451460E+03 -0.13653280440E+04  0.15143708963E+04  0.46999998093E+01 0. -1.
</event>
<event>
 5   0  0.9083687E-06  0.2396805E+04  0.7818609E-02  0.8440701E-01
       -1   -1    0    0    0  501  0.00000000000E+00  0.00000000000E+00  0.81197756091E+03  0.81197756092E+03  0.50400001928E-02 0. -1.
        1   -1    0    0  501    0  0.00000000000E+00  0.00000000000E+00 -0.17687293165E+04  0.17687293165E+04  0.50400001928E-02 0.  1.
    10030    2    1    2    0    0  0.00000000000E+00  0.00000000000E+00 -0.95675175558E+03  0.25807068774E+04  0.23968049702E+04 0.  0.
        2    1    3    3  502    0  0.69484046851E+03  0.96723673706E+03 -0.33464849018E+03  0.12370690337E+04  0.25500000920E-02 0. -1.
       -2    1    3    3    0  502 -0.69484046851E+03 -0.96723673706E+03 -0.62210326540E+03  0.13436378437E+04  0.25500000920E-02 0.  1.
</event>
<event>
 5   0  0.2087882E-05  0.2381878E+04  0.7818609E-02  0.8446319E-01
        2   -1    0    0  501    0  0.00000000000E+00  0.00000000000E+00  0.15426533482E+04  0.15426533482E+04  0.25500000920E-02 0. -1.
       -2   -1    0    0    0  501  0.00000000000E+00  0.00000000000E+00 -0.91941314694E+03  0.91941314694E+03  0.25500000920E-02 0.  1.
    10030    2    1    2    0    0  0.00000000000E+00  0.00000000000E+00  0.62324020129E+03  0.24620664952E+04  0.23818780569E+04 0.  0.
        2    1    3    3  502    0  0.40916310816E+03  0.54226045157E+03  0.13227520684E+04  0.14869881913E+04  0.25500000920E-02 0. -1.
       -2    1    3    3    0  502 -0.40916310816E+03 -0.54226045157E+03 -0.69951186716E+03  0.97507830389E+03  0.25500000920E-02 0.  1.
</event>
<event>
 5   0  0.2122194E-05  0.2370610E+04  0.7818609E-02  0.8450589E-01
        2   -1    0    0  501    0  0.00000000000E+00  0.00000000000E+00  0.15449032375E+04  0.15449032375E+04  0.25500000920E-02 0.  1.
       -2   -1    0    0    0  501  0.00000000000E+00  0.00000000000E+00 -0.90940839454E+03  0.90940839454E+03  0.25500000920E-02 0. -1.
    10030    2    1    2    0    0  0.00000000000E+00  0.00000000000E+00  0.63549484296E+03  0.24543116320E+04  0.23706100252E+04 0.  0.
        3    1    3    3  502    0 -0.45524869037E+03 -0.23883935264E+03 -0.78797531525E+03  0.94085105840E+03  0.10100000352E+00 0. -1.
       -3    1    3    3    0  502  0.45524869037E+03  0.23883935264E+03  0.14234701582E+04  0.15134605736E+04  0.10100000352E+00 0.  1.
</event>
<event>
 5   0  0.7233625E-06  0.2327718E+04  0.7818609E-02  0.8467072E-01
       -3   -1    0    0    0  501  0.00000000000E+00  0.00000000000E+00  0.10847409715E+04  0.10847409762E+04  0.10100000352E+00 0.  1.
        3   -1    0    0  501    0  0.00000000000E+00  0.00000000000E+00 -0.12487477531E+04  0.12487477572E+04  0.10100000352E+00 0. -1.
    10030    2    1    2    0    0  0.00000000000E+00  0.00000000000E+00 -0.16400678164E+03  0.23334887334E+04  0.23277180766E+04 0.  0.
        5    1    3    3  502    0  0.27279501484E+03 -0.14723499554E+03  0.10425844903E+04  0.10877038998E+04  0.46999998093E+01 0.  1.
       -5    1    3    3    0  502 -0.27279501484E+03  0.14723499554E+03 -0.12065912720E+04  0.12457848336E+04  0.46999998093E+01 0. -1.
</event>
<event>
 5   0  0.2080257E-05  0.2384152E+04  0.7818609E-02  0.8445461E-01
        2   -1    0    0  501    0  0.00000000000E+00  0.00000000000E+00  0.10482870614E+04  0.10482870614E+04  0.25500000920E-02 0. -1.
       -2   -1    0    0    0  501  0.00000000000E+00  0.00000000000E+00 -0.13555878168E+04  0.13555878168E+04  0.25500000920E-02 0.  1.
    10030    2    1    2    0    0  0.00000000000E+00  0.00000000000E+00 -0.30730075535E+03  0.24038748782E+04  0.23841519825E+04 0.  0.
        1    1    3    3  502    0 -0.83811334318E+03  0.67250909399E+03  0.36670294281E+03  0.11354177671E+04  0.50400001928E-02 0. -1.
       -1    1    3    3    0  502  0.83811334318E+03 -0.67250909399E+03 -0.67400369816E+03  0.12684571111E+04  0.50400001928E-02 0.  1.
</event>
<event>
 5   0  0.2025353E-05  0.2417099E+04  0.7818609E-02  0.8433129E-01
        2   -1    0    0  501    0  0.00000000000E+00  0.00000000000E+00  0.12534653534E+04  0.12534653534E+04  0.25500000920E-02 0.  1.
       -2   -1    0    0    0  501  0.00000000000E+00  0.00000000000E+00 -0.11652434660E+04  0.11652434660E+04  0.25500000920E-02 0. -1.
    10030    2    1    2    0    0  0.00000000000E+00  0.00000000000E+00  0.88221887339E+02  0.24187088194E+04  0.24170993467E+04 0.  0.
        4    1    3    3  502    0  0.93868653956E+03  0.50465486487E+03  0.61438668078E+03  0.12301550953E+04  0.12699999809E+01 0.  1.
       -4    1    3    3    0  502 -0.93868653956E+03 -0.50465486487E+03 -0.52616479344E+03  0.11885537240E+04  0.12699999809E+01 0. -1.
</event>
<event>
 5   0  0.8898848E-06  0.2397045E+04  0.7818609E-02  0.8440611E-01
        1   -1    0    0  501    0  0.00000000000E+00  0.00000000000E+00  0.12643184891E+04  0.12643184891E+04  0.50400001928E-02 0.  1.
       -1   -1    0    0    0  501  0.00000000000E+00  0.00000000000E+00 -0.11361508058E+04  0.11361508058E+04  0.50400001928E-02 0. -1.
    10030    2    1    2    0    0  0.00000000000E+00  0.00000000000E+00  0.12816768335E+03  0.24004692949E+04  0.23970452396E+04 0.  0.
        5    1    3    3  502    0  0.14304362253E+03 -0.11350631737E+04  0.42181182109E+03  0.12193347320E+04  0.46999998093E+01 0.  1.
       -5    1    3    3    0  502 -0.14304362253E+03  0.11350631737E+04 -0.29364413774E+03  0.11811345629E+04  0.46999998093E+01 0. -1.
</event>
<event>
 5   0  0.8528103E-06  0.2401871E+04  0.7818609E-02  0.8438803E-01
       -1   -1    0    0    0  501  0.00000000000E+00  0.00000000000E+00  0.81627700329E+03  0.81627700331E+03  0.50400001928E-02 0.  1.
        1   -1    0    0  501    0  0.00000000000E+00  0.00000000000E+00 -0.17668586342E+04  0.17668586342E+04  0.50400001928E-02 0. -1.
    10030    2    1    2    0    0  0.00000000000E+00  0.00000000000E+00 -0.95058163093E+03  0.25831356375E+04  0.24018709967E+04 0.  0.
        4    1    3    3  502    0  0.66836661738E+03 -0.98772588614E+03 -0.62711132565E+03  0.13474370446E+04  0.12699999809E+01 0. -1.
       -4    1    3    3    0  502 -0.66836661738E+03  0.98772588614E+03 -0.32347030528E+03  0.12356985930E+04  0.12699999809E+01 0.  1.
</event>
<event>
 5   0  0.8898848E-06  0.2393842E+04  0.7818609E-02  0.8441812E-01
        1   -1    0    0  501    0  0.00000000000E+00  0.00000000000E+00  0.24050097736E+04  0.24050097736E+04  0.50400001928E-02 0. -1.
       -1   -1    0    0    0  501  0.00000000000E+00  0.00000000000E+00 -0.59568171354E+03  0.59568171356E+03  0.50400001928E-02 0.  1.
    10030    2    1    2    0    0  0.00000000000E+00  0.00000000000E+00  0.18093280601E+04  0.30006914872E+04  0.23938423867E+04 0.  0.
        5    1    3    3  502    0  0.11363546881E+04 -0.10830328214E+02  0.43367497680E+03  0.12163532993E+04  0.46999998093E+01 0.  1.
       -5    1    3    3    0  502 -0.11363546881E+04  0.10830328214E+02  0.13756530833E+04  0.17843381879E+04  0.46999998093E+01 0. -1.
</event>
<event>
 5   0  0.2122194E-05  0.2410927E+04  0.7818609E-02  0.8435424E-01
        2   -1    0    0  501    0  0.00000000000E+00  0.00000000000E+00  0.10118019454E+04  0.10118019454E+04  0.25500000920E-02 0. -1.
       -2   -1    0    0    0  501  0.00000000000E+00  0.00000000000E+00 -0.14361922656E+04  0.14361922656E+04  0.25500000920E-02 0.  1.
    10030    2    1    2    0    0  0.00000000000E+00  0.00000000000E+00 -0.42439032018E+03  0.24479942111E+04  0.24109268993E+04 0.  0.
        3    1    3    3  502    0  0.10810588987E+02  0.98096366149E+03 -0.92349072634E+03  0.13473090610E+04  0.10100000352E+00 0.  1.
       -3    1    3    3    0  502 -0.10810588987E+02 -0.98096366149E+03  0.49910040615E+03  0.11006851501E+04  0.10100000352E+00 0. -1.
</event>
<event>
 5   0  0.2087882E-05  0.2452813E+04  0.7818609E-02  0.8419992E-01
        2   -1    0    0  501    0  0.00000000000E+00  0.00000000000E+00  0.19539997582E+04  0.19539997582E+04  0.25500000920E-02 0.  1.
       -2   -1    0    0    0  501  0.00000000000E+00  0.00000000000E+00 -0.76974077521E+03  0.76974077521E+03  0.25500000920E-02 0. -1.
    10030    2    1    2    0    0  0.00000000000E+00  0.00000000000E+00  0.11842589830E+04  0.27237405334E+04  0.24528133143E+04 0.  0.
        2    1    3    3  502    0 -0.60971395485E+03  0.90547104851E+03  0.12128378379E+04  0.16317489229E+04  0.25500000920E-02 0.  1.
       -2    1    3    3    0  502  0.60971395485E+03 -0.90547104851E+03 -0.28578854907E+02  0.10919916105E+04  0.25500000920E-02 0. -1.
</event>
<event>
 5   0  0.2048028E-05  0.2419110E+04  0.7818609E-02  0.8432384E-01
        2   -1    0    0  501    0  0.00000000000E+00  0.00000000000E+00  0.12377911671E+04  0.12377911671E+04  0.25500000920E-02 0.  1.
       -2   -1    0    0    0  501  0.00000000000E+00  0.00000000000E+00 -0.11819628797E+04  0.11819628797E+04  0.25500000920E-02 0. -1.
    10030    2    1    2    0    0  0.00000000000E+00  0.00000000000E+00  0.55828287416E+02  0.24197540468E+04  0.24191099292E+04 0.  0.
        5    1    3    3  502    0 -0.79447224863E+03  0.80839118581E+03  0.45030452112E+03  0.12196223657E+04  0.46999998093E+01 0.  1.
       -5    1    3    3    0  502  0.79447224863E+03 -0.80839118581E+03 -0.39447623371E+03  0.12001316811E+04  0.46999998093E+01 0. -1.
</event>
<event>
 5   0  0.8528103E-06  0.2406575E+04  0.7818609E-02  0.8437046E-01
        1   -1    0    0  501    0  0.00000000000E+00  0.00000000000E+00  0.15575773232E+04  0.15575773232E+04  0.50400001928E-02 0.  1.
       -1   -1    0    0    0  501  0.00000000000E+00  0.00000000000E+00 -0.92958526710E+03  0.92958526712E+03  0.50400001928E-02 0. -1.
    10030    2    1    2    0    0  0.00000000000E+00  0.00000000000E+00  0.62799205607E+03  0.24871625903E+04  0.24065751034E+04 0.  0.
        4    1    3    3  502    0 -0.65841444095E+03  0.71375837938E+03  0.10483815295E+04  0.14290087629E+04  0.12699999809E+01 0. -1.
       -4    1    3    3    0  502  0.65841444095E+03 -0.71375837938E+03 -0.42038947341E+03  0.10581538274E+04  0.12699999809E+01 0.  1.
</event>
<event>
 5   0  0.9038897E-06  0.2390581E+04  0.7818609E-02  0.8443038E-01
       -1   -1    0    0    0  501  0.00000000000E+00  0.00000000000E+00  0.57889119863E+03  0.57889119865E+03  0.50400001928E-02 0.  1.
        1   -1    0    0  501    0  0.00000000000E+00  0.00000000000E+00 -0.24680283886E+04  0.24680283886E+04  0.50400001928E-02 0. -1.
    10030    2    1    2    0    0  0.00000000000E+00  0.00000000000E+00 -0.18891371900E+04  0.30469195872E+04  0.23905814457E+04 0.  0.
        1    1    3    3  502    0 -0.24685905798E+03 -0.11519843796E+04 -0.12017392261E+04  0.16829095558E+04  0.50400001928E-02 0.  1.
       -1    1    3    3    0  502  0.24685905798E+03  0.11519843796E+04 -0.68739796385E+03  0.13640100315E+04  0.50400001928E-02 0. -1.
</event>
<event>
 5   0  0.2087882E-05  0.2402993E+04  0.7818609E-02  0.8438384E-01
       -2   -1    0    0    0  501  0.00000000000E+00  0.00000000000E+00  0.15958402314E+04  0.15958402314E+04  0.25500000920E-02 0.  1.
        2   -1    0    0  501    0  0.00000000000E+00  0.00000000000E+00 -0.90459796789E+03  0.90459796789E+03  0.25500000920E-02 0. -1.
    10030    2    1    2    0    0  0.00000000000E+00  0.00000000000E+00  0.69124226349E+03  0.25004381993E+04  0.24029929924E+04 0.  0.
        2    1    3    3  502    0  0.25761520328E+03  0.11718321571E+04  0.41174024746E+03  0.12684976267E+04  0.25500000920E-02 0.  1.
       -2    1    3    3    0  502 -0.25761520328E+03 -0.11718321571E+04  0.27950201603E+03  0.12319405726E+04  0.25500000920E-02 0. -1.
</event>
<event>
 5   0  0.7233625E-06  0.2381867E+04  0.7818609E-02  0.8446324E-01
       -3   -1    0    0    0  501  0.00000000000E+00  0.00000000000E+00  0.13900115431E+04  0.13900115468E+04  0.10100000352E+00 0.  1.
        3   -1    0    0  501    0  0.00000000000E+00  0.00000000000E+00 -0.10203671081E+04  0.10203671131E+04  0.10100000352E+00 0. -1.
    10030    2    1    2    0    0  0.00000000000E+00  0.00000000000E+00  0.36964443504E+03  0.24103786599E+04  0.23818665529E+04 0.  0.
        3    1    3    3  502    0  0.69163959524E+03 -0.93996398208E+03  0.42520396176E+03  0.12420531537E+04  0.10100000352E+00 0.  1.
       -3    1    3    3    0  502 -0.69163959524E+03  0.93996398208E+03 -0.55559526716E+02  0.11683255062E+04  0.10100000352E+00 0. -1.
</event>
<event>
 5   0  0.8528103E-06  0.2399593E+04  0.7818609E-02  0.8439656E-01
        1   -1    0    0  501    0  0.00000000000E+00  0.00000000000E+00  0.10620931147E+04  0.10620931147E+04  0.50400001928E-02 0. -1.
       -1   -1    0    0    0  501  0.00000000000E+00  0.00000000000E+00 -0.13553530812E+04  0.13553530812E+04  0.50400001928E-02 0.  1.
    10030    2    1    2    0    0  0.00000000000E+00  0.00000000000E+00 -0.29325996643E+03  0.24174461959E+04  0.23995926117E+04 0.  0.
        4    1    3    3  502    0 -0.42374998290E+03 -0.28212541249E+03  0.94789289549E+03  0.10759467229E+04  0.12699999809E+01 0. -1.
       -4    1    3    3    0  502  0.42374998290E+03  0.28212541249E+03 -0.12411528619E+04  0.13414994730E+04  0.12699999809E+01 0.  1.
</event>
<event>
 5   0  0.2025353E-05  0.2414048E+04  0.7818609E-02  0.8434263E-01
        2   -1    0    0  501    0  0.00000000000E+00  0.00000000000E+00  0.11331275493E+04  0.11331275493E+04  0.25500000920E-02 0. -1.
       -2   -1    0    0    0  501  0.00000000000E+00  0.00000000000E+00 -0.12857392016E+04  0.12857392017E+04  0.25500000920E-02 0.  1.
    10030    2    1    2    0    0  0.00000000000E+00  0.00000000000E+00 -0.15261165240E+03  0.24188667509E+04  0.24140476470E+04 0.  0.
        4    1    3    3  502    0 -0.11615481278E+04 -0.13045824860E+03 -0.37805728289E+03  0.12284715421E+04  0.12699999809E+01 0.  1.
       -4    1    3    3    0  502  0.11615481278E+04  0.13045824860E+03  0.22544563050E+03  0.11903952088E+04  0.12699999809E+01 0. -1.
</event>
<event>
 5   0  0.8898848E-06  0.2420924E+04  0.7818609E-02  0.8431711E-01
       -1   -1    0    0    0  501  0.00000000000E+00  0.00000000000E+00  0.10583806326E+04  0.10583806326E+04  0.50400001928E-02 0. -1.
        1   -1    0    0  501    0  0.00000000000E+00  0.00000000000E+00 -0.13843966247E+04  0.13843966247E+04  0.50400001928E-02 0.  1.
    10030    2    1    2    0    0  0.00000000000E+00  0.00000000000E+00 -0.32601599208E+03  0.24427772574E+04  0.24209242661E+04 0.  0.
        5    1    3    3  502    0 -0.85935697612E+03 -0.48149752203E+03 -0.87282240202E+03  0.13161213134E+04  0.46999998093E+01 0.  1.
       -5    1    3    3    0  502  0.85935697612E+03  0.48149752203E+03  0.54680640994E+03  0.11266559440E+04  0.46999998093E+01 0. -1.
</event>
<event>
 5   0  0.2122194E-05  0.2407217E+04  0.7818609E-02  0.8436807E-01
       -2   -1    0    0    0  501  0.00000000000E+00  0.00000000000E+00  0.15156444862E+04  0.15156444862E+04  0.25500000920E-02 0.  1.
        2   -1    0    0  501    0  0.00000000000E+00  0.00000000000E+00 -0.95581354020E+03  0.95581354021E+03  0.25500000920E-02 0. -1.
    10030    2    1    2    0    0  0.00000000000E+00  0.00000000000E+00  0.55983094602E+03  0.24714580264E+04  0.24072170838E+04 0.  0.
        3    1    3    3  502    0  0.98736504983E+02 -0.91244245834E+03 -0.51956533733E+03  0.10546318254E+04  0.10100000352E+00 0. -1.
       -3    1    3    3    0  502 -0.98736504983E+02  0.91244245834E+03  0.10793962834E+04  0.14168262010E+04  0.10100000352E+00 0.  1.
</event>
<event>
 5   0  0.2080257E-05  0.2415207E+04  0.7818609E-02  0.8433832E-01
       -2   -1    0    0    0  501  0.00000000000E+00  0.00000000000E+00  0.93281060355E+03  0.93281060356E+03  0.25500000920E-02 0.  1.
        2   -1    0    0  501    0  0.00000000000E+00  0.00000000000E+00 -0.15633468925E+04  0.15633468925E+04  0.25500000920E-02 0. -1.
    10030    2    1    2    0    0  0.00000000000E+00  0.00000000000E+00 -0.63053628893E+03  0.24961574960E+04  0.24152072858E+04 0.  0.
        1    1    3    3  502    0 -0.89210266098E+03  0.32093166826E+02  0.52527368486E+03  0.10357555566E+04  0.50400001928E-02 0.  1.
       -1    1    3    3    0  502  0.89210266098E+03 -0.32093166826E+02 -0.11558099738E+04  0.14604019394E+04  0.50400001928E-02 0. -1.
</event>
<event>
 5   0  0.9176817E-06  0.2401704E+04  0.7818609E-02  0.8438866E-01
       -1   -1    0    0    0  501  0.00000000000E+00  0.00000000000E+00  0.98964573470E+03  0.98964573471E+03  0.50400001928E-02 0.  1.
        1   -1    0    0  501    0  0.00000000000E+00  0.00000000000E+00 -0.14571325645E+04  0.14571325645E+04  0.50400001928E-02 0. -1.
    10030    2    1    2    0    0  0.00000000000E+00  0.00000000000E+00 -0.46748682981E+03  0.24467782992E+04  0.24017035849E+04 0.  0.
        3    1    3    3  502    0 -0.30076227530E+02 -0.56560861015E+03 -0.13124965052E+04  0.14294980817E+04  0.10100000352E+00 0. -1.
       -3    1    3    3    0  502  0.30076227530E+02  0.56560861015E+03  0.84500967535E+03  0.10172802175E+04  0.10100000352E+00 0.  1.
</event>
<event>
 5   0  0.9083687E-06  0.2390266E+04  0.7818609E-02  0.8443157E-01
       -1   -1    0    0    0  501  0.00000000000E+00  0.00000000000E+00  0.78291412079E+03  0.78291412081E+03  0.50400001928E-02 0. -1.
        1   -1    0    0  501    0  0.00000000000E+00  0.00000000000E+00 -0.18243924071E+04  0.18243924072E+04  0.50400001928E-02 0.  1.
    10030    2    1    2    0    0  0.00000000000E+00  0.00000000000E+00 -0.10414782864E+04  0.26073065280E+04  0.23902657404E+04 0.  0.
        2    1    3    3  502    0  0.49504327330E+03  0.10697198831E+04 -0.73608374539E+03  0.13896718141E+04  0.25500000920E-02 0.  1.
       -2    1    3    3    0  502 -0.49504327330E+03 -0.10697198831E+04 -0.30539454096E+03  0.12176347138E+04  0.25500000920E-02 0. -1.
</event>
<event>
 5   0  0.8528103E-06  0.2397506E+04  0.7818609E-02  0.8440438E-01
       -1   -1    0    0    0  501  0.00000000000E+00  0.00000000000E+00  0.72423797232E+03  0.72423797234E+03  0.50400001928E-02 0.  1.
        1   -1    0    0  501    0  0.00000000000E+00  0.00000000000E+00 -0.19841657242E+04  0.19841657242E+04  0.50400001928E-02 0. -1.
    10030    2    1    2    0    0  0.00000000000E+00  0.00000000000E+00 -0.12599277519E+04  0.27084036966E+04  0.23975055044E+04 0.  0.
        4    1    3    3  502    0 -0.97403794671E+02 -0.51097849157E+03 -0.18500241020E+04  0.19217641137E+04  0.12699999809E+01 0. -1.
       -4    1    3    3    0  502  0.97403794671E+02  0.51097849157E+03  0.59009635005E+03  0.78663958285E+03  0.12699999809E+01 0.  1.
</event>
<event>
 5   0  0.8528103E-06  0.2389208E+04  0.7818609E-02  0.8443555E-01
       -1   -1    0    0    0  501  0.00000000000E+00  0.00000000000E+00  0.73828830222E+03  0.73828830223E+03  0.50400001928E-02 0.  1.
        1   -1    0    0  501    0  0.00000000000E+00  0.00000000000E+00 -0.19329563806E+04  0.19329563806E+04  0.50400001928E-02 0. -1.
    10030    2    1    2    0    0  0.00000000000E+00  0.00000000000E+00 -0.11946680784E+04  0.26712446829E+04  0.23892083078E+04 0.  0.
        4    1    3    3  502    0  0.40559032930E+03 -0.66445343173E+03  0.41576341946E+03  0.88253198923E+03  0.12699999809E+01 0.  1.
       -4    1    3    3    0  502 -0.40559032930E+03  0.66445343173E+03 -0.16104314979E+04  0.17887126936E+04  0.12699999809E+01 0. -1.
</event>
<event>
 5   0  0.9038897E-06  0.2402238E+04  0.7818609E-02  0.8438666E-01
       -1   -1    0    0    0  501  0.00000000000E+00  0.00000000000E+00  0.89518893788E+03  0.89518893790E+03  0.50400001928E-02 0.  1.
        1   -1    0    0  501    0  0.00000000000E+00  0.00000000000E+00 -0.16116001316E+04  0.16116001316E+04  0.50400001928E-02 0. -1.
    10030    2    1    2    0    0  0.00000000000E+00  0.00000000000E+00 -0.71641119375E+03  0.25067890695E+04  0.24022377985E+04 0.  0.
        1    1    3    3  502    0 -0.23457125574E+03  0.52904300455E+03 -0.14565229806E+04  0.15672808835E+04  0.50400001928E-02 0. -1.
       -1    1    3    3    0  502  0.23457125574E+03 -0.52904300455E+03  0.74011178682E+03  0.93950818608E+03  0.50400001928E-02 0.  1.
</event>
<event>
 5   0  0.2048028E-05  0.2376768E+04  0.7818609E-02  0.8448253E-01
       -2   -1    0    0    0  501  0.00000000000E+00  0.00000000000E+00  0.76901665755E+03  0.76901665755E+03  0.25500000920E-02 0.  1.
        2   -1    0    0  501    0  0.00000000000E+00  0.00000000000E+00 -0.18364442231E+04  0.18364442232E+04  0.25500000920E-02 0. -1.
    10030    2    1    2    0    0  0.00000000000E+00  0.00000000000E+00 -0.10674275656E+04  0.26054608807E+04  0.23767677196E+04 0.  0.
        5    1    3    3  502    0  0.50415726735E+03 -0.93627967245E+03 -0.11152686246E+04  0.15409868170E+04  0.46999998093E+01 0. -1.
       -5    1    3    3    0  502 -0.50415726735E+03  0.93627967245E+03  0.47841059006E+02  0.10644740637E+04  0.46999998093E+01 0.  1.
</event>
<event>
 5   0  0.2087882E-05  0.2398392E+04  0.7818609E-02  0.8440106E-01
       -2   -1    0    0    0  501  0.00000000000E+00  0.00000000000E+00  0.10257740518E+04  0.10257740518E+04  0.25500000920E-02 0. -1.
        2   -1    0    0  501    0  0.00000000000E+00  0.00000000000E+00 -0.14019374216E+04  0.14019374216E+04  0.25500000920E-02 0.  1.
    10030    2    1    2    0    0  0.00000000000E+00  0.00000000000E+00 -0.37616336976E+03  0.24277114734E+04  0.23983919858E+04 0.  0.
        2    1    3    3  502    0 -0.11144038432E+04 -0.17958423376E+03  0.22174381910E+03  0.11503550513E+04  0.25500000920E-02 0. -1.
       -2    1    3    3    0  502  0.11144038432E+04  0.17958423376E+03 -0.59790718887E+03  0.12773564221E+04  0.25500000920E-02 0.  1.
</event>
<event>
 5   0  0.9083687E-06  0.2410138E+04  0.7818609E-02  0.8435718E-01
       -1   -1    0    0    0  501  0.00000000000E+00  0.00000000000E+00  0.99339701772E+03  0.99339701774E+03  0.50400001928E-02 0.  1.
        1   -1    0    0  501    0  0.00000000000E+00  0.00000000000E+00 -0.14618442159E+04  0.14618442159E+04  0.50400001928E-02 0. -1.
    10030    2    1    2    0    0  0.00000000000E+00  0.00000000000E+00 -0.46844719821E+03  0.24552412337E+04  0.24101383234E+04 0.  0.
        2    1    3    3  502    0  0.71902209778E+03  0.11464504165E+03 -0.12124304804E+04  0.14142573784E+04  0.25500000920E-02 0. -1.
       -2    1    3    3    0  502 -0.71902209778E+03 -0.11464504165E+03  0.74398328219E+03  0.10409838552E+04  0.25500000920E-02 0.  1.
</event>
<event>
 5   0  0.9038897E-06  0.2401554E+04  0.7818609E-02  0.8438922E-01
       -1   -1    0    0    0  501  0.00000000000E+00  0.00000000000E+00  0.11716554124E+04  0.11716554124E+04  0.50400001928E-02 0.  1.
        1   -1    0    0  501    0  0.00000000000E+00  0.00000000000E+00 -0.12306219582E+04  0.12306219582E+04  0.50400001928E-02 0. -1.
    10030    2    1    2    0    0  0.00000000000E+00  0.00000000000E+00 -0.58966545745E+02  0.24022773706E+04  0.24015535622E+04 0.  0.
        1    1    3    3  502    0  0.11371816755E+04  0.38482987246E+03 -0.53753400779E+02  0.12017344224E+04  0.50400001928E-02 0.  1.
       -1    1    3    3    0  502 -0.11371816755E+04 -0.38482987246E+03 -0.52131449658E+01  0.12005429483E+04  0.50400001928E-02 0. -1.
</event>
<event>
 5   0  0.9176817E-06  0.2296969E+04  0.7818609E-02  0.8479117E-01
       -1   -1    0    0    0  501  0.00000000000E+00  0.00000000000E+00  0.13387617511E+04  0.13387617511E+04  0.50400001928E-02 0.  1.
        1   -1    0    0  501    0  0.00000000000E+00  0.00000000000E+00 -0.98525133044E+03  0.98525133046E+03  0.50400001928E-02 0. -1.
    10030    2    1    2    0    0  0.00000000000E+00  0.00000000000E+00  0.35351042062E+03  0.23240130815E+04  0.22969691303E+04 0.  0.
        3    1    3    3  502    0 -0.30280902569E+03 -0.89371646258E+03 -0.48562391592E+03  0.10612506864E+04  0.10100000352E+00 0. -1.
       -3    1    3    3    0  502  0.30280902569E+03  0.89371646258E+03  0.83913433654E+03  0.12627623951E+04  0.10100000352E+00 0.  1.
</event>
<event>
 5   0  0.9038897E-06  0.2407812E+04  0.7818609E-02  0.8436585E-01
        1   -1    0    0  501    0  0.00000000000E+00  0.00000000000E+00  0.64127382069E+03  0.64127382071E+03  0.50400001928E-02 0.  1.
       -1   -1    0    0    0  501  0.00000000000E+00  0.00000000000E+00 -0.22601726298E+04  0.22601726298E+04  0.50400001928E-02 0. -1.
    10030    2    1    2    0    0  0.00000000000E+00  0.00000000000E+00 -0.16188988091E+04  0.29014464505E+04  0.24078119011E+04 0.  0.
        1    1    3    3  502    0  0.14632421358E+03  0.83989899638E+03 -0.18337454268E+04  0.20222421690E+04  0.50400001928E-02 0. -1.
       -1    1    3    3    0  502 -0.14632421358E+03 -0.83989899638E+03  0.21484661767E+03  0.87920428158E+03  0.50400001928E-02 0.  1.
</event>
<event>
 5   0  0.8528103E-06  0.2404841E+04  0.7818609E-02  0.8437693E-01
        1   -1    0    0  501    0  0.00000000000E+00  0.00000000000E+00  0.96480372786E+03  0.96480372787E+03  0.50400001928E-02 0.  1.
       -1   -1    0    0    0  501  0.00000000000E+00  0.00000000000E+00 -0.14985589625E+04  0.14985589625E+04  0.50400001928E-02 0. -1.
    10030    2    1    2    0    0  0.00000000000E+00  0.00000000000E+00 -0.53375523460E+03  0.24633626903E+04  0.24048411785E+04 0.  0.
        4    1    3    3  502    0 -0.94082783916E+03  0.15164378933E+02  0.49995638274E+03  0.10655256819E+04  0.12699999809E+01 0.  1.
       -4    1    3    3    0  502  0.94082783916E+03 -0.15164378933E+02 -0.10337116173E+04  0.13978370084E+04  0.12699999809E+01 0. -1.
</event>
<event>
 5   0  0.8528103E-06  0.2541344E+04  0.7818609E-02  0.8388403E-01
        1   -1    0    0  501    0  0.00000000000E+00  0.00000000000E+00  0.84723881932E+03  0.84723881934E+03  0.50400001928E-02 0. -1.
       -1   -1    0    0    0  501  0.00000000000E+00  0.00000000000E+00 -0.19057280441E+04  0.19057280442E+04  0.50400001928E-02 0.  1.
    10030    2    1    2    0    0  0.00000000000E+00  0.00000000000E+00 -0.10584892248E+04  0.27529668635E+04  0.25413435644E+04 0.  0.
        4    1    3    3  502    0 -0.90856724324E+03  0.16392599130E+03 -0.14750094975E+04  0.17401209144E+04  0.12699999809E+01 0.  1.
       -4    1    3    3    0  502  0.90856724324E+03 -0.16392599130E+03  0.41652027269E+03  0.10128459491E+04  0.12699999809E+01 0. -1.
</event>
<event>
 5   0  0.9176817E-06  0.2388489E+04  0.7818609E-02  0.8443826E-01
       -1   -1    0    0    0  501  0.00000000000E+00  0.00000000000E+00  0.15276764216E+04  0.15276764216E+04  0.50400001928E-02 0. -1.
        1   -1    0    0  501    0  0.00000000000E+00  0.00000000000E+00 -0.93358793817E+03  0.93358793819E+03  0.50400001928E-02 0.  1.
    10030    2    1    2    0    0  0.00000000000E+00  0.00000000000E+00  0.59408848341E+03  0.24612643598E+04  0.23884892971E+04 0.  0.
        3    1    3    3  502    0  0.23691743670E+01 -0.10353226701E+04 -0.31634166559E+03  0.10825759575E+04  0.10100000352E+00 0.  1.
       -3    1    3    3    0  502 -0.23691743670E+01  0.10353226701E+04  0.91043014900E+03  0.13786884023E+04  0.10100000352E+00 0. -1.
</event>
<event>
 5   0  0.2087882E-05  0.2392342E+04  0.7818609E-02  0.8442376E-01
        2   -1    0    0  501    0  0.00000000000E+00  0.00000000000E+00  0.14020760194E+04  0.14020760194E+04  0.25500000920E-02 0.  1.
       -2   -1    0    0    0  501  0.00000000000E+00  0.00000000000E+00 -0.10205043354E+04  0.10205043354E+04  0.25500000920E-02 0. -1.
    10030    2    1    2    0    0  0.00000000000E+00  0.00000000000E+00  0.38157168398E+03  0.24225803548E+04  0.23923416615E+04 0.  0.
        2    1    3    3  502    0  0.32162666153E+03 -0.10550937405E+04  0.65940742488E+03  0.12851010321E+04  0.25500000920E-02 0. -1.
       -2    1    3    3    0  502 -0.32162666153E+03  0.10550937405E+04 -0.27783574090E+03  0.11374793227E+04  0.25500000920E-02 0.  1.
</event>
<event>
 5   0  0.8898848E-06  0.2406637E+04  0.7818609E-02  0.8437023E-01
        1   -1    0    0  501    0  0.00000000000E+00  0.00000000000E+00  0.20496358336E+04  0.20496358336E+04  0.50400001928E-02 0. -1.
       -1   -1    0    0    0  501  0.00000000000E+00  0.00000000000E+00 -0.70645481762E+03  0.70645481763E+03  0.50400001928E-02 0.  1.
    10030    2    1    2    0    0  0.00000000000E+00  0.00000000000E+00  0.13431810160E+04  0.27560906513E+04  0.24066367479E+04 0.  0.
        5    1    3    3  502    0 -0.86026243664E+03 -0.91476859110E+02 -0.28623682529E+03  0.91124809234E+03  0.46999998093E+01 0.  1.
       -5    1    3    3    0  502  0.86026243664E+03  0.91476859110E+02  0.16294178413E+04  0.18448425589E+04  0.46999998093E+01 0. -1.
</event>
<event>
 5   0  0.2080257E-05  0.2409115E+04  0.7818609E-02  0.8436099E-01
       -2   -1    0    0    0  501  0.00000000000E+00  0.00000000000E+00  0.81309892423E+03  0.81309892423E+03  0.25500000920E-02 0.  1.
        2   -1    0    0  501    0  0.00000000000E+00  0.00000000000E+00 -0.17844797418E+04  0.17844797418E+04  0.25500000920E-02 0. -1.
    10030    2    1    2    0    0  0.00000000000E+00  0.00000000000E+00 -0.97138081758E+03  0.25975786660E+04  0.24091148236E+04 0.  0.
        1    1    3    3  502    0 -0.17195938171E+03 -0.11645809415E+04 -0.76088144648E+03  0.14016987458E+04  0.50400001928E-02 0.  1.
       -1    1    3    3    0  502  0.17195938171E+03  0.11645809415E+04 -0.21049937111E+03  0.11958799202E+04  0.50400001928E-02 0. -1.
</event>
<event>
 5   0  0.9176817E-06  0.2342005E+04  0.7818609E-02  0.8461541E-01
       -1   -1    0    0    0  501  0.00000000000E+00  0.00000000000E+00  0.14698084972E+04  0.14698084972E+04  0.50400001928E-02 0.  1.
        1   -1    0    0  501    0  0.00000000000E+00  0.00000000000E+00 -0.93294243402E+03  0.93294243403E+03  0.50400001928E-02 0. -1.
    10030    2    1    2    0    0  0.00000000000E+00  0.00000000000E+00  0.53686606316E+03  0.24027509312E+04  0.23420048821E+04 0.  0.
        3    1    3    3  502    0  0.63783709379E+03 -0.46738405868E+03 -0.61766038816E+03  0.10033884501E+04  0.10100000352E+00 0. -1.
       -3    1    3    3    0  502 -0.63783709379E+03  0.46738405868E+03  0.11545264513E+04  0.13993624811E+04  0.10100000352E+00 0.  1.
</event>
<event>
 5   0  0.2080257E-05  0.2382220E+04  0.7818609E-02  0.8446190E-01
       -2   -1    0    0    0  501  0.00000000000E+00  0.00000000000E+00  0.95551135274E+03  0.95551135274E+03  0.25500000920E-02 0. -1.
        2   -1    0    0  501    0  0.00000000000E+00  0.00000000000E+00 -0.14847991884E+04  0.14847991884E+04  0.25500000920E-02 0.  1.
    10030    2    1    2    0    0  0.00000000000E+00  0.00000000000E+00 -0.52928783567E+03  0.24403105412E+04  0.23822195374E+04 0.  0.
        1    1    3    3  502    0 -0.26796074217E+03 -0.71325924705E+03 -0.12025024657E+04  0.14235708247E+04  0.50400001928E-02 0.  1.
       -1    1    3    3    0  502  0.26796074217E+03  0.71325924705E+03  0.67321463006E+03  0.10167397164E+04  0.50400001928E-02 0. -1.
</event>
<event>
 5   0  0.9038897E-06  0.2409791E+04  0.7818609E-02  0.8435847E-01
       -1   -1    0    0    0  501  0.00000000000E+00  0.00000000000E+00  0.14152374913E+04  0.14152374913E+04  0.50400001928E-02 0.  1.
        1   -1    0    0  501    0  0.00000000000E+00  0.00000000000E+00 -0.10258162729E+04  0.10258162729E+04  0.50400001928E-02 0. -1.
    10030    2    1    2    0    0  0.00000000000E+00  0.00000000000E+00  0.38942121840E+03  0.24410537642E+04  0.24097914006E+04 0.  0.
        1    1    3    3  502    0 -0.14459431631E+02 -0.11958676005E+04  0.34312155261E+03  0.12442028745E+04  0.50400001928E-02 0.  1.
       -1    1    3    3    0  502  0.14459431631E+02  0.11958676005E+04  0.46299665785E+02  0.11968508897E+04  0.50400001928E-02 0. -1.
</event>
<event>
 5   0  0.2048028E-05  0.2236095E+04  0.7818609E-02  0.8503553E-01
        2   -1    0    0  501    0  0.00000000000E+00  0.00000000000E+00  0.27025515266E+04  0.27025515266E+04  0.25500000920E-02 0. -1.
       -2   -1    0    0    0  501  0.00000000000E+00  0.00000000000E+00 -0.46253697999E+03  0.46253698000E+03  0.25500000920E-02 0.  1.
    10030    2    1    2    0    0  0.00000000000E+00  0.00000000000E+00  0.22400145466E+04  0.31650885066E+04  0.22360948293E+04 0.  0.
        5    1    3    3  502    0  0.43248451972E+03  0.13715036362E+02  0.25792136162E+04  0.26152621150E+04  0.46999998093E+01 0. -1.
       -5    1    3    3    0  502 -0.43248451972E+03 -0.13715036362E+02 -0.33919906965E+03  0.54982639157E+03  0.46999998093E+01 0.  1.
</event>
<event>
 5   0  0.9083687E-06  0.2376486E+04  0.7818609E-02  0.8448359E-01
        1   -1    0    0  501    0  0.00000000000E+00  0.00000000000E+00  0.13113720133E+04  0.13113720133E+04  0.50400001928E-02 0. -1.
       -1   -1    0    0    0  501  0.00000000000E+00  0.00000000000E+00 -0.10766753210E+04  0.10766753210E+04  0.50400001928E-02 0.  1.
    10030    2    1    2    0    0  0.00000000000E+00  0.00000000000E+00  0.23469669234E+03  0.23880473343E+04  0.23764863840E+04 0.  0.
        2    1    3    3  502    0  0.11545209652E+04  0.12340328089E+03  0.37111370637E+03  0.12189636630E+04  0.25500000920E-02 0.  1.
       -2    1    3    3    0  502 -0.11545209652E+04 -0.12340328089E+03 -0.13641701403E+03  0.11690836713E+04  0.25500000920E-02 0. -1.
</event>
<event>
 5   0  0.2122194E-05  0.2406867E+04  0.7818609E-02  0.8436937E-01
        2   -1    0    0  501    0  0.00000000000E+00  0.00000000000E+00  0.22234083099E+04  0.22234083099E+04  0.25500000920E-02 0.  1.
       -2   -1    0    0    0  501  0.00000000000E+00  0.00000000000E+00 -0.65136588662E+03  0.65136588662E+03  0.25500000920E-02 0. -1.
    10030    2    1    2    0    0  0.00000000000E+00  0.00000000000E+00  0.15720424232E+04  0.28747741965E+04  0.24068671131E+04 0.  0.
        3    1    3    3  502    0  0.76606715465E+03 -0.94090702318E+02 -0.31681013408E+03  0.83431445927E+03  0.10100000352E+00 0. -1.
       -3    1    3    3    0  502 -0.76606715465E+03  0.94090702318E+02  0.18888525573E+04  0.20404597372E+04  0.10100000352E+00 0.  1.
</event>
<event>
 5   0  0.2087882E-05  0.2321368E+04  0.7818609E-02  0.8469543E-01
        2   -1    0    0  501    0  0.00000000000E+00  0.00000000000E+00  0.20265147495E+04  0.20265147495E+04  0.25500000920E-02 0.  1.
       -2   -1    0    0    0  501  0.00000000000E+00  0.00000000000E+00 -0.66478032331E+03  0.66478032332E+03  0.25500000920E-02 0. -1.
    10030    2    1    2    0    0  0.00000000000E+00  0.00000000000E+00  0.13617344262E+04  0.26912950729E+04  0.23213678127E+04 0.  0.
        2    1    3    3  502    0 -0.80757745201E+03  0.74554734736E+03  0.11133633970E+04  0.15644808218E+04  0.25500000920E-02 0.  1.
       -2    1    3    3    0  502  0.80757745201E+03 -0.74554734736E+03  0.24837102926E+03  0.11268142510E+04  0.25500000920E-02 0. -1.
</event>
<event>
 5   0  0.9083687E-06  0.2408091E+04  0.7818609E-02  0.8436481E-01
       -1   -1    0    0    0  501  0.00000000000E+00  0.00000000000E+00  0.72861008733E+03  0.72861008734E+03  0.50400001928E-02 0.  1.
        1   -1    0    0  501    0  0.00000000000E+00  0.00000000000E+00 -0.19897135806E+04  0.19897135807E+04  0.50400001928E-02 0. -1.
    10030    2    1    2    0    0  0.00000000000E+00  0.00000000000E+00 -0.12611034933E+04  0.27183236680E+04  0.24080908503E+04 0.  0.
        2    1    3    3  502    0 -0.14320709108E+03 -0.10134344017E+04 -0.13464181188E+04  0.16912715063E+04  0.25500000920E-02 0. -1.
       -2    1    3    3    0  502  0.14320709108E+03  0.10134344017E+04  0.85314625448E+02  0.10270521617E+04  0.25500000920E-02 0.  1.
</event>
<event>
 5   0  0.2048028E-05  0.2380504E+04  0.7818609E-02  0.8446839E-01
        2   -1    0    0  501    0  0.00000000000E+00  0.00000000000E+00  0.13004030322E+04  0.13004030322E+04  0.25500000920E-02 0.  1.
       -2   -1    0    0    0  501  0.00000000000E+00  0.00000000000E+00 -0.10894314614E+04  0.10894314614E+04  0.25500000920E-02 0. -1.
    10030    2    1    2    0    0  0.00000000000E+00  0.00000000000E+00  0.21097157078E+03  0.23898344936E+04  0.23805041280E+04 0.  0.
        5    1    3    3  502    0 -0.51158150090E+03  0.61323162547E+03  0.99150330744E+03  0.12731337546E+04  0.46999998093E+01 0.  1.
       -5    1    3    3    0  502  0.51158150090E+03 -0.61323162547E+03 -0.78053173666E+03  0.11167007390E+04  0.46999998093E+01 0. -1.
</event>
<event>
 5   0  0.2048028E-05  0.2399103E+04  0.7818609E-02  0.8439840E-01
       -2   -1    0    0    0  501  0.00000000000E+00  0.00000000000E+00  0.16414685079E+04  0.16414685079E+04  0.25500000920E-02 0.  1.
        2   -1    0    0  501    0  0.00000000000E+00  0.00000000000E+00 -0.87660747021E+03  0.87660747021E+03  0.25500000920E-02 0. -1.
    10030    2    1    2    0    0  0.00000000000E+00  0.00000000000E+00  0.76486103772E+03  0.25180759781E+04  0.23991027958E+04 0.  0.
        5    1    3    3  502    0  0.80131433125E+03 -0.22275815523E+03 -0.52482854865E+03  0.98345968330E+03  0.46999998093E+01 0. -1.
       -5    1    3    3    0  502 -0.80131433125E+03  0.22275815523E+03  0.12896895864E+04  0.15346162948E+04  0.46999998093E+01 0.  1.
</event>
<event>
 5   0  0.2122194E-05  0.2412785E+04  0.7818609E-02  0.8434732E-01
       -2   -1    0    0    0  501  0.00000000000E+00  0.00000000000E+00  0.20146140147E+04  0.20146140147E+04  0.25500000920E-02 0. -1.
        2   -1    0    0  501    0  0.00000000000E+00  0.00000000000E+00 -0.72241295970E+03  0.72241295971E+03  0.25500000920E-02 0.  1.
    10030    2    1    2    0    0  0.00000000000E+00  0.00000000000E+00  0.12922010550E+04  0.27370269744E+04  0.24127853390E+04 0.  0.
        3    1    3    3  502    0 -0.22716119339E+03 -0.88212801546E+03  0.15433631949E+04  0.17921277871E+04  0.10100000352E+00 0. -1.
       -3    1    3    3    0  502  0.22716119339E+03  0.88212801546E+03 -0.25116213997E+03  0.94489918732E+03  0.10100000352E+00 0.  1.
</event>
<event>
 5   0  0.2080257E-05  0.2401077E+04  0.7818609E-02  0.8439100E-01
       -2   -1    0    0    0  501  0.00000000000E+00  0.00000000000E+00  0.11609214925E+04  0.11609214925E+04  0.25500000920E-02 0.  1.
        2   -1    0    0  501    0  0.00000000000E+00  0.00000000000E+00 -0.12415078400E+04  0.12415078400E+04  0.25500000920E-02 0. -1.
    10030    2    1    2    0    0  0.00000000000E+00  0.00000000000E+00 -0.80586347479E+02  0.24024293325E+04  0.24010773704E+04 0.  0.
        1    1    3    3  502    0 -0.74639206442E+03 -0.72296626515E+02  0.89776616660E+03  0.11697486935E+04  0.50400001928E-02 0.  1.
       -1    1    3    3    0  502  0.74639206442E+03  0.72296626515E+02 -0.97835251408E+03  0.12326806390E+04  0.50400001928E-02 0. -1.
</event>
<event>
 5   0  0.8898848E-06  0.2390832E+04  0.7818609E-02  0.8442944E-01
       -1   -1    0    0    0  501  0.00000000000E+00  0.00000000000E+00  0.64529722324E+03  0.64529722326E+03  0.50400001928E-02 0.  1.
        1   -1    0    0  501    0  0.00000000000E+00  0.00000000000E+00 -0.22145142744E+04  0.22145142744E+04  0.50400001928E-02 0. -1.
    10030    2    1    2    0    0  0.00000000000E+00  0.00000000000E+00 -0.15692170511E+04  0.28598114976E+04  0.23908324175E+04 0.  0.
        5    1    3    3  502    0 -0.35411722169E+03 -0.85800351371E+03  0.11643123150E+03  0.93549310949E+03  0.46999998093E+01 0.  1.
       -5    1    3    3    0  502  0.35411722169E+03  0.85800351371E+03 -0.16856482826E+04  0.19243183882E+04  0.46999998093E+01 0. -1.
</event>
<event>
 5   0  0.9038897E-06  0.2403178E+04  0.7818609E-02  0.8438315E-01
       -1   -1    0    0    0  501  0.00000000000E+00  0.00000000000E+00  0.16555032639E+04  0.16555032639E+04  0.50400001928E-02 0. -1.
        1   -1    0    0  501    0  0.00000000000E+00  0.00000000000E+00 -0.87213134560E+03  0.87213134561E+03  0.50400001928E-02 0.  1.
    10030    2    1    2    0    0  0.00000000000E+00  0.00000000000E+00  0.78337191828E+03  0.25276346095E+04  0.24031781367E+04 0.  0.
        1    1    3    3  502    0 -0.94034644029E+03 -0.48945738434E+01 -0.39507762353E+03  0.10199812318E+04  0.50400001928E-02 0.  1.
       -1    1    3    3    0  502  0.94034644029E+03  0.48945738434E+01  0.11784495418E+04  0.15076533777E+04  0.50400001928E-02 0. -1.
</event>
<event>
 5   0  0.2087882E-05  0.2396269E+04  0.7818609E-02  0.8440902E-01
       -2   -1    0    0    0  501  0.00000000000E+00  0.00000000000E+00  0.97198661095E+03  0.97198661095E+03  0.25500000920E-02 0.  1.
        2   -1    0    0  501    0  0.00000000000E+00  0.00000000000E+00 -0.14768998102E+04  0.14768998102E+04  0.25500000920E-02 0. -1.
    10030    2    1    2    0    0  0.00000000000E+00  0.00000000000E+00 -0.50491319924E+03  0.24488864211E+04  0.23962694683E+04 0.  0.
        2    1    3    3  502    0 -0.52965165153E+03  0.37223044524E+03  0.77786774588E+03  0.10120101810E+04  0.25500000920E-02 0.  1.
       -2    1    3    3    0  502  0.52965165153E+03 -0.37223044524E+03 -0.12827809451E+04  0.14368762401E+04  0.25500000920E-02 0. -1.
</event>
<event>
 5   0  0.9083687E-06  0.2422301E+04  0.7818609E-02  0.8431201E-01
        1   -1    0    0  501    0  0.00000000000E+00  0.00000000000E+00  0.13286391097E+04  0.13286391097E+04  0.50400001928E-02 0.  1.
       -1   -1    0    0    0  501  0.00000000000E+00  0.00000000000E+00 -0.11040513400E+04  0.11040513400E+04  0.50400001928E-02 0. -1.
    10030    2    1    2    0    0  0.00000000000E+00  0.00000000000E+00  0.22458776973E+03  0.24326904498E+04  0.24223012113E+04 0.  0.
        2    1    3    3  502    0 -0.50089710885E+03  0.47625115199E+03  0.11111312223E+04  0.13085586218E+04  0.25500000920E-02 0.  1.
       -2    1    3    3    0  502  0.50089710885E+03 -0.47625115199E+03 -0.88654345257E+03  0.11241318280E+04  0.25500000920E-02 0. -1.
</event>
<event>
 5   0  0.2080257E-05  0.2405033E+04  0.7818609E-02  0.8437622E-01
        2   -1    0    0  501    0  0.00000000000E+00  0.00000000000E+00  0.13961558518E+04  0.13961558518E+04  0.25500000920E-02 0. -1.
       -2   -1    0    0    0  501  0.00000000000E+00  0.00000000000E+00 -0.10357342649E+04  0.10357342649E+04  0.25500000920E-02 0.  1.
    10030    2    1    2    0    0  0.00000000000E+00  0.00000000000E+00  0.36042158689E+03  0.24318901168E+04  0.24050334342E+04 0.  0.
        1    1    3    3  502    0  0.89999029213E+03  0.73827001547E+03 -0.12485560728E+03  0.11707322770E+04  0.50400001928E-02 0.  1.
       -1    1    3    3    0  502 -0.89999029213E+03 -0.73827001547E+03  0.48527719417E+03  0.12611578398E+04  0.50400001928E-02 0. -1.
</event>
<event>
 5   0  0.2048028E-05  0.2376391E+04  0.7818609E-02  0.8448396E-01
       -2   -1    0    0    0  501  0.00000000000E+00  0.00000000000E+00  0.10162065047E+04  0.10162065047E+04  0.25500000920E-02 0. -1.
        2   -1    0    0  501    0  0.00000000000E+00  0.00000000000E+00 -0.13892928934E+04  0.13892928934E+04  0.25500000920E-02 0.  1.
    10030    2    1    2    0    0  0.00000000000E+00  0.00000000000E+00 -0.37308638875E+03  0.24054993981E+04  0.23763909403E+04 0.  0.
        5    1    3    3  502    0 -0.69227268123E+02  0.10987794112E+04 -0.63886990074E+03  0.12729043362E+04  0.46999998093E+01 0. -1.
       -5    1    3    3    0  502  0.69227268123E+02 -0.10987794112E+04  0.26578351199E+03  0.11325950619E+04  0.46999998093E+01 0.  1.
</event>
<event>
 5   0  0.9176817E-06  0.2398154E+04  0.7818609E-02  0.8440195E-01
       -1   -1    0    0    0  501  0.00000000000E+00  0.00000000000E+00  0.10052598986E+04  0.10052598986E+04  0.50400001928E-02 0.  1.
        1   -1    0    0  501    0  0.00000000000E+00  0.00000000000E+00 -0.14302629588E+04  0.14302629588E+04  0.50400001928E-02 0. -1.
    10030    2    1    2    0    0  0.00000000000E+00  0.00000000000E+00 -0.42500306020E+03  0.24355228574E+04  0.23981542877E+04 0.  0.
        3    1    3    3  502    0  0.19273298721E+03  0.30256152973E+02 -0.14140363996E+04  0.14274313954E+04  0.10100000352E+00 0. -1.
       -3    1    3    3    0  502 -0.19273298721E+03 -0.30256152973E+02  0.98903333935E+03  0.10080914620E+04  0.10100000352E+00 0.  1.
</event>
<event>
 5   0  0.8898848E-06  0.2382015E+04  0.7818609E-02  0.8446268E-01
        1   -1    0    0  501    0  0.00000000000E+00  0.00000000000E+00  0.94589848630E+03  0.94589848631E+03  0.50400001928E-02 0.  1.
       -1   -1    0    0    0  501  0.00000000000E+00  0.00000000000E+00 -0.14996316345E+04  0.14996316345E+04  0.50400001928E-02 0. -1.
    10030    2    1    2    0    0  0.00000000000E+00  0.00000000000E+00 -0.55373314818E+03  0.24455301208E+04  0.23820153594E+04 0.  0.
        5    1    3    3  502    0  0.34779931503E+03  0.88687259492E+03  0.45701518290E+03  0.10565946860E+04  0.46999998093E+01 0.  1.
       -5    1    3    3    0  502 -0.34779931503E+03 -0.88687259492E+03 -0.10107483311E+04  0.13889354348E+04  0.46999998093E+01 0. -1.
</event>
<event>
 5   0  0.2080257E-05  0.2398874E+04  0.7818609E-02  0.8439925E-01
       -2   -1    0    0    0  501  0.00000000000E+00  0.00000000000E+00  0.11138797063E+04  0.11138797063E+04  0.25500000920E-02 0. -1.
        2   -1    0    0  501    0  0.00000000000E+00  0.00000000000E+00 -0.12915663966E+04  0.12915663966E+04  0.25500000920E-02 0.  1.
    10030    2    1    2    0    0  0.00000000000E+00  0.00000000000E+00 -0.17768669032E+03  0.24054461030E+04  0.23988744015E+04 0.  0.
        1    1    3    3  502    0 -0.80988982678E+03  0.87945445582E+03  0.77945630906E+01  0.11955845544E+04  0.50400001928E-02 0. -1.
       -1    1    3    3    0  502  0.80988982678E+03 -0.87945445582E+03 -0.18548125341E+03  0.12098615486E+04  0.50400001928E-02 0.  1.
</event>
<event>
 5   0  0.2025353E-05  0.2384603E+04  0.7818609E-02  0.8445291E-01
        2   -1    0    0  501    0  0.00000000000E+00  0.00000000000E+00  0.20751897472E+04  0.20751897472E+04  0.25500000920E-02 0. -1.
       -2   -1    0    0    0  501  0.00000000000E+00  0.00000000000E+00 -0.68503744350E+03  0.68503744350E+03  0.25500000920E-02 0.  1.
    10030    2    1    2    0    0  0.00000000000E+00  0.00000000000E+00  0.13901523037E+04  0.27602271907E+04  0.23846028426E+04 0.  0.
        4    1    3    3  502    0  0.69848693675E+03 -0.74352600562E+03 -0.19280276459E+02  0.10203373284E+04  0.12699999809E+01 0.  1.
       -4    1    3    3    0  502 -0.69848693675E+03  0.74352600562E+03  0.14094325801E+04  0.17398898622E+04  0.12699999809E+01 0. -1.
</event>
<event>
 5   0  0.7233625E-06  0.2432817E+04  0.7818609E-02  0.8427319E-01
        4   -1    0    0  501    0  0.00000000000E+00  0.00000000000E+00  0.93024959631E+03  0.93025046322E+03  0.12699999809E+01 0.  1.
       -4   -1    0    0    0  501  0.00000000000E+00  0.00000000000E+00 -0.15905922668E+04  0.15905927738E+04  0.12699999809E+01 0. -1.
    10030    2    1    2    0    0  0.00000000000E+00  0.00000000000E+00 -0.66034267047E+03  0.25208432370E+04  0.24328169235E+04 0.  0.
        1    1    3    3  502    0 -0.55682914734E+03 -0.65909477914E+03  0.55828217103E+03  0.10276884789E+04  0.50400001928E-02 0.  1.
       -1    1    3    3    0  502  0.55682914734E+03  0.65909477914E+03 -0.12186248415E+04  0.14931547581E+04  0.50400001928E-02 0. -1.
</event>
<event>
 5   0  0.8528103E-06  0.2310745E+04  0.7818609E-02  0.8473697E-01
       -1   -1    0    0    0  501  0.00000000000E+00  0.00000000000E+00  0.58391255412E+03  0.58391255414E+03  0.50400001928E-02 0. -1.
        1   -1    0    0  501    0  0.00000000000E+00  0.00000000000E+00 -0.22861050137E+04  0.22861050137E+04  0.50400001928E-02 0.  1.
    10030    2    1    2    0    0  0.00000000000E+00  0.00000000000E+00 -0.17021924595E+04  0.28700175678E+04  0.23107448302E+04 0.  0.
        4    1    3    3  502    0 -0.18696177710E+03  0.11244599418E+04 -0.61701717796E+03  0.12961777184E+04  0.12699999809E+01 0. -1.
       -4    1    3    3    0  502  0.18696177710E+03 -0.11244599418E+04 -0.10851752816E+04  0.15738398494E+04  0.12699999809E+01 0.  1.
</event>
<event>
 5   0  0.2122194E-05  0.2514842E+04  0.7818609E-02  0.8397717E-01
        2   -1    0    0  501    0  0.00000000000E+00  0.00000000000E+00  0.13033536888E+04  0.13033536888E+04  0.25500000920E-02 0. -1.
       -2   -1    0    0    0  501  0.00000000000E+00  0.00000000000E+00 -0.12131070645E+04  0.12131070645E+04  0.25500000920E-02 0.  1.
    10030    2    1    2    0    0  0.00000000000E+00  0.00000000000E+00  0.90246624335E+02  0.25164607534E+04  0.25148419970E+04 0.  0.
        3    1    3    3  502    0  0.11385660934E+04 -0.29787886937E+03  0.48817573241E+03  0.12741193530E+04  0.10100000352E+00 0. -1.
       -3    1    3    3    0  502 -0.11385660934E+04  0.29787886937E+03 -0.39792910808E+03  0.12423414004E+04  0.10100000352E+00 0.  1.
</event>
<event>
 5   0  0.9038897E-06  0.2394749E+04  0.7818609E-02  0.8441472E-01
       -1   -1    0    0    0  501  0.00000000000E+00  0.00000000000E+00  0.76741177648E+03  0.76741177650E+03  0.50400001928E-02 0.  1.
        1   -1    0    0  501    0  0.00000000000E+00  0.00000000000E+00 -0.18682356552E+04  0.18682356552E+04  0.50400001928E-02 0. -1.
    10030    2    1    2    0    0  0.00000000000E+00  0.00000000000E+00 -0.11008238787E+04  0.26356474317E+04  0.23947492922E+04 0.  0.
        1    1    3    3  502    0  0.65047810615E+03 -0.44678228944E+02 -0.16557221651E+04  0.17794757089E+04  0.50400001928E-02 0. -1.
       -1    1    3    3    0  502 -0.65047810615E+03  0.44678228944E+02  0.55489828633E+03  0.85617172280E+03  0.50400001928E-02 0.  1.
</event>
<event>
 5   0  0.2122194E-05  0.2400908E+04  0.7818609E-02  0.8439164E-01
        2   -1    0    0  501    0  0.00000000000E+00  0.00000000000E+00  0.19170915471E+04  0.19170915471E+04  0.25500000920E-02 0.  1.
       -2   -1    0    0    0  501  0.00000000000E+00  0.00000000000E+00 -0.75170625268E+03  0.75170625268E+03  0.25500000920E-02 0. -1.
    10030    2    1    2    0    0  0.00000000000E+00  0.00000000000E+00  0.11653852944E+04  0.26687977998E+04  0.24009079140E+04 0.  0.
        3    1    3    3  502    0  0.50901151308E+03 -0.38342865962E+03 -0.54816002350E+03  0.84058888824E+03  0.10100000352E+00 0.  1.
       -3    1    3    3    0  502 -0.50901151308E+03  0.38342865962E+03  0.17135453179E+04  0.18282089115E+04  0.10100000352E+00 0. -1.
</event>
<event>
 5   0  0.9083687E-06  0.2405718E+04  0.7818609E-02  0.8437366E-01
       -1   -1    0    0    0  501  0.00000000000E+00  0.00000000000E+00  0.61269124791E+03  0.61269124793E+03  0.50400001928E-02 0.  1.
        1   -1    0    0  501    0  0.00000000000E+00  0.00000000000E+00 -0.23614984848E+04  0.23614984849E+04  0.50400001928E-02 0. -1.
    10030    2    1    2    0    0  0.00000000000E+00  0.00000000000E+00 -0.17488072369E+04  0.29741897328E+04  0.24057177338E+04 0.  0.
        2    1    3    3  502    0 -0.44797860647E+03 -0.27590251809E+03  0.46289537071E+03  0.70077040146E+03  0.25500000920E-02 0.  1.
       -2    1    3    3    0  502  0.44797860647E+03  0.27590251809E+03 -0.22117026076E+04  0.22734193313E+04  0.25500000920E-02 0. -1.
</event>
<event>
 5   0  0.2080257E-05  0.2413775E+04  0.7818609E-02  0.8434364E-01
       -2   -1    0    0    0  501  0.00000000000E+00  0.00000000000E+00  0.94192855915E+03  0.94192855916E+03  0.25500000920E-02 0.  1.
        2   -1    0    0  501    0  0.00000000000E+00  0.00000000000E+00 -0.15463775930E+04  0.15463775930E+04  0.25500000920E-02 0. -1.
    10030    2    1    2    0    0  0.00000000000E+00  0.00000000000E+00 -0.60444903384E+03  0.24883061522E+04  0.24137748181E+04 0.  0.
        1    1    3    3  502    0  0.15163892478E+03  0.64246112316E+02 -0.15347399030E+04  0.15435506135E+04  0.50400001928E-02 0. -1.
       -1    1    3    3    0  502 -0.15163892478E+03 -0.64246112316E+02  0.93029086920E+03  0.94475553864E+03  0.50400001928E-02 0.  1.
</event>
<event>
 5   0  0.2087882E-05  0.2411224E+04  0.7818609E-02  0.8435313E-01
        2   -1    0    0  501    0  0.00000000000E+00  0.00000000000E+00  0.17181550667E+04  0.17181550667E+04  0.25500000920E-02 0.  1.
       -2   -1    0    0    0  501  0.00000000000E+00  0.00000000000E+00 -0.84596571558E+03  0.84596571559E+03  0.25500000920E-02 0. -1.
    10030    2    1    2    0    0  0.00000000000E+00  0.00000000000E+00  0.87218935116E+03  0.25641207823E+04  0.24112239884E+04 0.  0.
        2    1    3    3  502    0 -0.76514762807E+03  0.60894749822E+03  0.11859553935E+04  0.15371265868E+04  0.25500000920E-02 0.  1.
       -2    1    3    3    0  502  0.76514762807E+03 -0.60894749822E+03 -0.31376604238E+03  0.10269941955E+04  0.25500000920E-02 0. -1.
</event>
<event>
 5   0  0.7233625E-06  0.2436986E+04  0.7818609E-02  0.8425785E-01
       -3   -1    0    0    0  501  0.00000000000E+00  0.00000000000E+00  0.98363323782E+03  0.98363324301E+03  0.10100000352E+00 0.  1.
        3   -1    0    0  501    0  0.00000000000E+00  0.00000000000E+00 -0.15094300214E+04  0.15094300248E+04  0.10100000352E+00 0. -1.
    10030    2    1    2    0    0  0.00000000000E+00  0.00000000000E+00 -0.52579678359E+03  0.24930632678E+04  0.24369862945E+04 0.  0.
        4    1    3    3  502    0  0.20341439296E+03 -0.62816368063E+03  0.78475501916E+03  0.10255774363E+04  0.12699999809E+01 0.  1.
       -4    1    3    3    0  502 -0.20341439296E+03  0.62816368063E+03 -0.13105518028E+04  0.14674858315E+04  0.12699999809E+01 0. -1.
</event>
<event>
 5   0  0.8528103E-06  0.2412442E+04  0.7818609E-02  0.8434860E-01
        1   -1    0    0  501    0  0.00000000000E+00  0.00000000000E+00  0.10571368584E+04  0.10571368584E+04  0.50400001928E-02 0. -1.
       -1   -1    0    0    0  501  0.00000000000E+00  0.00000000000E+00 -0.13763303654E+04  0.13763303654E+04  0.50400001928E-02 0.  1.
    10030    2    1    2    0    0  0.00000000000E+00  0.00000000000E+00 -0.31919350698E+03  0.24334672238E+04  0.24124423795E+04 0.  0.
        4    1    3    3  502    0 -0.60406784571E+01  0.52975388835E+03  0.93349509010E+03  0.10733547262E+04  0.12699999809E+01 0. -1.
       -4    1    3    3    0  502  0.60406784571E+01 -0.52975388835E+03 -0.12526885971E+04  0.13601124976E+04  0.12699999809E+01 0.  1.
</event>
<event>
 5   0  0.2025353E-05  0.2414823E+04  0.7818609E-02  0.8433975E-01
        2   -1    0    0  501    0  0.00000000000E+00  0.00000000000E+00  0.17441312675E+04  0.17441312675E+04  0.25500000920E-02 0.  1.
       -2   -1    0    0    0  501  0.00000000000E+00  0.00000000000E+00 -0.83585588122E+03  0.83585588122E+03  0.25500000920E-02 0. -1.
    10030    2    1    2    0    0  0.00000000000E+00  0.00000000000E+00  0.90827538627E+03  0.25799871487E+04  0.24148228735E+04 0.  0.
        4    1    3    3  502    0 -0.81723624293E+03 -0.87066324274E+03  0.64499283638E+03  0.13571834551E+04  0.12699999809E+01 0. -1.
       -4    1    3    3    0  502  0.81723624293E+03  0.87066324274E+03  0.26328254990E+03  0.12228036936E+04  0.12699999809E+01 0.  1.
</event>
<event>
 5   0  0.2048028E-05  0.2417926E+04  0.7818609E-02  0.8432823E-01
        2   -1    0    0  501    0  0.00000000000E+00  0.00000000000E+00  0.14396551551E+04  0.14396551551E+04  0.25500000920E-02 0.  1.
       -2   -1    0    0    0  501  0.00000000000E+00  0.00000000000E+00 -0.10152370857E+04  0.10152370857E+04  0.25500000920E-02 0. -1.
    10030    2    1    2    0    0  0.00000000000E+00  0.00000000000E+00  0.42441806942E+03  0.24548922408E+04  0.24179258086E+04 0.  0.
        5    1    3    3  502    0  0.88317988140E+03 -0.49628366142E+03 -0.45762368019E+03  0.11116409934E+04  0.46999998093E+01 0. -1.
       -5    1    3    3    0  502 -0.88317988140E+03  0.49628366142E+03  0.88204174961E+03  0.13432512474E+04  0.46999998093E+01 0.  1.
</event>
<event>
 5   0  0.9038897E-06  0.2395011E+04  0.7818609E-02  0.8441374E-01
        1   -1    0    0  501    0  0.00000000000E+00  0.00000000000E+00  0.14166219764E+04  0.14166219764E+04  0.50400001928E-02 0. -1.
       -1   -1    0    0    0  501  0.00000000000E+00  0.00000000000E+00 -0.10122810309E+04  0.10122810309E+04  0.50400001928E-02 0.  1.
    10030    2    1    2    0    0  0.00000000000E+00  0.00000000000E+00  0.40434094544E+03  0.24289030073E+04  0.23950111104E+04 0.  0.
        1    1    3    3  502    0 -0.50414908768E+03 -0.30032702119E+03  0.12608086049E+04  0.13906836307E+04  0.50400001928E-02 0. -1.
       -1    1    3    3    0  502  0.50414908768E+03  0.30032702119E+03 -0.85646765950E+03  0.10382193767E+04  0.50400001928E-02 0.  1.
</event>
<event>
 5   0  0.2025353E-05  0.2489637E+04  0.7818609E-02  0.8406687E-01
       -2   -1    0    0    0  501  0.00000000000E+00  0.00000000000E+00  0.66357153261E+03  0.66357153262E+03  0.25500000920E-02 0.  1.
        2   -1    0    0  501    0  0.00000000000E+00  0.00000000000E+00 -0.23352016085E+04  0.23352016085E+04  0.25500000920E-02 0. -1.
    10030    2    1    2    0    0  0.00000000000E+00  0.00000000000E+00 -0.16716300759E+04  0.29987731412E+04  0.24896371706E+04 0.  0.
        4    1    3    3  502    0 -0.74876699532E+03 -0.20474603561E+03  0.33633243258E+03  0.84598703919E+03  0.12699999809E+01 0.  1.
       -4    1    3    3    0  502  0.74876699532E+03  0.20474603561E+03 -0.20079625085E+04  0.21527861020E+04  0.12699999809E+01 0. -1.
</event>
<event>
 5   0  0.7233625E-06  0.2377375E+04  0.7818609E-02  0.8448023E-01
        3   -1    0    0  501    0  0.00000000000E+00  0.00000000000E+00  0.16317205229E+04  0.16317205261E+04  0.10100000352E+00 0.  1.
       -3   -1    0    0    0  501  0.00000000000E+00  0.00000000000E+00 -0.86594343883E+03  0.86594344472E+03  0.10100000352E+00 0. -1.
    10030    2    1    2    0    0  0.00000000000E+00  0.00000000000E+00  0.76577708410E+03  0.24976639708E+04  0.23773747640E+04 0.  0.
        5    1    3    3  502    0 -0.76149422048E+03 -0.91266985493E+03  0.37157861757E+03  0.12453643928E+04  0.46999998093E+01 0. -1.
       -5    1    3    3    0  502  0.76149422048E+03  0.91266985493E+03  0.39419846653E+03  0.12522995779E+04  0.46999998093E+01 0.  1.
</event>
<event>
 5   0  0.9176817E-06  0.2407718E+04  0.7818609E-02  0.8436620E-01
       -1   -1    0    0    0  501  0.00000000000E+00  0.00000000000E+00  0.10177366508E+04  0.10177366508E+04  0.50400001928E-02 0. -1.
        1   -1    0    0  501    0  0.00000000000E+00  0.00000000000E+00 -0.14240195974E+04  0.14240195974E+04  0.50400001928E-02 0.  1.
    10030    2    1    2    0    0  0.00000000000E+00  0.00000000000E+00 -0.40628294663E+03  0.24417562482E+04  0.24077183687E+04 0.  0.
        3    1    3    3  502    0 -0.52097601757E+03 -0.52579002397E+03  0.75970443106E+03  0.10606705393E+04  0.10100000352E+00 0. -1.
       -3    1    3    3    0  502  0.52097601757E+03  0.52579002397E+03 -0.11659873777E+04  0.13810857089E+04  0.10100000352E+00 0.  1.
</event>
<event>
 5   0  0.9083687E-06  0.2409440E+04  0.7818609E-02  0.8435978E-01
        1   -1    0    0  501    0  0.00000000000E+00  0.00000000000E+00  0.14503855255E+04  0.14503855255E+04  0.50400001928E-02 0.  1.
       -1   -1    0    0    0  501  0.00000000000E+00  0.00000000000E+00 -0.10006649081E+04  0.10006649081E+04  0.50400001928E-02 0. -1.
    10030    2    1    2    0    0  0.00000000000E+00  0.00000000000E+00  0.44972061739E+03  0.24510504336E+04  0.24094396847E+04 0.  0.
        2    1    3    3  502    0 -0.62382772011E+03 -0.14924016227E+02  0.12731746447E+04  0.14178707369E+04  0.25500000920E-02 0.  1.
       -2    1    3    3    0  502  0.62382772011E+03  0.14924016227E+02 -0.82345402729E+03  0.10331796967E+04  0.25500000920E-02 0. -1.
</event>
<event>
 5   0  0.9083687E-06  0.2359562E+04  0.7818609E-02  0.8454800E-01
       -1   -1    0    0    0  501  0.00000000000E+00  0.00000000000E+00  0.11406108893E+04  0.11406108893E+04  0.50400001928E-02 0.  1.
        1   -1    0    0  501    0  0.00000000000E+00  0.00000000000E+00 -0.12202962662E+04  0.12202962662E+04  0.50400001928E-02 0. -1.
    10030    2    1    2    0    0  0.00000000000E+00  0.00000000000E+00 -0.79685376876E+02  0.23609071555E+04  0.23595620012E+04 0.  0.
        2    1    3    3  502    0 -0.11034378831E+04 -0.21103506241E+03 -0.40028721256E+03  0.11926193072E+04  0.25500000920E-02 0.  1.
       -2    1    3    3    0  502  0.11034378831E+04  0.21103506241E+03  0.32060183569E+03  0.11682878483E+04  0.25500000920E-02 0. -1.
</event>
<event>
 5   0  0.9038897E-06  0.2269974E+04  0.7818609E-02  0.8489855E-01
        1   -1    0    0  501    0  0.00000000000E+00  0.00000000000E+00  0.21110956161E+04  0.21110956161E+04  0.50400001928E-02 0. -1.
       -1   -1    0    0    0  501  0.00000000000E+00  0.00000000000E+00 -0.61020219234E+03  0.61020219236E+03  0.50400001928E-02 0.  1.
    10030    2    1    2    0    0  0.00000000000E+00  0.00000000000E+00  0.15008934237E+04  0.27212978084E+04  0.22699737207E+04 0.  0.
        1    1    3    3  502    0  0.27774456503E+03 -0.10896190968E+04  0.93532750207E+03  0.14626172964E+04  0.50400001928E-02 0.  1.
       -1    1    3    3    0  502 -0.27774456503E+03  0.10896190968E+04  0.56556592166E+03  0.12586805120E+04  0.50400001928E-02 0. -1.
</event>
<event>
 5   0  0.8898848E-06  0.2370427E+04  0.7818609E-02  0.8450659E-01
        1   -1    0    0  501    0  0.00000000000E+00  0.00000000000E+00  0.18442003064E+04  0.18442003064E+04  0.50400001928E-02 0. -1.
       -1   -1    0    0    0  501  0.00000000000E+00  0.00000000000E+00 -0.76170168279E+03  0.76170168281E+03  0.50400001928E-02 0.  1.
    10030    2    1    2    0    0  0.00000000000E+00  0.00000000000E+00  0.10824986236E+04  0.26059019892E+04  0.23704265243E+04 0.  0.
        5    1    3    3  502    0 -0.64628128310E+03  0.59923267681E+03  0.14124010282E+04  0.16648297367E+04  0.46999998093E+01 0. -1.
       -5    1    3    3    0  502  0.64628128310E+03 -0.59923267681E+03 -0.32990240459E+03  0.94107225248E+03  0.46999998093E+01 0.  1.
</event>
<event>
 5   0  0.9083687E-06  0.2389843E+04  0.7818609E-02  0.8443316E-01
        1   -1    0    0  501    0  0.00000000000E+00  0.00000000000E+00  0.10758060839E+04  0.10758060839E+04  0.50400001928E-02 0.  1.
       -1   -1    0    0    0  501  0.00000000000E+00  0.00000000000E+00 -0.13272253668E+04  0.13272253668E+04  0.50400001928E-02 0. -1.
    10030    2    1    2    0    0  0.00000000000E+00  0.00000000000E+00 -0.25141928287E+03  0.24030314507E+04  0.23898427767E+04 0.  0.
        2    1    3    3  502    0  0.55835389971E+03 -0.10554117804E+04 -0.17270105560E+03  0.12064322435E+04  0.25500000920E-02 0. -1.
       -2    1    3    3    0  502 -0.55835389971E+03  0.10554117804E+04 -0.78718227271E+02  0.11965992072E+04  0.25500000920E-02 0.  1.
</event>
<event>
 5   0  0.2025353E-05  0.2399517E+04  0.7818609E-02  0.8439685E-01
        2   -1    0    0  501    0  0.00000000000E+00  0.00000000000E+00  0.19908379132E+04  0.19908379132E+04  0.25500000920E-02 0. -1.
       -2   -1    0    0    0  501  0.00000000000E+00  0.00000000000E+00 -0.72302216795E+03  0.72302216795E+03  0.25500000920E-02 0.  1.
    10030    2    1    2    0    0  0.00000000000E+00  0.00000000000E+00  0.12678157452E+04  0.27138600811E+04  0.23995165713E+04 0.  0.
        4    1    3    3  502    0 -0.27311648416E+02  0.77981371576E+03 -0.39683415071E+03  0.87540522816E+03  0.12699999809E+01 0.  1.
       -4    1    3    3    0  502  0.27311648416E+02 -0.77981371576E+03  0.16646498959E+04  0.18384548530E+04  0.12699999809E+01 0. -1.
</event>
<event>
 5   0  0.2025353E-05  0.2397845E+04  0.7818609E-02  0.8440311E-01
       -2   -1    0    0    0  501  0.00000000000E+00  0.00000000000E+00  0.95822968512E+03  0.95822968512E+03  0.25500000920E-02 0. -1.
        2   -1    0    0  501    0  0.00000000000E+00  0.00000000000E+00 -0.15000741897E+04  0.15000741897E+04  0.25500000920E-02 0.  1.
    10030    2    1    2    0    0  0.00000000000E+00  0.00000000000E+00 -0.54184450459E+03  0.24583038748E+04  0.23978453816E+04 0.  0.
        4    1    3    3  502    0 -0.98493048928E+03  0.36616176337E+03  0.32091247756E+03  0.10987032979E+04  0.12699999809E+01 0. -1.
       -4    1    3    3    0  502  0.98493048928E+03 -0.36616176337E+03 -0.86275698215E+03  0.13596005769E+04  0.12699999809E+01 0.  1.
</event>
<event>
 5   0  0.2025353E-05  0.2260026E+04  0.7818609E-02  0.8493851E-01
        2   -1    0    0  501    0  0.00000000000E+00  0.00000000000E+00  0.17529304897E+04  0.17529304897E+04  0.25500000920E-02 0.  1.
       -2   -1    0    0    0  501  0.00000000000E+00  0.00000000000E+00 -0.72845423530E+03  0.72845423531E+03  0.25500000920E-02 0. -1.
    10030    2    1    2    0    0  0.00000000000E+00  0.00000000000E+00  0.10244762544E+04  0.24813847250E+04  0.22600262294E+04 0.  0.
        4    1    3    3  502    0 -0.97695584740E+03  0.56505818729E+03  0.45018194630E+03  0.12150715536E+04  0.12699999809E+01 0.  1.
       -4    1    3    3    0  502  0.97695584740E+03 -0.56505818729E+03  0.57429430812E+03  0.12663131714E+04  0.12699999809E+01 0. -1.
</event>
<event>
 5   0  0.8528103E-06  0.2363116E+04  0.7818609E-02  0.8453443E-01
       -1   -1    0    0    0  501  0.00000000000E+00  0.00000000000E+00  0.81694052850E+03  0.81694052851E+03  0.50400001928E-02 0.  1.
        1   -1    0    0  501    0  0.00000000000E+00  0.00000000000E+00 -0.17089122067E+04  0.17089122067E+04  0.50400001928E-02 0. -1.
    10030    2    1    2    0    0  0.00000000000E+00  0.00000000000E+00 -0.89197167820E+03  0.25258527352E+04  0.23631162826E+04 0.  0.
        4    1    3    3  502    0  0.79590166695E+03  0.14675989879E+03  0.47415754642E+03  0.93798983100E+03  0.12699999809E+01 0.  1.
       -4    1    3    3    0  502 -0.79590166695E+03 -0.14675989879E+03 -0.13661292246E+04  0.15878629042E+04  0.12699999809E+01 0. -1.
</event>
<event>
 5   0  0.8528103E-06  0.2329486E+04  0.7818609E-02  0.8466385E-01
       -1   -1    0    0    0  501  0.00000000000E+00  0.00000000000E+00  0.86936873009E+03  0.86936873010E+03  0.50400001928E-02 0.  1.
        1   -1    0    0  501    0  0.00000000000E+00  0.00000000000E+00 -0.15604731721E+04  0.15604731721E+04  0.50400001928E-02 0. -1.
    10030    2    1    2    0    0  0.00000000000E+00  0.00000000000E+00 -0.69110444201E+03  0.24298419022E+04  0.23294862781E+04 0.  0.
        4    1    3    3  502    0  0.46046339908E+03 -0.50220723445E+03  0.63980638112E+03  0.93466168556E+03  0.12699999809E+01 0.  1.
       -4    1    3    3    0  502 -0.46046339908E+03  0.50220723445E+03 -0.13309108231E+04  0.14951802166E+04  0.12699999809E+01 0. -1.
</event>
<event>
 5   0  0.2048028E-05  0.2401724E+04  0.7818609E-02  0.8438858E-01
       -2   -1    0    0    0  501  0.00000000000E+00  0.00000000000E+00  0.14128505281E+04  0.14128505281E+04  0.25500000920E-02 0.  1.
        2   -1    0    0  501    0  0.00000000000E+00  0.00000000000E+00 -0.10206810329E+04  0.10206810329E+04  0.25500000920E-02 0. -1.
    10030    2    1    2    0    0  0.00000000000E+00  0.00000000000E+00  0.39216949515E+03  0.24335315610E+04  0.24017241610E+04 0.  0.
        5    1    3    3  502    0  0.40533660668E+03 -0.77548602433E+03  0.10293944609E+04  0.13510556557E+04  0.46999998093E+01 0.  1.
       -5    1    3    3    0  502 -0.40533660668E+03  0.77548602433E+03 -0.63722496574E+03  0.10824759053E+04  0.46999998093E+01 0. -1.
</event>
<event>
 5   0  0.8898848E-06  0.2400090E+04  0.7818609E-02  0.8439470E-01
       -1   -1    0    0    0  501  0.00000000000E+00  0.00000000000E+00  0.11983674429E+04  0.11983674429E+04  0.50400001928E-02 0. -1.
        1   -1    0    0  501    0  0.00000000000E+00  0.00000000000E+00 -0.12017247460E+04  0.12017247460E+04  0.50400001928E-02 0.  1.
    10030    2    1    2    0    0  0.00000000000E+00  0.00000000000E+00 -0.33573030970E+01  0.24000921889E+04  0.24000898407E+04 0.  0.
        5    1    3    3  502    0 -0.59495532300E+03 -0.15120144167E+03 -0.10328207800E+04  0.12014884793E+04  0.46999998093E+01 0.  1.
       -5    1    3    3    0  502  0.59495532300E+03  0.15120144167E+03  0.10294634769E+04  0.11986037096E+04  0.46999998093E+01 0. -1.
</event>
<event>
 5   0  0.8898848E-06  0.2394759E+04  0.7818609E-02  0.8441468E-01
        1   -1    0    0  501    0  0.00000000000E+00  0.00000000000E+00  0.12983810300E+04  0.12983810300E+04  0.50400001928E-02 0. -1.
       -1   -1    0    0    0  501  0.00000000000E+00  0.00000000000E+00 -0.11042344732E+04  0.11042344733E+04  0.50400001928E-02 0.  1.
    10030    2    1    2    0    0  0.00000000000E+00  0.00000000000E+00  0.19414655677E+03  0.24026155033E+04  0.23947585204E+04 0.  0.
        5    1    3    3  502    0  0.96681912532E+03  0.61484720336E+03  0.44594782051E+03  0.12294990253E+04  0.46999998093E+01 0.  1.
       -5    1    3    3    0  502 -0.96681912532E+03 -0.61484720336E+03 -0.25180126374E+03  0.11731164780E+04  0.46999998093E+01 0. -1.
</event>
<event>
 5   0  0.2087882E-05  0.2389227E+04  0.7818609E-02  0.8443548E-01
       -2   -1    0    0    0  501  0.00000000000E+00  0.00000000000E+00  0.59356978851E+03  0.59356978851E+03  0.25500000920E-02 0. -1.
        2   -1    0    0  501    0  0.00000000000E+00  0.00000000000E+00 -0.24042692033E+04  0.24042692033E+04  0.25500000920E-02 0.  1.
    10030    2    1    2    0    0  0.00000000000E+00  0.00000000000E+00 -0.18106994148E+04  0.29978389918E+04  0.23892271240E+04 0.  0.
        2    1    3    3  502    0  0.29282516112E+03  0.11193875752E+04 -0.12782530195E+04  0.17241536765E+04  0.25500000920E-02 0.  1.
       -2    1    3    3    0  502 -0.29282516112E+03 -0.11193875752E+04 -0.53244639526E+03  0.12736853152E+04  0.25500000920E-02 0. -1.
</event>
<event>
 5   0  0.9176817E-06  0.2373711E+04  0.7818609E-02  0.8449412E-01
       -1   -1    0    0    0  501  0.00000000000E+00  0.00000000000E+00  0.97466130363E+03  0.97466130365E+03  0.50400001928E-02 0. -1.
        1   -1    0    0  501    0  0.00000000000E+00  0.00000000000E+00 -0.14452469306E+04  0.14452469306E+04  0.50400001928E-02 0.  1.
    10030    2    1    2    0    0  0.00000000000E+00  0.00000000000E+00 -0.47058562693E+03  0.24199082342E+04  0.23737112356E+04 0.  0.
        3    1    3    3  502    0 -0.82882994816E+03  0.84232862495E+03 -0.34766347269E+03  0.12318061925E+04  0.10100000352E+00 0. -1.
       -3    1    3    3    0  502  0.82882994816E+03 -0.84232862495E+03 -0.12292215424E+03  0.11881020417E+04  0.10100000352E+00 0.  1.
</event>
<event>
 5   0  0.2122194E-05  0.2385598E+04  0.7818609E-02  0.8444915E-01
        2   -1    0    0  501    0  0.00000000000E+00  0.00000000000E+00  0.76728309907E+03  0.76728309907E+03  0.25500000920E-02 0.  1.
       -2   -1    0    0    0  501  0.00000000000E+00  0.00000000000E+00 -0.18542947362E+04  0.18542947362E+04  0.25500000920E-02 0. -1.
    10030    2    1    2    0    0  0.00000000000E+00  0.00000000000E+00 -0.10870116372E+04  0.26215778353E+04  0.23855976289E+04 0.  0.
        3    1    3    3  502    0  0.44357984525E+03 -0.59572824867E+03  0.48215319988E+03  0.88550942611E+03  0.10100000352E+00 0.  1.
       -3    1    3    3    0  502 -0.44357984525E+03  0.59572824867E+03 -0.15691648370E+04  0.17360684092E+04  0.10100000352E+00 0. -1.
</event>
<event>
 5   0  0.2025353E-05  0.2413521E+04  0.7818609E-02  0.8434459E-01
        2   -1    0    0  501    0  0.00000000000E+00  0.00000000000E+00  0.19328491317E+04  0.19328491317E+04  0.25500000920E-02 0.  1.
       -2   -1    0    0    0  501  0.00000000000E+00  0.00000000000E+00 -0.75343255627E+03  0.75343255628E+03  0.25500000920E-02 0. -1.
    10030    2    1    2    0    0  0.00000000000E+00  0.00000000000E+00  0.11794165755E+04  0.26862816880E+04  0.24135214623E+04 0.  0.
        4    1    3    3  502    0  0.10191837464E+04 -0.55724175194E+03  0.22560493055E+03  0.11832806415E+04  0.12699999809E+01 0. -1.
       -4    1    3    3    0  502 -0.10191837464E+04  0.55724175194E+03  0.95381164491E+03  0.15030010465E+04  0.12699999809E+01 0.  1.
</event>
<event>
 5   0  0.2025353E-05  0.2407427E+04  0.7818609E-02  0.8436728E-01
       -2   -1    0    0    0  501  0.00000000000E+00  0.00000000000E+00  0.99983180674E+03  0.99983180674E+03  0.25500000920E-02 0.  1.
        2   -1    0    0  501    0  0.00000000000E+00  0.00000000000E+00 -0.14491694982E+04  0.14491694982E+04  0.25500000920E-02 0. -1.
    10030    2    1    2    0    0  0.00000000000E+00  0.00000000000E+00 -0.44933769150E+03  0.24490013050E+04  0.24074266408E+04 0.  0.
        4    1    3    3  502    0  0.34880534465E+02  0.45835129487E+03  0.90702744312E+03  0.10168593593E+04  0.12699999809E+01 0.  1.
       -4    1    3    3    0  502 -0.34880534465E+02 -0.45835129487E+03 -0.13563651346E+04  0.14321419457E+04  0.12699999809E+01 0. -1.
</event>
<event>
 5   0  0.9083687E-06  0.2146626E+04  0.7818609E-02  0.8540978E-01
       -1   -1    0    0    0  501  0.00000000000E+00  0.00000000000E+00  0.11843813911E+04  0.11843813911E+04  0.50400001928E-02 0.  1.
        1   -1    0    0  501    0  0.00000000000E+00  0.00000000000E+00 -0.97266054540E+03  0.97266054541E+03  0.50400001928E-02 0. -1.
    10030    2    1    2    0    0  0.00000000000E+00  0.00000000000E+00  0.21172084568E+03  0.21570419365E+04  0.21466262365E+04 0.  0.
        2    1    3    3  502    0 -0.77308540084E+03 -0.67595417324E+03 -0.20778540973E+03  0.10477355858E+04  0.25500000920E-02 0.  1.
       -2    1    3    3    0  502  0.77308540084E+03  0.67595417324E+03  0.41950625541E+03  0.11093063507E+04  0.25500000920E-02 0. -1.
</event>
<event>
 5   0  0.2080257E-05  0.2425395E+04  0.7818609E-02  0.8430057E-01
        2   -1    0    0  501    0  0.00000000000E+00  0.00000000000E+00  0.11155704697E+04  0.11155704698E+04  0.25500000920E-02 0.  1.
       -2   -1    0    0    0  501  0.00000000000E+00  0.00000000000E+00 -0.13182813377E+04  0.13182813377E+04  0.25500000920E-02 0. -1.
    10030    2    1    2    0    0  0.00000000000E+00  0.00000000000E+00 -0.20271086790E+03  0.24338518074E+04  0.24253954161E+04 0.  0.
        1    1    3    3  502    0  0.92115015584E+02  0.12435523830E+03 -0.13083318042E+04  0.13174526600E+04  0.50400001928E-02 0. -1.
       -1    1    3    3    0  502 -0.92115015584E+02 -0.12435523830E+03  0.11056209363E+04  0.11163991474E+04  0.50400001928E-02 0.  1.
</event>
<event>
 5   0  0.9038897E-06  0.2404044E+04  0.7818609E-02  0.8437991E-01
       -1   -1    0    0    0  501  0.00000000000E+00  0.00000000000E+00  0.10910035556E+04  0.10910035556E+04  0.50400001928E-02 0.  1.
        1   -1    0    0  501    0  0.00000000000E+00  0.00000000000E+00 -0.13243373295E+04  0.13243373295E+04  0.50400001928E-02 0. -1.
    10030    2    1    2    0    0  0.00000000000E+00  0.00000000000E+00 -0.23333377394E+03  0.24153408851E+04  0.24040438726E+04 0.  0.
        1    1    3    3  502    0 -0.90364678331E+03 -0.68892893980E+03  0.27716511801E+03  0.11696243396E+04  0.50400001928E-02 0.  1.
       -1    1    3    3    0  502  0.90364678331E+03  0.68892893980E+03 -0.51049889195E+03  0.12457165455E+04  0.50400001928E-02 0. -1.
</event>
<event>
 5   0  0.8898848E-06  0.2528346E+04  0.7818609E-02  0.8392956E-01
       -1   -1    0    0    0  501  0.00000000000E+00  0.00000000000E+00  0.98120685070E+03  0.98120685072E+03  0.50400001928E-02 0. -1.
        1   -1    0    0  501    0  0.00000000000E+00  0.00000000000E+00 -0.16287425641E+04  0.16287425641E+04  0.50400001928E-02 0.  1.
    10030    2    1    2    0    0  0.00000000000E+00  0.00000000000E+00 -0.64753571336E+03  0.26099494148E+04  0.25283459905E+04 0.  0.
        5    1    3    3  502    0  0.28024411834E+03  0.18730851877E+02 -0.15961174150E+04  0.16206481738E+04  0.46999998093E+01 0.  1.
       -5    1    3    3    0  502 -0.28024411834E+03 -0.18730851877E+02  0.94858170167E+03  0.98930124099E+03  0.46999998093E+01 0. -1.
</event>
<event>
 5   0  0.2080257E-05  0.2392094E+04  0.7818609E-02  0.8442469E-01
       -2   -1    0    0    0  501  0.00000000000E+00  0.00000000000E+00  0.68300524779E+03  0.68300524779E+03  0.25500000920E-02 0.  1.
        2   -1    0    0  501    0  0.00000000000E+00  0.00000000000E+00 -0.20944613221E+04  0.20944613221E+04  0.25500000920E-02 0. -1.
    10030    2    1    2    0    0  0.00000000000E+00  0.00000000000E+00 -0.14114560743E+04  0.27774665699E+04  0.23920937058E+04 0.  0.
        1    1    3    3  502    0  0.19692169221E+03 -0.93414257059E+03  0.13085239675E+03  0.96359890245E+03  0.50400001928E-02 0.  1.
       -1    1    3    3    0  502 -0.19692169221E+03  0.93414257059E+03 -0.15423084711E+04  0.18138676675E+04  0.50400001928E-02 0. -1.
</event>
<event>
 5   0  0.8898848E-06  0.2395147E+04  0.7818609E-02  0.8441323E-01
       -1   -1    0    0    0  501  0.00000000000E+00  0.00000000000E+00  0.74147187911E+03  0.74147187913E+03  0.50400001928E-02 0. -1.
        1   -1    0    0  501    0  0.00000000000E+00  0.00000000000E+00 -0.19342363225E+04  0.19342363225E+04  0.50400001928E-02 0.  1.
    10030    2    1    2    0    0  0.00000000000E+00  0.00000000000E+00 -0.11927644434E+04  0.26757082016E+04  0.23951466266E+04 0.  0.
        5    1    3    3  502    0 -0.67393072177E+03  0.14831004818E+03  0.49703309160E+03  0.85043663625E+03  0.46999998093E+01 0. -1.
       -5    1    3    3    0  502  0.67393072177E+03 -0.14831004818E+03 -0.16897975350E+04  0.18252715654E+04  0.46999998093E+01 0.  1.
</event>
<event>
 5   0  0.9176817E-06  0.2394167E+04  0.7818609E-02  0.8441690E-01
        1   -1    0    0  501    0  0.00000000000E+00  0.00000000000E+00  0.11669423888E+04  0.11669423888E+04  0.50400001928E-02 0.  1.
       -1   -1    0    0    0  501  0.00000000000E+00  0.00000000000E+00 -0.12280034574E+04  0.12280034575E+04  0.50400001928E-02 0. -1.
    10030    2    1    2    0    0  0.00000000000E+00  0.00000000000E+00 -0.61061068681E+02  0.23949458462E+04  0.23941673192E+04 0.  0.
        3    1    3    3  502    0  0.80413074412E+02 -0.75407058167E+03 -0.95707174507E+03  0.12210958358E+04  0.10100000352E+00 0. -1.
       -3    1    3    3    0  502 -0.80413074412E+02  0.75407058167E+03  0.89601067639E+03  0.11738500105E+04  0.10100000352E+00 0.  1.
</event>
<event>
 5   0  0.8528103E-06  0.2403638E+04  0.7818609E-02  0.8438143E-01
        1   -1    0    0  501    0  0.00000000000E+00  0.00000000000E+00  0.56190700432E+03  0.56190700434E+03  0.50400001928E-02 0.  1.
       -1   -1    0    0    0  501  0.00000000000E+00  0.00000000000E+00 -0.25704766397E+04  0.25704766397E+04  0.50400001928E-02 0. -1.
    10030    2    1    2    0    0  0.00000000000E+00  0.00000000000E+00 -0.20085696354E+04  0.31323836441E+04  0.24036379331E+04 0.  0.
        4    1    3    3  502    0  0.65406750411E+03  0.67736586973E+03 -0.19775275500E+04  0.21902615472E+04  0.12699999809E+01 0. -1.
       -4    1    3    3    0  502 -0.65406750411E+03 -0.67736586973E+03 -0.31042085437E+02  0.94212209685E+03  0.12699999809E+01 0.  1.
</event>
<event>
 5   0  0.2048028E-05  0.2397103E+04  0.7818609E-02  0.8440589E-01
       -2   -1    0    0    0  501  0.00000000000E+00  0.00000000000E+00  0.94967594390E+03  0.94967594390E+03  0.25500000920E-02 0. -1.
        2   -1    0    0  501    0  0.00000000000E+00  0.00000000000E+00 -0.15126486660E+04  0.15126486660E+04  0.25500000920E-02 0.  1.
    10030    2    1    2    0    0  0.00000000000E+00  0.00000000000E+00 -0.56297272215E+03  0.24623246099E+04  0.23971032933E+04 0.  0.
        5    1    3    3  502    0  0.64595577527E+03 -0.92852548050E+03  0.12563758326E+03  0.11380796650E+04  0.46999998093E+01 0. -1.
       -5    1    3    3    0  502 -0.64595577527E+03  0.92852548050E+03 -0.68861030541E+03  0.13242449450E+04  0.46999998093E+01 0.  1.
</event>
<event>
 5   0  0.2080257E-05  0.2409746E+04  0.7818609E-02  0.8435864E-01
       -2   -1    0    0    0  501  0.00000000000E+00  0.00000000000E+00  0.16820112587E+04  0.16820112587E+04  0.25500000920E-02 0.  1.
        2   -1    0    0  501    0  0.00000000000E+00  0.00000000000E+00 -0.86308537474E+03  0.86308537474E+03  0.25500000920E-02 0. -1.
    10030    2    1    2    0    0  0.00000000000E+00  0.00000000000E+00  0.81892588397E+03  0.25450966335E+04  0.24097463083E+04 0.  0.
        1    1    3    3  502    0 -0.98053489634E+03 -0.54747384888E+03  0.87049324742E+03  0.14208922521E+04  0.50400001928E-02 0.  1.
       -1    1    3    3    0  502  0.98053489634E+03  0.54747384888E+03 -0.51567363451E+02  0.11242043814E+04  0.50400001928E-02 0. -1.
</event>
<event>
 5   0  0.9083687E-06  0.2342765E+04  0.7818609E-02  0.8461248E-01
        1   -1    0    0  501    0  0.00000000000E+00  0.00000000000E+00  0.14732692862E+04  0.14732692862E+04  0.50400001928E-02 0. -1.
       -1   -1    0    0    0  501  0.00000000000E+00  0.00000000000E+00 -0.93135478963E+03  0.93135478964E+03  0.50400001928E-02 0.  1.
    10030    2    1    2    0    0  0.00000000000E+00  0.00000000000E+00  0.54191449653E+03  0.24046240758E+04  0.23427645260E+04 0.  0.
        2    1    3    3  502    0 -0.18128128414E+03  0.11390026559E+04  0.48117344197E+03  0.12496870950E+04  0.25500000920E-02 0. -1.
       -2    1    3    3    0  502  0.18128128414E+03 -0.11390026559E+04  0.60741054557E+02  0.11549369809E+04  0.25500000920E-02 0.  1.
</event>
<event>
 5   0  0.8898848E-06  0.2415542E+04  0.7818609E-02  0.8433708E-01
        1   -1    0    0  501    0  0.00000000000E+00  0.00000000000E+00  0.13602778699E+04  0.13602778699E+04  0.50400001928E-02 0.  1.
       -1   -1    0    0    0  501  0.00000000000E+00  0.00000000000E+00 -0.10723624833E+04  0.10723624834E+04  0.50400001928E-02 0. -1.
    10030    2    1    2    0    0  0.00000000000E+00  0.00000000000E+00  0.28791538652E+03  0.24326403532E+04  0.24155421376E+04 0.  0.
        5    1    3    3  502    0  0.86247566906E+03  0.84429801221E+03  0.18883150117E+03  0.12216312205E+04  0.46999998093E+01 0.  1.
       -5    1    3    3    0  502 -0.86247566906E+03 -0.84429801221E+03  0.99083885349E+02  0.12110091327E+04  0.46999998093E+01 0. -1.
</event>
<event>
 5   0  0.2122194E-05  0.2400376E+04  0.7818609E-02  0.8439363E-01
        2   -1    0    0  501    0  0.00000000000E+00  0.00000000000E+00  0.23553534687E+04  0.23553534687E+04  0.25500000920E-02 0.  1.
       -2   -1    0    0    0  501  0.00000000000E+00  0.00000000000E+00 -0.61156501340E+03  0.61156501341E+03  0.25500000920E-02 0. -1.
    10030    2    1    2    0    0  0.00000000000E+00  0.00000000000E+00  0.17437884553E+04  0.29669184821E+04  0.24003764502E+04 0.  0.
        3    1    3    3  502    0  0.21337527229E+03  0.35908632717E+02  0.23310461735E+04  0.23410670025E+04  0.10100000352E+00 0.  1.
       -3    1    3    3    0  502 -0.21337527229E+03 -0.35908632717E+02 -0.58725771824E+03  0.62585147964E+03  0.10100000352E+00 0. -1.
</event>
<event>
 5   0  0.2080257E-05  0.2385056E+04  0.7818609E-02  0.8445119E-01
       -2   -1    0    0    0  501  0.00000000000E+00  0.00000000000E+00  0.13425827546E+04  0.13425827546E+04  0.25500000920E-02 0.  1.
        2   -1    0    0  501    0  0.00000000000E+00  0.00000000000E+00 -0.10592445210E+04  0.10592445210E+04  0.25500000920E-02 0. -1.
    10030    2    1    2    0    0  0.00000000000E+00  0.00000000000E+00  0.28333823360E+03  0.24018272756E+04  0.23850563321E+04 0.  0.
        1    1    3    3  502    0  0.87458326644E+01 -0.11608219405E+04 -0.13326963731E+03  0.11684797231E+04  0.50400001928E-02 0. -1.
       -1    1    3    3    0  502 -0.87458326644E+01  0.11608219405E+04  0.41660787091E+03  0.12333475525E+04  0.50400001928E-02 0.  1.
</event>
<event>
 5   0  0.8898848E-06  0.2403277E+04  0.7818609E-02  0.8438278E-01
        1   -1    0    0  501    0  0.00000000000E+00  0.00000000000E+00  0.13124613364E+04  0.13124613364E+04  0.50400001928E-02 0.  1.
       -1   -1    0    0    0  501  0.00000000000E+00  0.00000000000E+00 -0.11001733910E+04  0.11001733910E+04  0.50400001928E-02 0. -1.
    10030    2    1    2    0    0  0.00000000000E+00  0.00000000000E+00  0.21228794537E+03  0.24126347274E+04  0.24032769620E+04 0.  0.
        5    1    3    3  502    0  0.99777118408E+03  0.50134126742E+03 -0.33945657486E+03  0.11671089317E+04  0.46999998093E+01 0. -1.
       -5    1    3    3    0  502 -0.99777118408E+03 -0.50134126742E+03  0.55174452024E+03  0.12455257957E+04  0.46999998093E+01 0.  1.
</event>
<event>
 5   0  0.9083687E-06  0.2403359E+04  0.7818609E-02  0.8438247E-01
        1   -1    0    0  501    0  0.00000000000E+00  0.00000000000E+00  0.18781939080E+04  0.18781939080E+04  0.50400001928E-02 0.  1.
       -1   -1    0    0    0  501  0.00000000000E+00  0.00000000000E+00 -0.76884183719E+03  0.76884183721E+03  0.50400001928E-02 0. -1.
    10030    2    1    2    0    0  0.00000000000E+00  0.00000000000E+00  0.11093520708E+04  0.26470357452E+04  0.24033593613E+04 0.  0.
        2    1    3    3  502    0 -0.95292413035E+03 -0.99571081045E+02 -0.24415839475E+03  0.98873258271E+03  0.25500000920E-02 0. -1.
       -2    1    3    3    0  502  0.95292413035E+03  0.99571081045E+02  0.13535104656E+04  0.16583031625E+04  0.25500000920E-02 0.  1.
</event>
<event>
 5   0  0.8898848E-06  0.2407789E+04  0.7818609E-02  0.8436593E-01
       -1   -1    0    0    0  501  0.00000000000E+00  0.00000000000E+00  0.10009125884E+04  0.10009125884E+04  0.50400001928E-02 0.  1.
        1   -1    0    0  501    0  0.00000000000E+00  0.00000000000E+00 -0.14480405720E+04  0.14480405720E+04  0.50400001928E-02 0. -1.
    10030    2    1    2    0    0  0.00000000000E+00  0.00000000000E+00 -0.44712798356E+03  0.24489531604E+04  0.24077890581E+04 0.  0.
        5    1    3    3  502    0 -0.46740506760E+03  0.11094252248E+04 -0.23061947415E+03  0.12257647647E+04  0.46999998093E+01 0.  1.
       -5    1    3    3    0  502  0.46740506760E+03 -0.11094252248E+04 -0.21650850941E+03  0.12231883957E+04  0.46999998093E+01 0. -1.
</event>
<event>
 5   0  0.9083687E-06  0.2355576E+04  0.7818609E-02  0.8456325E-01
        1   -1    0    0  501    0  0.00000000000E+00  0.00000000000E+00  0.14663255267E+04  0.14663255267E+04  0.50400001928E-02 0.  1.
       -1   -1    0    0    0  501  0.00000000000E+00  0.00000000000E+00 -0.94602761245E+03  0.94602761246E+03  0.50400001928E-02 0. -1.
    10030    2    1    2    0    0  0.00000000000E+00  0.00000000000E+00  0.52029791424E+03  0.24123531392E+04  0.23555758847E+04 0.  0.
        2    1    3    3  502    0  0.38427245093E+03 -0.94732282289E+03 -0.33884084145E+03  0.10769860552E+04  0.25500000920E-02 0. -1.
       -2    1    3    3    0  502 -0.38427245093E+03  0.94732282289E+03  0.85913875569E+03  0.13353670839E+04  0.25500000920E-02 0.  1.
</event>
<event>
 5   0  0.8898848E-06  0.2381787E+04  0.7818609E-02  0.8446354E-01
       -1   -1    0    0    0  501  0.00000000000E+00  0.00000000000E+00  0.13786055182E+04  0.13786055182E+04  0.50400001928E-02 0. -1.
        1   -1    0    0  501    0  0.00000000000E+00  0.00000000000E+00 -0.10287405651E+04  0.10287405651E+04  0.50400001928E-02 0.  1.
    10030    2    1    2    0    0  0.00000000000E+00  0.00000000000E+00  0.34986495314E+03  0.24073460834E+04  0.23817870769E+04 0.  0.
        5    1    3    3  502    0 -0.58079869271E+03 -0.23009911459E+03  0.11996824507E+04  0.13526022314E+04  0.46999998093E+01 0. -1.
       -5    1    3    3    0  502  0.58079869271E+03  0.23009911459E+03 -0.84981749756E+03  0.10547438519E+04  0.46999998093E+01 0.  1.
</event>
<event>
 5   0  0.9083687E-06  0.2468958E+04  0.7818609E-02  0.8414129E-01
        1   -1    0    0  501    0  0.00000000000E+00  0.00000000000E+00  0.33532792354E+04  0.33532792354E+04  0.50400001928E-02 0. -1.
       -1   -1    0    0    0  501  0.00000000000E+00  0.00000000000E+00 -0.45446196858E+03  0.45446196861E+03  0.50400001928E-02 0.  1.
    10030    2    1    2    0    0  0.00000000000E+00  0.00000000000E+00  0.28988172668E+04  0.38077412040E+04  0.24689575797E+04 0.  0.
        2    1    3    3  502    0 -0.47043395710E+03  0.11075820176E+04  0.10245432361E+04  0.15804223728E+04  0.25500000920E-02 0.  1.
       -2    1    3    3    0  502  0.47043395710E+03 -0.11075820176E+04  0.18742740308E+04  0.22273188313E+04  0.25500000920E-02 0. -1.
</event>
<event>
 5   0  0.2122194E-05  0.2386658E+04  0.7818609E-02  0.8444516E-01
       -2   -1    0    0    0  501  0.00000000000E+00  0.00000000000E+00  0.86799633192E+03  0.86799633192E+03  0.25500000920E-02 0. -1.
        2   -1    0    0  501    0  0.00000000000E+00  0.00000000000E+00 -0.16405986052E+04  0.16405986052E+04  0.25500000920E-02 0.  1.
    10030    2    1    2    0    0  0.00000000000E+00  0.00000000000E+00 -0.77260227333E+03  0.25085949372E+04  0.23866575552E+04 0.  0.
        3    1    3    3  502    0  0.99151821381E+03  0.63527095040E+03 -0.18314933031E+03  0.11917303538E+04  0.10100000352E+00 0. -1.
       -3    1    3    3    0  502 -0.99151821381E+03 -0.63527095040E+03 -0.58945294302E+03  0.13168645834E+04  0.10100000352E+00 0.  1.
</event>
<event>
 5   0  0.2087882E-05  0.2415304E+04  0.7818609E-02  0.8433796E-01
        2   -1    0    0  501    0  0.00000000000E+00  0.00000000000E+00  0.12207025152E+04  0.12207025152E+04  0.25500000920E-02 0.  1.
       -2   -1    0    0    0  501  0.00000000000E+00  0.00000000000E+00 -0.11947412822E+04  0.11947412822E+04  0.25500000920E-02 0. -1.
    10030    2    1    2    0    0  0.00000000000E+00  0.00000000000E+00  0.25961232965E+02  0.24154437974E+04  0.24153042775E+04 0.  0.
        2    1    3    3  502    0  0.84542869758E-01 -0.11166949063E+04  0.47280731530E+03  0.12126641243E+04  0.25500000920E-02 0.  1.
       -2    1    3    3    0  502 -0.84542869758E-01  0.11166949063E+04 -0.44684608233E+03  0.12027796732E+04  0.25500000920E-02 0. -1.
</event>
<event>
 5   0  0.2080257E-05  0.2413518E+04  0.7818609E-02  0.8434460E-01
        2   -1    0    0  501    0  0.00000000000E+00  0.00000000000E+00  0.10624311354E+04  0.10624311354E+04  0.25500000920E-02 0.  1.
       -2   -1    0    0    0  501  0.00000000000E+00  0.00000000000E+00 -0.13706935721E+04  0.13706935721E+04  0.25500000920E-02 0. -1.
    10030    2    1    2    0    0  0.00000000000E+00  0.00000000000E+00 -0.30826243668E+03  0.24331247076E+04  0.24135182023E+04 0.  0.
        1    1    3    3  502    0 -0.51637930641E+03 -0.10716740493E+04 -0.35859566906E+03  0.12424667843E+04  0.50400001928E-02 0.  1.
       -1    1    3    3    0  502  0.51637930641E+03  0.10716740493E+04  0.50333232376E+02  0.11906579233E+04  0.50400001928E-02 0. -1.
</event>
<event>
 5   0  0.9083687E-06  0.2397759E+04  0.7818609E-02  0.8440343E-01
        1   -1    0    0  501    0  0.00000000000E+00  0.00000000000E+00  0.10317734292E+04  0.10317734292E+04  0.50400001928E-02 0.  1.
       -1   -1    0    0    0  501  0.00000000000E+00  0.00000000000E+00 -0.13930504296E+04  0.13930504296E+04  0.50400001928E-02 0. -1.
    10030    2    1    2    0    0  0.00000000000E+00  0.00000000000E+00 -0.36127700040E+03  0.24248238589E+04  0.23977593031E+04 0.  0.
        2    1    3    3  502    0 -0.14625885381E+03  0.22297508017E+03  0.10014016004E+04  0.10362985593E+04  0.25500000920E-02 0.  1.
       -2    1    3    3    0  502  0.14625885381E+03 -0.22297508017E+03 -0.13626786008E+04  0.13885252996E+04  0.25500000920E-02 0. -1.
</event>
<event>
 5   0  0.2025353E-05  0.2410517E+04  0.7818609E-02  0.8435577E-01
        2   -1    0    0  501    0  0.00000000000E+00  0.00000000000E+00  0.13588469730E+04  0.13588469730E+04  0.25500000920E-02 0. -1.
       -2   -1    0    0    0  501  0.00000000000E+00  0.00000000000E+00 -0.10690296086E+04  0.10690296086E+04  0.25500000920E-02 0.  1.
    10030    2    1    2    0    0  0.00000000000E+00  0.00000000000E+00  0.28981736438E+03  0.24278765816E+04  0.24105166647E+04 0.  0.
        4    1    3    3  502    0 -0.13984204208E+03 -0.36353554999E+03 -0.10038896325E+04  0.10768054142E+04  0.12699999809E+01 0.  1.
       -4    1    3    3    0  502  0.13984204208E+03  0.36353554999E+03  0.12937069969E+04  0.13510711675E+04  0.12699999809E+01 0. -1.
</event>
<event>
 5   0  0.9038897E-06  0.2406247E+04  0.7818609E-02  0.8437169E-01
        1   -1    0    0  501    0  0.00000000000E+00  0.00000000000E+00  0.13787813347E+04  0.13787813347E+04  0.50400001928E-02 0.  1.
       -1   -1    0    0    0  501  0.00000000000E+00  0.00000000000E+00 -0.10498441774E+04  0.10498441774E+04  0.50400001928E-02 0. -1.
    10030    2    1    2    0    0  0.00000000000E+00  0.00000000000E+00  0.32893715732E+03  0.24286255122E+04  0.24062465013E+04 0.  0.
        1    1    3    3  502    0 -0.11305651259E+03 -0.11971169656E+04  0.12366047950E+03  0.12087856379E+04  0.50400001928E-02 0.  1.
       -1    1    3    3    0  502  0.11305651259E+03  0.11971169656E+04  0.20527667782E+03  0.12198398742E+04  0.50400001928E-02 0. -1.
</event>
<event>
 5   0  0.8528103E-06  0.2402696E+04  0.7818609E-02  0.8438495E-01
       -1   -1    0    0    0  501  0.00000000000E+00  0.00000000000E+00  0.10911042427E+04  0.10911042427E+04  0.50400001928E-02 0. -1.
        1   -1    0    0  501    0  0.00000000000E+00  0.00000000000E+00 -0.13227305445E+04  0.13227305445E+04  0.50400001928E-02 0.  1.
    10030    2    1    2    0    0  0.00000000000E+00  0.00000000000E+00 -0.23162630176E+03  0.24138347872E+04  0.24026959100E+04 0.  0.
        4    1    3    3  502    0  0.86737145388E+03 -0.83010519586E+03 -0.72866625841E+02  0.12027963391E+04  0.12699999809E+01 0.  1.
       -4    1    3    3    0  502 -0.86737145388E+03  0.83010519586E+03 -0.15875967592E+03  0.12110384481E+04  0.12699999809E+01 0. -1.
</event>
<event>
 5   0  0.2122194E-05  0.2376694E+04  0.7818609E-02  0.8448281E-01
       -2   -1    0    0    0  501  0.00000000000E+00  0.00000000000E+00  0.91188013543E+03  0.91188013543E+03  0.25500000920E-02 0. -1.
        2   -1    0    0  501    0  0.00000000000E+00  0.00000000000E+00 -0.15486343792E+04  0.15486343792E+04  0.25500000920E-02 0.  1.
    10030    2    1    2    0    0  0.00000000000E+00  0.00000000000E+00 -0.63675424375E+03  0.24605145146E+04  0.23766942819E+04 0.  0.
        3    1    3    3  502    0  0.38307973226E+03  0.47785654160E+03  0.73590552046E+03  0.95742044101E+03  0.10100000352E+00 0. -1.
       -3    1    3    3    0  502 -0.38307973226E+03 -0.47785654160E+03 -0.13726597642E+04  0.15030940736E+04  0.10100000352E+00 0.  1.
</event>
<event>
 5   0  0.8898848E-06  0.2414037E+04  0.7818609E-02  0.8434267E-01
        1   -1    0    0  501    0  0.00000000000E+00  0.00000000000E+00  0.13309980317E+04  0.13309980317E+04  0.50400001928E-02 0. -1.
       -1   -1    0    0    0  501  0.00000000000E+00  0.00000000000E+00 -0.10945874402E+04  0.10945874402E+04  0.50400001928E-02 0.  1.
    10030    2    1    2    0    0  0.00000000000E+00  0.00000000000E+00  0.23641059149E+03  0.24255854719E+04  0.24140370573E+04 0.  0.
        5    1    3    3  502    0  0.94067045844E+03  0.70281064049E+03  0.39894832659E+03  0.12401554600E+04  0.46999998093E+01 0. -1.
       -5    1    3    3    0  502 -0.94067045844E+03 -0.70281064049E+03 -0.16253773510E+03  0.11854300119E+04  0.46999998093E+01 0.  1.
</event>
<event>
 5   0  0.2122194E-05  0.2386824E+04  0.7818609E-02  0.8444453E-01
       -2   -1    0    0    0  501  0.00000000000E+00  0.00000000000E+00  0.57609468588E+03  0.57609468589E+03  0.25500000920E-02 0.  1.
        2   -1    0    0  501    0  0.00000000000E+00  0.00000000000E+00 -0.24722195229E+04  0.24722195229E+04  0.25500000920E-02 0. -1.
    10030    2    1    2    0    0  0.00000000000E+00  0.00000000000E+00 -0.18961248371E+04  0.30483142088E+04  0.23868242746E+04 0.  0.
        3    1    3    3  502    0 -0.74986381834E+03 -0.36082878011E+03  0.14442764045E+03  0.84460198209E+03  0.10100000352E+00 0.  1.
       -3    1    3    3    0  502  0.74986381834E+03  0.36082878011E+03 -0.20405524775E+04  0.22037122267E+04  0.10100000352E+00 0. -1.
</event>
<event>
 5   0  0.8528103E-06  0.2402486E+04  0.7818609E-02  0.8438573E-01
        1   -1    0    0  501    0  0.00000000000E+00  0.00000000000E+00  0.17835544601E+04  0.17835544601E+04  0.50400001928E-02 0. -1.
       -1   -1    0    0    0  501  0.00000000000E+00  0.00000000000E+00 -0.80905010589E+03  0.80905010591E+03  0.50400001928E-02 0.  1.
    10030    2    1    2    0    0  0.00000000000E+00  0.00000000000E+00  0.97450435422E+03  0.25926045660E+04  0.24024861497E+04 0.  0.
        4    1    3    3  502    0 -0.92011046663E+03  0.17693121787E+03 -0.32394902177E+03  0.99138918103E+03  0.12699999809E+01 0.  1.
       -4    1    3    3    0  502  0.92011046663E+03 -0.17693121787E+03  0.12984533760E+04  0.16012153850E+04  0.12699999809E+01 0. -1.
</event>
<event>
 5   0  0.8898848E-06  0.2397528E+04  0.7818609E-02  0.8440430E-01
        1   -1    0    0  501    0  0.00000000000E+00  0.00000000000E+00  0.10708190648E+04  0.10708190648E+04  0.50400001928E-02 0. -1.
       -1   -1    0    0    0  501  0.00000000000E+00  0.00000000000E+00 -0.13419962747E+04  0.13419962747E+04  0.50400001928E-02 0.  1.
    10030    2    1    2    0    0  0.00000000000E+00  0.00000000000E+00 -0.27117720989E+03  0.24128153395E+04  0.23975280569E+04 0.  0.
        5    1    3    3  502    0  0.20319732142E+03  0.40697656150E+03 -0.12517565422E+04  0.13318541977E+04  0.46999998093E+01 0.  1.
       -5    1    3    3    0  502 -0.20319732142E+03 -0.40697656150E+03  0.98057933234E+03  0.10809611418E+04  0.46999998093E+01 0. -1.
</event>
<event>
 5   0  0.2048028E-05  0.2383363E+04  0.7818609E-02  0.8445759E-01
        2   -1    0    0  501    0  0.00000000000E+00  0.00000000000E+00  0.17453842321E+04  0.17453842321E+04  0.25500000920E-02 0.  1.
       -2   -1    0    0    0  501  0.00000000000E+00  0.00000000000E+00 -0.81363452179E+03  0.81363452179E+03  0.25500000920E-02 0. -1.
    10030    2    1    2    0    0  0.00000000000E+00  0.00000000000E+00  0.93174971036E+03  0.25590187539E+04  0.23833630567E+04 0.  0.
        5    1    3    3  502    0  0.12694043472E+02 -0.26054726515E+03  0.17143431420E+04  0.17340820380E+04  0.46999998093E+01 0.  1.
       -5    1    3    3    0  502 -0.12694043472E+02  0.26054726515E+03 -0.78259343161E+03  0.82493671594E+03  0.46999998093E+01 0. -1.
</event>
<event>
 5   0  0.9038897E-06  0.2406389E+04  0.7818609E-02  0.8437115E-01
       -1   -1    0    0    0  501  0.00000000000E+00  0.00000000000E+00  0.44344775994E+03  0.44344775997E+03  0.50400001928E-02 0.  1.
        1   -1    0    0  501    0  0.00000000000E+00  0.00000000000E+00 -0.32645942518E+04  0.32645942518E+04  0.50400001928E-02 0. -1.
    10030    2    1    2    0    0  0.00000000000E+00  0.00000000000E+00 -0.28211464919E+04  0.37080420118E+04  0.24063890027E+04 0.  0.
        1    1    3    3  502    0 -0.25254671553E+02  0.11983459084E+04 -0.15722320474E+04  0.19770139923E+04  0.50400001928E-02 0.  1.
       -1    1    3    3    0  502  0.25254671553E+02 -0.11983459084E+04 -0.12489144445E+04  0.17310280195E+04  0.50400001928E-02 0. -1.
</event>
<event>
 5   0  0.2048028E-05  0.2402688E+04  0.7818609E-02  0.8438498E-01
        2   -1    0    0  501    0  0.00000000000E+00  0.00000000000E+00  0.99100128820E+03  0.99100128820E+03  0.25500000920E-02 0. -1.
       -2   -1    0    0    0  501  0.00000000000E+00  0.00000000000E+00 -0.14563328173E+04  0.14563328173E+04  0.25500000920E-02 0.  1.
    10030    2    1    2    0    0  0.00000000000E+00  0.00000000000E+00 -0.46533152910E+03  0.24473341055E+04  0.24026882428E+04 0.  0.
        5    1    3    3  502    0 -0.34706277935E+03 -0.51404824859E+03  0.81528962449E+03  0.10244107753E+04  0.46999998093E+01 0. -1.
       -5    1    3    3    0  502  0.34706277935E+03  0.51404824859E+03 -0.12806211536E+04  0.14229233302E+04  0.46999998093E+01 0.  1.
</event>
<event>
 5   0  0.9083687E-06  0.2408889E+04  0.7818609E-02  0.8436183E-01
       -1   -1    0    0    0  501  0.00000000000E+00  0.00000000000E+00  0.10811972180E+04  0.10811972180E+04  0.50400001928E-02 0. -1.
        1   -1    0    0  501    0  0.00000000000E+00  0.00000000000E+00 -0.13417411511E+04  0.13417411511E+04  0.50400001928E-02 0.  1.
    10030    2    1    2    0    0  0.00000000000E+00  0.00000000000E+00 -0.26054393305E+03  0.24229383691E+04  0.24088892045E+04 0.  0.
        2    1    3    3  502    0 -0.82638980169E+03 -0.29718318348E+03  0.69882232761E+03  0.11223148375E+04  0.25500000920E-02 0. -1.
       -2    1    3    3    0  502  0.82638980169E+03  0.29718318348E+03 -0.95936626066E+03  0.13006235316E+04  0.25500000920E-02 0.  1.
</event>
<event>
 5   0  0.9176817E-06  0.2403841E+04  0.7818609E-02  0.8438067E-01
       -1   -1    0    0    0  501  0.00000000000E+00  0.00000000000E+00  0.14683662647E+04  0.14683662647E+04  0.50400001928E-02 0.  1.
        1   -1    0    0  501    0  0.00000000000E+00  0.00000000000E+00 -0.98382356971E+03  0.98382356972E+03  0.50400001928E-02 0. -1.
    10030    2    1    2    0    0  0.00000000000E+00  0.00000000000E+00  0.48454269499E+03  0.24521898344E+04  0.24038413760E+04 0.  0.
        3    1    3    3  502    0 -0.83980250198E+03  0.20473555867E+03 -0.60964726709E+03  0.10577592787E+04  0.10100000352E+00 0. -1.
       -3    1    3    3    0  502  0.83980250198E+03 -0.20473555867E+03  0.10941899621E+04  0.13944305557E+04  0.10100000352E+00 0.  1.
</event>
<event>
 5   0  0.8898848E-06  0.2396830E+04  0.7818609E-02  0.8440691E-01
        1   -1    0    0  501    0  0.00000000000E+00  0.00000000000E+00  0.10373024864E+04  0.10373024864E+04  0.50400001928E-02 0.  1.
       -1   -1    0    0    0  501  0.00000000000E+00  0.00000000000E+00 -0.13845511847E+04  0.13845511847E+04  0.50400001928E-02 0. -1.
    10030    2    1    2    0    0  0.00000000000E+00  0.00000000000E+00 -0.34724869827E+03  0.24218536711E+04  0.23968298950E+04 0.  0.
        5    1    3    3  502    0  0.82298042549E+03  0.61820860994E+03  0.44654047682E+03  0.11220067529E+04  0.46999998093E+01 0.  1.
       -5    1    3    3    0  502 -0.82298042549E+03 -0.61820860994E+03 -0.79378917508E+03  0.12998469182E+04  0.46999998093E+01 0. -1.
</event>
<event>
 5   0  0.2087882E-05  0.2397858E+04  0.7818609E-02  0.8440306E-01
        2   -1    0    0  501    0  0.00000000000E+00  0.00000000000E+00  0.21706046014E+04  0.21706046014E+04  0.25500000920E-02 0.  1.
       -2   -1    0    0    0  501  0.00000000000E+00  0.00000000000E+00 -0.66222623803E+03  0.66222623803E+03  0.25500000920E-02 0. -1.
    10030    2    1    2    0    0  0.00000000000E+00  0.00000000000E+00  0.15083783634E+04  0.28328308395E+04  0.23978584774E+04 0.  0.
        2    1    3    3  502    0 -0.80859142332E+03  0.69018478629E+03  0.14090476005E+04  0.17651034728E+04  0.25500000920E-02 0.  1.
       -2    1    3    3    0  502  0.80859142332E+03 -0.69018478629E+03  0.99330762875E+02  0.10677273667E+04  0.25500000920E-02 0. -1.
</event>
<event>
 5   0  0.2080257E-05  0.2406426E+04  0.7818609E-02  0.8437102E-01
        2   -1    0    0  501    0  0.00000000000E+00  0.00000000000E+00  0.19873464643E+04  0.19873464643E+04  0.25500000920E-02 0.  1.
       -2   -1    0    0    0  501  0.00000000000E+00  0.00000000000E+00 -0.72846955756E+03  0.72846955757E+03  0.25500000920E-02 0. -1.
    10030    2    1    2    0    0  0.00000000000E+00  0.00000000000E+00  0.12588769068E+04  0.27158160219E+04  0.24064258971E+04 0.  0.
        1    1    3    3  502    0 -0.69692439341E+03 -0.33919536604E+03 -0.40919045001E+03  0.87646673119E+03  0.50400001928E-02 0. -1.
       -1    1    3    3    0  502  0.69692439341E+03  0.33919536604E+03  0.16680673568E+04  0.18393492907E+04  0.50400001928E-02 0.  1.
</event>
<event>
 5   0  0.9038897E-06  0.2427247E+04  0.7818609E-02  0.8429373E-01
       -1   -1    0    0    0  501  0.00000000000E+00  0.00000000000E+00  0.86926936942E+03  0.86926936943E+03  0.50400001928E-02 0. -1.
        1   -1    0    0  501    0  0.00000000000E+00  0.00000000000E+00 -0.16943906024E+04  0.16943906024E+04  0.50400001928E-02 0.  1.
    10030    2    1    2    0    0  0.00000000000E+00  0.00000000000E+00 -0.82512123299E+03  0.25636599718E+04  0.24272468770E+04 0.  0.
        1    1    3    3  502    0  0.30897645335E+03  0.82083724251E+03 -0.12985371772E+04  0.15669840548E+04  0.50400001928E-02 0.  1.
       -1    1    3    3    0  502 -0.30897645335E+03 -0.82083724251E+03  0.47341594419E+03  0.99667591706E+03  0.50400001928E-02 0. -1.
</event>
<event>
 5   0  0.9176817E-06  0.2428973E+04  0.7818609E-02  0.8428735E-01
       -1   -1    0    0    0  501  0.00000000000E+00  0.00000000000E+00  0.65019204707E+03  0.65019204709E+03  0.50400001928E-02 0. -1.
        1   -1    0    0  501    0  0.00000000000E+00  0.00000000000E+00 -0.22685261554E+04  0.22685261554E+04  0.50400001928E-02 0.  1.
    10030    2    1    2    0    0  0.00000000000E+00  0.00000000000E+00 -0.16183341083E+04  0.29187182025E+04  0.24289731698E+04 0.  0.
        3    1    3    3  502    0 -0.49148398730E+03 -0.10458549175E+04 -0.12581456027E+04  0.17083030721E+04  0.10100000352E+00 0. -1.
       -3    1    3    3    0  502  0.49148398730E+03  0.10458549175E+04 -0.36018850563E+03  0.12104151304E+04  0.10100000352E+00 0.  1.
</event>
<event>
 5   0  0.9176817E-06  0.2403479E+04  0.7818609E-02  0.8438202E-01
        1   -1    0    0  501    0  0.00000000000E+00  0.00000000000E+00  0.93477200810E+03  0.93477200811E+03  0.50400001928E-02 0. -1.
       -1   -1    0    0    0  501  0.00000000000E+00  0.00000000000E+00 -0.15449520649E+04  0.15449520649E+04  0.50400001928E-02 0.  1.
    10030    2    1    2    0    0  0.00000000000E+00  0.00000000000E+00 -0.61018005676E+03  0.24797240730E+04  0.24034790984E+04 0.  0.
        3    1    3    3  502    0  0.60520076499E+03  0.75376767019E+03 -0.10417026967E+04  0.14211186387E+04  0.10100000352E+00 0.  1.
       -3    1    3    3    0  502 -0.60520076499E+03 -0.75376767019E+03  0.43152263996E+03  0.10586054343E+04  0.10100000352E+00 0. -1.
</event>
<event>
 5   0  0.9083687E-06  0.2375892E+04  0.7818609E-02  0.8448585E-01
        1   -1    0    0  501    0  0.00000000000E+00  0.00000000000E+00  0.15191042778E+04  0.15191042778E+04  0.50400001928E-02 0. -1.
       -1   -1    0    0    0  501  0.00000000000E+00  0.00000000000E+00 -0.92897854968E+03  0.92897854970E+03  0.50400001928E-02 0.  1.
    10030    2    1    2    0    0  0.00000000000E+00  0.00000000000E+00  0.59012572810E+03  0.24480828275E+04  0.23758916548E+04 0.  0.
        2    1    3    3  502    0 -0.33792405295E+03 -0.11148791928E+04  0.55474541834E+02  0.11662871452E+04  0.25500000920E-02 0. -1.
       -2    1    3    3    0  502  0.33792405295E+03  0.11148791928E+04  0.53465118626E+03  0.12817956823E+04  0.25500000920E-02 0.  1.
</event>
<event>
 5   0  0.2080257E-05  0.2396000E+04  0.7818609E-02  0.8441003E-01
        2   -1    0    0  501    0  0.00000000000E+00  0.00000000000E+00  0.16690833579E+04  0.16690833579E+04  0.25500000920E-02 0.  1.
       -2   -1    0    0    0  501  0.00000000000E+00  0.00000000000E+00 -0.85987529064E+03  0.85987529064E+03  0.25500000920E-02 0. -1.
    10030    2    1    2    0    0  0.00000000000E+00  0.00000000000E+00  0.80920806726E+03  0.25289586485E+04  0.23959996139E+04 0.  0.
        1    1    3    3  502    0  0.55467475780E+03  0.78153792006E+03 -0.35413103056E+03  0.10217017149E+04  0.50400001928E-02 0. -1.
       -1    1    3    3    0  502 -0.55467475780E+03 -0.78153792006E+03  0.11633390978E+04  0.15072569336E+04  0.50400001928E-02 0.  1.
</event>
<event>
 5   0  0.2122194E-05  0.2399594E+04  0.7818609E-02  0.8439655E-01
        2   -1    0    0  501    0  0.00000000000E+00  0.00000000000E+00  0.14609822076E+04  0.14609822076E+04  0.25500000920E-02 0.  1.
       -2   -1    0    0    0  501  0.00000000000E+00  0.00000000000E+00 -0.98530522437E+03  0.98530522437E+03  0.25500000920E-02 0. -1.
    10030    2    1    2    0    0  0.00000000000E+00  0.00000000000E+00  0.47567698323E+03  0.24462874320E+04  0.23995944673E+04 0.  0.
        3    1    3    3  502    0 -0.85451776740E+03 -0.41296681370E+03  0.98613171707E+03  0.13686482301E+04  0.10100000352E+00 0.  1.
       -3    1    3    3    0  502  0.85451776740E+03  0.41296681370E+03 -0.51045473384E+03  0.10776392019E+04  0.10100000352E+00 0. -1.
</event>
<event>
 5   0  0.9176817E-06  0.2396806E+04  0.7818609E-02  0.8440700E-01
       -1   -1    0    0    0  501  0.00000000000E+00  0.00000000000E+00  0.10568453040E+04  0.10568453040E+04  0.50400001928E-02 0. -1.
        1   -1    0    0  501    0  0.00000000000E+00  0.00000000000E+00 -0.13589212997E+04  0.13589212997E+04  0.50400001928E-02 0.  1.
    10030    2    1    2    0    0  0.00000000000E+00  0.00000000000E+00 -0.30207599572E+03  0.24157666037E+04  0.23968058695E+04 0.  0.
        3    1    3    3  502    0 -0.95462039270E+03  0.57978737585E+03 -0.58888923061E+03  0.12626337678E+04  0.10100000352E+00 0.  1.
       -3    1    3    3    0  502  0.95462039270E+03 -0.57978737585E+03  0.28681323489E+03  0.11531328359E+04  0.10100000352E+00 0. -1.
</event>
<event>
 5   0  0.2025353E-05  0.2391312E+04  0.7818609E-02  0.8442764E-01
       -2   -1    0    0    0  501  0.00000000000E+00  0.00000000000E+00  0.88779772937E+03  0.88779772937E+03  0.25500000920E-02 0.  1.
        2   -1    0    0  501    0  0.00000000000E+00  0.00000000000E+00 -0.16102685168E+04  0.16102685168E+04  0.25500000920E-02 0. -1.
    10030    2    1    2    0    0  0.00000000000E+00  0.00000000000E+00 -0.72247078746E+03  0.24980662462E+04  0.23913115505E+04 0.  0.
        4    1    3    3  502    0  0.79775269344E+02  0.25159745684E+03 -0.15794544468E+04  0.16013567174E+04  0.12699999809E+01 0. -1.
       -4    1    3    3    0  502 -0.79775269344E+02 -0.25159745684E+03  0.85698365931E+03  0.89670952884E+03  0.12699999809E+01 0.  1.
</event>
<event>
 5   0  0.9176817E-06  0.2376492E+04  0.7818609E-02  0.8448358E-01
       -1   -1    0    0    0  501  0.00000000000E+00  0.00000000000E+00  0.11686164368E+04  0.11686164368E+04  0.50400001928E-02 0. -1.
        1   -1    0    0  501    0  0.00000000000E+00  0.00000000000E+00 -0.12082049324E+04  0.12082049324E+04  0.50400001928E-02 0.  1.
    10030    2    1    2    0    0  0.00000000000E+00  0.00000000000E+00 -0.39588495609E+02  0.23768213693E+04  0.23764916521E+04 0.  0.
        3    1    3    3  502    0 -0.42652943009E+03 -0.13309867177E+03  0.10813968949E+04  0.11700691714E+04  0.10100000352E+00 0. -1.
       -3    1    3    3    0  502  0.42652943009E+03  0.13309867177E+03 -0.11209853905E+04  0.12067521979E+04  0.10100000352E+00 0.  1.
</event>
<event>
 5   0  0.9176817E-06  0.2396055E+04  0.7818609E-02  0.8440982E-01
       -1   -1    0    0    0  501  0.00000000000E+00  0.00000000000E+00  0.23772954463E+04  0.23772954463E+04  0.50400001928E-02 0.  1.
        1   -1    0    0  501    0  0.00000000000E+00  0.00000000000E+00 -0.60374054556E+03  0.60374054558E+03  0.50400001928E-02 0. -1.
    10030    2    1    2    0    0  0.00000000000E+00  0.00000000000E+00  0.17735549008E+04  0.29810359919E+04  0.23960547988E+04 0.  0.
        3    1    3    3  502    0 -0.48293976524E+03  0.13755293985E+02  0.22507183030E+04  0.23019889041E+04  0.10100000352E+00 0.  1.
       -3    1    3    3    0  502  0.48293976524E+03 -0.13755293985E+02 -0.47716340217E+03  0.67904708786E+03  0.10100000352E+00 0. -1.
</event>
<event>
 5   0  0.2122194E-05  0.2506708E+04  0.7818609E-02  0.8400600E-01
        2   -1    0    0  501    0  0.00000000000E+00  0.00000000000E+00  0.10869060460E+04  0.10869060460E+04  0.25500000920E-02 0.  1.
       -2   -1    0    0    0  501  0.00000000000E+00  0.00000000000E+00 -0.14452917774E+04  0.14452917774E+04  0.25500000920E-02 0. -1.
    10030    2    1    2    0    0  0.00000000000E+00  0.00000000000E+00 -0.35838573131E+03  0.25321978234E+04  0.25067080972E+04 0.  0.
        3    1    3    3  502    0  0.62745289611E+03  0.93792696633E+03 -0.73016759568E+03  0.13440791863E+04  0.10100000352E+00 0. -1.
       -3    1    3    3    0  502 -0.62745289611E+03 -0.93792696633E+03  0.37178186437E+03  0.11881186371E+04  0.10100000352E+00 0.  1.
</event>
<event>
 5   0  0.8528103E-06  0.2426575E+04  0.7818609E-02  0.8429621E-01
       -1   -1    0    0    0  501  0.00000000000E+00  0.00000000000E+00  0.13083631221E+04  0.13083631221E+04  0.50400001928E-02 0. -1.
        1   -1    0    0  501    0  0.00000000000E+00  0.00000000000E+00 -0.11251210364E+04  0.11251210364E+04  0.50400001928E-02 0.  1.
    10030    2    1    2    0    0  0.00000000000E+00  0.00000000000E+00  0.18324208572E+03  0.24334841585E+04  0.24265752590E+04 0.  0.
        4    1    3    3  502    0 -0.10581788305E+04  0.24259456355E+03  0.63489280452E+03  0.12576506055E+04  0.12699999809E+01 0. -1.
       -4    1    3    3    0  502  0.10581788305E+04 -0.24259456355E+03 -0.45165071880E+03  0.11758335529E+04  0.12699999809E+01 0.  1.
</event>
<event>
 5   0  0.9176817E-06  0.2395962E+04  0.7818609E-02  0.8441017E-01
       -1   -1    0    0    0  501  0.00000000000E+00  0.00000000000E+00  0.79359938602E+03  0.79359938603E+03  0.50400001928E-02 0.  1.
        1   -1    0    0  501    0  0.00000000000E+00  0.00000000000E+00 -0.18084168450E+04  0.18084168450E+04  0.50400001928E-02 0. -1.
    10030    2    1    2    0    0  0.00000000000E+00  0.00000000000E+00 -0.10148174590E+04  0.26020162310E+04  0.23959620180E+04 0.  0.
        3    1    3    3  502    0  0.36295238647E+03 -0.48169794159E+03 -0.16315065317E+04  0.17394197064E+04  0.10100000352E+00 0. -1.
       -3    1    3    3    0  502 -0.36295238647E+03  0.48169794159E+03  0.61668907270E+03  0.86259652467E+03  0.10100000352E+00 0.  1.
</event>
<event>
 5   0  0.2087882E-05  0.2438208E+04  0.7818609E-02  0.8425336E-01
        2   -1    0    0  501    0  0.00000000000E+00  0.00000000000E+00  0.23639961405E+04  0.23639961405E+04  0.25500000920E-02 0.  1.
       -2   -1    0    0    0  501  0.00000000000E+00  0.00000000000E+00 -0.62868735979E+03  0.62868735980E+03  0.25500000920E-02 0. -1.
    10030    2    1    2    0    0  0.00000000000E+00  0.00000000000E+00  0.17353087807E+04  0.29926835003E+04  0.24382079420E+04 0.  0.
        2    1    3    3  502    0  0.79480857468E+03 -0.22035155433E+02 -0.26662773098E+03  0.83862778716E+03  0.25500000920E-02 0. -1.
       -2    1    3    3    0  502 -0.79480857468E+03  0.22035155433E+02  0.20019365117E+04  0.21540557131E+04  0.25500000920E-02 0.  1.
</event>
<event>
 5   0  0.8528103E-06  0.2400403E+04  0.7818609E-02  0.8439353E-01
        1   -1    0    0  501    0  0.00000000000E+00  0.00000000000E+00  0.11588629007E+04  0.11588629007E+04  0.50400001928E-02 0.  1.
       -1   -1    0    0    0  501  0.00000000000E+00  0.00000000000E+00 -0.12430151578E+04  0.12430151578E+04  0.50400001928E-02 0. -1.
    10030    2    1    2    0    0  0.00000000000E+00  0.00000000000E+00 -0.84152257156E+02  0.24018780585E+04  0.24004034256E+04 0.  0.
        4    1    3    3  502    0  0.80729164140E+03 -0.76218280658E+03  0.41409878926E+03  0.11849564739E+04  0.12699999809E+01 0. -1.
       -4    1    3    3    0  502 -0.80729164140E+03  0.76218280658E+03 -0.49825104641E+03  0.12169215846E+04  0.12699999809E+01 0.  1.
</event>
<event>
 5   0  0.2080257E-05  0.2396798E+04  0.7818609E-02  0.8440703E-01
       -2   -1    0    0    0  501  0.00000000000E+00  0.00000000000E+00  0.11011253603E+04  0.11011253603E+04  0.25500000920E-02 0.  1.
        2   -1    0    0  501    0  0.00000000000E+00  0.00000000000E+00 -0.13042655613E+04  0.13042655613E+04  0.25500000920E-02 0. -1.
    10030    2    1    2    0    0  0.00000000000E+00  0.00000000000E+00 -0.20314020091E+03  0.24053909216E+04  0.23967977688E+04 0.  0.
        1    1    3    3  502    0 -0.53356294501E+03 -0.95675279493E+03  0.38606758948E+03  0.11615134569E+04  0.50400001928E-02 0.  1.
       -1    1    3    3    0  502  0.53356294501E+03  0.95675279493E+03 -0.58920779039E+03  0.12438774647E+04  0.50400001928E-02 0. -1.
</event>
<event>
 5   0  0.9083687E-06  0.2399209E+04  0.7818609E-02  0.8439800E-01
        1   -1    0    0  501    0  0.00000000000E+00  0.00000000000E+00  0.17746705348E+04  0.17746705348E+04  0.50400001928E-02 0.  1.
       -1   -1    0    0    0  501  0.00000000000E+00  0.00000000000E+00 -0.81088373698E+03  0.81088373700E+03  0.50400001928E-02 0. -1.
    10030    2    1    2    0    0  0.00000000000E+00  0.00000000000E+00  0.96378679785E+03  0.25855542718E+04  0.23992094325E+04 0.  0.
        2    1    3    3  502    0  0.10153955188E+04 -0.50068872997E+03  0.54431823802E+02  0.11334372887E+04  0.25500000920E-02 0.  1.
       -2    1    3    3    0  502 -0.10153955188E+04  0.50068872997E+03  0.90935497405E+03  0.14521169832E+04  0.25500000920E-02 0. -1.
</event>
<event>
 5   0  0.8528103E-06  0.2400770E+04  0.7818609E-02  0.8439215E-01
        1   -1    0    0  501    0  0.00000000000E+00  0.00000000000E+00  0.23521868033E+04  0.23521868033E+04  0.50400001928E-02 0. -1.
       -1   -1    0    0    0  501  0.00000000000E+00  0.00000000000E+00 -0.61258916762E+03  0.61258916764E+03  0.50400001928E-02 0.  1.
    10030    2    1    2    0    0  0.00000000000E+00  0.00000000000E+00  0.17395976357E+04  0.29647759710E+04  0.24007700065E+04 0.  0.
        4    1    3    3  502    0 -0.96247741095E+03 -0.14945426262E+03  0.33909945944E+01  0.97401871386E+03  0.12699999809E+01 0.  1.
       -4    1    3    3    0  502  0.96247741095E+03  0.14945426262E+03  0.17362066411E+04  0.19907572571E+04  0.12699999809E+01 0. -1.
</event>
<event>
 5   0  0.2122194E-05  0.2397193E+04  0.7818609E-02  0.8440555E-01
        2   -1    0    0  501    0  0.00000000000E+00  0.00000000000E+00  0.22392633297E+04  0.22392633297E+04  0.25500000920E-02 0. -1.
       -2   -1    0    0    0  501  0.00000000000E+00  0.00000000000E+00 -0.64156511659E+03  0.64156511660E+03  0.25500000920E-02 0.  1.
    10030    2    1    2    0    0  0.00000000000E+00  0.00000000000E+00  0.15976982131E+04  0.28808284463E+04  0.23971927242E+04 0.  0.
        3    1    3    3  502    0 -0.40771349325E+03 -0.27435415047E+03 -0.51493050307E+03  0.71179626695E+03  0.10100000352E+00 0.  1.
       -3    1    3    3    0  502  0.40771349325E+03  0.27435415047E+03  0.21126287162E+04  0.21690321793E+04  0.10100000352E+00 0. -1.
</event>
<event>
 5   0  0.9176817E-06  0.2277986E+04  0.7818609E-02  0.8486652E-01
        1   -1    0    0  501    0  0.00000000000E+00  0.00000000000E+00  0.24107296061E+04  0.24107296061E+04  0.50400001928E-02 0. -1.
       -1   -1    0    0    0  501  0.00000000000E+00  0.00000000000E+00 -0.53813815728E+03  0.53813815731E+03  0.50400001928E-02 0.  1.
    10030    2    1    2    0    0  0.00000000000E+00  0.00000000000E+00  0.18725914488E+04  0.29488677634E+04  0.22779864688E+04 0.  0.
        3    1    3    3  502    0  0.31038160926E+02 -0.34502152621E+03 -0.46828972311E+03  0.58249334413E+03  0.10100000352E+00 0.  1.
       -3    1    3    3    0  502 -0.31038160926E+02  0.34502152621E+03  0.23408811719E+04  0.23663744193E+04  0.10100000352E+00 0. -1.
</event>
<event>
 5   0  0.2087882E-05  0.2402551E+04  0.7818609E-02  0.8438549E-01
       -2   -1    0    0    0  501  0.00000000000E+00  0.00000000000E+00  0.11116892864E+04  0.11116892864E+04  0.25500000920E-02 0.  1.
        2   -1    0    0  501    0  0.00000000000E+00  0.00000000000E+00 -0.12980808578E+04  0.12980808578E+04  0.25500000920E-02 0. -1.
    10030    2    1    2    0    0  0.00000000000E+00  0.00000000000E+00 -0.18639157135E+03  0.24097701442E+04  0.24025507965E+04 0.  0.
        2    1    3    3  502    0 -0.66526486229E+03  0.69763056804E+03  0.62575432272E+03  0.11492755191E+04  0.25500000920E-02 0.  1.
       -2    1    3    3    0  502  0.66526486229E+03 -0.69763056804E+03 -0.81214589407E+03  0.12604946250E+04  0.25500000920E-02 0. -1.
</event>
<event>
 5   0  0.2122194E-05  0.2399643E+04  0.7818609E-02  0.8439637E-01
        2   -1    0    0  501    0  0.00000000000E+00  0.00000000000E+00  0.19095677899E+04  0.19095677899E+04  0.25500000920E-02 0.  1.
       -2   -1    0    0    0  501  0.00000000000E+00  0.00000000000E+00 -0.75387291751E+03  0.75387291751E+03  0.25500000920E-02 0. -1.
    10030    2    1    2    0    0  0.00000000000E+00  0.00000000000E+00  0.11556948724E+04  0.26634407075E+04  0.23996428409E+04 0.  0.
        3    1    3    3  502    0 -0.45635763491E+03 -0.34113299172E+03 -0.59413653625E+03  0.82318420957E+03  0.10100000352E+00 0. -1.
       -3    1    3    3    0  502  0.45635763491E+03  0.34113299172E+03  0.17498314087E+04  0.18402564979E+04  0.10100000352E+00 0.  1.
</event>
<event>
 5   0  0.2087882E-05  0.2412250E+04  0.7818609E-02  0.8434931E-01
       -2   -1    0    0    0  501  0.00000000000E+00  0.00000000000E+00  0.28480197483E+04  0.28480197483E+04  0.25500000920E-02 0. -1.
        2   -1    0    0  501    0  0.00000000000E+00  0.00000000000E+00 -0.51078918921E+03  0.51078918922E+03  0.25500000920E-02 0.  1.
    10030    2    1    2    0    0  0.00000000000E+00  0.00000000000E+00  0.23372305591E+04  0.33588089375E+04  0.24122501513E+04 0.  0.
        2    1    3    3  502    0  0.11022030852E+04  0.22514856738E+02  0.48736591914E+03  0.12053564199E+04  0.25500000920E-02 0.  1.
       -2    1    3    3    0  502 -0.11022030852E+04 -0.22514856738E+02  0.18498646400E+04  0.21534525177E+04  0.25500000920E-02 0. -1.
</event>
<event>
 5   0  0.2087882E-05  0.2383825E+04  0.7818609E-02  0.8445584E-01
        2   -1    0    0  501    0  0.00000000000E+00  0.00000000000E+00  0.23819205418E+04  0.23819205418E+04  0.25500000920E-02 0.  1.
       -2   -1    0    0    0  501  0.00000000000E+00  0.00000000000E+00 -0.59643277394E+03  0.59643277395E+03  0.25500000920E-02 0. -1.
    10030    2    1    2    0    0  0.00000000000E+00  0.00000000000E+00  0.17854877678E+04  0.29783533157E+04  0.23838250574E+04 0.  0.
        2    1    3    3  502    0 -0.10468906591E+04 -0.25908557471E+03  0.15268072873E+04  0.18692902075E+04  0.25500000920E-02 0.  1.
       -2    1    3    3    0  502  0.10468906591E+04  0.25908557471E+03  0.25868048048E+03  0.11090631082E+04  0.25500000920E-02 0. -1.
</event>
<event>
 5   0  0.8898848E-06  0.2397188E+04  0.7818609E-02  0.8440557E-01
        1   -1    0    0  501    0  0.00000000000E+00  0.00000000000E+00  0.14199933054E+04  0.14199933054E+04  0.50400001928E-02 0.  1.
       -1   -1    0    0    0  501  0.00000000000E+00  0.00000000000E+00 -0.10117140619E+04  0.10117140619E+04  0.50400001928E-02 0. -1.
    10030    2    1    2    0    0  0.00000000000E+00  0.00000000000E+00  0.40827924352E+03  0.24317073674E+04  0.23971876814E+04 0.  0.
        5    1    3    3  502    0  0.41786706546E+03  0.10652783299E+04  0.56588996508E+03  0.12765909083E+04  0.46999998093E+01 0.  1.
       -5    1    3    3    0  502 -0.41786706546E+03 -0.10652783299E+04 -0.15761072156E+03  0.11551164591E+04  0.46999998093E+01 0. -1.
</event>
<event>
 5   0  0.8528103E-06  0.2398583E+04  0.7818609E-02  0.8440034E-01
       -1   -1    0    0    0  501  0.00000000000E+00  0.00000000000E+00  0.85837616120E+03  0.85837616122E+03  0.50400001928E-02 0.  1.
        1   -1    0    0  501    0  0.00000000000E+00  0.00000000000E+00 -0.16756051856E+04  0.16756051856E+04  0.50400001928E-02 0. -1.
    10030    2    1    2    0    0  0.00000000000E+00  0.00000000000E+00 -0.81722902443E+03  0.25339813469E+04  0.23985825372E+04 0.  0.
        4    1    3    3  502    0  0.74740116970E+03 -0.40200927026E+03  0.48661532496E+03  0.97827197099E+03  0.12699999809E+01 0.  1.
       -4    1    3    3    0  502 -0.74740116970E+03  0.40200927026E+03 -0.13038443494E+04  0.15557093759E+04  0.12699999809E+01 0. -1.
</event>
<event>
 5   0  0.2087882E-05  0.2409297E+04  0.7818609E-02  0.8436031E-01
       -2   -1    0    0    0  501  0.00000000000E+00  0.00000000000E+00  0.12415426936E+04  0.12415426936E+04  0.25500000920E-02 0.  1.
        2   -1    0    0  501    0  0.00000000000E+00  0.00000000000E+00 -0.11688503442E+04  0.11688503442E+04  0.25500000920E-02 0. -1.
    10030    2    1    2    0    0  0.00000000000E+00  0.00000000000E+00  0.72692349409E+02  0.24103930379E+04  0.24092966649E+04 0.  0.
        2    1    3    3  502    0 -0.85346633127E+03 -0.44061201340E+03 -0.69105681465E+03  0.11832595852E+04  0.25500000920E-02 0. -1.
       -2    1    3    3    0  502  0.85346633127E+03  0.44061201340E+03  0.76374916406E+03  0.12271334526E+04  0.25500000920E-02 0.  1.
</event>
<event>
 5   0  0.2087882E-05  0.2396485E+04  0.7818609E-02  0.8440821E-01
       -2   -1    0    0    0  501  0.00000000000E+00  0.00000000000E+00  0.18757073797E+04  0.18757073797E+04  0.25500000920E-02 0.  1.
        2   -1    0    0  501    0  0.00000000000E+00  0.00000000000E+00 -0.76546322828E+03  0.76546322828E+03  0.25500000920E-02 0. -1.
    10030    2    1    2    0    0  0.00000000000E+00  0.00000000000E+00  0.11102441514E+04  0.26411706080E+04  0.23964849477E+04 0.  0.
        2    1    3    3  502    0  0.58970983027E+03 -0.27002504427E+03  0.16655212235E+04  0.17873533938E+04  0.25500000920E-02 0.  1.
       -2    1    3    3    0  502 -0.58970983027E+03  0.27002504427E+03 -0.55527707207E+03  0.85381721418E+03  0.25500000920E-02 0. -1.
</event>
<event>
 5   0  0.7233625E-06  0.2310627E+04  0.7818609E-02  0.8473743E-01
       -3   -1    0    0    0  501  0.00000000000E+00  0.00000000000E+00  0.66085826921E+03  0.66085827693E+03  0.10100000352E+00 0. -1.
        3   -1    0    0  501    0  0.00000000000E+00  0.00000000000E+00 -0.20197215461E+04  0.20197215486E+04  0.10100000352E+00 0.  1.
    10030    2    1    2    0    0  0.00000000000E+00  0.00000000000E+00 -0.13588632769E+04  0.26805798256E+04  0.23106273598E+04 0.  0.
        3    1    3    3  502    0  0.57326751268E+03 -0.93648508950E+03 -0.10962802037E+04  0.15516024810E+04  0.10100000352E+00 0.  1.
       -3    1    3    3    0  502 -0.57326751268E+03  0.93648508950E+03 -0.26258307323E+03  0.11289773445E+04  0.10100000352E+00 0. -1.
</event>
<event>
 5   0  0.2122194E-05  0.2314991E+04  0.7818609E-02  0.8472034E-01
        2   -1    0    0  501    0  0.00000000000E+00  0.00000000000E+00  0.12288983665E+04  0.12288983665E+04  0.25500000920E-02 0.  1.
       -2   -1    0    0    0  501  0.00000000000E+00  0.00000000000E+00 -0.10902414526E+04  0.10902414526E+04  0.25500000920E-02 0. -1.
    10030    2    1    2    0    0  0.00000000000E+00  0.00000000000E+00  0.13865691391E+03  0.23191398192E+04  0.23149910931E+04 0.  0.
        3    1    3    3  502    0 -0.83099466877E+03  0.33049355542E+03 -0.66684752797E+03  0.11155553619E+04  0.10100000352E+00 0. -1.
       -3    1    3    3    0  502  0.83099466877E+03 -0.33049355542E+03  0.80550444188E+03  0.12035844573E+04  0.10100000352E+00 0.  1.
</event>
<event>
 5   0  0.7233625E-06  0.2408743E+04  0.7818609E-02  0.8436238E-01
        4   -1    0    0  501    0  0.00000000000E+00  0.00000000000E+00  0.18912486620E+04  0.18912490884E+04  0.12699999809E+01 0.  1.
       -4   -1    0    0    0  501  0.00000000000E+00  0.00000000000E+00 -0.76695796495E+03  0.76695901644E+03  0.12699999809E+01 0. -1.
    10030    2    1    2    0    0  0.00000000000E+00  0.00000000000E+00  0.11242906970E+04  0.26582081048E+04  0.24087425676E+04 0.  0.
        3    1    3    3  502    0 -0.34409676296E+03  0.39194930072E+01 -0.71155051525E+03  0.79039363020E+03  0.10100000352E+00 0. -1.
       -3    1    3    3    0  502  0.34409676296E+03 -0.39194930072E+01  0.18358412123E+04  0.18678144746E+04  0.10100000352E+00 0.  1.
</event>
<event>
 5   0  0.9038897E-06  0.2388272E+04  0.7818609E-02  0.8443907E-01
       -1   -1    0    0    0  501  0.00000000000E+00  0.00000000000E+00  0.10712358254E+04  0.10712358254E+04  0.50400001928E-02 0.  1.
        1   -1    0    0  501    0  0.00000000000E+00  0.00000000000E+00 -0.13311359865E+04  0.13311359865E+04  0.50400001928E-02 0. -1.
    10030    2    1    2    0    0  0.00000000000E+00  0.00000000000E+00 -0.25990016104E+03  0.24023718119E+04  0.23882718080E+04 0.  0.
        1    1    3    3  502    0 -0.75333192258E+01 -0.75146921452E+03  0.80353618763E+03  0.11001968624E+04  0.50400001928E-02 0.  1.
       -1    1    3    3    0  502  0.75333192258E+01  0.75146921452E+03 -0.10634363487E+04  0.13021749494E+04  0.50400001928E-02 0. -1.
</event>
<event>
 5   0  0.2087882E-05  0.2420278E+04  0.7818609E-02  0.8431951E-01
       -2   -1    0    0    0  501  0.00000000000E+00  0.00000000000E+00  0.99525288581E+03  0.99525288581E+03  0.25500000920E-02 0. -1.
        2   -1    0    0  501    0  0.00000000000E+00  0.00000000000E+00 -0.14714210360E+04  0.14714210360E+04  0.25500000920E-02 0.  1.
    10030    2    1    2    0    0  0.00000000000E+00  0.00000000000E+00 -0.47616815014E+03  0.24666739218E+04  0.24202776967E+04 0.  0.
        2    1    3    3  502    0  0.16248993772E+03 -0.11273730129E+04 -0.65465299714E+03  0.13137516648E+04  0.25500000920E-02 0.  1.
       -2    1    3    3    0  502 -0.16248993772E+03  0.11273730129E+04  0.17848484700E+03  0.11529222570E+04  0.25500000920E-02 0. -1.
</event>
<event>
 5   0  0.2048028E-05  0.2399011E+04  0.7818609E-02  0.8439874E-01
       -2   -1    0    0    0  501  0.00000000000E+00  0.00000000000E+00  0.93287948407E+03  0.93287948408E+03  0.25500000920E-02 0. -1.
        2   -1    0    0  501    0  0.00000000000E+00  0.00000000000E+00 -0.15423352916E+04  0.15423352916E+04  0.25500000920E-02 0.  1.
    10030    2    1    2    0    0  0.00000000000E+00  0.00000000000E+00 -0.60945580756E+03  0.24752147757E+04  0.23990105887E+04 0.  0.
        5    1    3    3  502    0  0.11826276722E+04  0.18061031406E+03 -0.21500253071E+03  0.12155149011E+04  0.46999998093E+01 0.  1.
       -5    1    3    3    0  502 -0.11826276722E+04 -0.18061031406E+03 -0.39445327685E+03  0.12596998746E+04  0.46999998093E+01 0. -1.
</event>
<event>
 5   0  0.7233625E-06  0.2388600E+04  0.7818609E-02  0.8443784E-01
       -4   -1    0    0    0  501  0.00000000000E+00  0.00000000000E+00  0.15782644820E+04  0.15782649930E+04  0.12699999809E+01 0. -1.
        4   -1    0    0  501    0  0.00000000000E+00  0.00000000000E+00 -0.90374671166E+03  0.90374760400E+03  0.12699999809E+01 0.  1.
    10030    2    1    2    0    0  0.00000000000E+00  0.00000000000E+00  0.67451777035E+03  0.24820125970E+04  0.23886004917E+04 0.  0.
        1    1    3    3  502    0  0.44854672967E+03  0.95912560561E+03 -0.23682986806E+03  0.10849905449E+04  0.50400001928E-02 0.  1.
       -1    1    3    3    0  502 -0.44854672967E+03 -0.95912560561E+03  0.91134763840E+03  0.13970220521E+04  0.50400001928E-02 0. -1.
</event>
<event>
 5   0  0.8898848E-06  0.2401252E+04  0.7818609E-02  0.8439035E-01
        1   -1    0    0  501    0  0.00000000000E+00  0.00000000000E+00  0.10233990967E+04  0.10233990967E+04  0.50400001928E-02 0.  1.
       -1   -1    0    0    0  501  0.00000000000E+00  0.00000000000E+00 -0.14085444585E+04  0.14085444585E+04  0.50400001928E-02 0. -1.
    10030    2    1    2    0    0  0.00000000000E+00  0.00000000000E+00 -0.38514536177E+03  0.24319435553E+04  0.24012522788E+04 0.  0.
        5    1    3    3  502    0  0.26232406481E+03 -0.15846961717E+03  0.98310661586E+03  0.10297801914E+04  0.46999998093E+01 0.  1.
       -5    1    3    3    0  502 -0.26232406481E+03  0.15846961717E+03 -0.13682519776E+04  0.14021633638E+04  0.46999998093E+01 0. -1.
</event>
<event>
 5   0  0.2025353E-05  0.2312367E+04  0.7818609E-02  0.8473061E-01
       -2   -1    0    0    0  501  0.00000000000E+00  0.00000000000E+00  0.69659630821E+03  0.69659630822E+03  0.25500000920E-02 0.  1.
        2   -1    0    0  501    0  0.00000000000E+00  0.00000000000E+00 -0.19189887082E+04  0.19189887082E+04  0.25500000920E-02 0. -1.
    10030    2    1    2    0    0  0.00000000000E+00  0.00000000000E+00 -0.12223924000E+04  0.26155850164E+04  0.23123671418E+04 0.  0.
        4    1    3    3  502    0  0.27022054394E+03  0.10121409664E+04 -0.57855264511E+02  0.10491888880E+04  0.12699999809E+01 0. -1.
       -4    1    3    3    0  502 -0.27022054394E+03 -0.10121409664E+04 -0.11645371355E+04  0.15663961284E+04  0.12699999809E+01 0.  1.
</event>
<event>
 5   0  0.9176817E-06  0.2403799E+04  0.7818609E-02  0.8438083E-01
        1   -1    0    0  501    0  0.00000000000E+00  0.00000000000E+00  0.17933711819E+04  0.17933711819E+04  0.50400001928E-02 0.  1.
       -1   -1    0    0    0  501  0.00000000000E+00  0.00000000000E+00 -0.80550114743E+03  0.80550114744E+03  0.50400001928E-02 0. -1.
    10030    2    1    2    0    0  0.00000000000E+00  0.00000000000E+00  0.98787003445E+03  0.25988723293E+04  0.24037991137E+04 0.  0.
        3    1    3    3  502    0  0.30502625945E+03 -0.98877290050E+03 -0.16711644988E+03  0.10481606679E+04  0.10100000352E+00 0. -1.
       -3    1    3    3    0  502 -0.30502625945E+03  0.98877290050E+03  0.11549864843E+04  0.15507116614E+04  0.10100000352E+00 0.  1.
</event>
<event>
 5   0  0.9083687E-06  0.2401520E+04  0.7818609E-02  0.8438935E-01
       -1   -1    0    0    0  501  0.00000000000E+00  0.00000000000E+00  0.14705213881E+04  0.14705213881E+04  0.50400001928E-02 0.  1.
        1   -1    0    0  501    0  0.00000000000E+00  0.00000000000E+00 -0.98048524310E+03  0.98048524311E+03  0.50400001928E-02 0. -1.
    10030    2    1    2    0    0  0.00000000000E+00  0.00000000000E+00  0.49003614503E+03  0.24510066312E+04  0.24015199526E+04 0.  0.
        2    1    3    3  502    0 -0.21104167630E+03  0.11818447271E+04  0.22154473498E+03  0.12208102301E+04  0.25500000920E-02 0.  1.
       -2    1    3    3    0  502  0.21104167630E+03 -0.11818447271E+04  0.26849141006E+03  0.12301964012E+04  0.25500000920E-02 0. -1.
</event>
<event>
 5   0  0.2087882E-05  0.2405023E+04  0.7818609E-02  0.8437625E-01
        2   -1    0    0  501    0  0.00000000000E+00  0.00000000000E+00  0.67121879272E+03  0.67121879272E+03  0.25500000920E-02 0. -1.
       -2   -1    0    0    0  501  0.00000000000E+00  0.00000000000E+00 -0.21543406885E+04  0.21543406885E+04  0.25500000920E-02 0.  1.
    10030    2    1    2    0    0  0.00000000000E+00  0.00000000000E+00 -0.14831218958E+04  0.28255594812E+04  0.24050230403E+04 0.  0.
        2    1    3    3  502    0 -0.10440623111E+04 -0.73181141122E+02 -0.14372238244E+04  0.17779296697E+04  0.25500000920E-02 0.  1.
       -2    1    3    3    0  502  0.10440623111E+04  0.73181141122E+02 -0.45898071324E+02  0.10476298115E+04  0.25500000920E-02 0. -1.
</event>
<event>
 5   0  0.2122194E-05  0.2401506E+04  0.7818609E-02  0.8438940E-01
        2   -1    0    0  501    0  0.00000000000E+00  0.00000000000E+00  0.16897074635E+04  0.16897074635E+04  0.25500000920E-02 0. -1.
       -2   -1    0    0    0  501  0.00000000000E+00  0.00000000000E+00 -0.85328853200E+03  0.85328853200E+03  0.25500000920E-02 0.  1.
    10030    2    1    2    0    0  0.00000000000E+00  0.00000000000E+00  0.83641893154E+03  0.25429959955E+04  0.24015061949E+04 0.  0.
        3    1    3    3  502    0 -0.62722380528E+03  0.10183494469E+04  0.53108572262E+03  0.13086242214E+04  0.10100000352E+00 0. -1.
       -3    1    3    3    0  502  0.62722380528E+03 -0.10183494469E+04  0.30533320892E+03  0.12343717741E+04  0.10100000352E+00 0.  1.
</event>
<event>
 5   0  0.8528103E-06  0.2401256E+04  0.7818609E-02  0.8439033E-01
       -1   -1    0    0    0  501  0.00000000000E+00  0.00000000000E+00  0.15928901229E+04  0.15928901230E+04  0.50400001928E-02 0. -1.
        1   -1    0    0  501    0  0.00000000000E+00  0.00000000000E+00 -0.90496373737E+03  0.90496373739E+03  0.50400001928E-02 0.  1.
    10030    2    1    2    0    0  0.00000000000E+00  0.00000000000E+00  0.68792638557E+03  0.24978538603E+04  0.24012561704E+04 0.  0.
        4    1    3    3  502    0 -0.51267112016E+03 -0.10493663734E+04  0.63355923079E+03  0.13286837001E+04  0.12699999809E+01 0.  1.
       -4    1    3    3    0  502  0.51267112016E+03  0.10493663734E+04  0.54367154786E+02  0.11691701602E+04  0.12699999809E+01 0. -1.
</event>
<event>
 5   0  0.2122194E-05  0.2400058E+04  0.7818609E-02  0.8439482E-01
       -2   -1    0    0    0  501  0.00000000000E+00  0.00000000000E+00  0.20351525727E+04  0.20351525727E+04  0.25500000920E-02 0. -1.
        2   -1    0    0  501    0  0.00000000000E+00  0.00000000000E+00 -0.70759797312E+03  0.70759797312E+03  0.25500000920E-02 0.  1.
    10030    2    1    2    0    0  0.00000000000E+00  0.00000000000E+00  0.13275545996E+04  0.27427505459E+04  0.24000581955E+04 0.  0.
        3    1    3    3  502    0  0.39279107810E+03  0.92351622367E+03 -0.88122076448E+02  0.10074386120E+04  0.10100000352E+00 0.  1.
       -3    1    3    3    0  502 -0.39279107810E+03 -0.92351622367E+03  0.14156766761E+04  0.17353119339E+04  0.10100000352E+00 0. -1.
</event>
<event>
 5   0  0.9176817E-06  0.2406570E+04  0.7818609E-02  0.8437048E-01
       -1   -1    0    0    0  501  0.00000000000E+00  0.00000000000E+00  0.66352566475E+03  0.66352566477E+03  0.50400001928E-02 0.  1.
        1   -1    0    0  501    0  0.00000000000E+00  0.00000000000E+00 -0.21821241652E+04  0.21821241652E+04  0.50400001928E-02 0. -1.
    10030    2    1    2    0    0  0.00000000000E+00  0.00000000000E+00 -0.15185985005E+04  0.28456498300E+04  0.24065704954E+04 0.  0.
        3    1    3    3  502    0  0.98596466869E+02  0.30272671094E+03 -0.21314157642E+04  0.21550633157E+04  0.10100000352E+00 0. -1.
       -3    1    3    3    0  502 -0.98596466869E+02 -0.30272671094E+03  0.61281726371E+03  0.69058651427E+03  0.10100000352E+00 0.  1.
</event>
<event>
 5   0  0.2087882E-05  0.2372278E+04  0.7818609E-02  0.8449956E-01
        2   -1    0    0  501    0  0.00000000000E+00  0.00000000000E+00  0.15491037943E+04  0.15491037943E+04  0.25500000920E-02 0. -1.
       -2   -1    0    0    0  501  0.00000000000E+00  0.00000000000E+00 -0.90821931381E+03  0.90821931381E+03  0.25500000920E-02 0.  1.
    10030    2    1    2    0    0  0.00000000000E+00  0.00000000000E+00  0.64088448054E+03  0.24573231082E+04  0.23722782173E+04 0.  0.
        2    1    3    3  502    0  0.42709972914E+03 -0.71004278586E+03 -0.55871941894E+03  0.99937096490E+03  0.25500000920E-02 0.  1.
       -2    1    3    3    0  502 -0.42709972914E+03  0.71004278586E+03  0.11996038995E+04  0.14579521433E+04  0.25500000920E-02 0. -1.
</event>
<event>
 5   0  0.2122194E-05  0.2397074E+04  0.7818609E-02  0.8440600E-01
        2   -1    0    0  501    0  0.00000000000E+00  0.00000000000E+00  0.16195446118E+04  0.16195446118E+04  0.25500000920E-02 0.  1.
       -2   -1    0    0    0  501  0.00000000000E+00  0.00000000000E+00 -0.88697232026E+03  0.88697232026E+03  0.25500000920E-02 0. -1.
    10030    2    1    2    0    0  0.00000000000E+00  0.00000000000E+00  0.73257229154E+03  0.25065169321E+04  0.23970742517E+04 0.  0.
        3    1    3    3  502    0  0.70615211115E+03  0.91340241399E+02  0.13744084946E+04  0.15478994037E+04  0.10100000352E+00 0.  1.
       -3    1    3    3    0  502 -0.70615211115E+03 -0.91340241399E+02 -0.64183620310E+03  0.95861752832E+03  0.10100000352E+00 0. -1.
</event>
<event>
 5   0  0.2080257E-05  0.2398855E+04  0.7818609E-02  0.8439932E-01
        2   -1    0    0  501    0  0.00000000000E+00  0.00000000000E+00  0.17253123416E+04  0.17253123416E+04  0.25500000920E-02 0.  1.
       -2   -1    0    0    0  501  0.00000000000E+00  0.00000000000E+00 -0.83383523774E+03  0.83383523774E+03  0.25500000920E-02 0. -1.
    10030    2    1    2    0    0  0.00000000000E+00  0.00000000000E+00  0.89147710385E+03  0.25591475793E+04  0.23988549156E+04 0.  0.
        1    1    3    3  502    0  0.31594025636E+03  0.67986375903E+03 -0.55308876185E+03  0.93163305810E+03  0.50400001928E-02 0. -1.
       -1    1    3    3    0  502 -0.31594025636E+03 -0.67986375903E+03  0.14445658657E+04  0.16275145212E+04  0.50400001928E-02 0.  1.
</event>
<event>
 5   0  0.9038897E-06  0.2412654E+04  0.7818609E-02  0.8434781E-01
        1   -1    0    0  501    0  0.00000000000E+00  0.00000000000E+00  0.16766027777E+04  0.16766027777E+04  0.50400001928E-02 0. -1.
       -1   -1    0    0    0  501  0.00000000000E+00  0.00000000000E+00 -0.86796048235E+03  0.86796048236E+03  0.50400001928E-02 0.  1.
    10030    2    1    2    0    0  0.00000000000E+00  0.00000000000E+00  0.80864229537E+03  0.25445632601E+04  0.24126541034E+04 0.  0.
        1    1    3    3  502    0 -0.75897725796E+03  0.60522621940E+03  0.11596323832E+04  0.15123136311E+04  0.50400001928E-02 0. -1.
       -1    1    3    3    0  502  0.75897725796E+03 -0.60522621940E+03 -0.35099008779E+03  0.10322496290E+04  0.50400001928E-02 0.  1.
</event>
<event>
 5   0  0.2122194E-05  0.2421493E+04  0.7818609E-02  0.8431500E-01
        2   -1    0    0  501    0  0.00000000000E+00  0.00000000000E+00  0.13323670528E+04  0.13323670528E+04  0.25500000920E-02 0. -1.
       -2   -1    0    0    0  501  0.00000000000E+00  0.00000000000E+00 -0.11002279882E+04  0.11002279882E+04  0.25500000920E-02 0.  1.
    10030    2    1    2    0    0  0.00000000000E+00  0.00000000000E+00  0.23213906461E+03  0.24325950410E+04  0.24214933591E+04 0.  0.
        3    1    3    3  502    0  0.22416276333E+03  0.43142977561E+03  0.12299935165E+04  0.13225976927E+04  0.10100000352E+00 0. -1.
       -3    1    3    3    0  502 -0.22416276333E+03 -0.43142977561E+03 -0.99785445193E+03  0.11099973483E+04  0.10100000352E+00 0.  1.
</event>
<event>
 5   0  0.8528103E-06  0.2413507E+04  0.7818609E-02  0.8434464E-01
        1   -1    0    0  501    0  0.00000000000E+00  0.00000000000E+00  0.11123061228E+04  0.11123061228E+04  0.50400001928E-02 0.  1.
       -1   -1    0    0    0  501  0.00000000000E+00  0.00000000000E+00 -0.13092205162E+04  0.13092205162E+04  0.50400001928E-02 0. -1.
    10030    2    1    2    0    0  0.00000000000E+00  0.00000000000E+00 -0.19691439345E+03  0.24215266390E+04  0.24135069888E+04 0.  0.
        4    1    3    3  502    0 -0.71406860322E+02  0.83822511291E+03 -0.96650952454E+03  0.12813518461E+04  0.12699999809E+01 0. -1.
       -4    1    3    3    0  502  0.71406860322E+02 -0.83822511291E+03  0.76959513109E+03  0.11401747929E+04  0.12699999809E+01 0.  1.
</event>
<event>
 5   0  0.2048028E-05  0.2399966E+04  0.7818609E-02  0.8439516E-01
       -2   -1    0    0    0  501  0.00000000000E+00  0.00000000000E+00  0.10313052232E+04  0.10313052232E+04  0.25500000920E-02 0.  1.
        2   -1    0    0  501    0  0.00000000000E+00  0.00000000000E+00 -0.13962489513E+04  0.13962489513E+04  0.25500000920E-02 0. -1.
    10030    2    1    2    0    0  0.00000000000E+00  0.00000000000E+00 -0.36494372811E+03  0.24275541746E+04  0.23999656968E+04 0.  0.
        5    1    3    3  502    0  0.29831096382E+03  0.13241513647E+03 -0.13504812370E+04  0.13893685116E+04  0.46999998093E+01 0. -1.
       -5    1    3    3    0  502 -0.29831096382E+03 -0.13241513647E+03  0.98553750887E+03  0.10381856630E+04  0.46999998093E+01 0.  1.
</event>
<event>
 5   0  0.8528103E-06  0.2391070E+04  0.7818609E-02  0.8442855E-01
        1   -1    0    0  501    0  0.00000000000E+00  0.00000000000E+00  0.13699020069E+04  0.13699020069E+04  0.50400001928E-02 0.  1.
       -1   -1    0    0    0  501  0.00000000000E+00  0.00000000000E+00 -0.10433618332E+04  0.10433618332E+04  0.50400001928E-02 0. -1.
    10030    2    1    2    0    0  0.00000000000E+00  0.00000000000E+00  0.32654017367E+03  0.24132638401E+04  0.23910696094E+04 0.  0.
        4    1    3    3  502    0  0.35606595822E+03 -0.86731670871E+03 -0.58542450078E+03  0.11053256076E+04  0.12699999809E+01 0. -1.
       -4    1    3    3    0  502 -0.35606595822E+03  0.86731670871E+03  0.91196467445E+03  0.13079382325E+04  0.12699999809E+01 0.  1.
</event>
<event>
 5   0  0.9176817E-06  0.2390718E+04  0.7818609E-02  0.8442987E-01
        1   -1    0    0  501    0  0.00000000000E+00  0.00000000000E+00  0.12602146013E+04  0.12602146013E+04  0.50400001928E-02 0.  1.
       -1   -1    0    0    0  501  0.00000000000E+00  0.00000000000E+00 -0.11338411167E+04  0.11338411167E+04  0.50400001928E-02 0. -1.
    10030    2    1    2    0    0  0.00000000000E+00  0.00000000000E+00  0.12637348461E+03  0.23940557180E+04  0.23907179932E+04 0.  0.
        3    1    3    3  502    0 -0.57567489144E+03 -0.22730006824E+03 -0.96089256289E+03  0.11429704411E+04  0.10100000352E+00 0. -1.
       -3    1    3    3    0  502  0.57567489144E+03  0.22730006824E+03  0.10872660475E+04  0.12510852768E+04  0.10100000352E+00 0.  1.
</event>
<event>
 5   0  0.2080257E-05  0.2407905E+04  0.7818609E-02  0.8436550E-01
       -2   -1    0    0    0  501  0.00000000000E+00  0.00000000000E+00  0.13056685421E+04  0.13056685421E+04  0.25500000920E-02 0. -1.
        2   -1    0    0  501    0  0.00000000000E+00  0.00000000000E+00 -0.11101605819E+04  0.11101605819E+04  0.25500000920E-02 0.  1.
    10030    2    1    2    0    0  0.00000000000E+00  0.00000000000E+00  0.19550796024E+03  0.24158291240E+04  0.24079051048E+04 0.  0.
        1    1    3    3  502    0 -0.78350374682E+03  0.57522708928E+03  0.81054069751E+03  0.12655988890E+04  0.50400001928E-02 0.  1.
       -1    1    3    3    0  502  0.78350374682E+03 -0.57522708928E+03 -0.61503273727E+03  0.11502302350E+04  0.50400001928E-02 0. -1.
</event>
<event>
 5   0  0.2025353E-05  0.2376542E+04  0.7818609E-02  0.8448339E-01
        2   -1    0    0  501    0  0.00000000000E+00  0.00000000000E+00  0.18518365779E+04  0.18518365779E+04  0.25500000920E-02 0. -1.
       -2   -1    0    0    0  501  0.00000000000E+00  0.00000000000E+00 -0.76247947605E+03  0.76247947605E+03  0.25500000920E-02 0.  1.
    10030    2    1    2    0    0  0.00000000000E+00  0.00000000000E+00  0.10893571018E+04  0.26143160539E+04  0.23765415070E+04 0.  0.
        4    1    3    3  502    0  0.10676593162E+03  0.82212792279E+03  0.14811392696E+04  0.16973710362E+04  0.12699999809E+01 0. -1.
       -4    1    3    3    0  502 -0.10676593162E+03 -0.82212792279E+03 -0.39178216782E+03  0.91694501772E+03  0.12699999809E+01 0.  1.
</event>
<event>
 5   0  0.2122194E-05  0.2385456E+04  0.7818609E-02  0.8444969E-01
       -2   -1    0    0    0  501  0.00000000000E+00  0.00000000000E+00  0.58486360397E+03  0.58486360397E+03  0.25500000920E-02 0.  1.
        2   -1    0    0  501    0  0.00000000000E+00  0.00000000000E+00 -0.24323626605E+04  0.24323626605E+04  0.25500000920E-02 0. -1.
    10030    2    1    2    0    0  0.00000000000E+00  0.00000000000E+00 -0.18474990566E+04  0.30172262645E+04  0.23854562598E+04 0.  0.
        3    1    3    3  502    0  0.34500986501E+03  0.17644251957E+03  0.50302221659E+03  0.63497648008E+03  0.10100000352E+00 0.  1.
       -3    1    3    3    0  502 -0.34500986501E+03 -0.17644251957E+03 -0.23505212732E+04  0.23822497844E+04  0.10100000352E+00 0. -1.
</event>
<event>
 5   0  0.9083687E-06  0.2397994E+04  0.7818609E-02  0.8440255E-01
        1   -1    0    0  501    0  0.00000000000E+00  0.00000000000E+00  0.15480480238E+04  0.15480480239E+04  0.50400001928E-02 0.  1.
       -1   -1    0    0    0  501  0.00000000000E+00  0.00000000000E+00 -0.92864931096E+03  0.92864931097E+03  0.50400001928E-02 0. -1.
    10030    2    1    2    0    0  0.00000000000E+00  0.00000000000E+00  0.61939871289E+03  0.24766973348E+04  0.23979939372E+04 0.  0.
        2    1    3    3  502    0 -0.10186130515E+04 -0.32623342934E+03  0.86932506063E+03  0.13783057934E+04  0.25500000920E-02 0.  1.
       -2    1    3    3    0  502  0.10186130515E+04  0.32623342934E+03 -0.24992634774E+03  0.10983915414E+04  0.25500000920E-02 0. -1.
</event>
<event>
 5   0  0.9083687E-06  0.2397372E+04  0.7818609E-02  0.8440488E-01
        1   -1    0    0  501    0  0.00000000000E+00  0.00000000000E+00  0.16635456169E+04  0.16635456169E+04  0.50400001928E-02 0. -1.
       -1   -1    0    0    0  501  0.00000000000E+00  0.00000000000E+00 -0.86372611060E+03  0.86372611061E+03  0.50400001928E-02 0.  1.
    10030    2    1    2    0    0  0.00000000000E+00  0.00000000000E+00  0.79981950629E+03  0.25272717275E+04  0.23973717154E+04 0.  0.
        2    1    3    3  502    0  0.73515376727E+03  0.64859330707E+03  0.11270092429E+04  0.14937450161E+04  0.25500000920E-02 0. -1.
       -2    1    3    3    0  502 -0.73515376727E+03 -0.64859330707E+03 -0.32718973659E+03  0.10335267114E+04  0.25500000920E-02 0.  1.
</event>
<event>
 5   0  0.2048028E-05  0.2403133E+04  0.7818609E-02  0.8438332E-01
       -2   -1    0    0    0  501  0.00000000000E+00  0.00000000000E+00  0.86111654669E+03  0.86111654669E+03  0.25500000920E-02 0. -1.
        2   -1    0    0  501    0  0.00000000000E+00  0.00000000000E+00 -0.16766157802E+04  0.16766157802E+04  0.25500000920E-02 0.  1.
    10030    2    1    2    0    0  0.00000000000E+00  0.00000000000E+00 -0.81549923346E+03  0.25377323268E+04  0.24031326145E+04 0.  0.
        5    1    3    3  502    0  0.11840358391E+04 -0.19321373273E+03 -0.47832938496E+03  0.12915469427E+04  0.46999998093E+01 0. -1.
       -5    1    3    3    0  502 -0.11840358391E+04  0.19321373273E+03 -0.33716984851E+03  0.12461853841E+04  0.46999998093E+01 0.  1.
</event>
<event>
 5   0  0.9038897E-06  0.2397072E+04  0.7818609E-02  0.8440601E-01
        1   -1    0    0  501    0  0.00000000000E+00  0.00000000000E+00  0.13058114524E+04  0.13058114524E+04  0.50400001928E-02 0.  1.
       -1   -1    0    0    0  501  0.00000000000E+00  0.00000000000E+00 -0.11000733324E+04  0.11000733324E+04  0.50400001928E-02 0. -1.
    10030    2    1    2    0    0  0.00000000000E+00  0.00000000000E+00  0.20573812007E+03  0.24058847848E+04  0.23970718437E+04 0.  0.
        1    1    3    3  502    0  0.50149930650E+03  0.65440397323E+03  0.97597664971E+03  0.12776057825E+04  0.50400001928E-02 0.  1.
       -1    1    3    3    0  502 -0.50149930650E+03 -0.65440397323E+03 -0.77023852964E+03  0.11282790024E+04  0.50400001928E-02 0. -1.
</event>
<event>
 5   0  0.2122194E-05  0.2396552E+04  0.7818609E-02  0.8440795E-01
        2   -1    0    0  501    0  0.00000000000E+00  0.00000000000E+00  0.92781598146E+03  0.92781598147E+03  0.25500000920E-02 0.  1.
       -2   -1    0    0    0  501  0.00000000000E+00  0.00000000000E+00 -0.15475758504E+04  0.15475758504E+04  0.25500000920E-02 0. -1.
    10030    2    1    2    0    0  0.00000000000E+00  0.00000000000E+00 -0.61975986894E+03  0.24753918319E+04  0.23965521956E+04 0.  0.
        3    1    3    3  502    0 -0.45719990249E+03 -0.84953474253E+03 -0.10439817648E+04  0.14214918097E+04  0.10100000352E+00 0. -1.
       -3    1    3    3    0  502  0.45719990249E+03  0.84953474253E+03  0.42422189587E+03  0.10539000222E+04  0.10100000352E+00 0.  1.
</event>
<event>
 5   0  0.9083687E-06  0.2408222E+04  0.7818609E-02  0.8436432E-01
        1   -1    0    0  501    0  0.00000000000E+00  0.00000000000E+00  0.14983797703E+04  0.14983797703E+04  0.50400001928E-02 0.  1.
       -1   -1    0    0    0  501  0.00000000000E+00  0.00000000000E+00 -0.96763421568E+03  0.96763421570E+03  0.50400001928E-02 0. -1.
    10030    2    1    2    0    0  0.00000000000E+00  0.00000000000E+00  0.53074555465E+03  0.24660139860E+04  0.24082221940E+04 0.  0.
        2    1    3    3  502    0  0.84091182137E+03  0.81385587123E+03 -0.24961656075E+02  0.11705200360E+04  0.25500000920E-02 0. -1.
       -2    1    3    3    0  502 -0.84091182137E+03 -0.81385587123E+03  0.55570721072E+03  0.12954939500E+04  0.25500000920E-02 0.  1.
</event>
<event>
 5   0  0.8528103E-06  0.2552997E+04  0.7818609E-02  0.8384345E-01
       -1   -1    0    0    0  501  0.00000000000E+00  0.00000000000E+00  0.16600607742E+04  0.16600607742E+04  0.50400001928E-02 0.  1.
        1   -1    0    0  501    0  0.00000000000E+00  0.00000000000E+00 -0.98155938818E+03  0.98155938819E+03  0.50400001928E-02 0. -1.
    10030    2    1    2    0    0  0.00000000000E+00  0.00000000000E+00  0.67850138604E+03  0.26416201624E+04  0.25529968570E+04 0.  0.
        4    1    3    3  502    0 -0.62947380431E+03  0.53678034785E+02  0.14869564197E+04  0.16155988390E+04  0.12699999809E+01 0.  1.
       -4    1    3    3    0  502  0.62947380431E+03 -0.53678034785E+02 -0.80845503364E+03  0.10260213234E+04  0.12699999809E+01 0. -1.
</event>
<event>
 5   0  0.8898848E-06  0.2435428E+04  0.7818609E-02  0.8426358E-01
       -1   -1    0    0    0  501  0.00000000000E+00  0.00000000000E+00  0.78956300560E+03  0.78956300562E+03  0.50400001928E-02 0.  1.
        1   -1    0    0  501    0  0.00000000000E+00  0.00000000000E+00 -0.18780362877E+04  0.18780362877E+04  0.50400001928E-02 0. -1.
    10030    2    1    2    0    0  0.00000000000E+00  0.00000000000E+00 -0.10884732821E+04  0.26675992933E+04  0.24354284847E+04 0.  0.
        5    1    3    3  502    0 -0.51021752854E+03 -0.27952722650E+03 -0.17159580436E+04  0.18119027276E+04  0.46999998093E+01 0. -1.
       -5    1    3    3    0  502  0.51021752854E+03  0.27952722650E+03  0.62748476148E+03  0.85569656577E+03  0.46999998093E+01 0.  1.
</event>
<event>
 5   0  0.2025353E-05  0.2443064E+04  0.7818609E-02  0.8423555E-01
        2   -1    0    0  501    0  0.00000000000E+00  0.00000000000E+00  0.32483311593E+04  0.32483311593E+04  0.25500000920E-02 0. -1.
       -2   -1    0    0    0  501  0.00000000000E+00  0.00000000000E+00 -0.45935591121E+03  0.45935591121E+03  0.25500000920E-02 0.  1.
    10030    2    1    2    0    0  0.00000000000E+00  0.00000000000E+00  0.27889752481E+04  0.37076870705E+04  0.24430637483E+04 0.  0.
        4    1    3    3  502    0  0.87887578979E+03  0.24323076963E+03  0.16103450177E+03  0.92602245374E+03  0.12699999809E+01 0.  1.
       -4    1    3    3    0  502 -0.87887578979E+03 -0.24323076963E+03  0.26279407463E+04  0.27816646168E+04  0.12699999809E+01 0. -1.
</event>
<event>
 5   0  0.8898848E-06  0.2361424E+04  0.7818609E-02  0.8454089E-01
        1   -1    0    0  501    0  0.00000000000E+00  0.00000000000E+00  0.17765578605E+04  0.17765578605E+04  0.50400001928E-02 0.  1.
       -1   -1    0    0    0  501  0.00000000000E+00  0.00000000000E+00 -0.78470915291E+03  0.78470915292E+03  0.50400001928E-02 0. -1.
    10030    2    1    2    0    0  0.00000000000E+00  0.00000000000E+00  0.99184870759E+03  0.25612670134E+04  0.23614243277E+04 0.  0.
        5    1    3    3  502    0 -0.75111941859E+03  0.72185868052E+03 -0.10679982911E+03  0.10472290242E+04  0.46999998093E+01 0. -1.
       -5    1    3    3    0  502  0.75111941859E+03 -0.72185868052E+03  0.10986485367E+04  0.15140379892E+04  0.46999998093E+01 0.  1.
</event>
<event>
 5   0  0.2087882E-05  0.2141626E+04  0.7818609E-02  0.8543125E-01
       -2   -1    0    0    0  501  0.00000000000E+00  0.00000000000E+00  0.10783554682E+04  0.10783554682E+04  0.25500000920E-02 0. -1.
        2   -1    0    0  501    0  0.00000000000E+00  0.00000000000E+00 -0.10633231033E+04  0.10633231033E+04  0.25500000920E-02 0.  1.
    10030    2    1    2    0    0  0.00000000000E+00  0.00000000000E+00  0.15032364864E+02  0.21416785715E+04  0.21416258150E+04 0.  0.
        2    1    3    3  502    0 -0.51866232241E+03  0.88271938278E+03  0.32126930069E+03  0.10730415076E+04  0.25500000920E-02 0. -1.
       -2    1    3    3    0  502  0.51866232241E+03 -0.88271938278E+03 -0.30623693583E+03  0.10686370639E+04  0.25500000920E-02 0.  1.
</event>
<event>
 5   0  0.9083687E-06  0.2302204E+04  0.7818609E-02  0.8477053E-01
        1   -1    0    0  501    0  0.00000000000E+00  0.00000000000E+00  0.22618627063E+04  0.22618627063E+04  0.50400001928E-02 0.  1.
       -1   -1    0    0    0  501  0.00000000000E+00  0.00000000000E+00 -0.58581597912E+03  0.58581597914E+03  0.50400001928E-02 0. -1.
    10030    2    1    2    0    0  0.00000000000E+00  0.00000000000E+00  0.16760467271E+04  0.28476786854E+04  0.23022035670E+04 0.  0.
        2    1    3    3  502    0  0.10666421027E+04  0.17933639278E+03  0.13252386559E+04  0.17105976769E+04  0.25500000920E-02 0.  1.
       -2    1    3    3    0  502 -0.10666421027E+04 -0.17933639278E+03  0.35080807123E+03  0.11370810085E+04  0.25500000920E-02 0. -1.
</event>
<event>
 5   0  0.9038897E-06  0.2396859E+04  0.7818609E-02  0.8440680E-01
       -1   -1    0    0    0  501  0.00000000000E+00  0.00000000000E+00  0.89748328818E+03  0.89748328819E+03  0.50400001928E-02 0. -1.
        1   -1    0    0  501    0  0.00000000000E+00  0.00000000000E+00 -0.16002897675E+04  0.16002897675E+04  0.50400001928E-02 0.  1.
    10030    2    1    2    0    0  0.00000000000E+00  0.00000000000E+00 -0.70280647928E+03  0.24977730557E+04  0.23968590468E+04 0.  0.
        1    1    3    3  502    0 -0.89464210815E+02  0.22141961164E+03 -0.15752429807E+04  0.15932422721E+04  0.50400001928E-02 0.  1.
       -1    1    3    3    0  502  0.89464210815E+02 -0.22141961164E+03  0.87243650139E+03  0.90453078356E+03  0.50400001928E-02 0. -1.
</event>
<event>
 5   0  0.2087882E-05  0.2404750E+04  0.7818609E-02  0.8437727E-01
        2   -1    0    0  501    0  0.00000000000E+00  0.00000000000E+00  0.11173324637E+04  0.11173324637E+04  0.25500000920E-02 0. -1.
       -2   -1    0    0    0  501  0.00000000000E+00  0.00000000000E+00 -0.12938903945E+04  0.12938903945E+04  0.25500000920E-02 0.  1.
    10030    2    1    2    0    0  0.00000000000E+00  0.00000000000E+00 -0.17655793080E+03  0.24112228582E+04  0.24047500845E+04 0.  0.
        2    1    3    3  502    0  0.27253643389E+03  0.53447462510E+03  0.95652695354E+03  0.11291071896E+04  0.25500000920E-02 0. -1.
       -2    1    3    3    0  502 -0.27253643389E+03 -0.53447462510E+03 -0.11330848843E+04  0.12821156686E+04  0.25500000920E-02 0.  1.
</event>
<event>
 5   0  0.2025353E-05  0.2329981E+04  0.7818609E-02  0.8466193E-01
       -2   -1    0    0    0  501  0.00000000000E+00  0.00000000000E+00  0.16726532197E+04  0.16726532197E+04  0.25500000920E-02 0.  1.
        2   -1    0    0  501    0  0.00000000000E+00  0.00000000000E+00 -0.81140719780E+03  0.81140719780E+03  0.25500000920E-02 0. -1.
    10030    2    1    2    0    0  0.00000000000E+00  0.00000000000E+00  0.86124602192E+03  0.24840604175E+04  0.23299809973E+04 0.  0.
        4    1    3    3  502    0 -0.20954985671E+03 -0.81846770651E+03  0.12857892494E+04  0.15385240121E+04  0.12699999809E+01 0.  1.
       -4    1    3    3    0  502  0.20954985671E+03  0.81846770651E+03 -0.42454322749E+03  0.94553640541E+03  0.12699999809E+01 0. -1.
</event>
<event>
 5   0  0.9083687E-06  0.2355900E+04  0.7818609E-02  0.8456201E-01
        1   -1    0    0  501    0  0.00000000000E+00  0.00000000000E+00  0.17237626918E+04  0.17237626918E+04  0.50400001928E-02 0. -1.
       -1   -1    0    0    0  501  0.00000000000E+00  0.00000000000E+00 -0.80496371112E+03  0.80496371114E+03  0.50400001928E-02 0.  1.
    10030    2    1    2    0    0  0.00000000000E+00  0.00000000000E+00  0.91879898071E+03  0.25287264030E+04  0.23559001792E+04 0.  0.
        2    1    3    3  502    0  0.10035948167E+04  0.31206375990E+03  0.10303820992E+04  0.14718266259E+04  0.25500000920E-02 0. -1.
       -2    1    3    3    0  502 -0.10035948167E+04 -0.31206375990E+03 -0.11158311852E+03  0.10568997770E+04  0.25500000920E-02 0.  1.
</event>
<event>
 5   0  0.9038897E-06  0.2417231E+04  0.7818609E-02  0.8433081E-01
        1   -1    0    0  501    0  0.00000000000E+00  0.00000000000E+00  0.14124154230E+04  0.14124154230E+04  0.50400001928E-02 0.  1.
       -1   -1    0    0    0  501  0.00000000000E+00  0.00000000000E+00 -0.10342218910E+04  0.10342218910E+04  0.50400001928E-02 0. -1.
    10030    2    1    2    0    0  0.00000000000E+00  0.00000000000E+00  0.37819353195E+03  0.24466373140E+04  0.24172306052E+04 0.  0.
        1    1    3    3  502    0 -0.50301233560E+03 -0.78395532928E+03 -0.59043071155E+03  0.11028217414E+04  0.50400001928E-02 0. -1.
       -1    1    3    3    0  502  0.50301233560E+03  0.78395532928E+03  0.96862424350E+03  0.13438155726E+04  0.50400001928E-02 0.  1.
</event>
<event>
 5   0  0.8528103E-06  0.2411215E+04  0.7818609E-02  0.8435317E-01
        1   -1    0    0  501    0  0.00000000000E+00  0.00000000000E+00  0.76079120047E+03  0.76079120049E+03  0.50400001928E-02 0.  1.
       -1   -1    0    0    0  501  0.00000000000E+00  0.00000000000E+00 -0.19104966367E+04  0.19104966367E+04  0.50400001928E-02 0. -1.
    10030    2    1    2    0    0  0.00000000000E+00  0.00000000000E+00 -0.11497054362E+04  0.26712878372E+04  0.24112146564E+04 0.  0.
        4    1    3    3  502    0 -0.24029350961E+03 -0.50630713885E+03  0.60770631379E+03  0.82667797015E+03  0.12699999809E+01 0.  1.
       -4    1    3    3    0  502  0.24029350961E+03  0.50630713885E+03 -0.17574117500E+04  0.18446098671E+04  0.12699999809E+01 0. -1.
</event>
<event>
 5   0  0.2025353E-05  0.2424616E+04  0.7818609E-02  0.8430345E-01
       -2   -1    0    0    0  501  0.00000000000E+00  0.00000000000E+00  0.24417557754E+04  0.24417557754E+04  0.25500000920E-02 0.  1.
        2   -1    0    0  501    0  0.00000000000E+00  0.00000000000E+00 -0.60189919517E+03  0.60189919518E+03  0.25500000920E-02 0. -1.
    10030    2    1    2    0    0  0.00000000000E+00  0.00000000000E+00  0.18398565802E+04  0.30436549705E+04  0.24246161230E+04 0.  0.
        4    1    3    3  502    0  0.11283792719E+04 -0.40527139092E+03  0.11452022484E+04  0.16580031618E+04  0.12699999809E+01 0. -1.
       -4    1    3    3    0  502 -0.11283792719E+04  0.40527139092E+03  0.69465433176E+03  0.13856518088E+04  0.12699999809E+01 0.  1.
</event>
<event>
 5   0  0.9176817E-06  0.2408833E+04  0.7818609E-02  0.8436204E-01
        1   -1    0    0  501    0  0.00000000000E+00  0.00000000000E+00  0.99997960525E+03  0.99997960526E+03  0.50400001928E-02 0. -1.
       -1   -1    0    0    0  501  0.00000000000E+00  0.00000000000E+00 -0.14506482031E+04  0.14506482031E+04  0.50400001928E-02 0.  1.
    10030    2    1    2    0    0  0.00000000000E+00  0.00000000000E+00 -0.45066859788E+03  0.24506278084E+04  0.24088325949E+04 0.  0.
        3    1    3    3  502    0 -0.42693505903E+03  0.86511626825E+03  0.50823060118E+03  0.10904118747E+04  0.10100000352E+00 0. -1.
       -3    1    3    3    0  502  0.42693505903E+03 -0.86511626825E+03 -0.95889919906E+03  0.13602159337E+04  0.10100000352E+00 0.  1.
</event>
<event>
 5   0  0.9038897E-06  0.2399701E+04  0.7818609E-02  0.8439615E-01
        1   -1    0    0  501    0  0.00000000000E+00  0.00000000000E+00  0.21945830572E+04  0.21945830572E+04  0.50400001928E-02 0.  1.
       -1   -1    0    0    0  501  0.00000000000E+00  0.00000000000E+00 -0.65599763721E+03  0.65599763723E+03  0.50400001928E-02 0. -1.
    10030    2    1    2    0    0  0.00000000000E+00  0.00000000000E+00  0.15385854200E+04  0.28505806945E+04  0.23997010649E+04 0.  0.
        1    1    3    3  502    0 -0.41032384957E+03 -0.47187591188E+03 -0.44712556603E+03  0.76873520120E+03  0.50400001928E-02 0. -1.
       -1    1    3    3    0  502  0.41032384957E+03  0.47187591188E+03  0.19857109860E+04  0.20818454933E+04  0.50400001928E-02 0.  1.
</event>
<event>
 5   0  0.9038897E-06  0.2414080E+04  0.7818609E-02  0.8434251E-01
        1   -1    0    0  501    0  0.00000000000E+00  0.00000000000E+00  0.80897438051E+03  0.80897438053E+03  0.50400001928E-02 0. -1.
       -1   -1    0    0    0  501  0.00000000000E+00  0.00000000000E+00 -0.18009783726E+04  0.18009783726E+04  0.50400001928E-02 0.  1.
    10030    2    1    2    0    0  0.00000000000E+00  0.00000000000E+00 -0.99200399206E+03  0.26099527531E+04  0.24140798357E+04 0.  0.
        1    1    3    3  502    0  0.15243577065E+03 -0.15797430392E+03 -0.17792140071E+04  0.17927060629E+04  0.50400001928E-02 0.  1.
       -1    1    3    3    0  502 -0.15243577065E+03  0.15797430392E+03  0.78721001503E+03  0.81724669021E+03  0.50400001928E-02 0. -1.
</event>
<event>
 5   0  0.2025353E-05  0.2498104E+04  0.7818609E-02  0.8403661E-01
        2   -1    0    0  501    0  0.00000000000E+00  0.00000000000E+00  0.14591811351E+04  0.14591811351E+04  0.25500000920E-02 0.  1.
       -2   -1    0    0    0  501  0.00000000000E+00  0.00000000000E+00 -0.10691823993E+04  0.10691823993E+04  0.25500000920E-02 0. -1.
    10030    2    1    2    0    0  0.00000000000E+00  0.00000000000E+00  0.38999873581E+03  0.25283635343E+04  0.24981039105E+04 0.  0.
        4    1    3    3  502    0  0.32767009002E+03  0.88426503757E+03 -0.63396806235E+03  0.11363139802E+04  0.12699999809E+01 0. -1.
       -4    1    3    3    0  502 -0.32767009002E+03 -0.88426503757E+03  0.10239667982E+04  0.13920495541E+04  0.12699999809E+01 0.  1.
</event>
<event>
 5   0  0.2122194E-05  0.2333976E+04  0.7818609E-02  0.8464644E-01
       -2   -1    0    0    0  501  0.00000000000E+00  0.00000000000E+00  0.73280273123E+03  0.73280273123E+03  0.25500000920E-02 0.  1.
        2   -1    0    0  501    0  0.00000000000E+00  0.00000000000E+00 -0.18584281836E+04  0.18584281836E+04  0.25500000920E-02 0. -1.
    10030    2    1    2    0    0  0.00000000000E+00  0.00000000000E+00 -0.11256254524E+04  0.25912309148E+04  0.23339762199E+04 0.  0.
        3    1    3    3  502    0  0.71483670964E+02  0.39916183628E+03  0.65206662973E+03  0.76787432993E+03  0.10100000352E+00 0.  1.
       -3    1    3    3    0  502 -0.71483670964E+02 -0.39916183628E+03 -0.17776920821E+04  0.18233565849E+04  0.10100000352E+00 0. -1.
</event>
<event>
 5   0  0.2048028E-05  0.2452031E+04  0.7818609E-02  0.8420277E-01
        2   -1    0    0  501    0  0.00000000000E+00  0.00000000000E+00  0.11345472816E+04  0.11345472816E+04  0.25500000920E-02 0. -1.
       -2   -1    0    0    0  501  0.00000000000E+00  0.00000000000E+00 -0.13248583511E+04  0.13248583511E+04  0.25500000920E-02 0.  1.
    10030    2    1    2    0    0  0.00000000000E+00  0.00000000000E+00 -0.19031106941E+03  0.24594056327E+04  0.24520313544E+04 0.  0.
        5    1    3    3  502    0  0.63018178798E+03  0.35709183105E+03  0.89698495088E+03  0.11529300733E+04  0.46999998093E+01 0. -1.
       -5    1    3    3    0  502 -0.63018178798E+03 -0.35709183105E+03 -0.10872960203E+04  0.13064755595E+04  0.46999998093E+01 0.  1.
</event>
<event>
 5   0  0.2122194E-05  0.2384373E+04  0.7818609E-02  0.8445377E-01
       -2   -1    0    0    0  501  0.00000000000E+00  0.00000000000E+00  0.13103516657E+04  0.13103516657E+04  0.25500000920E-02 0.  1.
        2   -1    0    0  501    0  0.00000000000E+00  0.00000000000E+00 -0.10846768299E+04  0.10846768299E+04  0.25500000920E-02 0. -1.
    10030    2    1    2    0    0  0.00000000000E+00  0.00000000000E+00  0.22567483580E+03  0.23950284957E+04  0.23843725304E+04 0.  0.
        3    1    3    3  502    0  0.33162237076E+03  0.10836777787E+04 -0.25892085964E+03  0.11624848157E+04  0.10100000352E+00 0. -1.
       -3    1    3    3    0  502 -0.33162237076E+03 -0.10836777787E+04  0.48459569544E+03  0.12325436800E+04  0.10100000352E+00 0.  1.
</event>
<event>
 5   0  0.8898848E-06  0.2341242E+04  0.7818609E-02  0.8461835E-01
        1   -1    0    0  501    0  0.00000000000E+00  0.00000000000E+00  0.12989602319E+04  0.12989602319E+04  0.50400001928E-02 0.  1.
       -1   -1    0    0    0  501  0.00000000000E+00  0.00000000000E+00 -0.10549616915E+04  0.10549616915E+04  0.50400001928E-02 0. -1.
    10030    2    1    2    0    0  0.00000000000E+00  0.00000000000E+00  0.24399854036E+03  0.23539219234E+04  0.23412417931E+04 0.  0.
        5    1    3    3  502    0  0.90877041019E+03  0.50344319610E+03  0.66437668305E+03  0.12331817292E+04  0.46999998093E+01 0.  1.
       -5    1    3    3    0  502 -0.90877041019E+03 -0.50344319610E+03 -0.42037814269E+03  0.11207401942E+04  0.46999998093E+01 0. -1.
</event>
<event>
 5   0  0.2048028E-05  0.2443489E+04  0.7818609E-02  0.8423399E-01
        2   -1    0    0  501    0  0.00000000000E+00  0.00000000000E+00  0.10746810507E+04  0.10746810507E+04  0.25500000920E-02 0. -1.
       -2   -1    0    0    0  501  0.00000000000E+00  0.00000000000E+00 -0.13889322487E+04  0.13889322487E+04  0.25500000920E-02 0.  1.
    10030    2    1    2    0    0  0.00000000000E+00  0.00000000000E+00 -0.31425119800E+03  0.24636132995E+04  0.24434886277E+04 0.  0.
        5    1    3    3  502    0 -0.84644112428E+03  0.30973169889E+03 -0.98868551870E+03  0.13378779642E+04  0.46999998093E+01 0.  1.
       -5    1    3    3    0  502  0.84644112428E+03 -0.30973169889E+03  0.67443432070E+03  0.11257353353E+04  0.46999998093E+01 0. -1.
</event>
<event>
 5   0  0.2087882E-05  0.2410342E+04  0.7818609E-02  0.8435642E-01
        2   -1    0    0  501    0  0.00000000000E+00  0.00000000000E+00  0.19024298298E+04  0.19024298298E+04  0.25500000920E-02 0. -1.
       -2   -1    0    0    0  501  0.00000000000E+00  0.00000000000E+00 -0.76346431161E+03  0.76346431161E+03  0.25500000920E-02 0.  1.
    10030    2    1    2    0    0  0.00000000000E+00  0.00000000000E+00  0.11389655182E+04  0.26658941415E+04  0.24103421172E+04 0.  0.
        2    1    3    3  502    0 -0.78284915126E+03  0.78460431655E+03  0.10929257241E+04  0.15565806646E+04  0.25500000920E-02 0. -1.
       -2    1    3    3    0  502  0.78284915126E+03 -0.78460431655E+03  0.46039794153E+02  0.11093134768E+04  0.25500000920E-02 0.  1.
</event>
<event>
 5   0  0.2048028E-05  0.2429810E+04  0.7818609E-02  0.8428427E-01
       -2   -1    0    0    0  501  0.00000000000E+00  0.00000000000E+00  0.12402630996E+04  0.12402630996E+04  0.25500000920E-02 0. -1.
        2   -1    0    0  501    0  0.00000000000E+00  0.00000000000E+00 -0.11900655529E+04  0.11900655529E+04  0.25500000920E-02 0.  1.
    10030    2    1    2    0    0  0.00000000000E+00  0.00000000000E+00  0.50197546618E+02  0.24303286525E+04  0.24298101912E+04 0.  0.
        5    1    3    3  502    0 -0.10771786478E+04 -0.16204590851E+03 -0.51297473489E+03  0.12040506154E+04  0.46999998093E+01 0.  1.
       -5    1    3    3    0  502  0.10771786478E+04  0.16204590851E+03  0.56317228151E+03  0.12262780371E+04  0.46999998093E+01 0. -1.
</event>
<event>
 5   0  0.9038897E-06  0.2398640E+04  0.7818609E-02  0.8440013E-01
        1   -1    0    0  501    0  0.00000000000E+00  0.00000000000E+00  0.10110169595E+04  0.10110169595E+04  0.50400001928E-02 0.  1.
       -1   -1    0    0    0  501  0.00000000000E+00  0.00000000000E+00 -0.14226947068E+04  0.14226947068E+04  0.50400001928E-02 0. -1.
    10030    2    1    2    0    0  0.00000000000E+00  0.00000000000E+00 -0.41167774736E+03  0.24337116663E+04  0.23986400120E+04 0.  0.
        1    1    3    3  502    0  0.80052989574E+03 -0.39503427247E+03 -0.10184666168E+04  0.13543169644E+04  0.50400001928E-02 0. -1.
       -1    1    3    3    0  502 -0.80052989574E+03  0.39503427247E+03  0.60678886946E+03  0.10793947019E+04  0.50400001928E-02 0.  1.
</event>
<event>
 5   0  0.2087882E-05  0.2411447E+04  0.7818609E-02  0.8435230E-01
        2   -1    0    0  501    0  0.00000000000E+00  0.00000000000E+00  0.14035232494E+04  0.14035232494E+04  0.25500000920E-02 0.  1.
       -2   -1    0    0    0  501  0.00000000000E+00  0.00000000000E+00 -0.10357997495E+04  0.10357997495E+04  0.25500000920E-02 0. -1.
    10030    2    1    2    0    0  0.00000000000E+00  0.00000000000E+00  0.36772349989E+03  0.24393229989E+04  0.24114468936E+04 0.  0.
        2    1    3    3  502    0  0.25256508000E+03 -0.90442607517E+03  0.94890697981E+03  0.13349906747E+04  0.25500000920E-02 0.  1.
       -2    1    3    3    0  502 -0.25256508000E+03  0.90442607517E+03 -0.58118347992E+03  0.11043323243E+04  0.25500000920E-02 0. -1.
</event>
<event>
 5   0  0.8898848E-06  0.2397567E+04  0.7818609E-02  0.8440415E-01
        1   -1    0    0  501    0  0.00000000000E+00  0.00000000000E+00  0.17510281599E+04  0.17510281599E+04  0.50400001928E-02 0.  1.
       -1   -1    0    0    0  501  0.00000000000E+00  0.00000000000E+00 -0.82070749857E+03  0.82070749859E+03  0.50400001928E-02 0. -1.
    10030    2    1    2    0    0  0.00000000000E+00  0.00000000000E+00  0.93032066128E+03  0.25717356585E+04  0.23975670510E+04 0.  0.
        5    1    3    3  502    0 -0.75505190877E+03  0.84403743697E+03  0.88685711135E+03  0.14384158668E+04  0.46999998093E+01 0.  1.
       -5    1    3    3    0  502  0.75505190877E+03 -0.84403743697E+03  0.43463549936E+02  0.11333197916E+04  0.46999998093E+01 0. -1.
</event>
<event>
 5   0  0.9176817E-06  0.2406261E+04  0.7818609E-02  0.8437163E-01
       -1   -1    0    0    0  501  0.00000000000E+00  0.00000000000E+00  0.73340917309E+03  0.73340917310E+03  0.50400001928E-02 0. -1.
        1   -1    0    0  501    0  0.00000000000E+00  0.00000000000E+00 -0.19736903350E+04  0.19736903350E+04  0.50400001928E-02 0.  1.
    10030    2    1    2    0    0  0.00000000000E+00  0.00000000000E+00 -0.12402811619E+04  0.27070995081E+04  0.24062606646E+04 0.  0.
        3    1    3    3  502    0 -0.60228835838E+03 -0.53801488395E+02  0.55003339668E+03  0.81742437843E+03  0.10100000352E+00 0. -1.
       -3    1    3    3    0  502  0.60228835838E+03  0.53801488395E+02 -0.17903145586E+04  0.18896751297E+04  0.10100000352E+00 0.  1.
</event>
<event>
 5   0  0.2025353E-05  0.2382674E+04  0.7818609E-02  0.8446019E-01
       -2   -1    0    0    0  501  0.00000000000E+00  0.00000000000E+00  0.11728169957E+04  0.11728169957E+04  0.25500000920E-02 0.  1.
        2   -1    0    0  501    0  0.00000000000E+00  0.00000000000E+00 -0.12101493423E+04  0.12101493423E+04  0.25500000920E-02 0. -1.
    10030    2    1    2    0    0  0.00000000000E+00  0.00000000000E+00 -0.37332346603E+02  0.23829663381E+04  0.23826738896E+04 0.  0.
        4    1    3    3  502    0  0.51780779913E+03  0.43751376569E+03  0.96111671160E+03  0.11761335631E+04  0.12699999809E+01 0.  1.
       -4    1    3    3    0  502 -0.51780779913E+03 -0.43751376569E+03 -0.99844905820E+03  0.12068327750E+04  0.12699999809E+01 0. -1.
</event>
<event>
 5   0  0.9176817E-06  0.2401340E+04  0.7818609E-02  0.8439002E-01
       -1   -1    0    0    0  501  0.00000000000E+00  0.00000000000E+00  0.16873111917E+04  0.16873111917E+04  0.50400001928E-02 0. -1.
        1   -1    0    0  501    0  0.00000000000E+00  0.00000000000E+00 -0.85438204742E+03  0.85438204743E+03  0.50400001928E-02 0.  1.
    10030    2    1    2    0    0  0.00000000000E+00  0.00000000000E+00  0.83292914432E+03  0.25416932392E+04  0.24013399515E+04 0.  0.
        3    1    3    3  502    0  0.88260608721E+03  0.65139221190E+03  0.93315961899E+03  0.14401708939E+04  0.10100000352E+00 0. -1.
       -3    1    3    3    0  502 -0.88260608721E+03 -0.65139221190E+03 -0.10023047467E+03  0.11015223453E+04  0.10100000352E+00 0.  1.
</event>
<event>
 5   0  0.8528103E-06  0.2399373E+04  0.7818609E-02  0.8439738E-01
       -1   -1    0    0    0  501  0.00000000000E+00  0.00000000000E+00  0.10669801008E+04  0.10669801008E+04  0.50400001928E-02 0.  1.
        1   -1    0    0  501    0  0.00000000000E+00  0.00000000000E+00 -0.13488984881E+04  0.13488984881E+04  0.50400001928E-02 0. -1.
    10030    2    1    2    0    0  0.00000000000E+00  0.00000000000E+00 -0.28191838729E+03  0.24158785889E+04  0.23993731221E+04 0.  0.
        4    1    3    3  502    0 -0.10670836788E+03 -0.83453532386E+03  0.72014928595E+03  0.11074531545E+04  0.12699999809E+01 0.  1.
       -4    1    3    3    0  502  0.10670836788E+03  0.83453532386E+03 -0.10020676732E+04  0.13084254343E+04  0.12699999809E+01 0. -1.
</event>
<event>
 5   0  0.9176817E-06  0.2354851E+04  0.7818609E-02  0.8456603E-01
        1   -1    0    0  501    0  0.00000000000E+00  0.00000000000E+00  0.14852894062E+04  0.14852894062E+04  0.50400001928E-02 0.  1.
       -1   -1    0    0    0  501  0.00000000000E+00  0.00000000000E+00 -0.93337407813E+03  0.93337407815E+03  0.50400001928E-02 0. -1.
    10030    2    1    2    0    0  0.00000000000E+00  0.00000000000E+00  0.55191532804E+03  0.24186634843E+04  0.23548508490E+04 0.  0.
        3    1    3    3  502    0 -0.81948813101E+03  0.19358445857E+02  0.11440806757E+04  0.14074289144E+04  0.10100000352E+00 0.  1.
       -3    1    3    3    0  502  0.81948813101E+03 -0.19358445857E+02 -0.59216534767E+03  0.10112345700E+04  0.10100000352E+00 0. -1.
</event>
<event>
 5   0  0.2122194E-05  0.2389025E+04  0.7818609E-02  0.8443624E-01
       -2   -1    0    0    0  501  0.00000000000E+00  0.00000000000E+00  0.94386357504E+03  0.94386357504E+03  0.25500000920E-02 0. -1.
        2   -1    0    0  501    0  0.00000000000E+00  0.00000000000E+00 -0.15117231116E+04  0.15117231116E+04  0.25500000920E-02 0.  1.
    10030    2    1    2    0    0  0.00000000000E+00  0.00000000000E+00 -0.56785953655E+03  0.24555866866E+04  0.23890252243E+04 0.  0.
        3    1    3    3  502    0 -0.99408433460E+03 -0.12394711756E+03  0.38480745544E+03  0.10731464673E+04  0.10100000352E+00 0. -1.
       -3    1    3    3    0  502  0.99408433460E+03  0.12394711756E+03 -0.95266699200E+03  0.13824402194E+04  0.10100000352E+00 0.  1.
</event>
<event>
 5   0  0.8528103E-06  0.2298157E+04  0.7818609E-02  0.8478648E-01
       -1   -1    0    0    0  501  0.00000000000E+00  0.00000000000E+00  0.14280625435E+04  0.14280625435E+04  0.50400001928E-02 0. -1.
        1   -1    0    0  501    0  0.00000000000E+00  0.00000000000E+00 -0.92459613902E+03  0.92459613903E+03  0.50400001928E-02 0.  1.
    10030    2    1    2    0    0  0.00000000000E+00  0.00000000000E+00  0.50346640446E+03  0.23526586825E+04  0.22981567518E+04 0.  0.
        4    1    3    3  502    0  0.88954320916E+03 -0.70523821395E+03  0.43409093346E+03  0.12153536978E+04  0.12699999809E+01 0.  1.
       -4    1    3    3    0  502 -0.88954320916E+03  0.70523821395E+03  0.69375470999E+02  0.11373049847E+04  0.12699999809E+01 0. -1.
</event>
<event>
 5   0  0.8898848E-06  0.2414805E+04  0.7818609E-02  0.8433981E-01
       -1   -1    0    0    0  501  0.00000000000E+00  0.00000000000E+00  0.79968033337E+03  0.79968033339E+03  0.50400001928E-02 0.  1.
        1   -1    0    0  501    0  0.00000000000E+00  0.00000000000E+00 -0.18230048513E+04  0.18230048513E+04  0.50400001928E-02 0. -1.
    10030    2    1    2    0    0  0.00000000000E+00  0.00000000000E+00 -0.10233245179E+04  0.26226851847E+04  0.24148052735E+04 0.  0.
        5    1    3    3  502    0 -0.11146063885E+04 -0.34542317892E+03 -0.17491536325E+03  0.11799500193E+04  0.46999998093E+01 0.  1.
       -5    1    3    3    0  502  0.11146063885E+04  0.34542317892E+03 -0.84840915466E+03  0.14427351654E+04  0.46999998093E+01 0. -1.
</event>
<event>
 5   0  0.2048028E-05  0.2414762E+04  0.7818609E-02  0.8433997E-01
        2   -1    0    0  501    0  0.00000000000E+00  0.00000000000E+00  0.19867609947E+04  0.19867609947E+04  0.25500000920E-02 0. -1.
       -2   -1    0    0    0  501  0.00000000000E+00  0.00000000000E+00 -0.73374150059E+03  0.73374150059E+03  0.25500000920E-02 0.  1.
    10030    2    1    2    0    0  0.00000000000E+00  0.00000000000E+00  0.12530194941E+04  0.27205024953E+04  0.24147620948E+04 0.  0.
        5    1    3    3  502    0 -0.13314117934E+03  0.60196174046E+03  0.17960526083E+04  0.18989237932E+04  0.46999998093E+01 0. -1.
       -5    1    3    3    0  502  0.13314117934E+03 -0.60196174046E+03 -0.54303311420E+03  0.82157870209E+03  0.46999998093E+01 0.  1.
</event>
<event>
 5   0  0.8898848E-06  0.2411365E+04  0.7818609E-02  0.8435261E-01
       -1   -1    0    0    0  501  0.00000000000E+00  0.00000000000E+00  0.84350555290E+03  0.84350555292E+03  0.50400001928E-02 0. -1.
        1   -1    0    0  501    0  0.00000000000E+00  0.00000000000E+00 -0.17233671451E+04  0.17233671451E+04  0.50400001928E-02 0.  1.
    10030    2    1    2    0    0  0.00000000000E+00  0.00000000000E+00 -0.87986159217E+03  0.25668726980E+04  0.24113645569E+04 0.  0.
        5    1    3    3  502    0 -0.80190624450E+03  0.81197125909E+02 -0.13944172526E+04  0.16106111146E+04  0.46999998093E+01 0.  1.
       -5    1    3    3    0  502  0.80190624450E+03 -0.81197125909E+02  0.51455566040E+03  0.95626158340E+03  0.46999998093E+01 0. -1.
</event>
<event>
 5   0  0.2025353E-05  0.2403602E+04  0.7818609E-02  0.8438156E-01
       -2   -1    0    0    0  501  0.00000000000E+00  0.00000000000E+00  0.78534014282E+03  0.78534014282E+03  0.25500000920E-02 0.  1.
        2   -1    0    0  501    0  0.00000000000E+00  0.00000000000E+00 -0.18391083553E+04  0.18391083553E+04  0.25500000920E-02 0. -1.
    10030    2    1    2    0    0  0.00000000000E+00  0.00000000000E+00 -0.10537682125E+04  0.26244484981E+04  0.24036019790E+04 0.  0.
        4    1    3    3  502    0  0.11261669716E+04  0.40219314186E+03 -0.39625640386E+03  0.12597746313E+04  0.12699999809E+01 0.  1.
       -4    1    3    3    0  502 -0.11261669716E+04 -0.40219314186E+03 -0.65751180862E+03  0.13646738668E+04  0.12699999809E+01 0. -1.
</event>
<event>
 5   0  0.8528103E-06  0.2403756E+04  0.7818609E-02  0.8438099E-01
        1   -1    0    0  501    0  0.00000000000E+00  0.00000000000E+00  0.15509451629E+04  0.15509451629E+04  0.50400001928E-02 0.  1.
       -1   -1    0    0    0  501  0.00000000000E+00  0.00000000000E+00 -0.93137424106E+03  0.93137424107E+03  0.50400001928E-02 0. -1.
    10030    2    1    2    0    0  0.00000000000E+00  0.00000000000E+00  0.61957092180E+03  0.24823194039E+04  0.24037557064E+04 0.  0.
        4    1    3    3  502    0 -0.48436470298E+03 -0.37150036938E+03 -0.75937244124E+03  0.97430478156E+03  0.12699999809E+01 0. -1.
       -4    1    3    3    0  502  0.48436470298E+03  0.37150036938E+03  0.13789433630E+04  0.15080146224E+04  0.12699999809E+01 0.  1.
</event>
<event>
 5   0  0.9083687E-06  0.2382643E+04  0.7818609E-02  0.8446030E-01
       -1   -1    0    0    0  501  0.00000000000E+00  0.00000000000E+00  0.75576834853E+03  0.75576834854E+03  0.50400001928E-02 0.  1.
        1   -1    0    0  501    0  0.00000000000E+00  0.00000000000E+00 -0.18778863508E+04  0.18778863508E+04  0.50400001928E-02 0. -1.
    10030    2    1    2    0    0  0.00000000000E+00  0.00000000000E+00 -0.11221180023E+04  0.26336546994E+04  0.23826431257E+04 0.  0.
        2    1    3    3  502    0  0.48909502867E+03  0.10862923113E+04 -0.55944449686E+03  0.13161394598E+04  0.25500000920E-02 0. -1.
       -2    1    3    3    0  502 -0.48909502867E+03 -0.10862923113E+04 -0.56267350546E+03  0.13175152395E+04  0.25500000920E-02 0.  1.
</event>
<event>
 5   0  0.9176817E-06  0.2418434E+04  0.7818609E-02  0.8432634E-01
       -1   -1    0    0    0  501  0.00000000000E+00  0.00000000000E+00  0.11710855680E+04  0.11710855680E+04  0.50400001928E-02 0. -1.
        1   -1    0    0  501    0  0.00000000000E+00  0.00000000000E+00 -0.12485899261E+04  0.12485899261E+04  0.50400001928E-02 0.  1.
    10030    2    1    2    0    0  0.00000000000E+00  0.00000000000E+00 -0.77504358098E+02  0.24196754941E+04  0.24184339088E+04 0.  0.
        3    1    3    3  502    0 -0.25305743787E+01  0.10148778828E+04  0.61902135162E+03  0.11887686758E+04  0.10100000352E+00 0. -1.
       -3    1    3    3    0  502  0.25305743787E+01 -0.10148778828E+04 -0.69652570972E+03  0.12309068183E+04  0.10100000352E+00 0.  1.
</event>
<event>
 5   0  0.2122194E-05  0.2400735E+04  0.7818609E-02  0.8439228E-01
       -2   -1    0    0    0  501  0.00000000000E+00  0.00000000000E+00  0.82768299324E+03  0.82768299324E+03  0.25500000920E-02 0. -1.
        2   -1    0    0  501    0  0.00000000000E+00  0.00000000000E+00 -0.17408627405E+04  0.17408627405E+04  0.25500000920E-02 0.  1.
    10030    2    1    2    0    0  0.00000000000E+00  0.00000000000E+00 -0.91317974728E+03  0.25685457338E+04  0.24007352906E+04 0.  0.
        3    1    3    3  502    0  0.17760485597E+03 -0.11552557152E+03 -0.17206991558E+04  0.17336941015E+04  0.10100000352E+00 0.  1.
       -3    1    3    3    0  502 -0.17760485597E+03  0.11552557152E+03  0.80751940853E+03  0.83485163227E+03  0.10100000352E+00 0. -1.
</event>
<event>
 5   0  0.9083687E-06  0.2369911E+04  0.7818609E-02  0.8450855E-01
       -1   -1    0    0    0  501  0.00000000000E+00  0.00000000000E+00  0.15129995713E+04  0.15129995713E+04  0.50400001928E-02 0.  1.
        1   -1    0    0  501    0  0.00000000000E+00  0.00000000000E+00 -0.92803663702E+03  0.92803663704E+03  0.50400001928E-02 0. -1.
    10030    2    1    2    0    0  0.00000000000E+00  0.00000000000E+00  0.58496293424E+03  0.24410362083E+04  0.23699105755E+04 0.  0.
        2    1    3    3  502    0  0.94721595907E+02  0.10844556204E+04 -0.18965089807E+03  0.11049812833E+04  0.25500000920E-02 0. -1.
       -2    1    3    3    0  502 -0.94721595907E+02 -0.10844556204E+04  0.77461383231E+03  0.13360549250E+04  0.25500000920E-02 0.  1.
</event>
<event>
 5   0  0.9083687E-06  0.2396941E+04  0.7818609E-02  0.8440650E-01
       -1   -1    0    0    0  501  0.00000000000E+00  0.00000000000E+00  0.99882130508E+03  0.99882130509E+03  0.50400001928E-02 0.  1.
        1   -1    0    0  501    0  0.00000000000E+00  0.00000000000E+00 -0.14380261591E+04  0.14380261591E+04  0.50400001928E-02 0. -1.
    10030    2    1    2    0    0  0.00000000000E+00  0.00000000000E+00 -0.43920485404E+03  0.24368474642E+04  0.23969406876E+04 0.  0.
        2    1    3    3  502    0 -0.58619399952E+03 -0.53108227901E+03 -0.11349589101E+04  0.13834028769E+04  0.25500000920E-02 0. -1.
       -2    1    3    3    0  502  0.58619399952E+03  0.53108227901E+03  0.69575405603E+03  0.10534445874E+04  0.25500000920E-02 0.  1.
</event>
<event>
 5   0  0.2048028E-05  0.2390874E+04  0.7818609E-02  0.8442928E-01
       -2   -1    0    0    0  501  0.00000000000E+00  0.00000000000E+00  0.18343380625E+04  0.18343380625E+04  0.25500000920E-02 0. -1.
        2   -1    0    0  501    0  0.00000000000E+00  0.00000000000E+00 -0.77906559135E+03  0.77906559136E+03  0.25500000920E-02 0.  1.
    10030    2    1    2    0    0  0.00000000000E+00  0.00000000000E+00  0.10552724712E+04  0.26134036539E+04  0.23908740389E+04 0.  0.
        5    1    3    3  502    0  0.51419818086E+03  0.10732641682E+04  0.40420186254E+03  0.12568599681E+04  0.46999998093E+01 0.  1.
       -5    1    3    3    0  502 -0.51419818086E+03 -0.10732641682E+04  0.65107060863E+03  0.13565436857E+04  0.46999998093E+01 0. -1.
</event>
<event>
 5   0  0.2025353E-05  0.2338330E+04  0.7818609E-02  0.8462960E-01
       -2   -1    0    0    0  501  0.00000000000E+00  0.00000000000E+00  0.99576361850E+03  0.99576361850E+03  0.25500000920E-02 0. -1.
        2   -1    0    0  501    0  0.00000000000E+00  0.00000000000E+00 -0.13727618186E+04  0.13727618186E+04  0.25500000920E-02 0.  1.
    10030    2    1    2    0    0  0.00000000000E+00  0.00000000000E+00 -0.37699820012E+03  0.23685254371E+04  0.23383295541E+04 0.  0.
        4    1    3    3  502    0  0.36236626348E+03 -0.31969708531E+03  0.88987517518E+03  0.10126178823E+04  0.12699999809E+01 0. -1.
       -4    1    3    3    0  502 -0.36236626348E+03  0.31969708531E+03 -0.12668733753E+04  0.13559075548E+04  0.12699999809E+01 0.  1.
</event>
<event>
 5   0  0.9083687E-06  0.2401181E+04  0.7818609E-02  0.8439062E-01
        1   -1    0    0  501    0  0.00000000000E+00  0.00000000000E+00  0.78849845766E+03  0.78849845767E+03  0.50400001928E-02 0. -1.
       -1   -1    0    0    0  501  0.00000000000E+00  0.00000000000E+00 -0.18280531184E+04  0.18280531184E+04  0.50400001928E-02 0.  1.
    10030    2    1    2    0    0  0.00000000000E+00  0.00000000000E+00 -0.10395546607E+04  0.26165515761E+04  0.24011805966E+04 0.  0.
        2    1    3    3  502    0 -0.22736007035E+03 -0.28878219510E+03 -0.17652402712E+04  0.18030976050E+04  0.25500000920E-02 0.  1.
       -2    1    3    3    0  502  0.22736007035E+03  0.28878219510E+03  0.72568561051E+03  0.81345397111E+03  0.25500000920E-02 0. -1.
</event>
<event>
 5   0  0.9038897E-06  0.2396130E+04  0.7818609E-02  0.8440954E-01
        1   -1    0    0  501    0  0.00000000000E+00  0.00000000000E+00  0.10260938977E+04  0.10260938977E+04  0.50400001928E-02 0.  1.
       -1   -1    0    0    0  501  0.00000000000E+00  0.00000000000E+00 -0.13988586102E+04  0.13988586102E+04  0.50400001928E-02 0. -1.
    10030    2    1    2    0    0  0.00000000000E+00  0.00000000000E+00 -0.37276471247E+03  0.24249525079E+04  0.23961304503E+04 0.  0.
        1    1    3    3  502    0 -0.37705109119E+02 -0.11969165811E+04 -0.22328056944E+03  0.12181482627E+04  0.50400001928E-02 0.  1.
       -1    1    3    3    0  502  0.37705109119E+02  0.11969165811E+04 -0.14948414303E+03  0.12068042452E+04  0.50400001928E-02 0. -1.
</event>
<event>
 5   0  0.9176817E-06  0.2405566E+04  0.7818609E-02  0.8437423E-01
       -1   -1    0    0    0  501  0.00000000000E+00  0.00000000000E+00  0.11129976308E+04  0.11129976308E+04  0.50400001928E-02 0. -1.
        1   -1    0    0  501    0  0.00000000000E+00  0.00000000000E+00 -0.12998117051E+04  0.12998117051E+04  0.50400001928E-02 0.  1.
    10030    2    1    2    0    0  0.00000000000E+00  0.00000000000E+00 -0.18681407430E+03  0.24128093360E+04  0.24055663353E+04 0.  0.
        3    1    3    3  502    0  0.69815759645E+03 -0.44535163200E+03 -0.96834379013E+03  0.12741474843E+04  0.10100000352E+00 0.  1.
       -3    1    3    3    0  502 -0.69815759645E+03  0.44535163200E+03  0.78152971583E+03  0.11386618517E+04  0.10100000352E+00 0. -1.
</event>
<event>
 5   0  0.2087882E-05  0.2413808E+04  0.7818609E-02  0.8434352E-01
       -2   -1    0    0    0  501  0.00000000000E+00  0.00000000000E+00  0.11565957454E+04  0.11565957454E+04  0.25500000920E-02 0. -1.
        2   -1    0    0  501    0  0.00000000000E+00  0.00000000000E+00 -0.12594000993E+04  0.12594000993E+04  0.25500000920E-02 0.  1.
    10030    2    1    2    0    0  0.00000000000E+00  0.00000000000E+00 -0.10280435389E+03  0.24159958446E+04  0.24138076117E+04 0.  0.
        2    1    3    3  502    0  0.11766044867E+04 -0.16853816966E+03 -0.26090883064E+03  0.12169127539E+04  0.25500000920E-02 0. -1.
       -2    1    3    3    0  502 -0.11766044867E+04  0.16853816966E+03  0.15810447675E+03  0.11990830907E+04  0.25500000920E-02 0.  1.
</event>
<event>
 5   0  0.9038897E-06  0.2401659E+04  0.7818609E-02  0.8438883E-01
        1   -1    0    0  501    0  0.00000000000E+00  0.00000000000E+00  0.15338968352E+04  0.15338968352E+04  0.50400001928E-02 0.  1.
       -1   -1    0    0    0  501  0.00000000000E+00  0.00000000000E+00 -0.94008367910E+03  0.94008367912E+03  0.50400001928E-02 0. -1.
    10030    2    1    2    0    0  0.00000000000E+00  0.00000000000E+00  0.59381315609E+03  0.24739805143E+04  0.24016589102E+04 0.  0.
        1    1    3    3  502    0  0.37173986060E+02 -0.32356618566E+03 -0.89371640657E+03  0.95121290842E+03  0.50400001928E-02 0. -1.
       -1    1    3    3    0  502 -0.37173986060E+02  0.32356618566E+03  0.14875295627E+04  0.15227676059E+04  0.50400001928E-02 0.  1.
</event>
<event>
 5   0  0.2048028E-05  0.2391695E+04  0.7818609E-02  0.8442619E-01
        2   -1    0    0  501    0  0.00000000000E+00  0.00000000000E+00  0.82030481288E+03  0.82030481288E+03  0.25500000920E-02 0. -1.
       -2   -1    0    0    0  501  0.00000000000E+00  0.00000000000E+00 -0.17433164371E+04  0.17433164371E+04  0.25500000920E-02 0.  1.
    10030    2    1    2    0    0  0.00000000000E+00  0.00000000000E+00 -0.92301162422E+03  0.25636212500E+04  0.23916946826E+04 0.  0.
        5    1    3    3  502    0  0.73200248868E+03  0.36471538273E+03 -0.13966808349E+04  0.16185130208E+04  0.46999998093E+01 0.  1.
       -5    1    3    3    0  502 -0.73200248868E+03 -0.36471538273E+03  0.47366921066E+03  0.94510822923E+03  0.46999998093E+01 0. -1.
</event>
<event>
 5   0  0.9176817E-06  0.2396772E+04  0.7818609E-02  0.8440713E-01
        1   -1    0    0  501    0  0.00000000000E+00  0.00000000000E+00  0.13105104813E+04  0.13105104813E+04  0.50400001928E-02 0. -1.
       -1   -1    0    0    0  501  0.00000000000E+00  0.00000000000E+00 -0.10958548155E+04  0.10958548155E+04  0.50400001928E-02 0.  1.
    10030    2    1    2    0    0  0.00000000000E+00  0.00000000000E+00  0.21465566583E+03  0.24063652967E+04  0.23967721808E+04 0.  0.
        3    1    3    3  502    0  0.63394498294E+02 -0.11609127899E+04 -0.18433765102E+03  0.11771651319E+04  0.10100000352E+00 0.  1.
       -3    1    3    3    0  502 -0.63394498294E+02  0.11609127899E+04  0.39899331685E+03  0.12292001648E+04  0.10100000352E+00 0. -1.
</event>
<event>
 5   0  0.2087882E-05  0.2385111E+04  0.7818609E-02  0.8445099E-01
       -2   -1    0    0    0  501  0.00000000000E+00  0.00000000000E+00  0.18910279837E+04  0.18910279838E+04  0.25500000920E-02 0.  1.
        2   -1    0    0  501    0  0.00000000000E+00  0.00000000000E+00 -0.75207144543E+03  0.75207144544E+03  0.25500000920E-02 0. -1.
    10030    2    1    2    0    0  0.00000000000E+00  0.00000000000E+00  0.11389565383E+04  0.26430994292E+04  0.23851106046E+04 0.  0.
        2    1    3    3  502    0  0.37190931802E+02 -0.26491250163E+02  0.18900589214E+04  0.18906103983E+04  0.25500000920E-02 0.  1.
       -2    1    3    3    0  502 -0.37190931802E+02  0.26491250163E+02 -0.75110238308E+03  0.75248903090E+03  0.25500000920E-02 0. -1.
</event>
<event>
 5   0  0.7233625E-06  0.2407585E+04  0.7818609E-02  0.8436669E-01
       -3   -1    0    0    0  501  0.00000000000E+00  0.00000000000E+00  0.93241360791E+03  0.93241361338E+03  0.10100000352E+00 0.  1.
        3   -1    0    0  501    0  0.00000000000E+00  0.00000000000E+00 -0.15541566283E+04  0.15541566316E+04  0.10100000352E+00 0. -1.
    10030    2    1    2    0    0  0.00000000000E+00  0.00000000000E+00 -0.62174302040E+03  0.24865702450E+04  0.24075853463E+04 0.  0.
        1    1    3    3  502    0  0.11338539609E+04 -0.17293140082E+03  0.66614354816E+02  0.11488984055E+04  0.50400001928E-02 0. -1.
       -1    1    3    3    0  502 -0.11338539609E+04  0.17293140082E+03 -0.68835737521E+03  0.13376718394E+04  0.50400001928E-02 0.  1.
</event>
<event>
 5   0  0.2048028E-05  0.2393527E+04  0.7818609E-02  0.8441931E-01
        2   -1    0    0  501    0  0.00000000000E+00  0.00000000000E+00  0.12783420551E+04  0.12783420551E+04  0.25500000920E-02 0. -1.
       -2   -1    0    0    0  501  0.00000000000E+00  0.00000000000E+00 -0.11203910263E+04  0.11203910263E+04  0.25500000920E-02 0.  1.
    10030    2    1    2    0    0  0.00000000000E+00  0.00000000000E+00  0.15795102879E+03  0.23987330814E+04  0.23935270770E+04 0.  0.
        5    1    3    3  502    0  0.18453102189E+03  0.10731148914E+04 -0.41868649428E+03  0.11665966478E+04  0.46999998093E+01 0.  1.
       -5    1    3    3    0  502 -0.18453102189E+03 -0.10731148914E+04  0.57663752307E+03  0.12321364336E+04  0.46999998093E+01 0. -1.
</event>
<event>
 5   0  0.9038897E-06  0.2288978E+04  0.7818609E-02  0.8482280E-01
       -1   -1    0    0    0  501  0.00000000000E+00  0.00000000000E+00  0.95856297723E+03  0.95856297724E+03  0.50400001928E-02 0.  1.
        1   -1    0    0  501    0  0.00000000000E+00  0.00000000000E+00 -0.13664775466E+04  0.13664775466E+04  0.50400001928E-02 0. -1.
    10030    2    1    2    0    0  0.00000000000E+00  0.00000000000E+00 -0.40791456939E+03  0.23250405239E+04  0.22889777504E+04 0.  0.
        1    1    3    3  502    0  0.10196352089E+04 -0.32767289897E+03 -0.61383587144E+03  0.12344310289E+04  0.50400001928E-02 0. -1.
       -1    1    3    3    0  502 -0.10196352089E+04  0.32767289897E+03  0.20592130204E+03  0.10906094950E+04  0.50400001928E-02 0.  1.
</event>
<event>
 5   0  0.8528103E-06  0.2399493E+04  0.7818609E-02  0.8439693E-01
       -1   -1    0    0    0  501  0.00000000000E+00  0.00000000000E+00  0.14663831831E+04  0.14663831831E+04  0.50400001928E-02 0.  1.
        1   -1    0    0  501    0  0.00000000000E+00  0.00000000000E+00 -0.98159319951E+03  0.98159319952E+03  0.50400001928E-02 0. -1.
    10030    2    1    2    0    0  0.00000000000E+00  0.00000000000E+00  0.48478998361E+03  0.24479763827E+04  0.23994930802E+04 0.  0.
        4    1    3    3  502    0 -0.53646661866E+03 -0.33719568526E+02 -0.85187089764E+03  0.10072830195E+04  0.12699999809E+01 0. -1.
       -4    1    3    3    0  502  0.53646661866E+03  0.33719568526E+02  0.13366608813E+04  0.14406933631E+04  0.12699999809E+01 0.  1.
</event>
<event>
 5   0  0.2122194E-05  0.2370936E+04  0.7818609E-02  0.8450465E-01
       -2   -1    0    0    0  501  0.00000000000E+00  0.00000000000E+00  0.10365790879E+04  0.10365790879E+04  0.25500000920E-02 0.  1.
        2   -1    0    0  501    0  0.00000000000E+00  0.00000000000E+00 -0.13557427876E+04  0.13557427876E+04  0.25500000920E-02 0. -1.
    10030    2    1    2    0    0  0.00000000000E+00  0.00000000000E+00 -0.31916369974E+03  0.23923218755E+04  0.23709362051E+04 0.  0.
        3    1    3    3  502    0 -0.94790877242E+03 -0.38742245770E+03  0.44305517276E+03  0.11157621153E+04  0.10100000352E+00 0.  1.
       -3    1    3    3    0  502  0.94790877242E+03  0.38742245770E+03 -0.76221887250E+03  0.12765597602E+04  0.10100000352E+00 0. -1.
</event>
<event>
 5   0  0.8898848E-06  0.2426214E+04  0.7818609E-02  0.8429754E-01
        1   -1    0    0  501    0  0.00000000000E+00  0.00000000000E+00  0.19274125175E+04  0.19274125175E+04  0.50400001928E-02 0. -1.
       -1   -1    0    0    0  501  0.00000000000E+00  0.00000000000E+00 -0.76352576724E+03  0.76352576726E+03  0.50400001928E-02 0.  1.
    10030    2    1    2    0    0  0.00000000000E+00  0.00000000000E+00  0.11638867503E+04  0.26909382848E+04  0.24262144351E+04 0.  0.
        5    1    3    3  502    0 -0.11605103065E+04  0.14910685483E+03  0.22669910496E+03  0.11918186103E+04  0.46999998093E+01 0.  1.
       -5    1    3    3    0  502  0.11605103065E+04 -0.14910685483E+03  0.93718764531E+03  0.14991196744E+04  0.46999998093E+01 0. -1.
</event>
<event>
 5   0  0.2080257E-05  0.2392216E+04  0.7818609E-02  0.8442424E-01
        2   -1    0    0  501    0  0.00000000000E+00  0.00000000000E+00  0.13483696340E+04  0.13483696340E+04  0.25500000920E-02 0.  1.
       -2   -1    0    0    0  501  0.00000000000E+00  0.00000000000E+00 -0.10610399213E+04  0.10610399213E+04  0.25500000920E-02 0. -1.
    10030    2    1    2    0    0  0.00000000000E+00  0.00000000000E+00  0.28732971269E+03  0.24094095553E+04  0.23922157180E+04 0.  0.
        1    1    3    3  502    0  0.11834478301E+04  0.11017088166E+02 -0.30796364964E+02  0.11838997250E+04  0.50400001928E-02 0. -1.
       -1    1    3    3    0  502 -0.11834478301E+04 -0.11017088166E+02  0.31812607766E+03  0.12255098303E+04  0.50400001928E-02 0.  1.
</event>
<event>
 5   0  0.9038897E-06  0.2394739E+04  0.7818609E-02  0.8441476E-01
        1   -1    0    0  501    0  0.00000000000E+00  0.00000000000E+00  0.23430941088E+04  0.23430941088E+04  0.50400001928E-02 0. -1.
       -1   -1    0    0    0  501  0.00000000000E+00  0.00000000000E+00 -0.61188056091E+03  0.61188056093E+03  0.50400001928E-02 0.  1.
    10030    2    1    2    0    0  0.00000000000E+00  0.00000000000E+00  0.17312135479E+04  0.29549746698E+04  0.23947390151E+04 0.  0.
        1    1    3    3  502    0  0.70503784130E+03 -0.96983223829E+02  0.20537930735E+04  0.21736030208E+04  0.50400001928E-02 0. -1.
       -1    1    3    3    0  502 -0.70503784130E+03  0.96983223829E+02 -0.32257952561E+03  0.78137164892E+03  0.50400001928E-02 0.  1.
</event>
<event>
 5   0  0.2087882E-05  0.2410124E+04  0.7818609E-02  0.8435723E-01
       -2   -1    0    0    0  501  0.00000000000E+00  0.00000000000E+00  0.99789274318E+03  0.99789274319E+03  0.25500000920E-02 0. -1.
        2   -1    0    0  501    0  0.00000000000E+00  0.00000000000E+00 -0.14552408450E+04  0.14552408450E+04  0.25500000920E-02 0.  1.
    10030    2    1    2    0    0  0.00000000000E+00  0.00000000000E+00 -0.45734810178E+03  0.24531335881E+04  0.24101238796E+04 0.  0.
        2    1    3    3  502    0 -0.14137685245E+03 -0.36508638249E+03  0.93135666939E+03  0.10102973457E+04  0.25500000920E-02 0. -1.
       -2    1    3    3    0  502  0.14137685245E+03  0.36508638249E+03 -0.13887047712E+04  0.14428362425E+04  0.25500000920E-02 0.  1.
</event>
<event>
 5   0  0.9176817E-06  0.2396836E+04  0.7818609E-02  0.8440689E-01
        1   -1    0    0  501    0  0.00000000000E+00  0.00000000000E+00  0.16376293490E+04  0.16376293490E+04  0.50400001928E-02 0. -1.
       -1   -1    0    0    0  501  0.00000000000E+00  0.00000000000E+00 -0.87700311029E+03  0.87700311031E+03  0.50400001928E-02 0.  1.
    10030    2    1    2    0    0  0.00000000000E+00  0.00000000000E+00  0.76062623873E+03  0.25146324593E+04  0.23968362753E+04 0.  0.
        3    1    3    3  502    0 -0.56540385163E+03  0.11539001227E+02 -0.72820904565E+03  0.92201035155E+03  0.10100000352E+00 0.  1.
       -3    1    3    3    0  502  0.56540385163E+03 -0.11539001227E+02  0.14888352844E+04  0.15926221078E+04  0.10100000352E+00 0. -1.
</event>
<event>
 5   0  0.2025353E-05  0.2414833E+04  0.7818609E-02  0.8433971E-01
        2   -1    0    0  501    0  0.00000000000E+00  0.00000000000E+00  0.22972556641E+04  0.22972556641E+04  0.25500000920E-02 0.  1.
       -2   -1    0    0    0  501  0.00000000000E+00  0.00000000000E+00 -0.63460703877E+03  0.63460703877E+03  0.25500000920E-02 0. -1.
    10030    2    1    2    0    0  0.00000000000E+00  0.00000000000E+00  0.16626486253E+04  0.29318627028E+04  0.24148330081E+04 0.  0.
        4    1    3    3  502    0  0.10604423163E+03 -0.10803416020E+04  0.14731599793E+04  0.18299140126E+04  0.12699999809E+01 0.  1.
       -4    1    3    3    0  502 -0.10604423163E+03  0.10803416020E+04  0.18948864604E+03  0.11019486903E+04  0.12699999809E+01 0. -1.
</event>
<event>
 5   0  0.2080257E-05  0.2428540E+04  0.7818609E-02  0.8428895E-01
        2   -1    0    0  501    0  0.00000000000E+00  0.00000000000E+00  0.11726600361E+04  0.11726600361E+04  0.25500000920E-02 0. -1.
       -2   -1    0    0    0  501  0.00000000000E+00  0.00000000000E+00 -0.12573569166E+04  0.12573569166E+04  0.25500000920E-02 0.  1.
    10030    2    1    2    0    0  0.00000000000E+00  0.00000000000E+00 -0.84696880491E+02  0.24300169527E+04  0.24285404730E+04 0.  0.
        1    1    3    3  502    0 -0.61506229577E+03 -0.42404159323E+03  0.91548967711E+03  0.11816235650E+04  0.50400001928E-02 0. -1.
       -1    1    3    3    0  502  0.61506229577E+03  0.42404159323E+03 -0.10001865576E+04  0.12483933877E+04  0.50400001928E-02 0.  1.
</event>
<event>
 5   0  0.9176817E-06  0.2397008E+04  0.7818609E-02  0.8440625E-01
       -1   -1    0    0    0  501  0.00000000000E+00  0.00000000000E+00  0.51305072450E+03  0.51305072453E+03  0.50400001928E-02 0.  1.
        1   -1    0    0  501    0  0.00000000000E+00  0.00000000000E+00 -0.27997451362E+04  0.27997451362E+04  0.50400001928E-02 0. -1.
    10030    2    1    2    0    0  0.00000000000E+00  0.00000000000E+00 -0.22866944117E+04  0.33127958607E+04  0.23970075266E+04 0.  0.
        3    1    3    3  502    0 -0.43555130716E+03 -0.99628433453E+03 -0.18400506944E+04  0.21373053092E+04  0.10100000352E+00 0. -1.
       -3    1    3    3    0  502  0.43555130716E+03  0.99628433453E+03 -0.44664371726E+03  0.11754905515E+04  0.10100000352E+00 0.  1.
</event>
<event>
 5   0  0.8898848E-06  0.2373018E+04  0.7818609E-02  0.8449675E-01
       -1   -1    0    0    0  501  0.00000000000E+00  0.00000000000E+00  0.10382595185E+04  0.10382595185E+04  0.50400001928E-02 0.  1.
        1   -1    0    0  501    0  0.00000000000E+00  0.00000000000E+00 -0.13559259555E+04  0.13559259555E+04  0.50400001928E-02 0. -1.
    10030    2    1    2    0    0  0.00000000000E+00  0.00000000000E+00 -0.31766643698E+03  0.23941854739E+04  0.23730175133E+04 0.  0.
        5    1    3    3  502    0 -0.34650993295E+03  0.45350241779E+03  0.89066083845E+03  0.10578432756E+04  0.46999998093E+01 0.  1.
       -5    1    3    3    0  502  0.34650993295E+03 -0.45350241779E+03 -0.12083272754E+04  0.13363421984E+04  0.46999998093E+01 0. -1.
</event>
<event>
 5   0  0.9176817E-06  0.2388215E+04  0.7818609E-02  0.8443929E-01
        1   -1    0    0  501    0  0.00000000000E+00  0.00000000000E+00  0.11874128709E+04  0.11874128709E+04  0.50400001928E-02 0.  1.
       -1   -1    0    0    0  501  0.00000000000E+00  0.00000000000E+00 -0.12008400179E+04  0.12008400179E+04  0.50400001928E-02 0. -1.
    10030    2    1    2    0    0  0.00000000000E+00  0.00000000000E+00 -0.13427147006E+02  0.23882528888E+04  0.23882151437E+04 0.  0.
        3    1    3    3  502    0  0.23127134088E+03  0.51712935024E+03 -0.10579122289E+04  0.12000364546E+04  0.10100000352E+00 0. -1.
       -3    1    3    3    0  502 -0.23127134088E+03 -0.51712935024E+03  0.10444850819E+04  0.11882164342E+04  0.10100000352E+00 0.  1.
</event>
<event>
 5   0  0.8898848E-06  0.2451755E+04  0.7818609E-02  0.8420377E-01
       -1   -1    0    0    0  501  0.00000000000E+00  0.00000000000E+00  0.78483988684E+03  0.78483988686E+03  0.50400001928E-02 0. -1.
        1   -1    0    0  501    0  0.00000000000E+00  0.00000000000E+00 -0.19147545955E+04  0.19147545955E+04  0.50400001928E-02 0.  1.
    10030    2    1    2    0    0  0.00000000000E+00  0.00000000000E+00 -0.11299147086E+04  0.26995944823E+04  0.24517551102E+04 0.  0.
        5    1    3    3  502    0  0.81558178178E+03 -0.44934234677E+03  0.31292802029E+03  0.98235850037E+03  0.46999998093E+01 0. -1.
       -5    1    3    3    0  502 -0.81558178178E+03  0.44934234677E+03 -0.14428427289E+04  0.17172359820E+04  0.46999998093E+01 0.  1.
</event>
<event>
 5   0  0.2087882E-05  0.2422491E+04  0.7818609E-02  0.8431131E-01
        2   -1    0    0  501    0  0.00000000000E+00  0.00000000000E+00  0.18948521042E+04  0.18948521042E+04  0.25500000920E-02 0. -1.
       -2   -1    0    0    0  501  0.00000000000E+00  0.00000000000E+00 -0.77426392172E+03  0.77426392173E+03  0.25500000920E-02 0.  1.
    10030    2    1    2    0    0  0.00000000000E+00  0.00000000000E+00  0.11205881825E+04  0.26691160260E+04  0.24224909670E+04 0.  0.
        2    1    3    3  502    0 -0.46748405506E+03  0.64774078178E+03 -0.44289815122E+03  0.91338285208E+03  0.25500000920E-02 0.  1.
       -2    1    3    3    0  502  0.46748405506E+03 -0.64774078178E+03  0.15634863337E+04  0.17557331739E+04  0.25500000920E-02 0. -1.
</event>
<event>
 5   0  0.9176817E-06  0.2404911E+04  0.7818609E-02  0.8437667E-01
       -1   -1    0    0    0  501  0.00000000000E+00  0.00000000000E+00  0.89324244045E+03  0.89324244047E+03  0.50400001928E-02 0.  1.
        1   -1    0    0  501    0  0.00000000000E+00  0.00000000000E+00 -0.16187085779E+04  0.16187085779E+04  0.50400001928E-02 0. -1.
    10030    2    1    2    0    0  0.00000000000E+00  0.00000000000E+00 -0.72546613742E+03  0.25119510184E+04  0.24049109759E+04 0.  0.
        3    1    3    3  502    0 -0.46293240148E+03 -0.86833787571E+03  0.35909902863E+03  0.10475061801E+04  0.10100000352E+00 0.  1.
       -3    1    3    3    0  502  0.46293240148E+03  0.86833787571E+03 -0.10845651660E+04  0.14644448383E+04  0.10100000352E+00 0. -1.
</event>
<event>
 5   0  0.2080257E-05  0.2374777E+04  0.7818609E-02  0.8449008E-01
       -2   -1    0    0    0  501  0.00000000000E+00  0.00000000000E+00  0.85434401826E+03  0.85434401826E+03  0.25500000920E-02 0.  1.
        2   -1    0    0  501    0  0.00000000000E+00  0.00000000000E+00 -0.16502613776E+04  0.16502613776E+04  0.25500000920E-02 0. -1.
    10030    2    1    2    0    0  0.00000000000E+00  0.00000000000E+00 -0.79591735936E+03  0.25046053959E+04  0.23747765676E+04 0.  0.
        1    1    3    3  502    0  0.61434260941E+03  0.68845322617E+02 -0.14671538959E+04  0.15920732001E+04  0.50400001928E-02 0. -1.
       -1    1    3    3    0  502 -0.61434260941E+03 -0.68845322617E+02  0.67123653659E+03  0.91253219574E+03  0.50400001928E-02 0.  1.
</event>
<event>
 5   0  0.2025353E-05  0.2396533E+04  0.7818609E-02  0.8440803E-01
        2   -1    0    0  501    0  0.00000000000E+00  0.00000000000E+00  0.10870979983E+04  0.10870979983E+04  0.25500000920E-02 0. -1.
       -2   -1    0    0    0  501  0.00000000000E+00  0.00000000000E+00 -0.13208032313E+04  0.13208032313E+04  0.25500000920E-02 0.  1.
    10030    2    1    2    0    0  0.00000000000E+00  0.00000000000E+00 -0.23370523294E+03  0.24079012296E+04  0.23965329532E+04 0.  0.
        4    1    3    3  502    0 -0.26420955369E+03 -0.11505763516E+04  0.89568550503E+02  0.11839158616E+04  0.12699999809E+01 0. -1.
       -4    1    3    3    0  502  0.26420955369E+03  0.11505763516E+04 -0.32327378344E+03  0.12239853680E+04  0.12699999809E+01 0.  1.
</event>
<event>
 5   0  0.9176817E-06  0.2303516E+04  0.7818609E-02  0.8476536E-01
       -1   -1    0    0    0  501  0.00000000000E+00  0.00000000000E+00  0.18315672287E+04  0.18315672288E+04  0.50400001928E-02 0. -1.
        1   -1    0    0  501    0  0.00000000000E+00  0.00000000000E+00 -0.72426870197E+03  0.72426870199E+03  0.50400001928E-02 0.  1.
    10030    2    1    2    0    0  0.00000000000E+00  0.00000000000E+00  0.11072985268E+04  0.25558359307E+04  0.23035162855E+04 0.  0.
        3    1    3    3  502    0 -0.20152427110E+03  0.68249832225E+03  0.15584576471E+04  0.17132443608E+04  0.10100000352E+00 0. -1.
       -3    1    3    3    0  502  0.20152427110E+03 -0.68249832225E+03 -0.45115912033E+03  0.84259156997E+03  0.10100000352E+00 0.  1.
</event>
<event>
 5   0  0.2122194E-05  0.2406020E+04  0.7818609E-02  0.8437253E-01
        2   -1    0    0  501    0  0.00000000000E+00  0.00000000000E+00  0.15007942107E+04  0.15007942107E+04  0.25500000920E-02 0. -1.
       -2   -1    0    0    0  501  0.00000000000E+00  0.00000000000E+00 -0.96431158547E+03  0.96431158547E+03  0.25500000920E-02 0.  1.
    10030    2    1    2    0    0  0.00000000000E+00  0.00000000000E+00  0.53648262521E+03  0.24651057962E+04  0.24060201535E+04 0.  0.
        3    1    3    3  502    0  0.11577991509E+04  0.31925793680E+03  0.19719336799E+03  0.12170906863E+04  0.10100000352E+00 0. -1.
       -3    1    3    3    0  502 -0.11577991509E+04 -0.31925793680E+03  0.33928925723E+03  0.12480151098E+04  0.10100000352E+00 0.  1.
</event>
<event>
 5   0  0.2080257E-05  0.2404920E+04  0.7818609E-02  0.8437664E-01
        2   -1    0    0  501    0  0.00000000000E+00  0.00000000000E+00  0.56596690671E+03  0.56596690671E+03  0.25500000920E-02 0.  1.
       -2   -1    0    0    0  501  0.00000000000E+00  0.00000000000E+00 -0.25547604226E+04  0.25547604226E+04  0.25500000920E-02 0. -1.
    10030    2    1    2    0    0  0.00000000000E+00  0.00000000000E+00 -0.19887935159E+04  0.31207273293E+04  0.24049198355E+04 0.  0.
        1    1    3    3  502    0  0.43502644446E+03  0.14557818339E+03 -0.24367482824E+04  0.24795530256E+04  0.50400001928E-02 0. -1.
       -1    1    3    3    0  502 -0.43502644446E+03 -0.14557818339E+03  0.44795476653E+03  0.64117430371E+03  0.50400001928E-02 0.  1.
</event>
<event>
 5   0  0.9083687E-06  0.2384915E+04  0.7818609E-02  0.8445173E-01
       -1   -1    0    0    0  501  0.00000000000E+00  0.00000000000E+00  0.14449762195E+04  0.14449762195E+04  0.50400001928E-02 0.  1.
        1   -1    0    0  501    0  0.00000000000E+00  0.00000000000E+00 -0.98406783506E+03  0.98406783507E+03  0.50400001928E-02 0. -1.
    10030    2    1    2    0    0  0.00000000000E+00  0.00000000000E+00  0.46090838441E+03  0.24290440545E+04  0.23849147742E+04 0.  0.
        2    1    3    3  502    0  0.11111454733E+04  0.10655169830E+03  0.65768829948E+03  0.12955892199E+04  0.25500000920E-02 0.  1.
       -2    1    3    3    0  502 -0.11111454733E+04 -0.10655169830E+03 -0.19677991507E+03  0.11334548347E+04  0.25500000920E-02 0. -1.
</event>
<event>
 5   0  0.8898848E-06  0.2404719E+04  0.7818609E-02  0.8437739E-01
       -1   -1    0    0    0  501  0.00000000000E+00  0.00000000000E+00  0.11820972103E+04  0.11820972103E+04  0.50400001928E-02 0. -1.
        1   -1    0    0  501    0  0.00000000000E+00  0.00000000000E+00 -0.12229695661E+04  0.12229695661E+04  0.50400001928E-02 0.  1.
    10030    2    1    2    0    0  0.00000000000E+00  0.00000000000E+00 -0.40872355745E+02  0.24050667764E+04  0.24047194534E+04 0.  0.
        5    1    3    3  502    0 -0.91543401015E+03 -0.85199980869E+00  0.75918052668E+03  0.11892843709E+04  0.46999998093E+01 0. -1.
       -5    1    3    3    0  502  0.91543401015E+03  0.85199980869E+00 -0.80005288243E+03  0.12157824055E+04  0.46999998093E+01 0.  1.
</event>
<event>
 5   0  0.9038897E-06  0.2405181E+04  0.7818609E-02  0.8437566E-01
       -1   -1    0    0    0  501  0.00000000000E+00  0.00000000000E+00  0.87130429954E+03  0.87130429956E+03  0.50400001928E-02 0. -1.
        1   -1    0    0  501    0  0.00000000000E+00  0.00000000000E+00 -0.16598383153E+04  0.16598383153E+04  0.50400001928E-02 0.  1.
    10030    2    1    2    0    0  0.00000000000E+00  0.00000000000E+00 -0.78853401577E+03  0.25311426149E+04  0.24051812910E+04 0.  0.
        1    1    3    3  502    0 -0.72830410835E+02 -0.51430936881E+03 -0.15356920312E+04  0.16211626724E+04  0.50400001928E-02 0.  1.
       -1    1    3    3    0  502  0.72830410835E+02  0.51430936881E+03  0.74715801547E+03  0.90997994247E+03  0.50400001928E-02 0. -1.
</event>
<event>
 5   0  0.2048028E-05  0.2251578E+04  0.7818609E-02  0.8497262E-01
       -2   -1    0    0    0  501  0.00000000000E+00  0.00000000000E+00  0.18538755400E+04  0.18538755400E+04  0.25500000920E-02 0. -1.
        2   -1    0    0  501    0  0.00000000000E+00  0.00000000000E+00 -0.68364934936E+03  0.68364934936E+03  0.25500000920E-02 0.  1.
    10030    2    1    2    0    0  0.00000000000E+00  0.00000000000E+00  0.11702261907E+04  0.25375248894E+04  0.22515779416E+04 0.  0.
        5    1    3    3  502    0  0.72634766169E+03  0.14608768804E+03 -0.37015102818E+03  0.82822485588E+03  0.46999998093E+01 0.  1.
       -5    1    3    3    0  502 -0.72634766169E+03 -0.14608768804E+03  0.15403772189E+04  0.17093000335E+04  0.46999998093E+01 0. -1.
</event>
<event>
 5   0  0.2122194E-05  0.2392197E+04  0.7818609E-02  0.8442431E-01
        2   -1    0    0  501    0  0.00000000000E+00  0.00000000000E+00  0.16397837943E+04  0.16397837943E+04  0.25500000920E-02 0. -1.
       -2   -1    0    0    0  501  0.00000000000E+00  0.00000000000E+00 -0.87246387742E+03  0.87246387742E+03  0.25500000920E-02 0.  1.
    10030    2    1    2    0    0  0.00000000000E+00  0.00000000000E+00  0.76731991687E+03  0.25122476717E+04  0.23921974227E+04 0.  0.
        3    1    3    3  502    0  0.41196340828E+03  0.10115254535E+04 -0.12841062641E+03  0.10997212793E+04  0.10100000352E+00 0.  1.
       -3    1    3    3    0  502 -0.41196340828E+03 -0.10115254535E+04  0.89573054328E+03  0.14125263924E+04  0.10100000352E+00 0. -1.
</event>
<event>
 5   0  0.2025353E-05  0.2386526E+04  0.7818609E-02  0.8444565E-01
        2   -1    0    0  501    0  0.00000000000E+00  0.00000000000E+00  0.12081230364E+04  0.12081230364E+04  0.25500000920E-02 0. -1.
       -2   -1    0    0    0  501  0.00000000000E+00  0.00000000000E+00 -0.11785859490E+04  0.11785859490E+04  0.25500000920E-02 0.  1.
    10030    2    1    2    0    0  0.00000000000E+00  0.00000000000E+00  0.29537087437E+02  0.23867089855E+04  0.23865262081E+04 0.  0.
        4    1    3    3  502    0  0.57014729084E+03 -0.16036674047E+03 -0.10212112698E+04  0.11805335638E+04  0.12699999809E+01 0.  1.
       -4    1    3    3    0  502 -0.57014729084E+03  0.16036674047E+03  0.10507483573E+04  0.12061754217E+04  0.12699999809E+01 0. -1.
</event>
<event>
 5   0  0.2122194E-05  0.2346708E+04  0.7818609E-02  0.8459729E-01
        2   -1    0    0  501    0  0.00000000000E+00  0.00000000000E+00  0.12705922070E+04  0.12705922070E+04  0.25500000920E-02 0.  1.
       -2   -1    0    0    0  501  0.00000000000E+00  0.00000000000E+00 -0.10835572319E+04  0.10835572319E+04  0.25500000920E-02 0. -1.
    10030    2    1    2    0    0  0.00000000000E+00  0.00000000000E+00  0.18703497508E+03  0.23541494389E+04  0.23467078000E+04 0.  0.
        3    1    3    3  502    0  0.10644034464E+04 -0.41225996095E+03 -0.17909117520E+03  0.11554162157E+04  0.10100000352E+00 0. -1.
       -3    1    3    3    0  502 -0.10644034464E+04  0.41225996095E+03  0.36612615029E+03  0.11987332232E+04  0.10100000352E+00 0.  1.
</event>
<event>
 5   0  0.8898848E-06  0.2394187E+04  0.7818609E-02  0.8441683E-01
       -1   -1    0    0    0  501  0.00000000000E+00  0.00000000000E+00  0.28234404671E+04  0.28234404671E+04  0.50400001928E-02 0. -1.
        1   -1    0    0  501    0  0.00000000000E+00  0.00000000000E+00 -0.50754836856E+03  0.50754836859E+03  0.50400001928E-02 0.  1.
    10030    2    1    2    0    0  0.00000000000E+00  0.00000000000E+00  0.23158920986E+04  0.33309888357E+04  0.23941867955E+04 0.  0.
        5    1    3    3  502    0  0.83558189137E+03 -0.12660657641E+03 -0.21598652032E+02  0.84540813466E+03  0.46999998093E+01 0.  1.
       -5    1    3    3    0  502 -0.83558189137E+03  0.12660657641E+03  0.23374907506E+04  0.24855807011E+04  0.46999998093E+01 0. -1.
</event>
<event>
 5   0  0.8528103E-06  0.2293038E+04  0.7818609E-02  0.8480671E-01
        1   -1    0    0  501    0  0.00000000000E+00  0.00000000000E+00  0.16434095002E+04  0.16434095002E+04  0.50400001928E-02 0.  1.
       -1   -1    0    0    0  501  0.00000000000E+00  0.00000000000E+00 -0.79986535693E+03  0.79986535695E+03  0.50400001928E-02 0. -1.
    10030    2    1    2    0    0  0.00000000000E+00  0.00000000000E+00  0.84354414324E+03  0.24432748571E+04  0.22930384440E+04 0.  0.
        4    1    3    3  502    0  0.10563224157E+04  0.15593902008E+03  0.86670826256E+03  0.13752522856E+04  0.12699999809E+01 0.  1.
       -4    1    3    3    0  502 -0.10563224157E+04 -0.15593902008E+03 -0.23164119326E+02  0.10680225715E+04  0.12699999809E+01 0. -1.
</event>
<event>
 5   0  0.8898848E-06  0.2403788E+04  0.7818609E-02  0.8438087E-01
       -1   -1    0    0    0  501  0.00000000000E+00  0.00000000000E+00  0.12277393192E+04  0.12277393192E+04  0.50400001928E-02 0.  1.
        1   -1    0    0  501    0  0.00000000000E+00  0.00000000000E+00 -0.11765932077E+04  0.11765932077E+04  0.50400001928E-02 0. -1.
    10030    2    1    2    0    0  0.00000000000E+00  0.00000000000E+00  0.51146111552E+02  0.24043325269E+04  0.24037884631E+04 0.  0.
        5    1    3    3  502    0 -0.49674328690E+03  0.18582393339E+03 -0.10532085967E+04  0.11792179041E+04  0.46999998093E+01 0. -1.
       -5    1    3    3    0  502  0.49674328690E+03 -0.18582393339E+03  0.11043547082E+04  0.12251146228E+04  0.46999998093E+01 0.  1.
</event>
<event>
 5   0  0.8528103E-06  0.2387271E+04  0.7818609E-02  0.8444285E-01
       -1   -1    0    0    0  501  0.00000000000E+00  0.00000000000E+00  0.66621585731E+03  0.66621585733E+03  0.50400001928E-02 0.  1.
        1   -1    0    0  501    0  0.00000000000E+00  0.00000000000E+00 -0.21385940931E+04  0.21385940931E+04  0.50400001928E-02 0. -1.
    10030    2    1    2    0    0  0.00000000000E+00  0.00000000000E+00 -0.14723782358E+04  0.28048099504E+04  0.23872706568E+04 0.  0.
        4    1    3    3  502    0  0.21379623592E+03 -0.28093222460E+03  0.60347366732E+03  0.69915221902E+03  0.12699999809E+01 0.  1.
       -4    1    3    3    0  502 -0.21379623592E+03  0.28093222460E+03 -0.20758519031E+04  0.21056577314E+04  0.12699999809E+01 0. -1.
</event>
<event>
 5   0  0.2122194E-05  0.2394646E+04  0.7818609E-02  0.8441511E-01
       -2   -1    0    0    0  501  0.00000000000E+00  0.00000000000E+00  0.74118088258E+03  0.74118088259E+03  0.25500000920E-02 0.  1.
        2   -1    0    0  501    0  0.00000000000E+00  0.00000000000E+00 -0.19341868524E+04  0.19341868524E+04  0.25500000920E-02 0. -1.
    10030    2    1    2    0    0  0.00000000000E+00  0.00000000000E+00 -0.11930059698E+04  0.26753677350E+04  0.23946459599E+04 0.  0.
        3    1    3    3  502    0  0.26017094688E+03 -0.46999146099E+03 -0.17919908797E+04  0.18707785059E+04  0.10100000352E+00 0.  1.
       -3    1    3    3    0  502 -0.26017094688E+03  0.46999146099E+03  0.59898490992E+03  0.80458922906E+03  0.10100000352E+00 0. -1.
</event>
<event>
 5   0  0.9176817E-06  0.2397090E+04  0.7818609E-02  0.8440594E-01
       -1   -1    0    0    0  501  0.00000000000E+00  0.00000000000E+00  0.97532601285E+03  0.97532601286E+03  0.50400001928E-02 0.  1.
        1   -1    0    0  501    0  0.00000000000E+00  0.00000000000E+00 -0.14728511635E+04  0.14728511635E+04  0.50400001928E-02 0. -1.
    10030    2    1    2    0    0  0.00000000000E+00  0.00000000000E+00 -0.49752515067E+03  0.24481771764E+04  0.23970899465E+04 0.  0.
        3    1    3    3  502    0 -0.68425212099E+03  0.52244772251E+03 -0.11004153622E+04  0.13971637582E+04  0.10100000352E+00 0. -1.
       -3    1    3    3    0  502  0.68425212099E+03 -0.52244772251E+03  0.60289021149E+03  0.10510134182E+04  0.10100000352E+00 0.  1.
</event>
<event>
 5   0  0.2048028E-05  0.2399007E+04  0.7818609E-02  0.8439875E-01
        2   -1    0    0  501    0  0.00000000000E+00  0.00000000000E+00  0.16027758307E+04  0.16027758307E+04  0.25500000920E-02 0.  1.
       -2   -1    0    0    0  501  0.00000000000E+00  0.00000000000E+00 -0.89769809363E+03  0.89769809363E+03  0.25500000920E-02 0. -1.
    10030    2    1    2    0    0  0.00000000000E+00  0.00000000000E+00  0.70507773704E+03  0.25004739243E+04  0.23990071344E+04 0.  0.
        5    1    3    3  502    0 -0.19277061623E+03 -0.95629897409E+03 -0.37491941430E+03  0.10451099921E+04  0.46999998093E+01 0. -1.
       -5    1    3    3    0  502  0.19277061623E+03  0.95629897409E+03  0.10799971513E+04  0.14553639322E+04  0.46999998093E+01 0.  1.
</event>
<event>
 5   0  0.2122194E-05  0.2417684E+04  0.7818609E-02  0.8432913E-01
       -2   -1    0    0    0  501  0.00000000000E+00  0.00000000000E+00  0.94020206309E+03  0.94020206309E+03  0.25500000920E-02 0.  1.
        2   -1    0    0  501    0  0.00000000000E+00  0.00000000000E+00 -0.15542390691E+04  0.15542390691E+04  0.25500000920E-02 0. -1.
    10030    2    1    2    0    0  0.00000000000E+00  0.00000000000E+00 -0.61403700606E+03  0.24944411322E+04  0.24176838332E+04 0.  0.
        3    1    3    3  502    0  0.10731361512E+04  0.35150349621E+02  0.26598928452E+03  0.11061677340E+04  0.10100000352E+00 0.  1.
       -3    1    3    3    0  502 -0.10731361512E+04 -0.35150349621E+02 -0.88002629058E+03  0.13882733983E+04  0.10100000352E+00 0. -1.
</event>
<event>
 5   0  0.9176817E-06  0.2383560E+04  0.7818609E-02  0.8445684E-01
       -1   -1    0    0    0  501  0.00000000000E+00  0.00000000000E+00  0.12000019811E+04  0.12000019811E+04  0.50400001928E-02 0.  1.
        1   -1    0    0  501    0  0.00000000000E+00  0.00000000000E+00 -0.11836144264E+04  0.11836144264E+04  0.50400001928E-02 0. -1.
    10030    2    1    2    0    0  0.00000000000E+00  0.00000000000E+00  0.16387554676E+02  0.23836164075E+04  0.23835600740E+04 0.  0.
        3    1    3    3  502    0 -0.54072188943E+03 -0.32184756236E+03  0.10203311456E+04  0.11987667296E+04  0.10100000352E+00 0.  1.
       -3    1    3    3    0  502  0.54072188943E+03  0.32184756236E+03 -0.10039435910E+04  0.11848496779E+04  0.10100000352E+00 0. -1.
</event>
<event>
 5   0  0.2025353E-05  0.2395918E+04  0.7818609E-02  0.8441033E-01
        2   -1    0    0  501    0  0.00000000000E+00  0.00000000000E+00  0.13418500183E+04  0.13418500183E+04  0.25500000920E-02 0. -1.
       -2   -1    0    0    0  501  0.00000000000E+00  0.00000000000E+00 -0.10694980996E+04  0.10694980996E+04  0.25500000920E-02 0.  1.
    10030    2    1    2    0    0  0.00000000000E+00  0.00000000000E+00  0.27235191872E+03  0.24113481178E+04  0.23959182327E+04 0.  0.
        4    1    3    3  502    0  0.92253165664E+03  0.60638281922E+03 -0.33194273165E+03  0.11528019652E+04  0.12699999809E+01 0.  1.
       -4    1    3    3    0  502 -0.92253165664E+03 -0.60638281922E+03  0.60429465037E+03  0.12585461526E+04  0.12699999809E+01 0. -1.
</event>
<event>
 5   0  0.2048028E-05  0.2437876E+04  0.7818609E-02  0.8425458E-01
       -2   -1    0    0    0  501  0.00000000000E+00  0.00000000000E+00  0.80050035283E+03  0.80050035284E+03  0.25500000920E-02 0.  1.
        2   -1    0    0  501    0  0.00000000000E+00  0.00000000000E+00 -0.18561008447E+04  0.18561008447E+04  0.25500000920E-02 0. -1.
    10030    2    1    2    0    0  0.00000000000E+00  0.00000000000E+00 -0.10556004919E+04  0.26566011976E+04  0.24378756171E+04 0.  0.
        5    1    3    3  502    0 -0.24977097030E+03 -0.42563394262E+03  0.68675461960E+03  0.84569722020E+03  0.46999998093E+01 0.  1.
       -5    1    3    3    0  502  0.24977097030E+03  0.42563394262E+03 -0.17423551115E+04  0.18109039774E+04  0.46999998093E+01 0. -1.
</event>
<event>
 5   0  0.9083687E-06  0.2397855E+04  0.7818609E-02  0.8440307E-01
       -1   -1    0    0    0  501  0.00000000000E+00  0.00000000000E+00  0.14238382054E+04  0.14238382054E+04  0.50400001928E-02 0.  1.
        1   -1    0    0  501    0  0.00000000000E+00  0.00000000000E+00 -0.10095438023E+04  0.10095438024E+04  0.50400001928E-02 0. -1.
    10030    2    1    2    0    0  0.00000000000E+00  0.00000000000E+00  0.41429440306E+03  0.24333820078E+04  0.23978549046E+04 0.  0.
        2    1    3    3  502    0  0.91593357488E+03 -0.46885265330E+03 -0.41733173109E+03  0.11103706129E+04  0.25500000920E-02 0. -1.
       -2    1    3    3    0  502 -0.91593357488E+03  0.46885265330E+03  0.83162613416E+03  0.13230113949E+04  0.25500000920E-02 0.  1.
</event>
<event>
 5   0  0.8528103E-06  0.2408579E+04  0.7818609E-02  0.8436299E-01
       -1   -1    0    0    0  501  0.00000000000E+00  0.00000000000E+00  0.10417861057E+04  0.10417861057E+04  0.50400001928E-02 0.  1.
        1   -1    0    0  501    0  0.00000000000E+00  0.00000000000E+00 -0.13921412166E+04  0.13921412166E+04  0.50400001928E-02 0. -1.
    10030    2    1    2    0    0  0.00000000000E+00  0.00000000000E+00 -0.35035511095E+03  0.24339273223E+04  0.24085791468E+04 0.  0.
        4    1    3    3  502    0 -0.61842832594E+03 -0.95967407912E+03  0.21211012278E+03  0.11612149885E+04  0.12699999809E+01 0.  1.
       -4    1    3    3    0  502  0.61842832594E+03  0.95967407912E+03 -0.56246523373E+03  0.12727123338E+04  0.12699999809E+01 0. -1.
</event>
<event>
 5   0  0.9176817E-06  0.2375645E+04  0.7818609E-02  0.8448678E-01
        1   -1    0    0  501    0  0.00000000000E+00  0.00000000000E+00  0.16490465756E+04  0.16490465756E+04  0.50400001928E-02 0. -1.
       -1   -1    0    0    0  501  0.00000000000E+00  0.00000000000E+00 -0.85559889552E+03  0.85559889553E+03  0.50400001928E-02 0.  1.
    10030    2    1    2    0    0  0.00000000000E+00  0.00000000000E+00  0.79344768004E+03  0.25046454711E+04  0.23756451155E+04 0.  0.
        3    1    3    3  502    0 -0.47676891749E+03 -0.22332925974E+03 -0.72586577754E+03  0.89669710391E+03  0.10100000352E+00 0.  1.
       -3    1    3    3    0  502  0.47676891749E+03  0.22332925974E+03  0.15193134576E+04  0.16079483672E+04  0.10100000352E+00 0. -1.
</event>
<event>
 5   0  0.8898848E-06  0.2399948E+04  0.7818609E-02  0.8439523E-01
       -1   -1    0    0    0  501  0.00000000000E+00  0.00000000000E+00  0.76195575315E+03  0.76195575317E+03  0.50400001928E-02 0. -1.
        1   -1    0    0  501    0  0.00000000000E+00  0.00000000000E+00 -0.18897922134E+04  0.18897922134E+04  0.50400001928E-02 0.  1.
    10030    2    1    2    0    0  0.00000000000E+00  0.00000000000E+00 -0.11278364603E+04  0.26517479666E+04  0.23999483739E+04 0.  0.
        5    1    3    3  502    0 -0.59692895782E+03  0.44494523288E+03 -0.16037257500E+04  0.17681229630E+04  0.46999998093E+01 0.  1.
       -5    1    3    3    0  502  0.59692895782E+03 -0.44494523288E+03  0.47588928974E+03  0.88362500363E+03  0.46999998093E+01 0. -1.
</event>
<event>
 5   0  0.2080257E-05  0.2409549E+04  0.7818609E-02  0.8435937E-01
        2   -1    0    0  501    0  0.00000000000E+00  0.00000000000E+00  0.23634259281E+04  0.23634259281E+04  0.25500000920E-02 0. -1.
       -2   -1    0    0    0  501  0.00000000000E+00  0.00000000000E+00 -0.61414307087E+03  0.61414307087E+03  0.25500000920E-02 0.  1.
    10030    2    1    2    0    0  0.00000000000E+00  0.00000000000E+00  0.17492828572E+04  0.29775689989E+04  0.24095490510E+04 0.  0.
        1    1    3    3  502    0 -0.10974011663E+04 -0.49230782368E+03  0.78880132988E+03  0.14383545638E+04  0.50400001928E-02 0.  1.
       -1    1    3    3    0  502  0.10974011663E+04  0.49230782368E+03  0.96048152732E+03  0.15392144352E+04  0.50400001928E-02 0. -1.
</event>
<event>
 5   0  0.9038897E-06  0.2388862E+04  0.7818609E-02  0.8443685E-01
       -1   -1    0    0    0  501  0.00000000000E+00  0.00000000000E+00  0.10939168307E+04  0.10939168307E+04  0.50400001928E-02 0.  1.
        1   -1    0    0  501    0  0.00000000000E+00  0.00000000000E+00 -0.13041811500E+04  0.13041811500E+04  0.50400001928E-02 0. -1.
    10030    2    1    2    0    0  0.00000000000E+00  0.00000000000E+00 -0.21026431931E+03  0.23980979807E+04  0.23888622482E+04 0.  0.
        1    1    3    3  502    0  0.49005161621E+03 -0.92317032999E+03 -0.68552974743E+03  0.12499380302E+04  0.50400001928E-02 0. -1.
       -1    1    3    3    0  502 -0.49005161621E+03  0.92317032999E+03  0.47526542812E+03  0.11481599505E+04  0.50400001928E-02 0.  1.
</event>
<event>
 5   0  0.2080257E-05  0.2395305E+04  0.7818609E-02  0.8441263E-01
       -2   -1    0    0    0  501  0.00000000000E+00  0.00000000000E+00  0.15426961968E+04  0.15426961968E+04  0.25500000920E-02 0.  1.
        2   -1    0    0  501    0  0.00000000000E+00  0.00000000000E+00 -0.92978236264E+03  0.92978236264E+03  0.25500000920E-02 0. -1.
    10030    2    1    2    0    0  0.00000000000E+00  0.00000000000E+00  0.61291383418E+03  0.24724785595E+04  0.23953051703E+04 0.  0.
        1    1    3    3  502    0 -0.81272997752E+03  0.80141459807E+03  0.68087824887E+03  0.13290562682E+04  0.50400001928E-02 0.  1.
       -1    1    3    3    0  502  0.81272997752E+03 -0.80141459807E+03 -0.67964414692E+02  0.11434222912E+04  0.50400001928E-02 0. -1.
</event>
<event>
 5   0  0.9176817E-06  0.2356213E+04  0.7818609E-02  0.8456081E-01
        1   -1    0    0  501    0  0.00000000000E+00  0.00000000000E+00  0.87614589300E+03  0.87614589301E+03  0.50400001928E-02 0.  1.
       -1   -1    0    0    0  501  0.00000000000E+00  0.00000000000E+00 -0.15841368125E+04  0.15841368125E+04  0.50400001928E-02 0. -1.
    10030    2    1    2    0    0  0.00000000000E+00  0.00000000000E+00 -0.70799091950E+03  0.24602827055E+04  0.23562130313E+04 0.  0.
        3    1    3    3  502    0 -0.84288993793E+03 -0.45557245902E+03 -0.10697841725E+04  0.14361225222E+04  0.10100000352E+00 0. -1.
       -3    1    3    3    0  502  0.84288993793E+03  0.45557245902E+03  0.36179325303E+03  0.10241601833E+04  0.10100000352E+00 0.  1.
</event>
<event>
 5   0  0.9083687E-06  0.2393622E+04  0.7818609E-02  0.8441895E-01
        1   -1    0    0  501    0  0.00000000000E+00  0.00000000000E+00  0.11583590058E+04  0.11583590058E+04  0.50400001928E-02 0. -1.
       -1   -1    0    0    0  501  0.00000000000E+00  0.00000000000E+00 -0.12365396742E+04  0.12365396742E+04  0.50400001928E-02 0.  1.
    10030    2    1    2    0    0  0.00000000000E+00  0.00000000000E+00 -0.78180668437E+02  0.23948986800E+04  0.23936222489E+04 0.  0.
        2    1    3    3  502    0 -0.76218170768E+03  0.83738244428E+03  0.34870705806E+03  0.11847898235E+04  0.25500000920E-02 0.  1.
       -2    1    3    3    0  502  0.76218170768E+03 -0.83738244428E+03 -0.42688772649E+03  0.12101088565E+04  0.25500000920E-02 0. -1.
</event>
<event>
 5   0  0.8898848E-06  0.2408138E+04  0.7818609E-02  0.8436463E-01
        1   -1    0    0  501    0  0.00000000000E+00  0.00000000000E+00  0.12261747444E+04  0.12261747444E+04  0.50400001928E-02 0. -1.
       -1   -1    0    0    0  501  0.00000000000E+00  0.00000000000E+00 -0.11823615251E+04  0.11823615251E+04  0.50400001928E-02 0.  1.
    10030    2    1    2    0    0  0.00000000000E+00  0.00000000000E+00  0.43813219318E+02  0.24085362695E+04  0.24081377376E+04 0.  0.
        5    1    3    3  502    0  0.66330355369E+03  0.68909575924E+03 -0.70960706257E+03  0.11909613105E+04  0.46999998093E+01 0.  1.
       -5    1    3    3    0  502 -0.66330355369E+03 -0.68909575924E+03  0.75342028189E+03  0.12175749591E+04  0.46999998093E+01 0. -1.
</event>
<event>
 5   0  0.2048028E-05  0.2370479E+04  0.7818609E-02  0.8450639E-01
        2   -1    0    0  501    0  0.00000000000E+00  0.00000000000E+00  0.15218015435E+04  0.15218015435E+04  0.25500000920E-02 0.  1.
       -2   -1    0    0    0  501  0.00000000000E+00  0.00000000000E+00 -0.92311153951E+03  0.92311153951E+03  0.25500000920E-02 0. -1.
    10030    2    1    2    0    0  0.00000000000E+00  0.00000000000E+00  0.59869000404E+03  0.24449130831E+04  0.23704789100E+04 0.  0.
        5    1    3    3  502    0  0.60840422597E+03  0.99880907749E+03  0.10096402719E+03  0.11738786565E+04  0.46999998093E+01 0.  1.
       -5    1    3    3    0  502 -0.60840422597E+03 -0.99880907749E+03  0.49772597684E+03  0.12710344265E+04  0.46999998093E+01 0. -1.
</event>
<event>
 5   0  0.2048028E-05  0.2401623E+04  0.7818609E-02  0.8438896E-01
       -2   -1    0    0    0  501  0.00000000000E+00  0.00000000000E+00  0.79605755974E+03  0.79605755974E+03  0.25500000920E-02 0. -1.
        2   -1    0    0  501    0  0.00000000000E+00  0.00000000000E+00 -0.18113615791E+04  0.18113615791E+04  0.25500000920E-02 0.  1.
    10030    2    1    2    0    0  0.00000000000E+00  0.00000000000E+00 -0.10153040194E+04  0.26074191388E+04  0.24016228500E+04 0.  0.
        5    1    3    3  502    0 -0.68267583938E+03 -0.94288493012E+03 -0.82760427625E+03  0.14282959151E+04  0.46999998093E+01 0.  1.
       -5    1    3    3    0  502  0.68267583938E+03  0.94288493012E+03 -0.18769974311E+03  0.11791232237E+04  0.46999998093E+01 0. -1.
</event>
<event>
 5   0  0.2048028E-05  0.2399970E+04  0.7818609E-02  0.8439515E-01
       -2   -1    0    0    0  501  0.00000000000E+00  0.00000000000E+00  0.12252149407E+04  0.12252149407E+04  0.25500000920E-02 0.  1.
        2   -1    0    0  501    0  0.00000000000E+00  0.00000000000E+00 -0.11752750826E+04  0.11752750826E+04  0.25500000920E-02 0. -1.
    10030    2    1    2    0    0  0.00000000000E+00  0.00000000000E+00  0.49939858150E+02  0.24004900233E+04  0.23999704920E+04 0.  0.
        5    1    3    3  502    0  0.66598221516E+03  0.39094195391E+03 -0.89369205552E+03  0.11811331434E+04  0.46999998093E+01 0. -1.
       -5    1    3    3    0  502 -0.66598221516E+03 -0.39094195391E+03  0.94363191367E+03  0.12193568800E+04  0.46999998093E+01 0.  1.
</event>
<event>
 5   0  0.8528103E-06  0.2411113E+04  0.7818609E-02  0.8435355E-01
        1   -1    0    0  501    0  0.00000000000E+00  0.00000000000E+00  0.75097291816E+03  0.75097291818E+03  0.50400001928E-02 0.  1.
       -1   -1    0    0    0  501  0.00000000000E+00  0.00000000000E+00 -0.19353114518E+04  0.19353114518E+04  0.50400001928E-02 0. -1.
    10030    2    1    2    0    0  0.00000000000E+00  0.00000000000E+00 -0.11843385336E+04  0.26862843700E+04  0.24111130115E+04 0.  0.
        4    1    3    3  502    0  0.72180388273E+03 -0.47545009239E+03 -0.15285068966E+04  0.17559580238E+04  0.12699999809E+01 0. -1.
       -4    1    3    3    0  502 -0.72180388273E+03  0.47545009239E+03  0.34416836295E+03  0.93032634620E+03  0.12699999809E+01 0.  1.
</event>
<event>
 5   0  0.2087882E-05  0.2363257E+04  0.7818609E-02  0.8453389E-01
        2   -1    0    0  501    0  0.00000000000E+00  0.00000000000E+00  0.14038433691E+04  0.14038433691E+04  0.25500000920E-02 0.  1.
       -2   -1    0    0    0  501  0.00000000000E+00  0.00000000000E+00 -0.99458813370E+03  0.99458813371E+03  0.25500000920E-02 0. -1.
    10030    2    1    2    0    0  0.00000000000E+00  0.00000000000E+00  0.40925523538E+03  0.23984315028E+04  0.23632570376E+04 0.  0.
        2    1    3    3  502    0 -0.28372098677E+03 -0.47410960986E+03  0.12646681045E+04  0.13800952630E+04  0.25500000920E-02 0.  1.
       -2    1    3    3    0  502  0.28372098677E+03  0.47410960986E+03 -0.85541286914E+03  0.10183362397E+04  0.25500000920E-02 0. -1.
</event>
<event>
 5   0  0.2122194E-05  0.2385808E+04  0.7818609E-02  0.8444836E-01
        2   -1    0    0  501    0  0.00000000000E+00  0.00000000000E+00  0.65247160128E+03  0.65247160128E+03  0.25500000920E-02 0. -1.
       -2   -1    0    0    0  501  0.00000000000E+00  0.00000000000E+00 -0.21809683662E+04  0.21809683662E+04  0.25500000920E-02 0.  1.
    10030    2    1    2    0    0  0.00000000000E+00  0.00000000000E+00 -0.15284967650E+04  0.28334399675E+04  0.23858079740E+04 0.  0.
        3    1    3    3  502    0 -0.96249271651E+03 -0.60064941170E+03 -0.32651960274E+03  0.11805875682E+04  0.10100000352E+00 0.  1.
       -3    1    3    3    0  502  0.96249271651E+03  0.60064941170E+03 -0.12019771622E+04  0.16528523993E+04  0.10100000352E+00 0. -1.
</event>
<event>
 5   0  0.9038897E-06  0.2401243E+04  0.7818609E-02  0.8439038E-01
        1   -1    0    0  501    0  0.00000000000E+00  0.00000000000E+00  0.30008510902E+04  0.30008510902E+04  0.50400001928E-02 0. -1.
       -1   -1    0    0    0  501  0.00000000000E+00  0.00000000000E+00 -0.48036117350E+03  0.48036117353E+03  0.50400001928E-02 0.  1.
    10030    2    1    2    0    0  0.00000000000E+00  0.00000000000E+00  0.25204899167E+04  0.34812122638E+04  0.24012433040E+04 0.  0.
        1    1    3    3  502    0  0.79588457952E+03  0.59492130383E+03  0.28326911219E+03  0.10332497334E+04  0.50400001928E-02 0.  1.
       -1    1    3    3    0  502 -0.79588457952E+03 -0.59492130383E+03  0.22372208045E+04  0.24479625303E+04  0.50400001928E-02 0. -1.
</event>
<event>
 5   0  0.2122194E-05  0.2401020E+04  0.7818609E-02  0.8439122E-01
        2   -1    0    0  501    0  0.00000000000E+00  0.00000000000E+00  0.18178702618E+04  0.18178702618E+04  0.25500000920E-02 0.  1.
       -2   -1    0    0    0  501  0.00000000000E+00  0.00000000000E+00 -0.79280951304E+03  0.79280951304E+03  0.25500000920E-02 0. -1.
    10030    2    1    2    0    0  0.00000000000E+00  0.00000000000E+00  0.10250607488E+04  0.26106797749E+04  0.24010204806E+04 0.  0.
        3    1    3    3  502    0 -0.45367214481E+03 -0.11105444085E+04  0.46273239872E+03  0.12857871446E+04  0.10100000352E+00 0.  1.
       -3    1    3    3    0  502  0.45367214481E+03  0.11105444085E+04  0.56232835009E+03  0.13248926303E+04  0.10100000352E+00 0. -1.
</event>
<event>
 5   0  0.8528103E-06  0.2370357E+04  0.7818609E-02  0.8450685E-01
        1   -1    0    0  501    0  0.00000000000E+00  0.00000000000E+00  0.17987441550E+04  0.17987441550E+04  0.50400001928E-02 0. -1.
       -1   -1    0    0    0  501  0.00000000000E+00  0.00000000000E+00 -0.78090508612E+03  0.78090508613E+03  0.50400001928E-02 0.  1.
    10030    2    1    2    0    0  0.00000000000E+00  0.00000000000E+00  0.10178390689E+04  0.25796492412E+04  0.23703573227E+04 0.  0.
        4    1    3    3  502    0  0.55215853973E+03  0.48468368515E+03  0.15210048253E+04  0.16891579616E+04  0.12699999809E+01 0. -1.
       -4    1    3    3    0  502 -0.55215853973E+03 -0.48468368515E+03 -0.50316575642E+03  0.89049127957E+03  0.12699999809E+01 0.  1.
</event>
<event>
 5   0  0.2048028E-05  0.2446233E+04  0.7818609E-02  0.8422395E-01
        2   -1    0    0  501    0  0.00000000000E+00  0.00000000000E+00  0.18069253618E+04  0.18069253618E+04  0.25500000920E-02 0. -1.
       -2   -1    0    0    0  501  0.00000000000E+00  0.00000000000E+00 -0.82793341423E+03  0.82793341424E+03  0.25500000920E-02 0.  1.
    10030    2    1    2    0    0  0.00000000000E+00  0.00000000000E+00  0.97899194759E+03  0.26348587761E+04  0.24462329277E+04 0.  0.
        5    1    3    3  502    0  0.20329444839E+03  0.98120684110E+03 -0.26593765044E+03  0.10367451093E+04  0.46999998093E+01 0.  1.
       -5    1    3    3    0  502 -0.20329444839E+03 -0.98120684110E+03  0.12449295980E+04  0.15981136667E+04  0.46999998093E+01 0. -1.
</event>
<event>
 5   0  0.9176817E-06  0.2408626E+04  0.7818609E-02  0.8436281E-01
        1   -1    0    0  501    0  0.00000000000E+00  0.00000000000E+00  0.12955089287E+04  0.12955089287E+04  0.50400001928E-02 0.  1.
       -1   -1    0    0    0  501  0.00000000000E+00  0.00000000000E+00 -0.11195370521E+04  0.11195370521E+04  0.50400001928E-02 0. -1.
    10030    2    1    2    0    0  0.00000000000E+00  0.00000000000E+00  0.17597187667E+03  0.24150459808E+04  0.24086263695E+04 0.  0.
        3    1    3    3  502    0 -0.47567089016E+03  0.22409477746E+03  0.11743352123E+04  0.12866796284E+04  0.10100000352E+00 0.  1.
       -3    1    3    3    0  502  0.47567089016E+03 -0.22409477746E+03 -0.99836333566E+03  0.11283663524E+04  0.10100000352E+00 0. -1.
</event>
<event>
 5   0  0.2087882E-05  0.2393466E+04  0.7818609E-02  0.8441954E-01
        2   -1    0    0  501    0  0.00000000000E+00  0.00000000000E+00  0.23291247525E+04  0.23291247525E+04  0.25500000920E-02 0. -1.
       -2   -1    0    0    0  501  0.00000000000E+00  0.00000000000E+00 -0.61489639334E+03  0.61489639334E+03  0.25500000920E-02 0.  1.
    10030    2    1    2    0    0  0.00000000000E+00  0.00000000000E+00  0.17142283592E+04  0.29440211459E+04  0.23934664485E+04 0.  0.
        2    1    3    3  502    0  0.47539357672E+03  0.64228402121E+03 -0.23867262124E+03  0.83396189171E+03  0.25500000920E-02 0.  1.
       -2    1    3    3    0  502 -0.47539357672E+03 -0.64228402121E+03  0.19529009804E+04  0.21100592542E+04  0.25500000920E-02 0. -1.
</event>
<event>
 5   0  0.8898848E-06  0.2424530E+04  0.7818609E-02  0.8430377E-01
       -1   -1    0    0    0  501  0.00000000000E+00  0.00000000000E+00  0.86505017478E+03  0.86505017480E+03  0.50400001928E-02 0. -1.
        1   -1    0    0  501    0  0.00000000000E+00  0.00000000000E+00 -0.16988449645E+04  0.16988449645E+04  0.50400001928E-02 0.  1.
    10030    2    1    2    0    0  0.00000000000E+00  0.00000000000E+00 -0.83379478972E+03  0.25638951393E+04  0.24245297552E+04 0.  0.
        5    1    3    3  502    0 -0.41794037037E+03 -0.11323906102E+04 -0.29828306500E+03  0.12433734452E+04  0.46999998093E+01 0. -1.
       -5    1    3    3    0  502  0.41794037037E+03  0.11323906102E+04 -0.53551172473E+03  0.13205216941E+04  0.46999998093E+01 0.  1.
</event>
<event>
 5   0  0.9083687E-06  0.2513673E+04  0.7818609E-02  0.8398131E-01
       -1   -1    0    0    0  501  0.00000000000E+00  0.00000000000E+00  0.73817320169E+03  0.73817320171E+03  0.50400001928E-02 0. -1.
        1   -1    0    0  501    0  0.00000000000E+00  0.00000000000E+00 -0.21399286332E+04  0.21399286332E+04  0.50400001928E-02 0.  1.
    10030    2    1    2    0    0  0.00000000000E+00  0.00000000000E+00 -0.14017554315E+04  0.28781018349E+04  0.25136729864E+04 0.  0.
        2    1    3    3  502    0 -0.30935192483E+02 -0.10346394132E+04 -0.15171135899E+04  0.18365917744E+04  0.25500000920E-02 0.  1.
       -2    1    3    3    0  502  0.30935192483E+02  0.10346394132E+04  0.11535815835E+03  0.10415100605E+04  0.25500000920E-02 0. -1.
</event>
<event>
 5   0  0.8898848E-06  0.2375185E+04  0.7818609E-02  0.8448853E-01
       -1   -1    0    0    0  501  0.00000000000E+00  0.00000000000E+00  0.14593711246E+04  0.14593711246E+04  0.50400001928E-02 0.  1.
        1   -1    0    0  501    0  0.00000000000E+00  0.00000000000E+00 -0.96642689680E+03  0.96642689681E+03  0.50400001928E-02 0. -1.
    10030    2    1    2    0    0  0.00000000000E+00  0.00000000000E+00  0.49294422783E+03  0.24257980214E+04  0.23751846305E+04 0.  0.
        5    1    3    3  502    0 -0.63010171158E+03 -0.75468135946E+03 -0.43389256667E+03  0.10746427177E+04  0.46999998093E+01 0. -1.
       -5    1    3    3    0  502  0.63010171158E+03  0.75468135946E+03  0.92683679450E+03  0.13511553038E+04  0.46999998093E+01 0.  1.
</event>
<event>
 5   0  0.2048028E-05  0.2401276E+04  0.7818609E-02  0.8439026E-01
        2   -1    0    0  501    0  0.00000000000E+00  0.00000000000E+00  0.86891706061E+03  0.86891706061E+03  0.25500000920E-02 0. -1.
       -2   -1    0    0    0  501  0.00000000000E+00  0.00000000000E+00 -0.16589974092E+04  0.16589974092E+04  0.25500000920E-02 0.  1.
    10030    2    1    2    0    0  0.00000000000E+00  0.00000000000E+00 -0.79008034858E+03  0.25279144698E+04  0.24012756213E+04 0.  0.
        5    1    3    3  502    0  0.60615624466E+03 -0.85892781897E+03  0.21548140431E+03  0.10731433813E+04  0.46999998093E+01 0. -1.
       -5    1    3    3    0  502 -0.60615624466E+03  0.85892781897E+03 -0.10055617529E+04  0.14547710885E+04  0.46999998093E+01 0.  1.
</event>
<event>
 5   0  0.8898848E-06  0.2392850E+04  0.7818609E-02  0.8442185E-01
        1   -1    0    0  501    0  0.00000000000E+00  0.00000000000E+00  0.20134302709E+04  0.20134302709E+04  0.50400001928E-02 0. -1.
       -1   -1    0    0    0  501  0.00000000000E+00  0.00000000000E+00 -0.71094215477E+03  0.71094215479E+03  0.50400001928E-02 0.  1.
    10030    2    1    2    0    0  0.00000000000E+00  0.00000000000E+00  0.13024881161E+04  0.27243724256E+04  0.23928497281E+04 0.  0.
        5    1    3    3  502    0 -0.42412265580E+03 -0.88536962839E+03 -0.12735157787E+03  0.98994945347E+03  0.46999998093E+01 0.  1.
       -5    1    3    3    0  502  0.42412265580E+03  0.88536962839E+03  0.14298396940E+04  0.17344229722E+04  0.46999998093E+01 0. -1.
</event>
<event>
 5   0  0.2080257E-05  0.2407131E+04  0.7818609E-02  0.8436839E-01
        2   -1    0    0  501    0  0.00000000000E+00  0.00000000000E+00  0.20828367116E+04  0.20828367116E+04  0.25500000920E-02 0. -1.
       -2   -1    0    0    0  501  0.00000000000E+00  0.00000000000E+00 -0.69547911407E+03  0.69547911408E+03  0.25500000920E-02 0.  1.
    10030    2    1    2    0    0  0.00000000000E+00  0.00000000000E+00  0.13873575975E+04  0.27783158257E+04  0.24071305997E+04 0.  0.
        1    1    3    3  502    0 -0.30461842431E+03  0.46251705553E+03 -0.53967433540E+03  0.77328054379E+03  0.50400001928E-02 0.  1.
       -1    1    3    3    0  502  0.30461842431E+03 -0.46251705553E+03  0.19270319329E+04  0.20050352819E+04  0.50400001928E-02 0. -1.
</event>
<event>
 5   0  0.2048028E-05  0.2399177E+04  0.7818609E-02  0.8439812E-01
        2   -1    0    0  501    0  0.00000000000E+00  0.00000000000E+00  0.20717685260E+04  0.20717685260E+04  0.25500000920E-02 0.  1.
       -2   -1    0    0    0  501  0.00000000000E+00  0.00000000000E+00 -0.69458161051E+03  0.69458161052E+03  0.25500000920E-02 0. -1.
    10030    2    1    2    0    0  0.00000000000E+00  0.00000000000E+00  0.13771869155E+04  0.27663501365E+04  0.23991767917E+04 0.  0.
        5    1    3    3  502    0  0.83332817665E+03 -0.77184179891E+03  0.11333964412E+04  0.16046137215E+04  0.46999998093E+01 0. -1.
       -5    1    3    3    0  502 -0.83332817665E+03  0.77184179891E+03  0.24379047435E+03  0.11617364150E+04  0.46999998093E+01 0.  1.
</event>
<event>
 5   0  0.2048028E-05  0.2387070E+04  0.7818609E-02  0.8444360E-01
        2   -1    0    0  501    0  0.00000000000E+00  0.00000000000E+00  0.21662198181E+04  0.21662198181E+04  0.25500000920E-02 0.  1.
       -2   -1    0    0    0  501  0.00000000000E+00  0.00000000000E+00 -0.65760886819E+03  0.65760886820E+03  0.25500000920E-02 0. -1.
    10030    2    1    2    0    0  0.00000000000E+00  0.00000000000E+00  0.15086109499E+04  0.28238286863E+04  0.23870696369E+04 0.  0.
        5    1    3    3  502    0  0.28119353099E+03  0.95839910732E+03 -0.18621893705E+02  0.99898324095E+03  0.46999998093E+01 0. -1.
       -5    1    3    3    0  502 -0.28119353099E+03 -0.95839910732E+03  0.15272328436E+04  0.18248454453E+04  0.46999998093E+01 0.  1.
</event>
<event>
 5   0  0.8898848E-06  0.2393046E+04  0.7818609E-02  0.8442112E-01
        1   -1    0    0  501    0  0.00000000000E+00  0.00000000000E+00  0.14630079010E+04  0.14630079010E+04  0.50400001928E-02 0.  1.
       -1   -1    0    0    0  501  0.00000000000E+00  0.00000000000E+00 -0.97857811658E+03  0.97857811660E+03  0.50400001928E-02 0. -1.
    10030    2    1    2    0    0  0.00000000000E+00  0.00000000000E+00  0.48442978437E+03  0.24415860176E+04  0.23930461895E+04 0.  0.
        5    1    3    3  502    0  0.88319673912E+03  0.40259868949E+03  0.95606594754E+03  0.13624266479E+04  0.46999998093E+01 0.  1.
       -5    1    3    3    0  502 -0.88319673912E+03 -0.40259868949E+03 -0.47163616317E+03  0.10791593697E+04  0.46999998093E+01 0. -1.
</event>
<event>
 5   0  0.8898848E-06  0.2396090E+04  0.7818609E-02  0.8440969E-01
       -1   -1    0    0    0  501  0.00000000000E+00  0.00000000000E+00  0.13865588815E+04  0.13865588815E+04  0.50400001928E-02 0. -1.
        1   -1    0    0  501    0  0.00000000000E+00  0.00000000000E+00 -0.10351612804E+04  0.10351612804E+04  0.50400001928E-02 0.  1.
    10030    2    1    2    0    0  0.00000000000E+00  0.00000000000E+00  0.35139760109E+03  0.24217201619E+04  0.23960902045E+04 0.  0.
        5    1    3    3  502    0  0.90889462243E+02  0.91794432388E+03  0.94834133069E+03  0.13229724281E+04  0.46999998093E+01 0. -1.
       -5    1    3    3    0  502 -0.90889462243E+02 -0.91794432388E+03 -0.59694372960E+03  0.10987477337E+04  0.46999998093E+01 0.  1.
</event>
<event>
 5   0  0.2048028E-05  0.2371307E+04  0.7818609E-02  0.8450325E-01
        2   -1    0    0  501    0  0.00000000000E+00  0.00000000000E+00  0.10304615435E+04  0.10304615435E+04  0.25500000920E-02 0.  1.
       -2   -1    0    0    0  501  0.00000000000E+00  0.00000000000E+00 -0.13642176479E+04  0.13642176479E+04  0.25500000920E-02 0. -1.
    10030    2    1    2    0    0  0.00000000000E+00  0.00000000000E+00 -0.33375610433E+03  0.23946791914E+04  0.23713066636E+04 0.  0.
        5    1    3    3  502    0 -0.11140991535E+04 -0.10429608227E+02 -0.57636956758E+03  0.12544120810E+04  0.46999998093E+01 0. -1.
       -5    1    3    3    0  502  0.11140991535E+04  0.10429608227E+02  0.24261346325E+03  0.11402671104E+04  0.46999998093E+01 0.  1.
</event>
<event>
 5   0  0.8528103E-06  0.2418527E+04  0.7818609E-02  0.8432600E-01
       -1   -1    0    0    0  501  0.00000000000E+00  0.00000000000E+00  0.14249527194E+04  0.14249527194E+04  0.50400001928E-02 0.  1.
        1   -1    0    0  501    0  0.00000000000E+00  0.00000000000E+00 -0.10262220684E+04  0.10262220684E+04  0.50400001928E-02 0. -1.
    10030    2    1    2    0    0  0.00000000000E+00  0.00000000000E+00  0.39873065101E+03  0.24511747878E+04  0.24185267641E+04 0.  0.
        4    1    3    3  502    0 -0.68115310439E+03 -0.81592948174E+03 -0.38513979568E+03  0.11305064113E+04  0.12699999809E+01 0.  1.
       -4    1    3    3    0  502  0.68115310439E+03  0.81592948174E+03  0.78387044669E+03  0.13206683766E+04  0.12699999809E+01 0. -1.
</event>
<event>
 5   0  0.2080257E-05  0.2386228E+04  0.7818609E-02  0.8444677E-01
        2   -1    0    0  501    0  0.00000000000E+00  0.00000000000E+00  0.81523046737E+03  0.81523046737E+03  0.25500000920E-02 0.  1.
       -2   -1    0    0    0  501  0.00000000000E+00  0.00000000000E+00 -0.17461583229E+04  0.17461583229E+04  0.25500000920E-02 0. -1.
    10030    2    1    2    0    0  0.00000000000E+00  0.00000000000E+00 -0.93092785552E+03  0.25613887903E+04  0.23862283761E+04 0.  0.
        1    1    3    3  502    0 -0.84085655163E+03  0.12062013119E+03  0.43384970515E+03  0.95384198018E+03  0.50400001928E-02 0.  1.
       -1    1    3    3    0  502  0.84085655163E+03 -0.12062013119E+03 -0.13647775607E+04  0.16075468101E+04  0.50400001928E-02 0. -1.
</event>
<event>
 5   0  0.8898848E-06  0.2404534E+04  0.7818609E-02  0.8437808E-01
        1   -1    0    0  501    0  0.00000000000E+00  0.00000000000E+00  0.13454116243E+04  0.13454116243E+04  0.50400001928E-02 0.  1.
       -1   -1    0    0    0  501  0.00000000000E+00  0.00000000000E+00 -0.10743523597E+04  0.10743523597E+04  0.50400001928E-02 0. -1.
    10030    2    1    2    0    0  0.00000000000E+00  0.00000000000E+00  0.27105926462E+03  0.24197639841E+04  0.24045341781E+04 0.  0.
        5    1    3    3  502    0  0.38193871741E+03 -0.82635379543E+03 -0.65473800736E+03  0.11213570918E+04  0.46999998093E+01 0. -1.
       -5    1    3    3    0  502 -0.38193871741E+03  0.82635379543E+03  0.92579727198E+03  0.12984068923E+04  0.46999998093E+01 0.  1.
</event>
<event>
 5   0  0.9038897E-06  0.2382737E+04  0.7818609E-02  0.8445995E-01
        1   -1    0    0  501    0  0.00000000000E+00  0.00000000000E+00  0.18780327880E+04  0.18780327880E+04  0.50400001928E-02 0. -1.
       -1   -1    0    0    0  501  0.00000000000E+00  0.00000000000E+00 -0.75576900949E+03  0.75576900951E+03  0.50400001928E-02 0.  1.
    10030    2    1    2    0    0  0.00000000000E+00  0.00000000000E+00  0.11222637785E+04  0.26338017976E+04  0.23827370648E+04 0.  0.
        1    1    3    3  502    0  0.34385444991E+03 -0.27664931069E+03  0.17843446816E+04  0.18381122563E+04  0.50400001928E-02 0. -1.
       -1    1    3    3    0  502 -0.34385444991E+03  0.27664931069E+03 -0.66208090308E+03  0.79568954127E+03  0.50400001928E-02 0.  1.
</event>
<event>
 5   0  0.9038897E-06  0.2376915E+04  0.7818609E-02  0.8448197E-01
        1   -1    0    0  501    0  0.00000000000E+00  0.00000000000E+00  0.11364927536E+04  0.11364927536E+04  0.50400001928E-02 0.  1.
       -1   -1    0    0    0  501  0.00000000000E+00  0.00000000000E+00 -0.12427985305E+04  0.12427985305E+04  0.50400001928E-02 0. -1.
    10030    2    1    2    0    0  0.00000000000E+00  0.00000000000E+00 -0.10630577686E+03  0.23792912841E+04  0.23769152481E+04 0.  0.
        1    1    3    3  502    0 -0.62994308849E+03  0.40821336555E+03 -0.97546694991E+03  0.12308542631E+04  0.50400001928E-02 0. -1.
       -1    1    3    3    0  502  0.62994308849E+03 -0.40821336555E+03  0.86916117305E+03  0.11484370210E+04  0.50400001928E-02 0.  1.
</event>
<event>
 5   0  0.8528103E-06  0.2386581E+04  0.7818609E-02  0.8444545E-01
        1   -1    0    0  501    0  0.00000000000E+00  0.00000000000E+00  0.15019308018E+04  0.15019308018E+04  0.50400001928E-02 0. -1.
       -1   -1    0    0    0  501  0.00000000000E+00  0.00000000000E+00 -0.94807428146E+03  0.94807428147E+03  0.50400001928E-02 0.  1.
    10030    2    1    2    0    0  0.00000000000E+00  0.00000000000E+00  0.55385652035E+03  0.24500050833E+04  0.23865807891E+04 0.  0.
        4    1    3    3  502    0  0.10026068468E+04 -0.10304149381E+03  0.93273424215E+03  0.13732562827E+04  0.12699999809E+01 0. -1.
       -4    1    3    3    0  502 -0.10026068468E+04  0.10304149381E+03 -0.37887772180E+03  0.10767488006E+04  0.12699999809E+01 0.  1.
</event>
<event>
 5   0  0.2025353E-05  0.2406604E+04  0.7818609E-02  0.8437035E-01
        2   -1    0    0  501    0  0.00000000000E+00  0.00000000000E+00  0.97960156750E+03  0.97960156750E+03  0.25500000920E-02 0. -1.
       -2   -1    0    0    0  501  0.00000000000E+00  0.00000000000E+00 -0.14780866383E+04  0.14780866383E+04  0.25500000920E-02 0.  1.
    10030    2    1    2    0    0  0.00000000000E+00  0.00000000000E+00 -0.49848507078E+03  0.24576882058E+04  0.24066042365E+04 0.  0.
        4    1    3    3  502    0  0.42302171897E+03 -0.32058437652E+03  0.85359359025E+03  0.10051593642E+04  0.12699999809E+01 0. -1.
       -4    1    3    3    0  502 -0.42302171897E+03  0.32058437652E+03 -0.13520786610E+04  0.14525288416E+04  0.12699999809E+01 0.  1.
</event>
<event>
 5   0  0.2080257E-05  0.2403712E+04  0.7818609E-02  0.8438115E-01
       -2   -1    0    0    0  501  0.00000000000E+00  0.00000000000E+00  0.60503132801E+03  0.60503132802E+03  0.25500000920E-02 0. -1.
        2   -1    0    0  501    0  0.00000000000E+00  0.00000000000E+00 -0.23874091860E+04  0.23874091860E+04  0.25500000920E-02 0.  1.
    10030    2    1    2    0    0  0.00000000000E+00  0.00000000000E+00 -0.17823778580E+04  0.29924405140E+04  0.24037115886E+04 0.  0.
        1    1    3    3  502    0 -0.10711163235E+04  0.45969869205E+03 -0.12559419194E+04  0.17134769245E+04  0.50400001928E-02 0.  1.
       -1    1    3    3    0  502  0.10711163235E+04 -0.45969869205E+03 -0.52643593858E+03  0.12789635895E+04  0.50400001928E-02 0. -1.
</event>
<event>
 5   0  0.8528103E-06  0.2399183E+04  0.7818609E-02  0.8439809E-01
       -1   -1    0    0    0  501  0.00000000000E+00  0.00000000000E+00  0.10900613440E+04  0.10900613440E+04  0.50400001928E-02 0. -1.
        1   -1    0    0  501    0  0.00000000000E+00  0.00000000000E+00 -0.13201277545E+04  0.13201277545E+04  0.50400001928E-02 0.  1.
    10030    2    1    2    0    0  0.00000000000E+00  0.00000000000E+00 -0.23006641051E+03  0.24101890985E+04  0.23991833896E+04 0.  0.
        4    1    3    3  502    0  0.66045689880E+03 -0.21262048159E+03  0.86803017261E+03  0.11112554962E+04  0.12699999809E+01 0. -1.
       -4    1    3    3    0  502 -0.66045689880E+03  0.21262048159E+03 -0.10980965831E+04  0.12989336023E+04  0.12699999809E+01 0.  1.
</event>
<event>
 5   0  0.2048028E-05  0.2402182E+04  0.7818609E-02  0.8438687E-01
        2   -1    0    0  501    0  0.00000000000E+00  0.00000000000E+00  0.11631557159E+04  0.11631557159E+04  0.25500000920E-02 0.  1.
       -2   -1    0    0    0  501  0.00000000000E+00  0.00000000000E+00 -0.12402637284E+04  0.12402637284E+04  0.25500000920E-02 0. -1.
    10030    2    1    2    0    0  0.00000000000E+00  0.00000000000E+00 -0.77108012475E+02  0.24034194443E+04  0.24021822120E+04 0.  0.
        5    1    3    3  502    0  0.14048779106E+03  0.11614239448E+03 -0.12263351451E+04  0.12398168628E+04  0.46999998093E+01 0. -1.
       -5    1    3    3    0  502 -0.14048779106E+03 -0.11614239448E+03  0.11492271326E+04  0.11636025815E+04  0.46999998093E+01 0.  1.
</event>
<event>
 5   0  0.2122194E-05  0.2373926E+04  0.7818609E-02  0.8449330E-01
        2   -1    0    0  501    0  0.00000000000E+00  0.00000000000E+00  0.11136261380E+04  0.11136261380E+04  0.25500000920E-02 0. -1.
       -2   -1    0    0    0  501  0.00000000000E+00  0.00000000000E+00 -0.12651296048E+04  0.12651296048E+04  0.25500000920E-02 0.  1.
    10030    2    1    2    0    0  0.00000000000E+00  0.00000000000E+00 -0.15150346678E+03  0.23787557427E+04  0.23739261958E+04 0.  0.
        3    1    3    3  502    0  0.25544643403E+03 -0.27680620193E+03 -0.12036556772E+04  0.12612143170E+04  0.10100000352E+00 0.  1.
       -3    1    3    3    0  502 -0.25544643403E+03  0.27680620193E+03  0.10521522104E+04  0.11175414257E+04  0.10100000352E+00 0. -1.
</event>
<event>
 5   0  0.2025353E-05  0.2407807E+04  0.7818609E-02  0.8436587E-01
        2   -1    0    0  501    0  0.00000000000E+00  0.00000000000E+00  0.17187496771E+04  0.17187496771E+04  0.25500000920E-02 0. -1.
       -2   -1    0    0    0  501  0.00000000000E+00  0.00000000000E+00 -0.84327788369E+03  0.84327788369E+03  0.25500000920E-02 0.  1.
    10030    2    1    2    0    0  0.00000000000E+00  0.00000000000E+00  0.87547179346E+03  0.25620275608E+04  0.24078069610E+04 0.  0.
        4    1    3    3  502    0 -0.11169882358E+04 -0.38832029317E+03  0.67785931043E+03  0.13630664792E+04  0.12699999809E+01 0.  1.
       -4    1    3    3    0  502  0.11169882358E+04  0.38832029317E+03  0.19761248303E+03  0.11989610817E+04  0.12699999809E+01 0. -1.
</event>
<event>
 5   0  0.2087882E-05  0.2398817E+04  0.7818609E-02  0.8439947E-01
        2   -1    0    0  501    0  0.00000000000E+00  0.00000000000E+00  0.13787941764E+04  0.13787941764E+04  0.25500000920E-02 0.  1.
       -2   -1    0    0    0  501  0.00000000000E+00  0.00000000000E+00 -0.10433610711E+04  0.10433610711E+04  0.25500000920E-02 0. -1.
    10030    2    1    2    0    0  0.00000000000E+00  0.00000000000E+00  0.33543310536E+03  0.24221552475E+04  0.23988165154E+04 0.  0.
        2    1    3    3  502    0 -0.85673476063E+02 -0.61435020752E+03  0.12042586313E+04  0.13546235540E+04  0.25500000920E-02 0.  1.
       -2    1    3    3    0  502  0.85673476063E+02  0.61435020752E+03 -0.86882552596E+03  0.10675316935E+04  0.25500000920E-02 0. -1.
</event>
<event>
 5   0  0.2087882E-05  0.2406499E+04  0.7818609E-02  0.8437074E-01
       -2   -1    0    0    0  501  0.00000000000E+00  0.00000000000E+00  0.98765205804E+03  0.98765205805E+03  0.25500000920E-02 0. -1.
        2   -1    0    0  501    0  0.00000000000E+00  0.00000000000E+00 -0.14659102808E+04  0.14659102808E+04  0.25500000920E-02 0.  1.
    10030    2    1    2    0    0  0.00000000000E+00  0.00000000000E+00 -0.47825822275E+03  0.24535623388E+04  0.24064989555E+04 0.  0.
        2    1    3    3  502    0  0.65176321051E+03 -0.33837099209E+03  0.73267436665E+03  0.10373533334E+04  0.25500000920E-02 0. -1.
       -2    1    3    3    0  502 -0.65176321051E+03  0.33837099209E+03 -0.12109325894E+04  0.14162090054E+04  0.25500000920E-02 0.  1.
</event>
<event>
 5   0  0.2087882E-05  0.2407604E+04  0.7818609E-02  0.8436662E-01
       -2   -1    0    0    0  501  0.00000000000E+00  0.00000000000E+00  0.13096793553E+04  0.13096793553E+04  0.25500000920E-02 0.  1.
        2   -1    0    0  501    0  0.00000000000E+00  0.00000000000E+00 -0.11064835823E+04  0.11064835824E+04  0.25500000920E-02 0. -1.
    10030    2    1    2    0    0  0.00000000000E+00  0.00000000000E+00  0.20319577299E+03  0.24161629377E+04  0.24076035428E+04 0.  0.
        2    1    3    3  502    0 -0.86066997549E+03  0.60273670068E+03 -0.48793790957E+03  0.11585023697E+04  0.25500000920E-02 0. -1.
       -2    1    3    3    0  502  0.86066997549E+03 -0.60273670068E+03  0.69113368256E+03  0.12576605680E+04  0.25500000920E-02 0.  1.
</event>
<event>
 5   0  0.2122194E-05  0.2389883E+04  0.7818609E-02  0.8443301E-01
        2   -1    0    0  501    0  0.00000000000E+00  0.00000000000E+00  0.20583990506E+04  0.20583990506E+04  0.25500000920E-02 0. -1.
       -2   -1    0    0    0  501  0.00000000000E+00  0.00000000000E+00 -0.69368733195E+03  0.69368733195E+03  0.25500000920E-02 0.  1.
    10030    2    1    2    0    0  0.00000000000E+00  0.00000000000E+00  0.13647117187E+04  0.27520863826E+04  0.23898831315E+04 0.  0.
        3    1    3    3  502    0  0.35218958175E+03 -0.10611004086E+04  0.11680805301E+04  0.16169055983E+04  0.10100000352E+00 0. -1.
       -3    1    3    3    0  502 -0.35218958175E+03  0.10611004086E+04  0.19663118853E+03  0.11351807843E+04  0.10100000352E+00 0.  1.
</event>
<event>
 5   0  0.2025353E-05  0.2394254E+04  0.7818609E-02  0.8441658E-01
       -2   -1    0    0    0  501  0.00000000000E+00  0.00000000000E+00  0.13208602020E+04  0.13208602020E+04  0.25500000920E-02 0.  1.
        2   -1    0    0  501    0  0.00000000000E+00  0.00000000000E+00 -0.10849850251E+04  0.10849850251E+04  0.25500000920E-02 0. -1.
    10030    2    1    2    0    0  0.00000000000E+00  0.00000000000E+00  0.23587517693E+03  0.24058452270E+04  0.23942544053E+04 0.  0.
        4    1    3    3  502    0 -0.23895841599E+03  0.26442283882E+03 -0.10304385730E+04  0.10903328978E+04  0.12699999809E+01 0. -1.
       -4    1    3    3    0  502  0.23895841599E+03 -0.26442283882E+03  0.12663137500E+04  0.13155123293E+04  0.12699999809E+01 0.  1.
</event>
<event>
 5   0  0.2080257E-05  0.2335414E+04  0.7818609E-02  0.8464087E-01
       -2   -1    0    0    0  501  0.00000000000E+00  0.00000000000E+00  0.63123477815E+03  0.63123477815E+03  0.25500000920E-02 0.  1.
        2   -1    0    0  501    0  0.00000000000E+00  0.00000000000E+00 -0.21601145791E+04  0.21601145791E+04  0.25500000920E-02 0. -1.
    10030    2    1    2    0    0  0.00000000000E+00  0.00000000000E+00 -0.15288798010E+04  0.27913493573E+04  0.23354138367E+04 0.  0.
        1    1    3    3  502    0  0.40551658658E+03 -0.63438448482E+03 -0.18312440361E+04  0.19799853778E+04  0.50400001928E-02 0. -1.
       -1    1    3    3    0  502 -0.40551658658E+03  0.63438448482E+03  0.30236423507E+03  0.81136397951E+03  0.50400001928E-02 0.  1.
</event>
<event>
 5   0  0.9038897E-06  0.2423475E+04  0.7818609E-02  0.8430767E-01
        1   -1    0    0  501    0  0.00000000000E+00  0.00000000000E+00  0.14768164658E+04  0.14768164659E+04  0.50400001928E-02 0. -1.
       -1   -1    0    0    0  501  0.00000000000E+00  0.00000000000E+00 -0.99423876130E+03  0.99423876132E+03  0.50400001928E-02 0.  1.
    10030    2    1    2    0    0  0.00000000000E+00  0.00000000000E+00  0.48257770455E+03  0.24710552272E+04  0.24234753341E+04 0.  0.
        1    1    3    3  502    0  0.72873027453E+03  0.43187415290E+03  0.11247553689E+04  0.14080616950E+04  0.50400001928E-02 0. -1.
       -1    1    3    3    0  502 -0.72873027453E+03 -0.43187415290E+03 -0.64217766432E+03  0.10629935322E+04  0.50400001928E-02 0.  1.
</event>
<event>
 5   0  0.9176817E-06  0.2395588E+04  0.7818609E-02  0.8441157E-01
        1   -1    0    0  501    0  0.00000000000E+00  0.00000000000E+00  0.13460235122E+04  0.13460235122E+04  0.50400001928E-02 0. -1.
       -1   -1    0    0    0  501  0.00000000000E+00  0.00000000000E+00 -0.10658879184E+04  0.10658879184E+04  0.50400001928E-02 0.  1.
    10030    2    1    2    0    0  0.00000000000E+00  0.00000000000E+00  0.28013559382E+03  0.24119114306E+04  0.23955877772E+04 0.  0.
        3    1    3    3  502    0  0.52333659028E+03 -0.80027373783E+03  0.86636460179E+03  0.12903127046E+04  0.10100000352E+00 0. -1.
       -3    1    3    3    0  502 -0.52333659028E+03  0.80027373783E+03 -0.58622900797E+03  0.11215987260E+04  0.10100000352E+00 0.  1.
</event>
<event>
 5   0  0.9038897E-06  0.2408198E+04  0.7818609E-02  0.8436441E-01
        1   -1    0    0  501    0  0.00000000000E+00  0.00000000000E+00  0.70616523448E+03  0.70616523449E+03  0.50400001928E-02 0. -1.
       -1   -1    0    0    0  501  0.00000000000E+00  0.00000000000E+00 -0.20531379617E+04  0.20531379617E+04  0.50400001928E-02 0.  1.
    10030    2    1    2    0    0  0.00000000000E+00  0.00000000000E+00 -0.13469727272E+04  0.27593031962E+04  0.24081982062E+04 0.  0.
        1    1    3    3  502    0 -0.80726755976E+03  0.54593869413E+03 -0.14837872955E+04  0.17752055400E+04  0.50400001928E-02 0.  1.
       -1    1    3    3    0  502  0.80726755976E+03 -0.54593869413E+03  0.13681456833E+03  0.98409765619E+03  0.50400001928E-02 0. -1.
</event>
<event>
 5   0  0.2025353E-05  0.2404583E+04  0.7818609E-02  0.8437790E-01
        2   -1    0    0  501    0  0.00000000000E+00  0.00000000000E+00  0.19677076546E+04  0.19677076546E+04  0.25500000920E-02 0.  1.
       -2   -1    0    0    0  501  0.00000000000E+00  0.00000000000E+00 -0.73461357758E+03  0.73461357758E+03  0.25500000920E-02 0. -1.
    10030    2    1    2    0    0  0.00000000000E+00  0.00000000000E+00  0.12330940770E+04  0.27023212322E+04  0.24045829242E+04 0.  0.
        4    1    3    3  502    0 -0.70755092111E+03 -0.33909220078E+03  0.16403298316E+04  0.18183221376E+04  0.12699999809E+01 0.  1.
       -4    1    3    3    0  502  0.70755092111E+03  0.33909220078E+03 -0.40723575458E+03  0.88399909463E+03  0.12699999809E+01 0. -1.
</event>
<event>
 5   0  0.2087882E-05  0.2401107E+04  0.7818609E-02  0.8439089E-01
        2   -1    0    0  501    0  0.00000000000E+00  0.00000000000E+00  0.94705511634E+03  0.94705511634E+03  0.25500000920E-02 0. -1.
       -2   -1    0    0    0  501  0.00000000000E+00  0.00000000000E+00 -0.15219055907E+04  0.15219055907E+04  0.25500000920E-02 0.  1.
    10030    2    1    2    0    0  0.00000000000E+00  0.00000000000E+00 -0.57485047439E+03  0.24689607071E+04  0.24011068084E+04 0.  0.
        2    1    3    3  502    0 -0.66317474303E+03 -0.83106772980E+03  0.28587357823E+03  0.11009986440E+04  0.25500000920E-02 0. -1.
       -2    1    3    3    0  502  0.66317474303E+03  0.83106772980E+03 -0.86072405262E+03  0.13679620631E+04  0.25500000920E-02 0.  1.
</event>
<event>
 5   0  0.2087882E-05  0.2375858E+04  0.7818609E-02  0.8448598E-01
       -2   -1    0    0    0  501  0.00000000000E+00  0.00000000000E+00  0.49373434714E+03  0.49373434715E+03  0.25500000920E-02 0. -1.
        2   -1    0    0  501    0  0.00000000000E+00  0.00000000000E+00 -0.28581667703E+04  0.28581667703E+04  0.25500000920E-02 0.  1.
    10030    2    1    2    0    0  0.00000000000E+00  0.00000000000E+00 -0.23644324231E+04  0.33519011174E+04  0.23758578277E+04 0.  0.
        2    1    3    3  502    0 -0.61372405092E+03 -0.98902758959E+03 -0.84733705652E+03  0.14397266654E+04  0.25500000920E-02 0. -1.
       -2    1    3    3    0  502  0.61372405092E+03  0.98902758959E+03 -0.15170953666E+04  0.19121744520E+04  0.25500000920E-02 0.  1.
</event>
<event>
 5   0  0.2080257E-05  0.2397682E+04  0.7818609E-02  0.8440372E-01
        2   -1    0    0  501    0  0.00000000000E+00  0.00000000000E+00  0.17319698411E+04  0.17319698411E+04  0.25500000920E-02 0. -1.
       -2   -1    0    0    0  501  0.00000000000E+00  0.00000000000E+00 -0.82981784998E+03  0.82981784998E+03  0.25500000920E-02 0.  1.
    10030    2    1    2    0    0  0.00000000000E+00  0.00000000000E+00  0.90215199111E+03  0.25617876911E+04  0.23976817885E+04 0.  0.
        1    1    3    3  502    0 -0.88389448757E+03  0.25212234109E+03  0.12734197117E+04  0.15704881095E+04  0.50400001928E-02 0. -1.
       -1    1    3    3    0  502  0.88389448757E+03 -0.25212234109E+03 -0.37126772056E+03  0.99129958156E+03  0.50400001928E-02 0.  1.
</event>
<event>
 5   0  0.2048028E-05  0.2391711E+04  0.7818609E-02  0.8442613E-01
        2   -1    0    0  501    0  0.00000000000E+00  0.00000000000E+00  0.12162682153E+04  0.12162682153E+04  0.25500000920E-02 0.  1.
       -2   -1    0    0    0  501  0.00000000000E+00  0.00000000000E+00 -0.11757852090E+04  0.11757852090E+04  0.25500000920E-02 0. -1.
    10030    2    1    2    0    0  0.00000000000E+00  0.00000000000E+00  0.40483006339E+02  0.23920534243E+04  0.23917108334E+04 0.  0.
        5    1    3    3  502    0 -0.69037516657E+03 -0.95822072098E+03  0.20800029588E+03  0.11992043336E+04  0.46999998093E+01 0. -1.
       -5    1    3    3    0  502  0.69037516657E+03  0.95822072098E+03 -0.16751728954E+03  0.11928490906E+04  0.46999998093E+01 0.  1.
</event>
<event>
 5   0  0.9083687E-06  0.2389390E+04  0.7818609E-02  0.8443487E-01
       -1   -1    0    0    0  501  0.00000000000E+00  0.00000000000E+00  0.64302607075E+03  0.64302607077E+03  0.50400001928E-02 0. -1.
        1   -1    0    0  501    0  0.00000000000E+00  0.00000000000E+00 -0.22196549352E+04  0.22196549352E+04  0.50400001928E-02 0.  1.
    10030    2    1    2    0    0  0.00000000000E+00  0.00000000000E+00 -0.15766288644E+04  0.28626810059E+04  0.23893898731E+04 0.  0.
        2    1    3    3  502    0 -0.26589619885E+03  0.77061881029E+03  0.25803014111E+03  0.85506356083E+03  0.25500000920E-02 0. -1.
       -2    1    3    3    0  502  0.26589619885E+03 -0.77061881029E+03 -0.18346590055E+04  0.20076174451E+04  0.25500000920E-02 0.  1.
</event>
<event>
 5   0  0.9176817E-06  0.2286086E+04  0.7818609E-02  0.8483428E-01
       -1   -1    0    0    0  501  0.00000000000E+00  0.00000000000E+00  0.10831966150E+04  0.10831966150E+04  0.50400001928E-02 0.  1.
        1   -1    0    0  501    0  0.00000000000E+00  0.00000000000E+00 -0.12061953776E+04  0.12061953777E+04  0.50400001928E-02 0. -1.
    10030    2    1    2    0    0  0.00000000000E+00  0.00000000000E+00 -0.12299876262E+03  0.22893919927E+04  0.22860855191E+04 0.  0.
        3    1    3    3  502    0 -0.35300953240E+03  0.47030424418E+03 -0.10430930240E+04  0.11974326198E+04  0.10100000352E+00 0. -1.
       -3    1    3    3    0  502  0.35300953240E+03 -0.47030424418E+03  0.92009426137E+03  0.10919593729E+04  0.10100000352E+00 0.  1.
</event>
<event>
 5   0  0.9038897E-06  0.2466831E+04  0.7818609E-02  0.8414898E-01
       -1   -1    0    0    0  501  0.00000000000E+00  0.00000000000E+00  0.11455959821E+04  0.11455959821E+04  0.50400001928E-02 0.  1.
        1   -1    0    0  501    0  0.00000000000E+00  0.00000000000E+00 -0.13279676485E+04  0.13279676486E+04  0.50400001928E-02 0. -1.
    10030    2    1    2    0    0  0.00000000000E+00  0.00000000000E+00 -0.18237166649E+03  0.24735636306E+04  0.24668314920E+04 0.  0.
        1    1    3    3  502    0  0.68489329647E+03 -0.19619209598E+03  0.91841058631E+03  0.11623459774E+04  0.50400001928E-02 0.  1.
       -1    1    3    3    0  502 -0.68489329647E+03  0.19619209598E+03 -0.11007822528E+04  0.13112176532E+04  0.50400001928E-02 0. -1.
</event>
<event>
 5   0  0.9083687E-06  0.2399645E+04  0.7818609E-02  0.8439637E-01
       -1   -1    0    0    0  501  0.00000000000E+00  0.00000000000E+00  0.11905889995E+04  0.11905889995E+04  0.50400001928E-02 0.  1.
        1   -1    0    0  501    0  0.00000000000E+00  0.00000000000E+00 -0.12091273404E+04  0.12091273404E+04  0.50400001928E-02 0. -1.
    10030    2    1    2    0    0  0.00000000000E+00  0.00000000000E+00 -0.18538340921E+02  0.23997163399E+04  0.23996447324E+04 0.  0.
        2    1    3    3  502    0 -0.36596458698E+03 -0.50536863810E+03  0.10155765997E+04  0.11919410091E+04  0.25500000920E-02 0.  1.
       -2    1    3    3    0  502  0.36596458698E+03  0.50536863810E+03 -0.10341149406E+04  0.12077753308E+04  0.25500000920E-02 0. -1.
</event>
<event>
 5   0  0.2122194E-05  0.2347307E+04  0.7818609E-02  0.8459499E-01
       -2   -1    0    0    0  501  0.00000000000E+00  0.00000000000E+00  0.13838348712E+04  0.13838348712E+04  0.25500000920E-02 0.  1.
        2   -1    0    0  501    0  0.00000000000E+00  0.00000000000E+00 -0.99539524278E+03  0.99539524278E+03  0.25500000920E-02 0. -1.
    10030    2    1    2    0    0  0.00000000000E+00  0.00000000000E+00  0.38843962841E+03  0.23792301140E+04  0.23473070933E+04 0.  0.
        3    1    3    3  502    0 -0.53966751743E+03 -0.43603097780E+03 -0.76527898371E+03  0.10329646538E+04  0.10100000352E+00 0. -1.
       -3    1    3    3    0  502  0.53966751743E+03  0.43603097780E+03  0.11537186121E+04  0.13462654601E+04  0.10100000352E+00 0.  1.
</event>
<event>
 5   0  0.9083687E-06  0.2382254E+04  0.7818609E-02  0.8446177E-01
        1   -1    0    0  501    0  0.00000000000E+00  0.00000000000E+00  0.10291667511E+04  0.10291667511E+04  0.50400001928E-02 0. -1.
       -1   -1    0    0    0  501  0.00000000000E+00  0.00000000000E+00 -0.13785753039E+04  0.13785753039E+04  0.50400001928E-02 0.  1.
    10030    2    1    2    0    0  0.00000000000E+00  0.00000000000E+00 -0.34940855281E+03  0.24077420550E+04  0.23822542825E+04 0.  0.
        2    1    3    3  502    0  0.10320569713E+04 -0.50991327958E+03  0.13456090515E+03  0.11589908464E+04  0.25500000920E-02 0. -1.
       -2    1    3    3    0  502 -0.10320569713E+04  0.50991327958E+03 -0.48396945796E+03  0.12487512086E+04  0.25500000920E-02 0.  1.
</event>
<event>
 5   0  0.2048028E-05  0.2354954E+04  0.7818609E-02  0.8456563E-01
        2   -1    0    0  501    0  0.00000000000E+00  0.00000000000E+00  0.27193340309E+04  0.27193340309E+04  0.25500000920E-02 0. -1.
       -2   -1    0    0    0  501  0.00000000000E+00  0.00000000000E+00 -0.50984993974E+03  0.50984993975E+03  0.25500000920E-02 0.  1.
    10030    2    1    2    0    0  0.00000000000E+00  0.00000000000E+00  0.22094840912E+04  0.32291839707E+04  0.23549541752E+04 0.  0.
        5    1    3    3  502    0 -0.92075581794E+03  0.62148705997E+03  0.16400361923E+04  0.19808529082E+04  0.46999998093E+01 0. -1.
       -5    1    3    3    0  502  0.92075581794E+03 -0.62148705997E+03  0.56944789891E+03  0.12483310625E+04  0.46999998093E+01 0.  1.
</event>
<event>
 5   0  0.2025353E-05  0.2287650E+04  0.7818609E-02  0.8482806E-01
        2   -1    0    0  501    0  0.00000000000E+00  0.00000000000E+00  0.17230447659E+04  0.17230447659E+04  0.25500000920E-02 0.  1.
       -2   -1    0    0    0  501  0.00000000000E+00  0.00000000000E+00 -0.75931633411E+03  0.75931633411E+03  0.25500000920E-02 0. -1.
    10030    2    1    2    0    0  0.00000000000E+00  0.00000000000E+00  0.96372843179E+03  0.24823611000E+04  0.22876503537E+04 0.  0.
        4    1    3    3  502    0 -0.67330749047E+03 -0.91604838866E+03  0.34526568397E+03  0.11881488259E+04  0.12699999809E+01 0. -1.
       -4    1    3    3    0  502  0.67330749047E+03  0.91604838866E+03  0.61846274782E+03  0.12942122741E+04  0.12699999809E+01 0.  1.
</event>
<event>
 5   0  0.8898848E-06  0.2472848E+04  0.7818609E-02  0.8412723E-01
       -1   -1    0    0    0  501  0.00000000000E+00  0.00000000000E+00  0.11951501067E+04  0.11951501067E+04  0.50400001928E-02 0. -1.
        1   -1    0    0  501    0  0.00000000000E+00  0.00000000000E+00 -0.12791227927E+04  0.12791227927E+04  0.50400001928E-02 0.  1.
    10030    2    1    2    0    0  0.00000000000E+00  0.00000000000E+00 -0.83972685995E+02  0.24742728994E+04  0.24728475425E+04 0.  0.
        5    1    3    3  502    0 -0.81419909838E+03  0.62890739631E+03  0.64417636482E+03  0.12138492344E+04  0.46999998093E+01 0. -1.
       -5    1    3    3    0  502  0.81419909838E+03 -0.62890739631E+03 -0.72814905081E+03  0.12604236649E+04  0.46999998093E+01 0.  1.
</event>
<event>
 5   0  0.9176817E-06  0.2333489E+04  0.7818609E-02  0.8464833E-01
        1   -1    0    0  501    0  0.00000000000E+00  0.00000000000E+00  0.11319195609E+04  0.11319195609E+04  0.50400001928E-02 0. -1.
       -1   -1    0    0    0  501  0.00000000000E+00  0.00000000000E+00 -0.12026413806E+04  0.12026413806E+04  0.50400001928E-02 0.  1.
    10030    2    1    2    0    0  0.00000000000E+00  0.00000000000E+00 -0.70721819741E+02  0.23345609415E+04  0.23334894930E+04 0.  0.
        3    1    3    3  502    0 -0.13538873644E+03  0.92262463958E+03 -0.73691534513E+03  0.11885329493E+04  0.10100000352E+00 0.  1.
       -3    1    3    3    0  502  0.13538873644E+03 -0.92262463958E+03  0.66619352539E+03  0.11460279922E+04  0.10100000352E+00 0. -1.
</event>
<event>
 5   0  0.8528103E-06  0.2407398E+04  0.7818609E-02  0.8436739E-01
       -1   -1    0    0    0  501  0.00000000000E+00  0.00000000000E+00  0.60565579048E+03  0.60565579050E+03  0.50400001928E-02 0.  1.
        1   -1    0    0  501    0  0.00000000000E+00  0.00000000000E+00 -0.23922694353E+04  0.23922694353E+04  0.50400001928E-02 0. -1.
    10030    2    1    2    0    0  0.00000000000E+00  0.00000000000E+00 -0.17866136448E+04  0.29979252258E+04  0.24073984597E+04 0.  0.
        4    1    3    3  502    0 -0.25826152785E+03 -0.97173603173E+03 -0.17173886786E+04  0.19900742244E+04  0.12699999809E+01 0. -1.
       -4    1    3    3    0  502  0.25826152785E+03  0.97173603173E+03 -0.69224966129E+02  0.10078510014E+04  0.12699999809E+01 0.  1.
</event>
<event>
 5   0  0.8898848E-06  0.2402078E+04  0.7818609E-02  0.8438726E-01
       -1   -1    0    0    0  501  0.00000000000E+00  0.00000000000E+00  0.85646320415E+03  0.85646320416E+03  0.50400001928E-02 0. -1.
        1   -1    0    0  501    0  0.00000000000E+00  0.00000000000E+00 -0.16842457462E+04  0.16842457462E+04  0.50400001928E-02 0.  1.
    10030    2    1    2    0    0  0.00000000000E+00  0.00000000000E+00 -0.82778254202E+03  0.25407089503E+04  0.24020778575E+04 0.  0.
        5    1    3    3  502    0  0.57421633670E+03  0.26281363647E+03 -0.14944562700E+04  0.16224108733E+04  0.46999998093E+01 0.  1.
       -5    1    3    3    0  502 -0.57421633670E+03 -0.26281363647E+03  0.66667372794E+03  0.91829807708E+03  0.46999998093E+01 0. -1.
</event>
<event>
 5   0  0.2087882E-05  0.2400391E+04  0.7818609E-02  0.8439357E-01
       -2   -1    0    0    0  501  0.00000000000E+00  0.00000000000E+00  0.72505880894E+03  0.72505880895E+03  0.25500000920E-02 0.  1.
        2   -1    0    0  501    0  0.00000000000E+00  0.00000000000E+00 -0.19866937579E+04  0.19866937579E+04  0.25500000920E-02 0. -1.
    10030    2    1    2    0    0  0.00000000000E+00  0.00000000000E+00 -0.12616349490E+04  0.27117525669E+04  0.24003914763E+04 0.  0.
        2    1    3    3  502    0 -0.32172008823E+03 -0.60827447722E+03  0.48008023134E+03  0.83903437554E+03  0.25500000920E-02 0.  1.
       -2    1    3    3    0  502  0.32172008823E+03  0.60827447722E+03 -0.17417151803E+04  0.18727181914E+04  0.25500000920E-02 0. -1.
</event>
<event>
 5   0  0.9083687E-06  0.2395092E+04  0.7818609E-02  0.8441343E-01
       -1   -1    0    0    0  501  0.00000000000E+00  0.00000000000E+00  0.10968528012E+04  0.10968528012E+04  0.50400001928E-02 0.  1.
        1   -1    0    0  501    0  0.00000000000E+00  0.00000000000E+00 -0.13074830109E+04  0.13074830109E+04  0.50400001928E-02 0. -1.
    10030    2    1    2    0    0  0.00000000000E+00  0.00000000000E+00 -0.21063020971E+03  0.24043358120E+04  0.23950919840E+04 0.  0.
        2    1    3    3  502    0 -0.16747100090E+02 -0.94969492733E+03  0.62682507867E+03  0.11380292613E+04  0.25500000920E-02 0.  1.
       -2    1    3    3    0  502  0.16747100090E+02  0.94969492733E+03 -0.83745528839E+03  0.12663065507E+04  0.25500000920E-02 0. -1.
</event>
<event>
 5   0  0.2048028E-05  0.2395024E+04  0.7818609E-02  0.8441369E-01
        2   -1    0    0  501    0  0.00000000000E+00  0.00000000000E+00  0.11859143140E+04  0.11859143140E+04  0.25500000920E-02 0. -1.
       -2   -1    0    0    0  501  0.00000000000E+00  0.00000000000E+00 -0.12092231182E+04  0.12092231182E+04  0.25500000920E-02 0.  1.
    10030    2    1    2    0    0  0.00000000000E+00  0.00000000000E+00 -0.23308804149E+02  0.23951374322E+04  0.23950240121E+04 0.  0.
        5    1    3    3  502    0  0.28613405454E+03 -0.15893342355E+03  0.11403030886E+04  0.11863581896E+04  0.46999998093E+01 0. -1.
       -5    1    3    3    0  502 -0.28613405454E+03  0.15893342355E+03 -0.11636118927E+04  0.12087792425E+04  0.46999998093E+01 0.  1.
</event>
<event>
 5   0  0.9038897E-06  0.2349798E+04  0.7818609E-02  0.8458541E-01
       -1   -1    0    0    0  501  0.00000000000E+00  0.00000000000E+00  0.67606204165E+03  0.67606204167E+03  0.50400001928E-02 0.  1.
        1   -1    0    0  501    0  0.00000000000E+00  0.00000000000E+00 -0.20418055322E+04  0.20418055322E+04  0.50400001928E-02 0. -1.
    10030    2    1    2    0    0  0.00000000000E+00  0.00000000000E+00 -0.13657434905E+04  0.27178675739E+04  0.23497976226E+04 0.  0.
        1    1    3    3  502    0 -0.38922728122E+03 -0.79200241504E+03  0.21426679008E+03  0.90811671014E+03  0.50400001928E-02 0.  1.
       -1    1    3    3    0  502  0.38922728122E+03  0.79200241504E+03 -0.15800102806E+04  0.18097508637E+04  0.50400001928E-02 0. -1.
</event>
<event>
 5   0  0.2122194E-05  0.2397717E+04  0.7818609E-02  0.8440359E-01
       -2   -1    0    0    0  501  0.00000000000E+00  0.00000000000E+00  0.72463622536E+03  0.72463622537E+03  0.25500000920E-02 0.  1.
        2   -1    0    0  501    0  0.00000000000E+00  0.00000000000E+00 -0.19834253437E+04  0.19834253437E+04  0.25500000920E-02 0. -1.
    10030    2    1    2    0    0  0.00000000000E+00  0.00000000000E+00 -0.12587891183E+04  0.27080615691E+04  0.23977171262E+04 0.  0.
        3    1    3    3  502    0 -0.11027352766E+04 -0.37493170043E+03 -0.95016748373E+03  0.15031357648E+04  0.10100000352E+00 0. -1.
       -3    1    3    3    0  502  0.11027352766E+04  0.37493170043E+03 -0.30862163458E+03  0.12049258042E+04  0.10100000352E+00 0.  1.
</event>
<event>
 5   0  0.2048028E-05  0.2387628E+04  0.7818609E-02  0.8444150E-01
        2   -1    0    0  501    0  0.00000000000E+00  0.00000000000E+00  0.22897871629E+04  0.22897871629E+04  0.25500000920E-02 0.  1.
       -2   -1    0    0    0  501  0.00000000000E+00  0.00000000000E+00 -0.62241212737E+03  0.62241212737E+03  0.25500000920E-02 0. -1.
    10030    2    1    2    0    0  0.00000000000E+00  0.00000000000E+00  0.16673750355E+04  0.29121992903E+04  0.23876275248E+04 0.  0.
        5    1    3    3  502    0 -0.11395278237E+04 -0.46103344797E+02  0.12640893613E+04  0.17025255307E+04  0.46999998093E+01 0.  1.
       -5    1    3    3    0  502  0.11395278237E+04  0.46103344797E+02  0.40328567419E+03  0.12096737595E+04  0.46999998093E+01 0. -1.
</event>
<event>
 5   0  0.2048028E-05  0.2401884E+04  0.7818609E-02  0.8438799E-01
       -2   -1    0    0    0  501  0.00000000000E+00  0.00000000000E+00  0.27262939533E+04  0.27262939533E+04  0.25500000920E-02 0. -1.
        2   -1    0    0  501    0  0.00000000000E+00  0.00000000000E+00 -0.52901904085E+03  0.52901904086E+03  0.25500000920E-02 0.  1.
    10030    2    1    2    0    0  0.00000000000E+00  0.00000000000E+00  0.21972749125E+04  0.32553129942E+04  0.24018837710E+04 0.  0.
        5    1    3    3  502    0  0.18150747979E+03  0.87107462399E+03  0.21917684576E+04  0.23654993189E+04  0.46999998093E+01 0. -1.
       -5    1    3    3    0  502 -0.18150747979E+03 -0.87107462399E+03  0.55064548772E+01  0.88981367534E+03  0.46999998093E+01 0.  1.
</event>
<event>
 5   0  0.2122194E-05  0.2380750E+04  0.7818609E-02  0.8446746E-01
        2   -1    0    0  501    0  0.00000000000E+00  0.00000000000E+00  0.15254860628E+04  0.15254860628E+04  0.25500000920E-02 0. -1.
       -2   -1    0    0    0  501  0.00000000000E+00  0.00000000000E+00 -0.92887966240E+03  0.92887966241E+03  0.25500000920E-02 0.  1.
    10030    2    1    2    0    0  0.00000000000E+00  0.00000000000E+00  0.59660640041E+03  0.24543657252E+04  0.23807502843E+04 0.  0.
        3    1    3    3  502    0  0.44264303847E+03 -0.70923866471E+03 -0.57527128505E+03  0.10148346686E+04  0.10100000352E+00 0.  1.
       -3    1    3    3    0  502 -0.44264303847E+03  0.70923866471E+03  0.11718776855E+04  0.14395310566E+04  0.10100000352E+00 0. -1.
</event>
<event>
 5   0  0.9038897E-06  0.2401683E+04  0.7818609E-02  0.8438874E-01
       -1   -1    0    0    0  501  0.00000000000E+00  0.00000000000E+00  0.10301451004E+04  0.10301451004E+04  0.50400001928E-02 0.  1.
        1   -1    0    0  501    0  0.00000000000E+00  0.00000000000E+00 -0.13998227164E+04  0.13998227164E+04  0.50400001928E-02 0. -1.
    10030    2    1    2    0    0  0.00000000000E+00  0.00000000000E+00 -0.36967761604E+03  0.24299678168E+04  0.24016831704E+04 0.  0.
        1    1    3    3  502    0  0.13720020068E+03 -0.95035407118E+03 -0.91445825202E+03  0.13259828997E+04  0.50400001928E-02 0. -1.
       -1    1    3    3    0  502 -0.13720020068E+03  0.95035407118E+03  0.54478063599E+03  0.11039849170E+04  0.50400001928E-02 0.  1.
</event>
<event>
 5   0  0.9083687E-06  0.2400158E+04  0.7818609E-02  0.8439444E-01
       -1   -1    0    0    0  501  0.00000000000E+00  0.00000000000E+00  0.59044808330E+03  0.59044808332E+03  0.50400001928E-02 0. -1.
        1   -1    0    0  501    0  0.00000000000E+00  0.00000000000E+00 -0.24391476057E+04  0.24391476057E+04  0.50400001928E-02 0.  1.
    10030    2    1    2    0    0  0.00000000000E+00  0.00000000000E+00 -0.18486995224E+04  0.30295956890E+04  0.24001583520E+04 0.  0.
        2    1    3    3  502    0  0.77511529807E+03 -0.13436569218E+03 -0.20682922575E+04  0.22128467473E+04  0.25500000920E-02 0.  1.
       -2    1    3    3    0  502 -0.77511529807E+03  0.13436569218E+03  0.21959273509E+03  0.81674894175E+03  0.25500000920E-02 0. -1.
</event>
<event>
 5   0  0.8898848E-06  0.2398290E+04  0.7818609E-02  0.8440144E-01
       -1   -1    0    0    0  501  0.00000000000E+00  0.00000000000E+00  0.61416371556E+03  0.61416371559E+03  0.50400001928E-02 0.  1.
        1   -1    0    0  501    0  0.00000000000E+00  0.00000000000E+00 -0.23413115670E+04  0.23413115670E+04  0.50400001928E-02 0. -1.
    10030    2    1    2    0    0  0.00000000000E+00  0.00000000000E+00 -0.17271478514E+04  0.29554752826E+04  0.23982899002E+04 0.  0.
        5    1    3    3  502    0  0.10178742599E+04 -0.23782576685E+03 -0.15877135591E+04  0.19009170261E+04  0.46999998093E+01 0. -1.
       -5    1    3    3    0  502 -0.10178742599E+04  0.23782576685E+03 -0.13943429228E+03  0.10545582564E+04  0.46999998093E+01 0.  1.
</event>
<event>
 5   0  0.2087882E-05  0.2417493E+04  0.7818609E-02  0.8432983E-01
       -2   -1    0    0    0  501  0.00000000000E+00  0.00000000000E+00  0.11168593607E+04  0.11168593607E+04  0.25500000920E-02 0. -1.
        2   -1    0    0  501    0  0.00000000000E+00  0.00000000000E+00 -0.13081930572E+04  0.13081930572E+04  0.25500000920E-02 0.  1.
    10030    2    1    2    0    0  0.00000000000E+00  0.00000000000E+00 -0.19133369650E+03  0.24250524180E+04  0.24174926363E+04 0.  0.
        2    1    3    3  502    0  0.73177897675E+03 -0.86877863814E+00 -0.10607389676E+04  0.12886692295E+04  0.25500000920E-02 0.  1.
       -2    1    3    3    0  502 -0.73177897675E+03  0.86877863814E+00  0.86940527112E+03  0.11363831885E+04  0.25500000920E-02 0. -1.
</event>
<event>
 5   0  0.9176817E-06  0.2407982E+04  0.7818609E-02  0.8436521E-01
       -1   -1    0    0    0  501  0.00000000000E+00  0.00000000000E+00  0.12974362428E+04  0.12974362428E+04  0.50400001928E-02 0.  1.
        1   -1    0    0  501    0  0.00000000000E+00  0.00000000000E+00 -0.11172757726E+04  0.11172757726E+04  0.50400001928E-02 0. -1.
    10030    2    1    2    0    0  0.00000000000E+00  0.00000000000E+00  0.18016047017E+03  0.24147120154E+04  0.24079817945E+04 0.  0.
        3    1    3    3  502    0  0.85513706373E+03  0.35893651573E+03  0.86001472129E+03  0.12648004393E+04  0.10100000352E+00 0.  1.
       -3    1    3    3    0  502 -0.85513706373E+03 -0.35893651573E+03 -0.67985425112E+03  0.11499115762E+04  0.10100000352E+00 0. -1.
</event>
<event>
 5   0  0.8528103E-06  0.2387961E+04  0.7818609E-02  0.8444024E-01
        1   -1    0    0  501    0  0.00000000000E+00  0.00000000000E+00  0.11521416558E+04  0.11521416558E+04  0.50400001928E-02 0. -1.
       -1   -1    0    0    0  501  0.00000000000E+00  0.00000000000E+00 -0.12373388464E+04  0.12373388464E+04  0.50400001928E-02 0.  1.
    10030    2    1    2    0    0  0.00000000000E+00  0.00000000000E+00 -0.85197190655E+02  0.23894805022E+04  0.23879611616E+04 0.  0.
        4    1    3    3  502    0 -0.35675850726E+03 -0.10417564478E+04  0.41927377229E+03  0.11782721409E+04  0.12699999809E+01 0. -1.
       -4    1    3    3    0  502  0.35675850726E+03  0.10417564478E+04 -0.50447096294E+03  0.12112083613E+04  0.12699999809E+01 0.  1.
</event>
<event>
 5   0  0.2025353E-05  0.2408521E+04  0.7818609E-02  0.8436320E-01
       -2   -1    0    0    0  501  0.00000000000E+00  0.00000000000E+00  0.95304029879E+03  0.95304029879E+03  0.25500000920E-02 0. -1.
        2   -1    0    0  501    0  0.00000000000E+00  0.00000000000E+00 -0.15217021078E+04  0.15217021078E+04  0.25500000920E-02 0.  1.
    10030    2    1    2    0    0  0.00000000000E+00  0.00000000000E+00 -0.56866180900E+03  0.24747424066E+04  0.24085210661E+04 0.  0.
        4    1    3    3  502    0  0.11028400059E+03 -0.38317224212E+03 -0.14519094674E+04  0.15056647178E+04  0.12699999809E+01 0.  1.
       -4    1    3    3    0  502 -0.11028400059E+03  0.38317224212E+03  0.88324765842E+03  0.96907768880E+03  0.12699999809E+01 0. -1.
</event>
<event>
 5   0  0.8528103E-06  0.2395663E+04  0.7818609E-02  0.8441129E-01
       -1   -1    0    0    0  501  0.00000000000E+00  0.00000000000E+00  0.73567910882E+03  0.73567910884E+03  0.50400001928E-02 0.  1.
        1   -1    0    0  501    0  0.00000000000E+00  0.00000000000E+00 -0.19503077324E+04  0.19503077324E+04  0.50400001928E-02 0. -1.
    10030    2    1    2    0    0  0.00000000000E+00  0.00000000000E+00 -0.12146286235E+04  0.26859868412E+04  0.23956632940E+04 0.  0.
        4    1    3    3  502    0 -0.11639909281E+04 -0.83884000885E+02 -0.91000916195E+03  0.14798748914E+04  0.12699999809E+01 0. -1.
       -4    1    3    3    0  502  0.11639909281E+04  0.83884000885E+02 -0.30461946160E+03  0.12061119499E+04  0.12699999809E+01 0.  1.
</event>
<event>
 5   0  0.8528103E-06  0.2379545E+04  0.7818609E-02  0.8447201E-01
       -1   -1    0    0    0  501  0.00000000000E+00  0.00000000000E+00  0.86035118977E+03  0.86035118978E+03  0.50400001928E-02 0. -1.
        1   -1    0    0  501    0  0.00000000000E+00  0.00000000000E+00 -0.16453268497E+04  0.16453268497E+04  0.50400001928E-02 0.  1.
    10030    2    1    2    0    0  0.00000000000E+00  0.00000000000E+00 -0.78497565995E+03  0.25056780395E+04  0.23795452614E+04 0.  0.
        4    1    3    3  502    0  0.90157544381E+03  0.77335976836E+03 -0.46416728162E+03  0.12752946681E+04  0.12699999809E+01 0.  1.
       -4    1    3    3    0  502 -0.90157544381E+03 -0.77335976836E+03 -0.32080837834E+03  0.12303833714E+04  0.12699999809E+01 0. -1.
</event>
<event>
 5   0  0.9038897E-06  0.2337726E+04  0.7818609E-02  0.8463193E-01
        1   -1    0    0  501    0  0.00000000000E+00  0.00000000000E+00  0.10953278632E+04  0.10953278632E+04  0.50400001928E-02 0. -1.
       -1   -1    0    0    0  501  0.00000000000E+00  0.00000000000E+00 -0.12473347877E+04  0.12473347877E+04  0.50400001928E-02 0.  1.
    10030    2    1    2    0    0  0.00000000000E+00  0.00000000000E+00 -0.15200692458E+03  0.23426626509E+04  0.23377258588E+04 0.  0.
        1    1    3    3  502    0  0.49317487078E+03  0.22531107700E+03 -0.11136872056E+04  0.12386628785E+04  0.50400001928E-02 0.  1.
       -1    1    3    3    0  502 -0.49317487078E+03 -0.22531107700E+03  0.96168028103E+03  0.11039997724E+04  0.50400001928E-02 0. -1.
</event>
<event>
 5   0  0.2080257E-05  0.2206709E+04  0.7818609E-02  0.8515641E-01
        2   -1    0    0  501    0  0.00000000000E+00  0.00000000000E+00  0.72749112369E+03  0.72749112370E+03  0.25500000920E-02 0. -1.
       -2   -1    0    0    0  501  0.00000000000E+00  0.00000000000E+00 -0.16734102429E+04  0.16734102429E+04  0.25500000920E-02 0.  1.
    10030    2    1    2    0    0  0.00000000000E+00  0.00000000000E+00 -0.94591911916E+03  0.24009013666E+04  0.22067089504E+04 0.  0.
        1    1    3    3  502    0  0.61818504834E+03  0.67308304944E+03  0.19966576266E+03  0.93544639730E+03  0.50400001928E-02 0. -1.
       -1    1    3    3    0  502 -0.61818504834E+03 -0.67308304944E+03 -0.11455848818E+04  0.14654549692E+04  0.50400001928E-02 0.  1.
</event>
<event>
 5   0  0.9176817E-06  0.2394445E+04  0.7818609E-02  0.8441586E-01
       -1   -1    0    0    0  501  0.00000000000E+00  0.00000000000E+00  0.11381303766E+04  0.11381303766E+04  0.50400001928E-02 0. -1.
        1   -1    0    0  501    0  0.00000000000E+00  0.00000000000E+00 -0.12593825557E+04  0.12593825558E+04  0.50400001928E-02 0.  1.
    10030    2    1    2    0    0  0.00000000000E+00  0.00000000000E+00 -0.12125217915E+03  0.23975129324E+04  0.23944448563E+04 0.  0.
        3    1    3    3  502    0 -0.76718194189E+02 -0.41891599606E+03 -0.11809723120E+04  0.12554170243E+04  0.10100000352E+00 0.  1.
       -3    1    3    3    0  502  0.76718194189E+02  0.41891599606E+03  0.10597201328E+04  0.11420959081E+04  0.10100000352E+00 0. -1.
</event>
<event>
 5   0  0.2087882E-05  0.2410397E+04  0.7818609E-02  0.8435621E-01
       -2   -1    0    0    0  501  0.00000000000E+00  0.00000000000E+00  0.61820093310E+03  0.61820093311E+03  0.25500000920E-02 0.  1.
        2   -1    0    0  501    0  0.00000000000E+00  0.00000000000E+00 -0.23495659895E+04  0.23495659895E+04  0.25500000920E-02 0. -1.
    10030    2    1    2    0    0  0.00000000000E+00  0.00000000000E+00 -0.17313650564E+04  0.29677669226E+04  0.24103973839E+04 0.  0.
        2    1    3    3  502    0  0.20409727838E+03  0.82244044190E+03  0.18947979740E+03  0.86831248588E+03  0.25500000920E-02 0.  1.
       -2    1    3    3    0  502 -0.20409727838E+03 -0.82244044190E+03 -0.19208448538E+04  0.20994544367E+04  0.25500000920E-02 0. -1.
</event>
<event>
 5   0  0.2122194E-05  0.2386266E+04  0.7818609E-02  0.8444663E-01
       -2   -1    0    0    0  501  0.00000000000E+00  0.00000000000E+00  0.60599930745E+03  0.60599930745E+03  0.25500000920E-02 0.  1.
        2   -1    0    0  501    0  0.00000000000E+00  0.00000000000E+00 -0.23491213745E+04  0.23491213745E+04  0.25500000920E-02 0. -1.
    10030    2    1    2    0    0  0.00000000000E+00  0.00000000000E+00 -0.17431220670E+04  0.29551206819E+04  0.23862656399E+04 0.  0.
        3    1    3    3  502    0 -0.40747943324E+03 -0.60616197297E+03  0.29679281179E+03  0.78838937671E+03  0.10100000352E+00 0.  1.
       -3    1    3    3    0  502  0.40747943324E+03  0.60616197297E+03 -0.20399148788E+04  0.21667313052E+04  0.10100000352E+00 0. -1.
</event>
<event>
 5   0  0.7233625E-06  0.2407453E+04  0.7818609E-02  0.8436719E-01
       -3   -1    0    0    0  501  0.00000000000E+00  0.00000000000E+00  0.17810877637E+04  0.17810877666E+04  0.10100000352E+00 0. -1.
        3   -1    0    0  501    0  0.00000000000E+00  0.00000000000E+00 -0.81352364288E+03  0.81352364915E+03  0.10100000352E+00 0.  1.
    10030    2    1    2    0    0  0.00000000000E+00  0.00000000000E+00  0.96756412087E+03  0.25946114158E+04  0.24074526103E+04 0.  0.
        3    1    3    3  502    0 -0.55241517526E+03  0.84261682174E+03 -0.22604905570E+03  0.10326005132E+04  0.10100000352E+00 0.  1.
       -3    1    3    3    0  502  0.55241517526E+03 -0.84261682174E+03  0.11936131766E+04  0.15620109025E+04  0.10100000352E+00 0. -1.
</event>
<event>
 5   0  0.8898848E-06  0.2403025E+04  0.7818609E-02  0.8438372E-01
        1   -1    0    0  501    0  0.00000000000E+00  0.00000000000E+00  0.12922767832E+04  0.12922767832E+04  0.50400001928E-02 0. -1.
       -1   -1    0    0    0  501  0.00000000000E+00  0.00000000000E+00 -0.11171228991E+04  0.11171228991E+04  0.50400001928E-02 0.  1.
    10030    2    1    2    0    0  0.00000000000E+00  0.00000000000E+00  0.17515388409E+03  0.24093996822E+04  0.24030247493E+04 0.  0.
        5    1    3    3  502    0 -0.92862716383E+02  0.71127412121E+03 -0.87886577466E+03  0.11344432553E+04  0.46999998093E+01 0.  1.
       -5    1    3    3    0  502  0.92862716383E+02 -0.71127412121E+03  0.10540196587E+04  0.12749564270E+04  0.46999998093E+01 0. -1.
</event>
<event>
 5   0  0.2025353E-05  0.2413044E+04  0.7818609E-02  0.8434636E-01
       -2   -1    0    0    0  501  0.00000000000E+00  0.00000000000E+00  0.64500424256E+03  0.64500424256E+03  0.25500000920E-02 0. -1.
        2   -1    0    0  501    0  0.00000000000E+00  0.00000000000E+00 -0.22568769052E+04  0.22568769052E+04  0.25500000920E-02 0.  1.
    10030    2    1    2    0    0  0.00000000000E+00  0.00000000000E+00 -0.16118726627E+04  0.29018811478E+04  0.24130438693E+04 0.  0.
        4    1    3    3  502    0 -0.84293128216E+03 -0.85352520884E+03 -0.96113518624E+03  0.15371469961E+04  0.12699999809E+01 0. -1.
       -4    1    3    3    0  502  0.84293128216E+03  0.85352520884E+03 -0.65073747642E+03  0.13647341517E+04  0.12699999809E+01 0.  1.
</event>
<event>
 5   0  0.2025353E-05  0.2392460E+04  0.7818609E-02  0.8442332E-01
        2   -1    0    0  501    0  0.00000000000E+00  0.00000000000E+00  0.14677454477E+04  0.14677454477E+04  0.25500000920E-02 0.  1.
       -2   -1    0    0    0  501  0.00000000000E+00  0.00000000000E+00 -0.97494177121E+03  0.97494177121E+03  0.25500000920E-02 0. -1.
    10030    2    1    2    0    0  0.00000000000E+00  0.00000000000E+00  0.49280367654E+03  0.24426872190E+04  0.23924601117E+04 0.  0.
        4    1    3    3  502    0 -0.74741980171E+03 -0.79913055910E+03 -0.24719220140E+03  0.11217627235E+04  0.12699999809E+01 0.  1.
       -4    1    3    3    0  502  0.74741980171E+03  0.79913055910E+03  0.73999587794E+03  0.13209244955E+04  0.12699999809E+01 0. -1.
</event>
<event>
 5   0  0.2087882E-05  0.2414034E+04  0.7818609E-02  0.8434268E-01
       -2   -1    0    0    0  501  0.00000000000E+00  0.00000000000E+00  0.75894117297E+03  0.75894117297E+03  0.25500000920E-02 0. -1.
        2   -1    0    0  501    0  0.00000000000E+00  0.00000000000E+00 -0.19196349930E+04  0.19196349930E+04  0.25500000920E-02 0.  1.
    10030    2    1    2    0    0  0.00000000000E+00  0.00000000000E+00 -0.11606938200E+04  0.26785761659E+04  0.24140339958E+04 0.  0.
        2    1    3    3  502    0  0.11644219890E+04  0.14818377512E+03 -0.26837184193E+03  0.12041015096E+04  0.25500000920E-02 0. -1.
       -2    1    3    3    0  502 -0.11644219890E+04 -0.14818377512E+03 -0.89232197806E+03  0.14744746564E+04  0.25500000920E-02 0.  1.
</event>
<event>
 5   0  0.8898848E-06  0.2404802E+04  0.7818609E-02  0.8437708E-01
        1   -1    0    0  501    0  0.00000000000E+00  0.00000000000E+00  0.12318255454E+04  0.12318255454E+04  0.50400001928E-02 0. -1.
       -1   -1    0    0    0  501  0.00000000000E+00  0.00000000000E+00 -0.11736796214E+04  0.11736796214E+04  0.50400001928E-02 0.  1.
    10030    2    1    2    0    0  0.00000000000E+00  0.00000000000E+00  0.58145923916E+02  0.24055051668E+04  0.24048023119E+04 0.  0.
        5    1    3    3  502    0 -0.45860974943E+03 -0.72334789946E+03 -0.81508800080E+03  0.11823475060E+04  0.46999998093E+01 0.  1.
       -5    1    3    3    0  502  0.45860974943E+03  0.72334789946E+03  0.87323392471E+03  0.12231576608E+04  0.46999998093E+01 0. -1.
</event>
<event>
 5   0  0.2122194E-05  0.2409508E+04  0.7818609E-02  0.8435953E-01
        2   -1    0    0  501    0  0.00000000000E+00  0.00000000000E+00  0.95107732857E+03  0.95107732858E+03  0.25500000920E-02 0. -1.
       -2   -1    0    0    0  501  0.00000000000E+00  0.00000000000E+00 -0.15260926076E+04  0.15260926076E+04  0.25500000920E-02 0.  1.
    10030    2    1    2    0    0  0.00000000000E+00  0.00000000000E+00 -0.57501527902E+03  0.24771699362E+04  0.24095079003E+04 0.  0.
        3    1    3    3  502    0 -0.70267867694E+03 -0.84961152957E+03  0.21175787770E+03  0.11226925150E+04  0.10100000352E+00 0. -1.
       -3    1    3    3    0  502  0.70267867694E+03  0.84961152957E+03 -0.78677315672E+03  0.13544774212E+04  0.10100000352E+00 0.  1.
</event>
<event>
 5   0  0.7233625E-06  0.2407549E+04  0.7818609E-02  0.8436683E-01
        3   -1    0    0  501    0  0.00000000000E+00  0.00000000000E+00  0.13438605927E+04  0.13438605965E+04  0.10100000352E+00 0. -1.
       -3   -1    0    0    0  501  0.00000000000E+00  0.00000000000E+00 -0.10782916111E+04  0.10782916159E+04  0.10100000352E+00 0.  1.
    10030    2    1    2    0    0  0.00000000000E+00  0.00000000000E+00  0.26556898153E+03  0.24221522123E+04  0.24075494711E+04 0.  0.
        2    1    3    3  502    0 -0.50573298836E+03  0.17617820745E+03 -0.95184032923E+03  0.10921559544E+04  0.25500000920E-02 0.  1.
       -2    1    3    3    0  502  0.50573298836E+03 -0.17617820745E+03  0.12174093108E+04  0.13299962580E+04  0.25500000920E-02 0. -1.
</event>
<event>
 5   0  0.9176817E-06  0.2405569E+04  0.7818609E-02  0.8437422E-01
       -1   -1    0    0    0  501  0.00000000000E+00  0.00000000000E+00  0.14648010530E+04  0.14648010530E+04  0.50400001928E-02 0.  1.
        1   -1    0    0  501    0  0.00000000000E+00  0.00000000000E+00 -0.98763598781E+03  0.98763598782E+03  0.50400001928E-02 0. -1.
    10030    2    1    2    0    0  0.00000000000E+00  0.00000000000E+00  0.47716506516E+03  0.24524370408E+04  0.24055687352E+04 0.  0.
        3    1    3    3  502    0 -0.32268228136E+03  0.51409222791E+02  0.14186860154E+04  0.14558285556E+04  0.10100000352E+00 0.  1.
       -3    1    3    3    0  502  0.32268228136E+03 -0.51409222791E+02 -0.94152095021E+03  0.99660848520E+03  0.10100000352E+00 0. -1.
</event>
<event>
 5   0  0.7233625E-06  0.2424763E+04  0.7818609E-02  0.8430291E-01
       -3   -1    0    0    0  501  0.00000000000E+00  0.00000000000E+00  0.10593709249E+04  0.10593709297E+04  0.10100000352E+00 0. -1.
        3   -1    0    0  501    0  0.00000000000E+00  0.00000000000E+00 -0.13874917820E+04  0.13874917857E+04  0.10100000352E+00 0.  1.
    10030    2    1    2    0    0  0.00000000000E+00  0.00000000000E+00 -0.32812085707E+03  0.24468627154E+04  0.24247626381E+04 0.  0.
        4    1    3    3  502    0 -0.78546802964E+03 -0.25292250291E+03 -0.10603772410E+04  0.13436261847E+04  0.12699999809E+01 0.  1.
       -4    1    3    3    0  502  0.78546802964E+03  0.25292250291E+03  0.73225638388E+03  0.11032365307E+04  0.12699999809E+01 0. -1.
</event>
<event>
 5   0  0.2025353E-05  0.2356310E+04  0.7818609E-02  0.8456044E-01
       -2   -1    0    0    0  501  0.00000000000E+00  0.00000000000E+00  0.84246656709E+03  0.84246656709E+03  0.25500000920E-02 0.  1.
        2   -1    0    0  501    0  0.00000000000E+00  0.00000000000E+00 -0.16476020917E+04  0.16476020917E+04  0.25500000920E-02 0. -1.
    10030    2    1    2    0    0  0.00000000000E+00  0.00000000000E+00 -0.80513552461E+03  0.24900686588E+04  0.23563104024E+04 0.  0.
        4    1    3    3  502    0 -0.10768800818E+04 -0.33755386802E+03 -0.76005271542E+03  0.13606230439E+04  0.12699999809E+01 0. -1.
       -4    1    3    3    0  502  0.10768800818E+04  0.33755386802E+03 -0.45082809185E+02  0.11294456149E+04  0.12699999809E+01 0.  1.
</event>
<event>
 5   0  0.8528103E-06  0.2404487E+04  0.7818609E-02  0.8437826E-01
        1   -1    0    0  501    0  0.00000000000E+00  0.00000000000E+00  0.51601340134E+03  0.51601340137E+03  0.50400001928E-02 0. -1.
       -1   -1    0    0    0  501  0.00000000000E+00  0.00000000000E+00 -0.28010699832E+04  0.28010699832E+04  0.50400001928E-02 0.  1.
    10030    2    1    2    0    0  0.00000000000E+00  0.00000000000E+00 -0.22850565818E+04  0.33170833846E+04  0.24044871798E+04 0.  0.
        4    1    3    3  502    0 -0.10292854364E+04 -0.53906378153E+03 -0.71649917338E+03  0.13650607856E+04  0.12699999809E+01 0. -1.
       -4    1    3    3    0  502  0.10292854364E+04  0.53906378153E+03 -0.15685574085E+04  0.19520225989E+04  0.12699999809E+01 0.  1.
</event>
<event>
 5   0  0.9176817E-06  0.2395042E+04  0.7818609E-02  0.8441362E-01
       -1   -1    0    0    0  501  0.00000000000E+00  0.00000000000E+00  0.13029985143E+04  0.13029985143E+04  0.50400001928E-02 0. -1.
        1   -1    0    0  501    0  0.00000000000E+00  0.00000000000E+00 -0.11005819962E+04  0.11005819962E+04  0.50400001928E-02 0.  1.
    10030    2    1    2    0    0  0.00000000000E+00  0.00000000000E+00  0.20241651807E+03  0.24035805105E+04  0.23950421340E+04 0.  0.
        3    1    3    3  502    0 -0.73411290002E+03 -0.86713909485E+03 -0.27856484673E+03  0.11698078235E+04  0.10100000352E+00 0.  1.
       -3    1    3    3    0  502  0.73411290002E+03  0.86713909485E+03  0.48098136481E+03  0.12337726870E+04  0.10100000352E+00 0. -1.
</event>
<event>
 5   0  0.2087882E-05  0.2372396E+04  0.7818609E-02  0.8449911E-01
       -2   -1    0    0    0  501  0.00000000000E+00  0.00000000000E+00  0.47163844086E+03  0.47163844087E+03  0.25500000920E-02 0. -1.
        2   -1    0    0  501    0  0.00000000000E+00  0.00000000000E+00 -0.29833573828E+04  0.29833573828E+04  0.25500000920E-02 0.  1.
    10030    2    1    2    0    0  0.00000000000E+00  0.00000000000E+00 -0.25117189419E+04  0.34549958237E+04  0.23723962777E+04 0.  0.
        2    1    3    3  502    0  0.10421793912E+04  0.33812006311E+02 -0.43231081655E+03  0.11287930623E+04  0.25500000920E-02 0. -1.
       -2    1    3    3    0  502 -0.10421793912E+04 -0.33812006311E+02 -0.20794081254E+04  0.23262027614E+04  0.25500000920E-02 0.  1.
</event>
<event>
 5   0  0.9176817E-06  0.2377143E+04  0.7818609E-02  0.8448111E-01
       -1   -1    0    0    0  501  0.00000000000E+00  0.00000000000E+00  0.87166407469E+03  0.87166407470E+03  0.50400001928E-02 0. -1.
        1   -1    0    0  501    0  0.00000000000E+00  0.00000000000E+00 -0.16206950241E+04  0.16206950241E+04  0.50400001928E-02 0.  1.
    10030    2    1    2    0    0  0.00000000000E+00  0.00000000000E+00 -0.74903094944E+03  0.24923590988E+04  0.23771425103E+04 0.  0.
        3    1    3    3  502    0 -0.49074522619E+03  0.76790034532E+03  0.42548717116E+03  0.10057540258E+04  0.10100000352E+00 0. -1.
       -3    1    3    3    0  502  0.49074522619E+03 -0.76790034532E+03 -0.11745181206E+04  0.14866050730E+04  0.10100000352E+00 0.  1.
</event>
<event>
 5   0  0.2025353E-05  0.2360292E+04  0.7818609E-02  0.8454521E-01
        2   -1    0    0  501    0  0.00000000000E+00  0.00000000000E+00  0.12460819834E+04  0.12460819835E+04  0.25500000920E-02 0.  1.
       -2   -1    0    0    0  501  0.00000000000E+00  0.00000000000E+00 -0.11176989819E+04  0.11176989819E+04  0.25500000920E-02 0. -1.
    10030    2    1    2    0    0  0.00000000000E+00  0.00000000000E+00  0.12838300157E+03  0.23637809653E+04  0.23602919855E+04 0.  0.
        4    1    3    3  502    0  0.49530221215E+03 -0.99156892944E+03  0.47001850343E+03  0.12039319871E+04  0.12699999809E+01 0.  1.
       -4    1    3    3    0  502 -0.49530221215E+03  0.99156892944E+03 -0.34163550186E+03  0.11598489782E+04  0.12699999809E+01 0. -1.
</event>
<event>
 5   0  0.2080257E-05  0.2415348E+04  0.7818609E-02  0.8433780E-01
       -2   -1    0    0    0  501  0.00000000000E+00  0.00000000000E+00  0.73947311710E+03  0.73947311711E+03  0.25500000920E-02 0.  1.
        2   -1    0    0  501    0  0.00000000000E+00  0.00000000000E+00 -0.19723179635E+04  0.19723179635E+04  0.25500000920E-02 0. -1.
    10030    2    1    2    0    0  0.00000000000E+00  0.00000000000E+00 -0.12328448464E+04  0.27117910806E+04  0.24153476871E+04 0.  0.
        1    1    3    3  502    0  0.75809723076E+03 -0.23496429660E+03  0.40554636266E+03  0.89128417705E+03  0.50400001928E-02 0.  1.
       -1    1    3    3    0  502 -0.75809723076E+03  0.23496429660E+03 -0.16383912091E+04  0.18205069036E+04  0.50400001928E-02 0. -1.
</event>
<event>
 5   0  0.2080257E-05  0.2405870E+04  0.7818609E-02  0.8437309E-01
       -2   -1    0    0    0  501  0.00000000000E+00  0.00000000000E+00  0.83948128519E+03  0.83948128519E+03  0.25500000920E-02 0.  1.
        2   -1    0    0  501    0  0.00000000000E+00  0.00000000000E+00 -0.17237460978E+04  0.17237460978E+04  0.25500000920E-02 0. -1.
    10030    2    1    2    0    0  0.00000000000E+00  0.00000000000E+00 -0.88426481256E+03  0.25632273830E+04  0.24058699794E+04 0.  0.
        1    1    3    3  502    0  0.66173589217E+03 -0.47088317282E+03 -0.13875424181E+04  0.16077622074E+04  0.50400001928E-02 0. -1.
       -1    1    3    3    0  502 -0.66173589217E+03  0.47088317282E+03  0.50327760555E+03  0.95546517556E+03  0.50400001928E-02 0.  1.
</event>
<event>
 5   0  0.2122194E-05  0.2392853E+04  0.7818609E-02  0.8442184E-01
       -2   -1    0    0    0  501  0.00000000000E+00  0.00000000000E+00  0.11062069575E+04  0.11062069575E+04  0.25500000920E-02 0.  1.
        2   -1    0    0  501    0  0.00000000000E+00  0.00000000000E+00 -0.12940043004E+04  0.12940043004E+04  0.25500000920E-02 0. -1.
    10030    2    1    2    0    0  0.00000000000E+00  0.00000000000E+00 -0.18779734287E+03  0.24002112579E+04  0.23928531590E+04 0.  0.
        3    1    3    3  502    0  0.22901707948E+03  0.11126893667E+04  0.28263557527E+03  0.11706448343E+04  0.10100000352E+00 0.  1.
       -3    1    3    3    0  502 -0.22901707948E+03 -0.11126893667E+04 -0.47043291814E+03  0.12295664236E+04  0.10100000352E+00 0. -1.
</event>
<event>
 5   0  0.2048028E-05  0.2519125E+04  0.7818609E-02  0.8396204E-01
        2   -1    0    0  501    0  0.00000000000E+00  0.00000000000E+00  0.14733272116E+04  0.14733272116E+04  0.25500000920E-02 0. -1.
       -2   -1    0    0    0  501  0.00000000000E+00  0.00000000000E+00 -0.10768124369E+04  0.10768124369E+04  0.25500000920E-02 0.  1.
    10030    2    1    2    0    0  0.00000000000E+00  0.00000000000E+00  0.39651477475E+03  0.25501396485E+04  0.25191245027E+04 0.  0.
        5    1    3    3  502    0 -0.29441935221E+03 -0.78254636894E+03 -0.75536694234E+03  0.11267931851E+04  0.46999998093E+01 0.  1.
       -5    1    3    3    0  502  0.29441935221E+03  0.78254636894E+03  0.11518817171E+04  0.14233464633E+04  0.46999998093E+01 0. -1.
</event>
<event>
 5   0  0.9176817E-06  0.2393569E+04  0.7818609E-02  0.8441915E-01
       -1   -1    0    0    0  501  0.00000000000E+00  0.00000000000E+00  0.86690030192E+03  0.86690030194E+03  0.50400001928E-02 0.  1.
        1   -1    0    0  501    0  0.00000000000E+00  0.00000000000E+00 -0.16522009694E+04  0.16522009695E+04  0.50400001928E-02 0. -1.
    10030    2    1    2    0    0  0.00000000000E+00  0.00000000000E+00 -0.78530066753E+03  0.25191012714E+04  0.23935693174E+04 0.  0.
        3    1    3    3  502    0  0.35226259251E+03 -0.76965128361E+03 -0.12830972765E+04  0.15371371649E+04  0.10100000352E+00 0. -1.
       -3    1    3    3    0  502 -0.35226259251E+03  0.76965128361E+03  0.49779660896E+03  0.98196410654E+03  0.10100000352E+00 0.  1.
</event>
<event>
 5   0  0.8528103E-06  0.2397733E+04  0.7818609E-02  0.8440353E-01
        1   -1    0    0  501    0  0.00000000000E+00  0.00000000000E+00  0.17926814140E+04  0.17926814140E+04  0.50400001928E-02 0.  1.
       -1   -1    0    0    0  501  0.00000000000E+00  0.00000000000E+00 -0.80174914024E+03  0.80174914026E+03  0.50400001928E-02 0. -1.
    10030    2    1    2    0    0  0.00000000000E+00  0.00000000000E+00  0.99093227378E+03  0.25944305543E+04  0.23977329146E+04 0.  0.
        4    1    3    3  502    0  0.61997399835E+02  0.11899471157E+04  0.35248452129E+03  0.12426040264E+04  0.12699999809E+01 0. -1.
       -4    1    3    3    0  502 -0.61997399835E+02 -0.11899471157E+04  0.63844775249E+03  0.13518265279E+04  0.12699999809E+01 0.  1.
</event>
<event>
 5   0  0.2025353E-05  0.2369553E+04  0.7818609E-02  0.8450991E-01
       -2   -1    0    0    0  501  0.00000000000E+00  0.00000000000E+00  0.48950983321E+03  0.48950983322E+03  0.25500000920E-02 0. -1.
        2   -1    0    0  501    0  0.00000000000E+00  0.00000000000E+00 -0.28675537061E+04  0.28675537061E+04  0.25500000920E-02 0.  1.
    10030    2    1    2    0    0  0.00000000000E+00  0.00000000000E+00 -0.23780438729E+04  0.33570635393E+04  0.23695533220E+04 0.  0.
        4    1    3    3  502    0  0.62738513865E+03  0.61834041445E+03 -0.66533208550E+02  0.88339417084E+03  0.12699999809E+01 0. -1.
       -4    1    3    3    0  502 -0.62738513865E+03 -0.61834041445E+03 -0.23115106644E+04  0.24736693685E+04  0.12699999809E+01 0.  1.
</event>
<event>
 5   0  0.9176817E-06  0.2359811E+04  0.7818609E-02  0.8454705E-01
       -1   -1    0    0    0  501  0.00000000000E+00  0.00000000000E+00  0.10039354250E+04  0.10039354251E+04  0.50400001928E-02 0. -1.
        1   -1    0    0  501    0  0.00000000000E+00  0.00000000000E+00 -0.13867193336E+04  0.13867193336E+04  0.50400001928E-02 0.  1.
    10030    2    1    2    0    0  0.00000000000E+00  0.00000000000E+00 -0.38278390860E+03  0.23906547587E+04  0.23598107243E+04 0.  0.
        3    1    3    3  502    0  0.96500737748E+03 -0.45982103439E+03  0.31463859389E+03  0.11143034045E+04  0.10100000352E+00 0. -1.
       -3    1    3    3    0  502 -0.96500737748E+03  0.45982103439E+03 -0.69742250248E+03  0.12763513542E+04  0.10100000352E+00 0.  1.
</event>
<event>
 5   0  0.9083687E-06  0.2362542E+04  0.7818609E-02  0.8453662E-01
        1   -1    0    0  501    0  0.00000000000E+00  0.00000000000E+00  0.12622957403E+04  0.12622957403E+04  0.50400001928E-02 0.  1.
       -1   -1    0    0    0  501  0.00000000000E+00  0.00000000000E+00 -0.11054472368E+04  0.11054472368E+04  0.50400001928E-02 0. -1.
    10030    2    1    2    0    0  0.00000000000E+00  0.00000000000E+00  0.15684850348E+03  0.23677429772E+04  0.23625421378E+04 0.  0.
        2    1    3    3  502    0  0.90702645942E+03  0.58562301797E+03 -0.40195337667E+03  0.11520494062E+04  0.25500000920E-02 0.  1.
       -2    1    3    3    0  502 -0.90702645942E+03 -0.58562301797E+03  0.55880188014E+03  0.12156935710E+04  0.25500000920E-02 0. -1.
</event>
<event>
 5   0  0.9176817E-06  0.2391740E+04  0.7818609E-02  0.8442602E-01
       -1   -1    0    0    0  501  0.00000000000E+00  0.00000000000E+00  0.94863223433E+03  0.94863223434E+03  0.50400001928E-02 0.  1.
        1   -1    0    0  501    0  0.00000000000E+00  0.00000000000E+00 -0.15075448141E+04  0.15075448141E+04  0.50400001928E-02 0. -1.
    10030    2    1    2    0    0  0.00000000000E+00  0.00000000000E+00 -0.55891257981E+03  0.24561770485E+04  0.23917404587E+04 0.  0.
        3    1    3    3  502    0 -0.31363930523E+03 -0.14227008211E+03  0.89660233776E+03  0.96047183838E+03  0.10100000352E+00 0.  1.
       -3    1    3    3    0  502  0.31363930523E+03  0.14227008211E+03 -0.14555149176E+04  0.14957052101E+04  0.10100000352E+00 0. -1.
</event>
<event>
 5   0  0.9176817E-06  0.2407443E+04  0.7818609E-02  0.8436722E-01
        1   -1    0    0  501    0  0.00000000000E+00  0.00000000000E+00  0.18013020251E+04  0.18013020251E+04  0.50400001928E-02 0.  1.
       -1   -1    0    0    0  501  0.00000000000E+00  0.00000000000E+00 -0.80438780344E+03  0.80438780345E+03  0.50400001928E-02 0. -1.
    10030    2    1    2    0    0  0.00000000000E+00  0.00000000000E+00  0.99691422164E+03  0.26056898285E+04  0.24074429416E+04 0.  0.
        3    1    3    3  502    0  0.60113841043E+03 -0.12004943911E+03  0.16197012609E+04  0.17318231552E+04  0.10100000352E+00 0.  1.
       -3    1    3    3    0  502 -0.60113841043E+03  0.12004943911E+03 -0.62278703922E+03  0.87386667332E+03  0.10100000352E+00 0. -1.
</event>
<event>
 5   0  0.8898848E-06  0.2357332E+04  0.7818609E-02  0.8455653E-01
        1   -1    0    0  501    0  0.00000000000E+00  0.00000000000E+00  0.10528788987E+04  0.10528788987E+04  0.50400001928E-02 0.  1.
       -1   -1    0    0    0  501  0.00000000000E+00  0.00000000000E+00 -0.13194804689E+04  0.13194804689E+04  0.50400001928E-02 0. -1.
    10030    2    1    2    0    0  0.00000000000E+00  0.00000000000E+00 -0.26660157018E+03  0.23723593676E+04  0.23573316635E+04 0.  0.
        5    1    3    3  502    0  0.11598829186E+03 -0.92115694262E+03 -0.86404791167E+03  0.12682997597E+04  0.46999998093E+01 0. -1.
       -5    1    3    3    0  502 -0.11598829186E+03  0.92115694262E+03  0.59744634149E+03  0.11040596079E+04  0.46999998093E+01 0.  1.
</event>
<event>
 5   0  0.9083687E-06  0.2394331E+04  0.7818609E-02  0.8441629E-01
        1   -1    0    0  501    0  0.00000000000E+00  0.00000000000E+00  0.24062778752E+04  0.24062778752E+04  0.50400001928E-02 0.  1.
       -1   -1    0    0    0  501  0.00000000000E+00  0.00000000000E+00 -0.59561065180E+03  0.59561065183E+03  0.50400001928E-02 0. -1.
    10030    2    1    2    0    0  0.00000000000E+00  0.00000000000E+00  0.18106672234E+04  0.30018885270E+04  0.23943305818E+04 0.  0.
        2    1    3    3  502    0 -0.61222345660E+03  0.33704728651E+03 -0.31331147491E+03  0.76588675042E+03  0.25500000920E-02 0. -1.
       -2    1    3    3    0  502  0.61222345660E+03 -0.33704728651E+03  0.21239786983E+04  0.22360017766E+04  0.25500000920E-02 0.  1.
</event>
<event>
 5   0  0.9083687E-06  0.2398283E+04  0.7818609E-02  0.8440147E-01
       -1   -1    0    0    0  501  0.00000000000E+00  0.00000000000E+00  0.78495544295E+03  0.78495544297E+03  0.50400001928E-02 0. -1.
        1   -1    0    0  501    0  0.00000000000E+00  0.00000000000E+00 -0.18318756879E+04  0.18318756879E+04  0.50400001928E-02 0.  1.
    10030    2    1    2    0    0  0.00000000000E+00  0.00000000000E+00 -0.10469202450E+04  0.26168311309E+04  0.23982833795E+04 0.  0.
        2    1    3    3  502    0  0.10299473174E+04 -0.56078151270E+03 -0.79661997176E+03  0.14176991080E+04  0.25500000920E-02 0. -1.
       -2    1    3    3    0  502 -0.10299473174E+04  0.56078151270E+03 -0.25030027323E+03  0.11991320229E+04  0.25500000920E-02 0.  1.
</event>
<event>
 5   0  0.2048028E-05  0.2397230E+04  0.7818609E-02  0.8440541E-01
        2   -1    0    0  501    0  0.00000000000E+00  0.00000000000E+00  0.12493818699E+04  0.12493818699E+04  0.25500000920E-02 0. -1.
       -2   -1    0    0    0  501  0.00000000000E+00  0.00000000000E+00 -0.11499113027E+04  0.11499113027E+04  0.25500000920E-02 0.  1.
    10030    2    1    2    0    0  0.00000000000E+00  0.00000000000E+00  0.99470567246E+02  0.23992931726E+04  0.23972303465E+04 0.  0.
        5    1    3    3  502    0 -0.10967225635E+04  0.48354188516E+03  0.43163994046E+02  0.11993741519E+04  0.46999998093E+01 0. -1.
       -5    1    3    3    0  502  0.10967225635E+04 -0.48354188516E+03  0.56306573200E+02  0.11999190206E+04  0.46999998093E+01 0.  1.
</event>
<event>
 5   0  0.9176817E-06  0.2384246E+04  0.7818609E-02  0.8445425E-01
       -1   -1    0    0    0  501  0.00000000000E+00  0.00000000000E+00  0.12836696751E+04  0.12836696751E+04  0.50400001928E-02 0. -1.
        1   -1    0    0  501    0  0.00000000000E+00  0.00000000000E+00 -0.11071054494E+04  0.11071054494E+04  0.50400001928E-02 0.  1.
    10030    2    1    2    0    0  0.00000000000E+00  0.00000000000E+00  0.17656422565E+03  0.23907751245E+04  0.23842463736E+04 0.  0.
        3    1    3    3  502    0 -0.13217695696E+03  0.86152123107E+03  0.90381607391E+03  0.12556166155E+04  0.10100000352E+00 0. -1.
       -3    1    3    3    0  502  0.13217695696E+03 -0.86152123107E+03 -0.72725184826E+03  0.11351585090E+04  0.10100000352E+00 0.  1.
</event>
<event>
 5   0  0.2048028E-05  0.2417497E+04  0.7818609E-02  0.8432982E-01
        2   -1    0    0  501    0  0.00000000000E+00  0.00000000000E+00  0.11631276742E+04  0.11631276742E+04  0.25500000920E-02 0. -1.
       -2   -1    0    0    0  501  0.00000000000E+00  0.00000000000E+00 -0.12561589648E+04  0.12561589648E+04  0.25500000920E-02 0.  1.
    10030    2    1    2    0    0  0.00000000000E+00  0.00000000000E+00 -0.93031290610E+02  0.24192866390E+04  0.24174972638E+04 0.  0.
        5    1    3    3  502    0 -0.53454779656E+03 -0.89570001188E+03 -0.65773060719E+03  0.12331469903E+04  0.46999998093E+01 0.  1.
       -5    1    3    3    0  502  0.53454779656E+03  0.89570001188E+03  0.56469931658E+03  0.11861396487E+04  0.46999998093E+01 0. -1.
</event>
<event>
 5   0  0.9176817E-06  0.2403584E+04  0.7818609E-02  0.8438163E-01
       -1   -1    0    0    0  501  0.00000000000E+00  0.00000000000E+00  0.12529405281E+04  0.12529405281E+04  0.50400001928E-02 0.  1.
        1   -1    0    0  501    0  0.00000000000E+00  0.00000000000E+00 -0.11527315365E+04  0.11527315365E+04  0.50400001928E-02 0. -1.
    10030    2    1    2    0    0  0.00000000000E+00  0.00000000000E+00  0.10020899157E+03  0.24056720646E+04  0.24035840406E+04 0.  0.
        3    1    3    3  502    0 -0.23452040387E+03  0.31557639837E+03 -0.10865385991E+04  0.11554888232E+04  0.10100000352E+00 0. -1.
       -3    1    3    3    0  502  0.23452040387E+03 -0.31557639837E+03  0.11867475906E+04  0.12501832414E+04  0.10100000352E+00 0.  1.
</event>
<event>
 5   0  0.2025353E-05  0.2497004E+04  0.7818609E-02  0.8404054E-01
        2   -1    0    0  501    0  0.00000000000E+00  0.00000000000E+00  0.13915931676E+04  0.13915931676E+04  0.25500000920E-02 0.  1.
       -2   -1    0    0    0  501  0.00000000000E+00  0.00000000000E+00 -0.11201245241E+04  0.11201245241E+04  0.25500000920E-02 0. -1.
    10030    2    1    2    0    0  0.00000000000E+00  0.00000000000E+00  0.27146864345E+03  0.25117176917E+04  0.24970043128E+04 0.  0.
        4    1    3    3  502    0  0.45492105239E+03 -0.62296495822E+02 -0.10321072040E+04  0.11296375130E+04  0.12699999809E+01 0. -1.
       -4    1    3    3    0  502 -0.45492105239E+03  0.62296495822E+02  0.13035758475E+04  0.13820801787E+04  0.12699999809E+01 0.  1.
</event>
<event>
 5   0  0.8528103E-06  0.2381359E+04  0.7818609E-02  0.8446516E-01
        1   -1    0    0  501    0  0.00000000000E+00  0.00000000000E+00  0.16810161731E+04  0.16810161731E+04  0.50400001928E-02 0. -1.
       -1   -1    0    0    0  501  0.00000000000E+00  0.00000000000E+00 -0.84336960894E+03  0.84336960895E+03  0.50400001928E-02 0.  1.
    10030    2    1    2    0    0  0.00000000000E+00  0.00000000000E+00  0.83764656419E+03  0.25243857821E+04  0.23813592359E+04 0.  0.
        4    1    3    3  502    0 -0.26240429970E+03  0.11573183648E+04  0.31563994997E+03  0.12279543986E+04  0.12699999809E+01 0.  1.
       -4    1    3    3    0  502  0.26240429970E+03 -0.11573183648E+04  0.52200661422E+03  0.12964313835E+04  0.12699999809E+01 0. -1.
</event>
<event>
 5   0  0.2025353E-05  0.2402581E+04  0.7818609E-02  0.8438538E-01
       -2   -1    0    0    0  501  0.00000000000E+00  0.00000000000E+00  0.15726552977E+04  0.15726552977E+04  0.25500000920E-02 0.  1.
        2   -1    0    0  501    0  0.00000000000E+00  0.00000000000E+00 -0.91761965073E+03  0.91761965074E+03  0.25500000920E-02 0. -1.
    10030    2    1    2    0    0  0.00000000000E+00  0.00000000000E+00  0.65503564692E+03  0.24902749484E+04  0.24025814492E+04 0.  0.
        4    1    3    3  502    0 -0.11370266706E+04 -0.37683433696E+03  0.23329307438E+03  0.12203528336E+04  0.12699999809E+01 0. -1.
       -4    1    3    3    0  502  0.11370266706E+04  0.37683433696E+03  0.42174257254E+03  0.12699221147E+04  0.12699999809E+01 0.  1.
</event>
<event>
 5   0  0.2087882E-05  0.2427323E+04  0.7818609E-02  0.8429344E-01
       -2   -1    0    0    0  501  0.00000000000E+00  0.00000000000E+00  0.73665127894E+03  0.73665127894E+03  0.25500000920E-02 0.  1.
        2   -1    0    0  501    0  0.00000000000E+00  0.00000000000E+00 -0.19995546380E+04  0.19995546380E+04  0.25500000920E-02 0. -1.
    10030    2    1    2    0    0  0.00000000000E+00  0.00000000000E+00 -0.12629033590E+04  0.27362059169E+04  0.24273232017E+04 0.  0.
        2    1    3    3  502    0 -0.37634416753E+03 -0.59686043963E+03 -0.17445797053E+04  0.18818702572E+04  0.25500000920E-02 0. -1.
       -2    1    3    3    0  502  0.37634416753E+03  0.59686043963E+03  0.48167634629E+03  0.85433565968E+03  0.25500000920E-02 0.  1.
</event>
<event>
 5   0  0.9038897E-06  0.2286471E+04  0.7818609E-02  0.8483275E-01
       -1   -1    0    0    0  501  0.00000000000E+00  0.00000000000E+00  0.60969869623E+03  0.60969869625E+03  0.50400001928E-02 0.  1.
        1   -1    0    0  501    0  0.00000000000E+00  0.00000000000E+00 -0.21436610004E+04  0.21436610004E+04  0.50400001928E-02 0. -1.
    10030    2    1    2    0    0  0.00000000000E+00  0.00000000000E+00 -0.15339623042E+04  0.27533596966E+04  0.22864709201E+04 0.  0.
        1    1    3    3  502    0 -0.33644157635E+03 -0.53690693285E+03  0.37892109186E+03  0.73827039946E+03  0.50400001928E-02 0.  1.
       -1    1    3    3    0  502  0.33644157635E+03  0.53690693285E+03 -0.19128833960E+04  0.20150892972E+04  0.50400001928E-02 0. -1.
</event>
<event>
 5   0  0.7233625E-06  0.2403061E+04  0.7818609E-02  0.8438358E-01
       -3   -1    0    0    0  501  0.00000000000E+00  0.00000000000E+00  0.66671332156E+03  0.66671332921E+03  0.10100000352E+00 0. -1.
        3   -1    0    0  501    0  0.00000000000E+00  0.00000000000E+00 -0.21653616225E+04  0.21653616249E+04  0.10100000352E+00 0.  1.
    10030    2    1    2    0    0  0.00000000000E+00  0.00000000000E+00 -0.14986483010E+04  0.28320749541E+04  0.24030609263E+04 0.  0.
        4    1    3    3  502    0  0.97382374830E+03  0.18590245196E+03  0.50671164962E+02  0.99270418266E+03  0.12699999809E+01 0. -1.
       -4    1    3    3    0  502 -0.97382374830E+03 -0.18590245196E+03 -0.15493194659E+04  0.18393707714E+04  0.12699999809E+01 0.  1.
</event>
<event>
 5   0  0.9038897E-06  0.2155706E+04  0.7818609E-02  0.8537094E-01
        1   -1    0    0  501    0  0.00000000000E+00  0.00000000000E+00  0.90654875670E+03  0.90654875672E+03  0.50400001928E-02 0. -1.
       -1   -1    0    0    0  501  0.00000000000E+00  0.00000000000E+00 -0.12815277930E+04  0.12815277930E+04  0.50400001928E-02 0.  1.
    10030    2    1    2    0    0  0.00000000000E+00  0.00000000000E+00 -0.37497903630E+03  0.21880765497E+04  0.21557063134E+04 0.  0.
        1    1    3    3  502    0  0.83395200926E+02 -0.37020430421E+03 -0.12114799877E+04  0.12695234331E+04  0.50400001928E-02 0.  1.
       -1    1    3    3    0  502 -0.83395200926E+02  0.37020430421E+03  0.83650095142E+03  0.91855311667E+03  0.50400001928E-02 0. -1.
</event>
<event>
 5   0  0.2048028E-05  0.2345165E+04  0.7818609E-02  0.8460323E-01
        2   -1    0    0  501    0  0.00000000000E+00  0.00000000000E+00  0.11914012097E+04  0.11914012097E+04  0.25500000920E-02 0. -1.
       -2   -1    0    0    0  501  0.00000000000E+00  0.00000000000E+00 -0.11540609087E+04  0.11540609087E+04  0.25500000920E-02 0.  1.
    10030    2    1    2    0    0  0.00000000000E+00  0.00000000000E+00  0.37340301057E+02  0.23454621184E+04  0.23451648664E+04 0.  0.
        5    1    3    3  502    0 -0.20176968153E+03  0.86255719174E+03 -0.74967950201E+03  0.11604987545E+04  0.46999998093E+01 0.  1.
       -5    1    3    3    0  502  0.20176968153E+03 -0.86255719174E+03  0.78701980307E+03  0.11849633639E+04  0.46999998093E+01 0. -1.
</event>
<event>
 5   0  0.2122194E-05  0.2405736E+04  0.7818609E-02  0.8437359E-01
        2   -1    0    0  501    0  0.00000000000E+00  0.00000000000E+00  0.19418174881E+04  0.19418174881E+04  0.25500000920E-02 0.  1.
       -2   -1    0    0    0  501  0.00000000000E+00  0.00000000000E+00 -0.74512248500E+03  0.74512248501E+03  0.25500000920E-02 0. -1.
    10030    2    1    2    0    0  0.00000000000E+00  0.00000000000E+00  0.11966950031E+04  0.26869399731E+04  0.24057363714E+04 0.  0.
        3    1    3    3  502    0  0.43919624805E+03 -0.25292972281E+03 -0.62004715594E+03  0.80082786838E+03  0.10100000352E+00 0. -1.
       -3    1    3    3    0  502 -0.43919624805E+03  0.25292972281E+03  0.18167421591E+04  0.18861121048E+04  0.10100000352E+00 0.  1.
</event>
<event>
 5   0  0.2122194E-05  0.2402154E+04  0.7818609E-02  0.8438697E-01
        2   -1    0    0  501    0  0.00000000000E+00  0.00000000000E+00  0.13802933414E+04  0.13802933414E+04  0.25500000920E-02 0. -1.
       -2   -1    0    0    0  501  0.00000000000E+00  0.00000000000E+00 -0.10451302311E+04  0.10451302311E+04  0.25500000920E-02 0.  1.
    10030    2    1    2    0    0  0.00000000000E+00  0.00000000000E+00  0.33516311036E+03  0.24254235725E+04  0.24021542822E+04 0.  0.
        3    1    3    3  502    0  0.25934812153E+03  0.52484258371E+03  0.12264851149E+04  0.13590389741E+04  0.10100000352E+00 0. -1.
       -3    1    3    3    0  502 -0.25934812153E+03 -0.52484258371E+03 -0.89132200450E+03  0.10663845984E+04  0.10100000352E+00 0.  1.
</event>
<event>
 5   0  0.9083687E-06  0.2438707E+04  0.7818609E-02  0.8425153E-01
       -1   -1    0    0    0  501  0.00000000000E+00  0.00000000000E+00  0.23471829290E+04  0.23471829290E+04  0.50400001928E-02 0.  1.
        1   -1    0    0  501    0  0.00000000000E+00  0.00000000000E+00 -0.63344987432E+03  0.63344987434E+03  0.50400001928E-02 0. -1.
    10030    2    1    2    0    0  0.00000000000E+00  0.00000000000E+00  0.17137330547E+04  0.29806328033E+04  0.24387068142E+04 0.  0.
        2    1    3    3  502    0 -0.99959185672E+03  0.40034256514E+02  0.47810703816E+01  0.10004046583E+04  0.25500000920E-02 0. -1.
       -2    1    3    3    0  502  0.99959185672E+03 -0.40034256514E+02  0.17089519843E+04  0.19802281450E+04  0.25500000920E-02 0.  1.
</event>
<event>
 5   0  0.2025353E-05  0.2457362E+04  0.7818609E-02  0.8418335E-01
        2   -1    0    0  501    0  0.00000000000E+00  0.00000000000E+00  0.10844597240E+04  0.10844597240E+04  0.25500000920E-02 0.  1.
       -2   -1    0    0    0  501  0.00000000000E+00  0.00000000000E+00 -0.13920825438E+04  0.13920825438E+04  0.25500000920E-02 0. -1.
    10030    2    1    2    0    0  0.00000000000E+00  0.00000000000E+00 -0.30762281978E+03  0.24765422678E+04  0.24573623675E+04 0.  0.
        4    1    3    3  502    0 -0.14210549887E+03  0.10489833343E+04 -0.78245548928E+03  0.13163579354E+04  0.12699999809E+01 0. -1.
       -4    1    3    3    0  502  0.14210549887E+03 -0.10489833343E+04  0.47483266950E+03  0.11601843325E+04  0.12699999809E+01 0.  1.
</event>
<event>
 5   0  0.9038897E-06  0.2414621E+04  0.7818609E-02  0.8434050E-01
        1   -1    0    0  501    0  0.00000000000E+00  0.00000000000E+00  0.13687417448E+04  0.13687417448E+04  0.50400001928E-02 0. -1.
       -1   -1    0    0    0  501  0.00000000000E+00  0.00000000000E+00 -0.10649186812E+04  0.10649186812E+04  0.50400001928E-02 0.  1.
    10030    2    1    2    0    0  0.00000000000E+00  0.00000000000E+00  0.30382306357E+03  0.24336604260E+04  0.24146210086E+04 0.  0.
        1    1    3    3  502    0 -0.37976367401E+03  0.71082553718E+02 -0.10009281165E+04  0.10729073921E+04  0.50400001928E-02 0.  1.
       -1    1    3    3    0  502  0.37976367401E+03 -0.71082553718E+02  0.13047511800E+04  0.13607530339E+04  0.50400001928E-02 0. -1.
</event>
<event>
 5   0  0.2122194E-05  0.2407935E+04  0.7818609E-02  0.8436539E-01
        2   -1    0    0  501    0  0.00000000000E+00  0.00000000000E+00  0.19130896534E+04  0.19130896534E+04  0.25500000920E-02 0. -1.
       -2   -1    0    0    0  501  0.00000000000E+00  0.00000000000E+00 -0.75769493144E+03  0.75769493144E+03  0.25500000920E-02 0.  1.
    10030    2    1    2    0    0  0.00000000000E+00  0.00000000000E+00  0.11553947220E+04  0.26707845849E+04  0.24079354923E+04 0.  0.
        3    1    3    3  502    0  0.25836768741E+03 -0.91783683557E+03 -0.23763674825E+03  0.98267469334E+03  0.10100000352E+00 0.  1.
       -3    1    3    3    0  502 -0.25836768741E+03  0.91783683557E+03  0.13930314702E+04  0.16881098915E+04  0.10100000352E+00 0. -1.
</event>
<event>
 5   0  0.9038897E-06  0.2452691E+04  0.7818609E-02  0.8420036E-01
       -1   -1    0    0    0  501  0.00000000000E+00  0.00000000000E+00  0.10720492592E+04  0.10720492592E+04  0.50400001928E-02 0.  1.
        1   -1    0    0  501    0  0.00000000000E+00  0.00000000000E+00 -0.14028490383E+04  0.14028490384E+04  0.50400001928E-02 0. -1.
    10030    2    1    2    0    0  0.00000000000E+00  0.00000000000E+00 -0.33079977916E+03  0.24748982976E+04  0.24526909894E+04 0.  0.
        1    1    3    3  502    0  0.96718181207E+03 -0.54475288671E+03 -0.69139395489E+03  0.13077545512E+04  0.50400001928E-02 0. -1.
       -1    1    3    3    0  502 -0.96718181207E+03  0.54475288671E+03  0.36059417573E+03  0.11671437464E+04  0.50400001928E-02 0.  1.
</event>
<event>
 5   0  0.2048028E-05  0.2406987E+04  0.7818609E-02  0.8436892E-01
        2   -1    0    0  501    0  0.00000000000E+00  0.00000000000E+00  0.21929564665E+04  0.21929564665E+04  0.25500000920E-02 0. -1.
       -2   -1    0    0    0  501  0.00000000000E+00  0.00000000000E+00 -0.66047655273E+03  0.66047655273E+03  0.25500000920E-02 0.  1.
    10030    2    1    2    0    0  0.00000000000E+00  0.00000000000E+00  0.15324799137E+04  0.28534330192E+04  0.24069867696E+04 0.  0.
        5    1    3    3  502    0 -0.36090174666E+03 -0.59383101654E+03 -0.39860364821E+03  0.80111940764E+03  0.46999998093E+01 0.  1.
       -5    1    3    3    0  502  0.36090174666E+03  0.59383101654E+03  0.19310835619E+04  0.20523136115E+04  0.46999998093E+01 0. -1.
</event>
<event>
 5   0  0.7233625E-06  0.2342428E+04  0.7818609E-02  0.8461378E-01
        3   -1    0    0  501    0  0.00000000000E+00  0.00000000000E+00  0.99925197563E+03  0.99925198073E+03  0.10100000352E+00 0.  1.
       -3   -1    0    0    0  501  0.00000000000E+00  0.00000000000E+00 -0.13727686338E+04  0.13727686375E+04  0.10100000352E+00 0. -1.
    10030    2    1    2    0    0  0.00000000000E+00  0.00000000000E+00 -0.37351665821E+03  0.23720206183E+04  0.23424276125E+04 0.  0.
        3    1    3    3  502    0 -0.32074621165E+03  0.40548300251E+03 -0.12509620048E+04  0.13535880264E+04  0.10100000352E+00 0. -1.
       -3    1    3    3    0  502  0.32074621165E+03 -0.40548300251E+03  0.87744534662E+03  0.10184325918E+04  0.10100000352E+00 0.  1.
</event>
<event>
 5   0  0.8528103E-06  0.2402494E+04  0.7818609E-02  0.8438571E-01
        1   -1    0    0  501    0  0.00000000000E+00  0.00000000000E+00  0.17684110754E+04  0.17684110754E+04  0.50400001928E-02 0. -1.
       -1   -1    0    0    0  501  0.00000000000E+00  0.00000000000E+00 -0.81598341363E+03  0.81598341364E+03  0.50400001928E-02 0.  1.
    10030    2    1    2    0    0  0.00000000000E+00  0.00000000000E+00  0.95242766173E+03  0.25843944890E+04  0.24024937927E+04 0.  0.
        4    1    3    3  502    0 -0.76778053584E+03  0.14460927916E+03 -0.50533767066E+03  0.93046578074E+03  0.12699999809E+01 0.  1.
       -4    1    3    3    0  502  0.76778053584E+03 -0.14460927916E+03  0.14577653324E+04  0.16539287083E+04  0.12699999809E+01 0. -1.
</event>
<event>
 5   0  0.2087882E-05  0.2397532E+04  0.7818609E-02  0.8440428E-01
        2   -1    0    0  501    0  0.00000000000E+00  0.00000000000E+00  0.11290563579E+04  0.11290563579E+04  0.25500000920E-02 0.  1.
       -2   -1    0    0    0  501  0.00000000000E+00  0.00000000000E+00 -0.12727794833E+04  0.12727794833E+04  0.25500000920E-02 0. -1.
    10030    2    1    2    0    0  0.00000000000E+00  0.00000000000E+00 -0.14372312540E+03  0.24018358412E+04  0.23975318707E+04 0.  0.
        2    1    3    3  502    0  0.87526658011E+03 -0.49894538947E+03  0.57892117134E+03  0.11619758219E+04  0.25500000920E-02 0.  1.
       -2    1    3    3    0  502 -0.87526658011E+03  0.49894538947E+03 -0.72264429674E+03  0.12398600193E+04  0.25500000920E-02 0. -1.
</event>
<event>
 5   0  0.2122194E-05  0.2421937E+04  0.7818609E-02  0.8431336E-01
       -2   -1    0    0    0  501  0.00000000000E+00  0.00000000000E+00  0.67974043413E+03  0.67974043414E+03  0.25500000920E-02 0.  1.
        2   -1    0    0  501    0  0.00000000000E+00  0.00000000000E+00 -0.21573601006E+04  0.21573601006E+04  0.25500000920E-02 0. -1.
    10030    2    1    2    0    0  0.00000000000E+00  0.00000000000E+00 -0.14776196664E+04  0.28371005347E+04  0.24219371514E+04 0.  0.
        3    1    3    3  502    0  0.95719785550E+03  0.30340280004E+03  0.54097225353E+02  0.10055881431E+04  0.10100000352E+00 0. -1.
       -3    1    3    3    0  502 -0.95719785550E+03 -0.30340280004E+03 -0.15317168918E+04  0.18315123916E+04  0.10100000352E+00 0.  1.
</event>
<event>
 5   0  0.8898848E-06  0.2412863E+04  0.7818609E-02  0.8434703E-01
       -1   -1    0    0    0  501  0.00000000000E+00  0.00000000000E+00  0.79131948176E+03  0.79131948177E+03  0.50400001928E-02 0. -1.
        1   -1    0    0  501    0  0.00000000000E+00  0.00000000000E+00 -0.18393045770E+04  0.18393045770E+04  0.50400001928E-02 0.  1.
    10030    2    1    2    0    0  0.00000000000E+00  0.00000000000E+00 -0.10479850952E+04  0.26306240588E+04  0.24128634812E+04 0.  0.
        5    1    3    3  502    0 -0.14605396523E+03  0.91990608983E+03  0.31195007076E+03  0.98229013611E+03  0.46999998093E+01 0.  1.
       -5    1    3    3    0  502  0.14605396523E+03 -0.91990608983E+03 -0.13599351660E+04  0.16483339226E+04  0.46999998093E+01 0. -1.
</event>
<event>
 5   0  0.2048028E-05  0.2393862E+04  0.7818609E-02  0.8441805E-01
        2   -1    0    0  501    0  0.00000000000E+00  0.00000000000E+00  0.27925060790E+04  0.27925060790E+04  0.25500000920E-02 0.  1.
       -2   -1    0    0    0  501  0.00000000000E+00  0.00000000000E+00 -0.51303174819E+03  0.51303174820E+03  0.25500000920E-02 0. -1.
    10030    2    1    2    0    0  0.00000000000E+00  0.00000000000E+00  0.22794743308E+04  0.33055378272E+04  0.23938623816E+04 0.  0.
        5    1    3    3  502    0  0.10757517699E+04  0.11075596250E+03  0.18480326302E+04  0.21412042046E+04  0.46999998093E+01 0.  1.
       -5    1    3    3    0  502 -0.10757517699E+04 -0.11075596250E+03  0.43144170058E+03  0.11643336225E+04  0.46999998093E+01 0. -1.
</event>
<event>
 5   0  0.2025353E-05  0.2378594E+04  0.7818609E-02  0.8447561E-01
        2   -1    0    0  501    0  0.00000000000E+00  0.00000000000E+00  0.10041053548E+04  0.10041053548E+04  0.25500000920E-02 0. -1.
       -2   -1    0    0    0  501  0.00000000000E+00  0.00000000000E+00 -0.14086444578E+04  0.14086444578E+04  0.25500000920E-02 0.  1.
    10030    2    1    2    0    0  0.00000000000E+00  0.00000000000E+00 -0.40453910298E+03  0.24127498126E+04  0.23785940747E+04 0.  0.
        4    1    3    3  502    0  0.10286918119E+04 -0.59225923372E+03 -0.27713991924E+03  0.12189282143E+04  0.12699999809E+01 0.  1.
       -4    1    3    3    0  502 -0.10286918119E+04  0.59225923372E+03 -0.12739918375E+03  0.11938215984E+04  0.12699999809E+01 0. -1.
</event>
<event>
 5   0  0.2087882E-05  0.2367677E+04  0.7818609E-02  0.8451705E-01
        2   -1    0    0  501    0  0.00000000000E+00  0.00000000000E+00  0.14127401357E+04  0.14127401357E+04  0.25500000920E-02 0. -1.
       -2   -1    0    0    0  501  0.00000000000E+00  0.00000000000E+00 -0.99202508119E+03  0.99202508119E+03  0.25500000920E-02 0.  1.
    10030    2    1    2    0    0  0.00000000000E+00  0.00000000000E+00  0.42071505450E+03  0.24047652169E+04  0.23676770454E+04 0.  0.
        2    1    3    3  502    0  0.10460880454E+04  0.54916002593E+03  0.28634059325E+03  0.12156758894E+04  0.25500000920E-02 0.  1.
       -2    1    3    3    0  502 -0.10460880454E+04 -0.54916002593E+03  0.13437446124E+03  0.11890893274E+04  0.25500000920E-02 0. -1.
</event>
<event>
 5   0  0.9083687E-06  0.2407583E+04  0.7818609E-02  0.8436670E-01
       -1   -1    0    0    0  501  0.00000000000E+00  0.00000000000E+00  0.22823541976E+04  0.22823541976E+04  0.50400001928E-02 0. -1.
        1   -1    0    0  501    0  0.00000000000E+00  0.00000000000E+00 -0.63492052481E+03  0.63492052483E+03  0.50400001928E-02 0.  1.
    10030    2    1    2    0    0  0.00000000000E+00  0.00000000000E+00  0.16474336727E+04  0.29172747224E+04  0.24075826257E+04 0.  0.
        2    1    3    3  502    0 -0.74345434200E+03 -0.18464998542E+03  0.19489012225E+04  0.20940477432E+04  0.25500000920E-02 0. -1.
       -2    1    3    3    0  502  0.74345434200E+03  0.18464998542E+03 -0.30146754973E+03  0.82322697921E+03  0.25500000920E-02 0.  1.
</event>
<event>
 5   0  0.2087882E-05  0.2399702E+04  0.7818609E-02  0.8439615E-01
        2   -1    0    0  501    0  0.00000000000E+00  0.00000000000E+00  0.79691818854E+03  0.79691818855E+03  0.25500000920E-02 0. -1.
       -2   -1    0    0    0  501  0.00000000000E+00  0.00000000000E+00 -0.18065117131E+04  0.18065117131E+04  0.25500000920E-02 0.  1.
    10030    2    1    2    0    0  0.00000000000E+00  0.00000000000E+00 -0.10095935245E+04  0.26034299016E+04  0.23997016831E+04 0.  0.
        2    1    3    3  502    0  0.75557812912E+03  0.37737429738E+00  0.50639713333E+03  0.90958040231E+03  0.25500000920E-02 0. -1.
       -2    1    3    3    0  502 -0.75557812912E+03 -0.37737429738E+00 -0.15159906579E+04  0.16938494993E+04  0.25500000920E-02 0.  1.
</event>
<event>
 5   0  0.2048028E-05  0.2401303E+04  0.7818609E-02  0.8439016E-01
        2   -1    0    0  501    0  0.00000000000E+00  0.00000000000E+00  0.15080346508E+04  0.15080346508E+04  0.25500000920E-02 0.  1.
       -2   -1    0    0    0  501  0.00000000000E+00  0.00000000000E+00 -0.95592224333E+03  0.95592224333E+03  0.25500000920E-02 0. -1.
    10030    2    1    2    0    0  0.00000000000E+00  0.00000000000E+00  0.55211240743E+03  0.24639568941E+04  0.24013028683E+04 0.  0.
        5    1    3    3  502    0 -0.12650638470E+03 -0.10650261610E+04 -0.27770750662E+03  0.11078935590E+04  0.46999998093E+01 0.  1.
       -5    1    3    3    0  502  0.12650638470E+03  0.10650261610E+04  0.82981991405E+03  0.13560633351E+04  0.46999998093E+01 0. -1.
</event>
<event>
 5   0  0.2025353E-05  0.2352488E+04  0.7818609E-02  0.8457509E-01
        2   -1    0    0  501    0  0.00000000000E+00  0.00000000000E+00  0.21215179118E+04  0.21215179118E+04  0.25500000920E-02 0. -1.
       -2   -1    0    0    0  501  0.00000000000E+00  0.00000000000E+00 -0.65215074202E+03  0.65215074202E+03  0.25500000920E-02 0.  1.
    10030    2    1    2    0    0  0.00000000000E+00  0.00000000000E+00  0.14693671697E+04  0.27736686538E+04  0.23524876028E+04 0.  0.
        4    1    3    3  502    0  0.81919292881E+03 -0.59957975761E+01 -0.26049223853E+03  0.85963412184E+03  0.12699999809E+01 0.  1.
       -4    1    3    3    0  502 -0.81919292881E+03  0.59957975761E+01  0.17298594083E+04  0.19140345319E+04  0.12699999809E+01 0. -1.
</event>
<event>
 5   0  0.2087882E-05  0.2410769E+04  0.7818609E-02  0.8435483E-01
        2   -1    0    0  501    0  0.00000000000E+00  0.00000000000E+00  0.19035074142E+04  0.19035074142E+04  0.25500000920E-02 0.  1.
       -2   -1    0    0    0  501  0.00000000000E+00  0.00000000000E+00 -0.76330224662E+03  0.76330224662E+03  0.25500000920E-02 0. -1.
    10030    2    1    2    0    0  0.00000000000E+00  0.00000000000E+00  0.11402051676E+04  0.26668096608E+04  0.24107687452E+04 0.  0.
        2    1    3    3  502    0  0.61871352653E+03  0.87998686052E+03  0.11717086325E+04  0.15906239097E+04  0.25500000920E-02 0.  1.
       -2    1    3    3    0  502 -0.61871352653E+03 -0.87998686052E+03 -0.31503464940E+02  0.10761857511E+04  0.25500000920E-02 0. -1.
</event>
<event>
 5   0  0.2048028E-05  0.2291018E+04  0.7818609E-02  0.8481471E-01
        2   -1    0    0  501    0  0.00000000000E+00  0.00000000000E+00  0.14087942517E+04  0.14087942517E+04  0.25500000920E-02 0.  1.
       -2   -1    0    0    0  501  0.00000000000E+00  0.00000000000E+00 -0.93142844226E+03  0.93142844227E+03  0.25500000920E-02 0. -1.
    10030    2    1    2    0    0  0.00000000000E+00  0.00000000000E+00  0.47736580948E+03  0.23402226940E+04  0.22910181452E+04 0.  0.
        5    1    3    3  502    0 -0.63414672271E+03 -0.93372738646E+03  0.39089177525E+02  0.11293976058E+04  0.46999998093E+01 0. -1.
       -5    1    3    3    0  502  0.63414672271E+03  0.93372738646E+03  0.43827663196E+03  0.12108250882E+04  0.46999998093E+01 0.  1.
</event>
<event>
 5   0  0.9038897E-06  0.2401151E+04  0.7818609E-02  0.8439073E-01
       -1   -1    0    0    0  501  0.00000000000E+00  0.00000000000E+00  0.10641834603E+04  0.10641834603E+04  0.50400001928E-02 0.  1.
        1   -1    0    0  501    0  0.00000000000E+00  0.00000000000E+00 -0.13544485079E+04  0.13544485080E+04  0.50400001928E-02 0. -1.
    10030    2    1    2    0    0  0.00000000000E+00  0.00000000000E+00 -0.29026504764E+03  0.24186319683E+04  0.24011511406E+04 0.  0.
        1    1    3    3  502    0 -0.26136863407E+02  0.39868573199E+03 -0.12855179489E+04  0.13461760083E+04  0.50400001928E-02 0. -1.
       -1    1    3    3    0  502  0.26136863407E+02 -0.39868573199E+03  0.99525290123E+03  0.10724559599E+04  0.50400001928E-02 0.  1.
</event>
<event>
 5   0  0.2122194E-05  0.2407097E+04  0.7818609E-02  0.8436851E-01
       -2   -1    0    0    0  501  0.00000000000E+00  0.00000000000E+00  0.60430516047E+03  0.60430516047E+03  0.25500000920E-02 0. -1.
        2   -1    0    0  501    0  0.00000000000E+00  0.00000000000E+00 -0.23970162364E+04  0.23970162364E+04  0.25500000920E-02 0.  1.
    10030    2    1    2    0    0  0.00000000000E+00  0.00000000000E+00 -0.17927110759E+04  0.30013213968E+04  0.24070972405E+04 0.  0.
        3    1    3    3  502    0 -0.47592331184E+03 -0.13899141804E+03  0.47105495297E+03  0.68389647751E+03  0.10100000352E+00 0. -1.
       -3    1    3    3    0  502  0.47592331184E+03  0.13899141804E+03 -0.22637660289E+04  0.23174249193E+04  0.10100000352E+00 0.  1.
</event>
<event>
 5   0  0.9038897E-06  0.2397864E+04  0.7818609E-02  0.8440304E-01
       -1   -1    0    0    0  501  0.00000000000E+00  0.00000000000E+00  0.94654805411E+03  0.94654805412E+03  0.50400001928E-02 0. -1.
        1   -1    0    0  501    0  0.00000000000E+00  0.00000000000E+00 -0.15186105976E+04  0.15186105976E+04  0.50400001928E-02 0.  1.
    10030    2    1    2    0    0  0.00000000000E+00  0.00000000000E+00 -0.57206254344E+03  0.24651586517E+04  0.23978639712E+04 0.  0.
        1    1    3    3  502    0  0.41316438326E+03 -0.10246163426E+04  0.19275815472E+03  0.11214718736E+04  0.50400001928E-02 0.  1.
       -1    1    3    3    0  502 -0.41316438326E+03  0.10246163426E+04 -0.76482069816E+03  0.13436867780E+04  0.50400001928E-02 0. -1.
</event>
<event>
 5   0  0.2087882E-05  0.2409875E+04  0.7818609E-02  0.8435816E-01
       -2   -1    0    0    0  501  0.00000000000E+00  0.00000000000E+00  0.12021842206E+04  0.12021842206E+04  0.25500000920E-02 0. -1.
        2   -1    0    0  501    0  0.00000000000E+00  0.00000000000E+00 -0.12076967304E+04  0.12076967305E+04  0.25500000920E-02 0.  1.
    10030    2    1    2    0    0  0.00000000000E+00  0.00000000000E+00 -0.55125098653E+01  0.24098809510E+04  0.24098746462E+04 0.  0.
        2    1    3    3  502    0  0.84075389619E+03  0.86227644771E+03  0.35794674141E+02  0.12048522918E+04  0.25500000920E-02 0. -1.
       -2    1    3    3    0  502 -0.84075389619E+03 -0.86227644771E+03 -0.41307184007E+02  0.12050286593E+04  0.25500000920E-02 0.  1.
</event>
<event>
 5   0  0.2048028E-05  0.2424566E+04  0.7818609E-02  0.8430363E-01
        2   -1    0    0  501    0  0.00000000000E+00  0.00000000000E+00  0.19204692516E+04  0.19204692516E+04  0.25500000920E-02 0. -1.
       -2   -1    0    0    0  501  0.00000000000E+00  0.00000000000E+00 -0.76524540020E+03  0.76524540020E+03  0.25500000920E-02 0.  1.
    10030    2    1    2    0    0  0.00000000000E+00  0.00000000000E+00  0.11552238514E+04  0.26857146518E+04  0.24245661558E+04 0.  0.
        5    1    3    3  502    0  0.10684089227E+04  0.42896937273E+03  0.99809791004E+03  0.15237236878E+04  0.46999998093E+01 0. -1.
       -5    1    3    3    0  502 -0.10684089227E+04 -0.42896937273E+03  0.15712594136E+03  0.11619909640E+04  0.46999998093E+01 0.  1.
</event>
<event>
 5   0  0.9038897E-06  0.2426234E+04  0.7818609E-02  0.8429747E-01
       -1   -1    0    0    0  501  0.00000000000E+00  0.00000000000E+00  0.98321655871E+03  0.98321655873E+03  0.50400001928E-02 0.  1.
        1   -1    0    0  501    0  0.00000000000E+00  0.00000000000E+00 -0.14967732657E+04  0.14967732657E+04  0.50400001928E-02 0. -1.
    10030    2    1    2    0    0  0.00000000000E+00  0.00000000000E+00 -0.51355670695E+03  0.24799898244E+04  0.24262335085E+04 0.  0.
        1    1    3    3  502    0  0.32558553353E+03 -0.11192538253E+04 -0.60025510100E+03  0.13111221344E+04  0.50400001928E-02 0. -1.
       -1    1    3    3    0  502 -0.32558553353E+03  0.11192538253E+04  0.86698394050E+02  0.11688676900E+04  0.50400001928E-02 0.  1.
</event>
<event>
 5   0  0.8528103E-06  0.2386947E+04  0.7818609E-02  0.8444407E-01
       -1   -1    0    0    0  501  0.00000000000E+00  0.00000000000E+00  0.70986957653E+03  0.70986957654E+03  0.50400001928E-02 0.  1.
        1   -1    0    0  501    0  0.00000000000E+00  0.00000000000E+00 -0.20065360424E+04  0.20065360424E+04  0.50400001928E-02 0. -1.
    10030    2    1    2    0    0  0.00000000000E+00  0.00000000000E+00 -0.12966664659E+04  0.27164056189E+04  0.23869469125E+04 0.  0.
        4    1    3    3  502    0  0.34365407708E+03  0.11379057662E+04 -0.77010522345E+03  0.14163302318E+04  0.12699999809E+01 0. -1.
       -4    1    3    3    0  502 -0.34365407708E+03 -0.11379057662E+04 -0.52656124242E+03  0.13000753872E+04  0.12699999809E+01 0.  1.
</event>
<event>
 5   0  0.8898848E-06  0.2325827E+04  0.7818609E-02  0.8467807E-01
        1   -1    0    0  501    0  0.00000000000E+00  0.00000000000E+00  0.11563886417E+04  0.11563886417E+04  0.50400001928E-02 0.  1.
       -1   -1    0    0    0  501  0.00000000000E+00  0.00000000000E+00 -0.11694747236E+04  0.11694747236E+04  0.50400001928E-02 0. -1.
    10030    2    1    2    0    0  0.00000000000E+00  0.00000000000E+00 -0.13086081876E+02  0.23258633653E+04  0.23258265517E+04 0.  0.
        5    1    3    3  502    0  0.49443443821E+03  0.86242226052E+03  0.59687982440E+03  0.11595366247E+04  0.46999998093E+01 0.  1.
       -5    1    3    3    0  502 -0.49443443821E+03 -0.86242226052E+03 -0.60996590628E+03  0.11663267406E+04  0.46999998093E+01 0. -1.
</event>
<event>
 5   0  0.7233625E-06  0.2407333E+04  0.7818609E-02  0.8436763E-01
       -3   -1    0    0    0  501  0.00000000000E+00  0.00000000000E+00  0.33650994288E+04  0.33650994304E+04  0.10100000352E+00 0.  1.
        3   -1    0    0  501    0  0.00000000000E+00  0.00000000000E+00 -0.43054094366E+03  0.43054095550E+03  0.10100000352E+00 0. -1.
    10030    2    1    2    0    0  0.00000000000E+00  0.00000000000E+00  0.29345584852E+04  0.37956403859E+04  0.24073330546E+04 0.  0.
        3    1    3    3  502    0 -0.53696889641E+03  0.10265796223E+04  0.19820945852E+04  0.22958441305E+04  0.10100000352E+00 0.  1.
       -3    1    3    3    0  502  0.53696889641E+03 -0.10265796223E+04  0.95246389997E+03  0.14997962554E+04  0.10100000352E+00 0. -1.
</event>
<event>
 5   0  0.7233625E-06  0.2293201E+04  0.7818609E-02  0.8480607E-01
        3   -1    0    0  501    0  0.00000000000E+00  0.00000000000E+00  0.87919713011E+03  0.87919713591E+03  0.10100000352E+00 0.  1.
       -3   -1    0    0    0  501  0.00000000000E+00  0.00000000000E+00 -0.14953325944E+04  0.14953325978E+04  0.10100000352E+00 0. -1.
    10030    2    1    2    0    0  0.00000000000E+00  0.00000000000E+00 -0.61613546429E+03  0.23745297337E+04  0.22932005028E+04 0.  0.
        2    1    3    3  502    0 -0.82200874413E+03 -0.44213158571E+03 -0.99765457635E+03  0.13661966799E+04  0.25500000920E-02 0. -1.
       -2    1    3    3    0  502  0.82200874413E+03  0.44213158571E+03  0.38151911206E+03  0.10083330538E+04  0.25500000920E-02 0.  1.
</event>
<event>
 5   0  0.9176817E-06  0.2404208E+04  0.7818609E-02  0.8437930E-01
       -1   -1    0    0    0  501  0.00000000000E+00  0.00000000000E+00  0.95024805588E+03  0.95024805589E+03  0.50400001928E-02 0.  1.
        1   -1    0    0  501    0  0.00000000000E+00  0.00000000000E+00 -0.15207127304E+04  0.15207127304E+04  0.50400001928E-02 0. -1.
    10030    2    1    2    0    0  0.00000000000E+00  0.00000000000E+00 -0.57046467452E+03  0.24709607863E+04  0.24042082403E+04 0.  0.
        3    1    3    3  502    0 -0.42467232197E+03  0.87201466538E+03  0.44462412631E+03  0.10669802161E+04  0.10100000352E+00 0.  1.
       -3    1    3    3    0  502  0.42467232197E+03 -0.87201466538E+03 -0.10150888008E+04  0.14039805702E+04  0.10100000352E+00 0. -1.
</event>
<event>
 5   0  0.2048028E-05  0.2400714E+04  0.7818609E-02  0.8439236E-01
       -2   -1    0    0    0  501  0.00000000000E+00  0.00000000000E+00  0.10723641977E+04  0.10723641977E+04  0.25500000920E-02 0. -1.
        2   -1    0    0  501    0  0.00000000000E+00  0.00000000000E+00 -0.13436267768E+04  0.13436267768E+04  0.25500000920E-02 0.  1.
    10030    2    1    2    0    0  0.00000000000E+00  0.00000000000E+00 -0.27126257915E+03  0.24159909745E+04  0.24007142691E+04 0.  0.
        5    1    3    3  502    0 -0.11709697315E+04 -0.25769912887E+03 -0.19305759359E+03  0.12144431965E+04  0.46999998093E+01 0.  1.
       -5    1    3    3    0  502  0.11709697315E+04  0.25769912887E+03 -0.78204985560E+02  0.12015477780E+04  0.46999998093E+01 0. -1.
</event>
<event>
 5   0  0.7233625E-06  0.2325290E+04  0.7818609E-02  0.8468016E-01
        3   -1    0    0  501    0  0.00000000000E+00  0.00000000000E+00  0.71423588785E+03  0.71423589499E+03  0.10100000352E+00 0.  1.
       -3   -1    0    0    0  501  0.00000000000E+00  0.00000000000E+00 -0.18925733722E+04  0.18925733749E+04  0.10100000352E+00 0. -1.
    10030    2    1    2    0    0  0.00000000000E+00  0.00000000000E+00 -0.11783374844E+04  0.26068092699E+04  0.23252903781E+04 0.  0.
        2    1    3    3  502    0  0.73353158062E+03 -0.89480358933E+03 -0.71699900331E+03  0.13611868402E+04  0.25500000920E-02 0. -1.
       -2    1    3    3    0  502 -0.73353158062E+03  0.89480358933E+03 -0.46133848107E+03  0.12456224297E+04  0.25500000920E-02 0.  1.
</event>
<event>
 5   0  0.2048028E-05  0.2408285E+04  0.7818609E-02  0.8436408E-01
       -2   -1    0    0    0  501  0.00000000000E+00  0.00000000000E+00  0.12363643206E+04  0.12363643206E+04  0.25500000920E-02 0.  1.
        2   -1    0    0  501    0  0.00000000000E+00  0.00000000000E+00 -0.11727600915E+04  0.11727600915E+04  0.25500000920E-02 0. -1.
    10030    2    1    2    0    0  0.00000000000E+00  0.00000000000E+00  0.63604229050E+02  0.24091244121E+04  0.24082846457E+04 0.  0.
        5    1    3    3  502    0 -0.10468979230E+04 -0.24743271577E+03 -0.50942113937E+03  0.11902731608E+04  0.46999998093E+01 0. -1.
       -5    1    3    3    0  502  0.10468979230E+04  0.24743271577E+03  0.57302536842E+03  0.12188512513E+04  0.46999998093E+01 0.  1.
</event>
<event>
 5   0  0.8528103E-06  0.2407393E+04  0.7818609E-02  0.8436741E-01
        1   -1    0    0  501    0  0.00000000000E+00  0.00000000000E+00  0.13861332833E+04  0.13861332833E+04  0.50400001928E-02 0. -1.
       -1   -1    0    0    0  501  0.00000000000E+00  0.00000000000E+00 -0.10452711194E+04  0.10452711194E+04  0.50400001928E-02 0.  1.
    10030    2    1    2    0    0  0.00000000000E+00  0.00000000000E+00  0.34086216393E+03  0.24314044027E+04  0.24073928543E+04 0.  0.
        4    1    3    3  502    0 -0.40255700486E+03  0.42452546977E+03  0.12328784397E+04  0.13646482611E+04  0.12699999809E+01 0. -1.
       -4    1    3    3    0  502  0.40255700486E+03 -0.42452546977E+03 -0.89201627572E+03  0.10667561416E+04  0.12699999809E+01 0.  1.
</event>
<event>
 5   0  0.8898848E-06  0.2438666E+04  0.7818609E-02  0.8425168E-01
        1   -1    0    0  501    0  0.00000000000E+00  0.00000000000E+00  0.21073692692E+04  0.21073692692E+04  0.50400001928E-02 0. -1.
       -1   -1    0    0    0  501  0.00000000000E+00  0.00000000000E+00 -0.70551115713E+03  0.70551115715E+03  0.50400001928E-02 0.  1.
    10030    2    1    2    0    0  0.00000000000E+00  0.00000000000E+00  0.14018581121E+04  0.28128804264E+04  0.24386656447E+04 0.  0.
        5    1    3    3  502    0 -0.63453264616E+03  0.31349897809E+03  0.18461824873E+04  0.19772013440E+04  0.46999998093E+01 0. -1.
       -5    1    3    3    0  502  0.63453264616E+03 -0.31349897809E+03 -0.44432437521E+03  0.83567908237E+03  0.46999998093E+01 0.  1.
</event>
<event>
 5   0  0.2122194E-05  0.2378339E+04  0.7818609E-02  0.8447658E-01
        2   -1    0    0  501    0  0.00000000000E+00  0.00000000000E+00  0.16412923071E+04  0.16412923071E+04  0.25500000920E-02 0.  1.
       -2   -1    0    0    0  501  0.00000000000E+00  0.00000000000E+00 -0.86159215091E+03  0.86159215091E+03  0.25500000920E-02 0. -1.
    10030    2    1    2    0    0  0.00000000000E+00  0.00000000000E+00  0.77970015618E+03  0.25028844580E+04  0.23783393947E+04 0.  0.
        3    1    3    3  502    0  0.31318782251E+03  0.88783097590E+03  0.11543883658E+04  0.14896116820E+04  0.10100000352E+00 0.  1.
       -3    1    3    3    0  502 -0.31318782251E+03 -0.88783097590E+03 -0.37468820961E+03  0.10132727760E+04  0.10100000352E+00 0. -1.
</event>
<event>
 5   0  0.2048028E-05  0.2406012E+04  0.7818609E-02  0.8437256E-01
        2   -1    0    0  501    0  0.00000000000E+00  0.00000000000E+00  0.14559552188E+04  0.14559552188E+04  0.25500000920E-02 0.  1.
       -2   -1    0    0    0  501  0.00000000000E+00  0.00000000000E+00 -0.99400283703E+03  0.99400283703E+03  0.25500000920E-02 0. -1.
    10030    2    1    2    0    0  0.00000000000E+00  0.00000000000E+00  0.46195238174E+03  0.24499580558E+04  0.24060121513E+04 0.  0.
        5    1    3    3  502    0  0.27327504325E+03 -0.57132218367E+03  0.12724543875E+04  0.14213551790E+04  0.46999998093E+01 0.  1.
       -5    1    3    3    0  502 -0.27327504325E+03  0.57132218367E+03 -0.81050200572E+03  0.10286028768E+04  0.46999998093E+01 0. -1.
</event>
<event>
 5   0  0.7233625E-06  0.2399839E+04  0.7818609E-02  0.8439564E-01
        3   -1    0    0  501    0  0.00000000000E+00  0.00000000000E+00  0.94482738199E+03  0.94482738739E+03  0.10100000352E+00 0. -1.
       -3   -1    0    0    0  501  0.00000000000E+00  0.00000000000E+00 -0.15238834729E+04  0.15238834763E+04  0.10100000352E+00 0.  1.
    10030    2    1    2    0    0  0.00000000000E+00  0.00000000000E+00 -0.57905609092E+03  0.24687108636E+04  0.23998390304E+04 0.  0.
        4    1    3    3  502    0  0.34236242156E+03  0.44770764752E+03  0.80018908673E+03  0.97875346884E+03  0.12699999809E+01 0. -1.
       -4    1    3    3    0  502 -0.34236242156E+03 -0.44770764752E+03 -0.13792451777E+04  0.14899573948E+04  0.12699999809E+01 0.  1.
</event>
<event>
 5   0  0.2025353E-05  0.2396762E+04  0.7818609E-02  0.8440717E-01
       -2   -1    0    0    0  501  0.00000000000E+00  0.00000000000E+00  0.86983854390E+03  0.86983854391E+03  0.25500000920E-02 0.  1.
        2   -1    0    0  501    0  0.00000000000E+00  0.00000000000E+00 -0.16510153627E+04  0.16510153627E+04  0.25500000920E-02 0. -1.
    10030    2    1    2    0    0  0.00000000000E+00  0.00000000000E+00 -0.78117681884E+03  0.25208539066E+04  0.23967618147E+04 0.  0.
        4    1    3    3  502    0 -0.84068437997E+03  0.65045011370E+03 -0.97266729043E+03  0.14408049306E+04  0.12699999809E+01 0.  1.
       -4    1    3    3    0  502  0.84068437997E+03 -0.65045011370E+03  0.19149047159E+03  0.10800489761E+04  0.12699999809E+01 0. -1.
</event>
<event>
 5   0  0.9038897E-06  0.2448087E+04  0.7818609E-02  0.8421717E-01
        1   -1    0    0  501    0  0.00000000000E+00  0.00000000000E+00  0.13239800660E+04  0.13239800660E+04  0.50400001928E-02 0. -1.
       -1   -1    0    0    0  501  0.00000000000E+00  0.00000000000E+00 -0.11316504620E+04  0.11316504620E+04  0.50400001928E-02 0.  1.
    10030    2    1    2    0    0  0.00000000000E+00  0.00000000000E+00  0.19232960399E+03  0.24556305279E+04  0.24480871335E+04 0.  0.
        1    1    3    3  502    0  0.89861473415E+03 -0.82893939805E+03  0.35698985441E+02  0.12230794674E+04  0.50400001928E-02 0.  1.
       -1    1    3    3    0  502 -0.89861473415E+03  0.82893939805E+03  0.15663061855E+03  0.12325510605E+04  0.50400001928E-02 0. -1.
</event>
<event>
 5   0  0.8528103E-06  0.2181566E+04  0.7818609E-02  0.8526140E-01
        1   -1    0    0  501    0  0.00000000000E+00  0.00000000000E+00  0.19846277166E+04  0.19846277166E+04  0.50400001928E-02 0.  1.
       -1   -1    0    0    0  501  0.00000000000E+00  0.00000000000E+00 -0.59951168226E+03  0.59951168229E+03  0.50400001928E-02 0. -1.
    10030    2    1    2    0    0  0.00000000000E+00  0.00000000000E+00  0.13851160343E+04  0.25841393989E+04  0.21815659523E+04 0.  0.
        4    1    3    3  502    0  0.82347008296E+03  0.39665945290E+03 -0.12577359993E+02  0.91411241212E+03  0.12699999809E+01 0. -1.
       -4    1    3    3    0  502 -0.82347008296E+03 -0.39665945290E+03  0.13976933943E+04  0.16700269868E+04  0.12699999809E+01 0.  1.
</event>
<event>
 5   0  0.8528103E-06  0.2404391E+04  0.7818609E-02  0.8437861E-01
        1   -1    0    0  501    0  0.00000000000E+00  0.00000000000E+00  0.12541462437E+04  0.12541462437E+04  0.50400001928E-02 0.  1.
       -1   -1    0    0    0  501  0.00000000000E+00  0.00000000000E+00 -0.11523967308E+04  0.11523967308E+04  0.50400001928E-02 0. -1.
    10030    2    1    2    0    0  0.00000000000E+00  0.00000000000E+00  0.10174951291E+03  0.24065429746E+04  0.24043910092E+04 0.  0.
        4    1    3    3  502    0 -0.66081559648E+03  0.41228119382E+03  0.96745601756E+03  0.12420248766E+04  0.12699999809E+01 0.  1.
       -4    1    3    3    0  502  0.66081559648E+03 -0.41228119382E+03 -0.86570650465E+03  0.11645180979E+04  0.12699999809E+01 0. -1.
</event>
<event>
 5   0  0.8528103E-06  0.2386419E+04  0.7818609E-02  0.8444606E-01
        1   -1    0    0  501    0  0.00000000000E+00  0.00000000000E+00  0.20487312579E+04  0.20487312579E+04  0.50400001928E-02 0. -1.
       -1   -1    0    0    0  501  0.00000000000E+00  0.00000000000E+00 -0.69494175295E+03  0.69494175297E+03  0.50400001928E-02 0.  1.
    10030    2    1    2    0    0  0.00000000000E+00  0.00000000000E+00  0.13537895050E+04  0.27436730109E+04  0.23864189840E+04 0.  0.
        4    1    3    3  502    0  0.20291686408E+03  0.44142623184E+02 -0.67400548943E+03  0.70527217270E+03  0.12699999809E+01 0.  1.
       -4    1    3    3    0  502 -0.20291686408E+03 -0.44142623184E+02  0.20277949944E+04  0.20384008382E+04  0.12699999809E+01 0. -1.
</event>
<event>
 5   0  0.9038897E-06  0.2398398E+04  0.7818609E-02  0.8440103E-01
        1   -1    0    0  501    0  0.00000000000E+00  0.00000000000E+00  0.15421807200E+04  0.15421807200E+04  0.50400001928E-02 0.  1.
       -1   -1    0    0    0  501  0.00000000000E+00  0.00000000000E+00 -0.93249678249E+03  0.93249678250E+03  0.50400001928E-02 0. -1.
    10030    2    1    2    0    0  0.00000000000E+00  0.00000000000E+00  0.60968393747E+03  0.24746775025E+04  0.23983982650E+04 0.  0.
        1    1    3    3  502    0  0.84343071709E+03  0.75027016717E+03 -0.11274931193E+03  0.11344571855E+04  0.50400001928E-02 0. -1.
       -1    1    3    3    0  502 -0.84343071709E+03 -0.75027016717E+03  0.72243324940E+03  0.13402203170E+04  0.50400001928E-02 0.  1.
</event>
<event>
 5   0  0.8898848E-06  0.2435632E+04  0.7818609E-02  0.8426283E-01
       -1   -1    0    0    0  501  0.00000000000E+00  0.00000000000E+00  0.98883962673E+03  0.98883962675E+03  0.50400001928E-02 0. -1.
        1   -1    0    0  501    0  0.00000000000E+00  0.00000000000E+00 -0.14998137299E+04  0.14998137300E+04  0.50400001928E-02 0.  1.
    10030    2    1    2    0    0  0.00000000000E+00  0.00000000000E+00 -0.51097410322E+03  0.24886533567E+04  0.24356315394E+04 0.  0.
        5    1    3    3  502    0 -0.37882332609E+02  0.11129358466E+04  0.24818599151E+03  0.11409117609E+04  0.46999998093E+01 0. -1.
       -5    1    3    3    0  502  0.37882332609E+02 -0.11129358466E+04 -0.75916009472E+03  0.13477415958E+04  0.46999998093E+01 0.  1.
</event>
<event>
 5   0  0.2025353E-05  0.2401743E+04  0.7818609E-02  0.8438851E-01
        2   -1    0    0  501    0  0.00000000000E+00  0.00000000000E+00  0.23000885200E+04  0.23000885200E+04  0.25500000920E-02 0.  1.
       -2   -1    0    0    0  501  0.00000000000E+00  0.00000000000E+00 -0.62697280376E+03  0.62697280377E+03  0.25500000920E-02 0. -1.
    10030    2    1    2    0    0  0.00000000000E+00  0.00000000000E+00  0.16731157162E+04  0.29270613238E+04  0.24017434903E+04 0.  0.
        4    1    3    3  502    0  0.30370661462E+03 -0.27404366417E+02  0.22521159386E+04  0.22726672701E+04  0.12699999809E+01 0.  1.
       -4    1    3    3    0  502 -0.30370661462E+03  0.27404366417E+02 -0.57900022234E+03  0.65439405363E+03  0.12699999809E+01 0. -1.
</event>
<event>
 5   0  0.8898848E-06  0.2429976E+04  0.7818609E-02  0.8428366E-01
       -1   -1    0    0    0  501  0.00000000000E+00  0.00000000000E+00  0.10154901632E+04  0.10154901632E+04  0.50400001928E-02 0.  1.
        1   -1    0    0  501    0  0.00000000000E+00  0.00000000000E+00 -0.14536779541E+04  0.14536779541E+04  0.50400001928E-02 0. -1.
    10030    2    1    2    0    0  0.00000000000E+00  0.00000000000E+00 -0.43818779086E+03  0.24691681173E+04  0.24299758541E+04 0.  0.
        5    1    3    3  502    0  0.62932922194E+03 -0.80813301991E+03 -0.88311615410E+03  0.13524239273E+04  0.46999998093E+01 0. -1.
       -5    1    3    3    0  502 -0.62932922194E+03  0.80813301991E+03  0.44492836325E+03  0.11167441900E+04  0.46999998093E+01 0.  1.
</event>
<event>
 5   0  0.2025353E-05  0.2400517E+04  0.7818609E-02  0.8439310E-01
       -2   -1    0    0    0  501  0.00000000000E+00  0.00000000000E+00  0.53144837354E+03  0.53144837355E+03  0.25500000920E-02 0. -1.
        2   -1    0    0  501    0  0.00000000000E+00  0.00000000000E+00 -0.27107431585E+04  0.27107431585E+04  0.25500000920E-02 0.  1.
    10030    2    1    2    0    0  0.00000000000E+00  0.00000000000E+00 -0.21792947850E+04  0.32421915320E+04  0.24005166466E+04 0.  0.
        4    1    3    3  502    0 -0.71196023645E+02 -0.11941670625E+04 -0.12213907789E+04  0.17096493485E+04  0.12699999809E+01 0.  1.
       -4    1    3    3    0  502  0.71196023645E+02  0.11941670625E+04 -0.95790400601E+03  0.15325421836E+04  0.12699999809E+01 0. -1.
</event>
<event>
 5   0  0.9038897E-06  0.2398159E+04  0.7818609E-02  0.8440193E-01
        1   -1    0    0  501    0  0.00000000000E+00  0.00000000000E+00  0.12440455964E+04  0.12440455965E+04  0.50400001928E-02 0.  1.
       -1   -1    0    0    0  501  0.00000000000E+00  0.00000000000E+00 -0.11557386109E+04  0.11557386109E+04  0.50400001928E-02 0. -1.
    10030    2    1    2    0    0  0.00000000000E+00  0.00000000000E+00  0.88306985533E+02  0.23997842074E+04  0.23981589018E+04 0.  0.
        1    1    3    3  502    0 -0.11643823072E+03 -0.31269634521E+02  0.12379649099E+04  0.12438218400E+04  0.50400001928E-02 0.  1.
       -1    1    3    3    0  502  0.11643823072E+03  0.31269634521E+02 -0.11496579244E+04  0.11559623673E+04  0.50400001928E-02 0. -1.
</event>
<event>
 5   0  0.2080257E-05  0.2397047E+04  0.7818609E-02  0.8440610E-01
        2   -1    0    0  501    0  0.00000000000E+00  0.00000000000E+00  0.16399357173E+04  0.16399357173E+04  0.25500000920E-02 0. -1.
       -2   -1    0    0    0  501  0.00000000000E+00  0.00000000000E+00 -0.87592395093E+03  0.87592395093E+03  0.25500000920E-02 0.  1.
    10030    2    1    2    0    0  0.00000000000E+00  0.00000000000E+00  0.76401176632E+03  0.25158596682E+04  0.23970473276E+04 0.  0.
        1    1    3    3  502    0 -0.91883966753E+03 -0.56688818691E+03  0.92821447467E+03  0.14238014827E+04  0.50400001928E-02 0. -1.
       -1    1    3    3    0  502  0.91883966753E+03  0.56688818691E+03 -0.16420270835E+03  0.10920581855E+04  0.50400001928E-02 0.  1.
</event>
<event>
 5   0  0.9176817E-06  0.2397829E+04  0.7818609E-02  0.8440317E-01
       -1   -1    0    0    0  501  0.00000000000E+00  0.00000000000E+00  0.14421214302E+04  0.14421214302E+04  0.50400001928E-02 0. -1.
        1   -1    0    0  501    0  0.00000000000E+00  0.00000000000E+00 -0.99672303064E+03  0.99672303065E+03  0.50400001928E-02 0.  1.
    10030    2    1    2    0    0  0.00000000000E+00  0.00000000000E+00  0.44539839951E+03  0.24388444608E+04  0.23978287199E+04 0.  0.
        3    1    3    3  502    0  0.85565917208E+03  0.33188766385E+03 -0.56191937099E+03  0.10761298388E+04  0.10100000352E+00 0.  1.
       -3    1    3    3    0  502 -0.85565917208E+03 -0.33188766385E+03  0.10073177705E+04  0.13627146220E+04  0.10100000352E+00 0. -1.
</event>
<event>
 5   0  0.2087882E-05  0.2481212E+04  0.7818609E-02  0.8409710E-01
        2   -1    0    0  501    0  0.00000000000E+00  0.00000000000E+00  0.18262830048E+04  0.18262830048E+04  0.25500000920E-02 0. -1.
       -2   -1    0    0    0  501  0.00000000000E+00  0.00000000000E+00 -0.84275186038E+03  0.84275186039E+03  0.25500000920E-02 0.  1.
    10030    2    1    2    0    0  0.00000000000E+00  0.00000000000E+00  0.98353114443E+03  0.26690348652E+04  0.24812121230E+04 0.  0.
        2    1    3    3  502    0  0.62193592970E+03  0.16811749997E+03  0.16322264363E+04  0.17547737558E+04  0.25500000920E-02 0. -1.
       -2    1    3    3    0  502 -0.62193592970E+03 -0.16811749997E+03 -0.64869529191E+03  0.91426110942E+03  0.25500000920E-02 0.  1.
</event>
<event>
 5   0  0.9038897E-06  0.2406643E+04  0.7818609E-02  0.8437021E-01
        1   -1    0    0  501    0  0.00000000000E+00  0.00000000000E+00  0.14252765978E+04  0.14252765978E+04  0.50400001928E-02 0. -1.
       -1   -1    0    0    0  501  0.00000000000E+00  0.00000000000E+00 -0.10159306122E+04  0.10159306122E+04  0.50400001928E-02 0.  1.
    10030    2    1    2    0    0  0.00000000000E+00  0.00000000000E+00  0.40934598559E+03  0.24412072100E+04  0.24066425797E+04 0.  0.
        1    1    3    3  502    0  0.46633010521E+03 -0.63510977306E+03  0.11272151433E+04  0.13752971207E+04  0.50400001928E-02 0. -1.
       -1    1    3    3    0  502 -0.46633010521E+03  0.63510977306E+03 -0.71786915773E+03  0.10659100893E+04  0.50400001928E-02 0.  1.
</event>
<event>
 5   0  0.9176817E-06  0.2406189E+04  0.7818609E-02  0.8437190E-01
        1   -1    0    0  501    0  0.00000000000E+00  0.00000000000E+00  0.14670976686E+04  0.14670976686E+04  0.50400001928E-02 0.  1.
       -1   -1    0    0    0  501  0.00000000000E+00  0.00000000000E+00 -0.98659864870E+03  0.98659864871E+03  0.50400001928E-02 0. -1.
    10030    2    1    2    0    0  0.00000000000E+00  0.00000000000E+00  0.48049901987E+03  0.24536963173E+04  0.24061891674E+04 0.  0.
        3    1    3    3  502    0 -0.84933146311E+03  0.42945552854E+03  0.99074250296E+03  0.13738146537E+04  0.10100000352E+00 0.  1.
       -3    1    3    3    0  502  0.84933146311E+03 -0.42945552854E+03 -0.51024348309E+03  0.10798816636E+04  0.10100000352E+00 0. -1.
</event>
<event>
 5   0  0.9038897E-06  0.2377917E+04  0.7818609E-02  0.8447818E-01
       -1   -1    0    0    0  501  0.00000000000E+00  0.00000000000E+00  0.16392426372E+04  0.16392426372E+04  0.50400001928E-02 0. -1.
        1   -1    0    0  501    0  0.00000000000E+00  0.00000000000E+00 -0.86236306311E+03  0.86236306312E+03  0.50400001928E-02 0.  1.
    10030    2    1    2    0    0  0.00000000000E+00  0.00000000000E+00  0.77687957411E+03  0.25016057003E+04  0.23779169892E+04 0.  0.
        1    1    3    3  502    0  0.78477892418E+02 -0.30931404524E+03 -0.81646866788E+03  0.87661567624E+03  0.50400001928E-02 0.  1.
       -1    1    3    3    0  502 -0.78477892418E+02  0.30931404524E+03  0.15933482420E+04  0.16249900241E+04  0.50400001928E-02 0. -1.
</event>
<event>
 5   0  0.2048028E-05  0.2389170E+04  0.7818609E-02  0.8443569E-01
        2   -1    0    0  501    0  0.00000000000E+00  0.00000000000E+00  0.19554785593E+04  0.19554785593E+04  0.25500000920E-02 0.  1.
       -2   -1    0    0    0  501  0.00000000000E+00  0.00000000000E+00 -0.72976196464E+03  0.72976196464E+03  0.25500000920E-02 0. -1.
    10030    2    1    2    0    0  0.00000000000E+00  0.00000000000E+00  0.12257165947E+04  0.26852405239E+04  0.23891704629E+04 0.  0.
        5    1    3    3  502    0  0.81117669316E+03  0.15160519514E+03  0.15836170110E+04  0.17857370160E+04  0.46999998093E+01 0.  1.
       -5    1    3    3    0  502 -0.81117669316E+03 -0.15160519514E+03 -0.35790041638E+03  0.89950350792E+03  0.46999998093E+01 0. -1.
</event>
<event>
 5   0  0.2122194E-05  0.2425198E+04  0.7818609E-02  0.8430130E-01
        2   -1    0    0  501    0  0.00000000000E+00  0.00000000000E+00  0.98642994307E+03  0.98642994307E+03  0.25500000920E-02 0. -1.
       -2   -1    0    0    0  501  0.00000000000E+00  0.00000000000E+00 -0.14906238537E+04  0.14906238537E+04  0.25500000920E-02 0.  1.
    10030    2    1    2    0    0  0.00000000000E+00  0.00000000000E+00 -0.50419391064E+03  0.24770537968E+04  0.24251977265E+04 0.  0.
        3    1    3    3  502    0 -0.71394181561E+03  0.47734111931E+03 -0.11264553246E+04  0.14164988771E+04  0.10100000352E+00 0.  1.
       -3    1    3    3    0  502  0.71394181561E+03 -0.47734111931E+03  0.62226141394E+03  0.10605549197E+04  0.10100000352E+00 0. -1.
</event>
<event>
 5   0  0.2080257E-05  0.2396935E+04  0.7818609E-02  0.8440652E-01
        2   -1    0    0  501    0  0.00000000000E+00  0.00000000000E+00  0.11336697654E+04  0.11336697654E+04  0.25500000920E-02 0. -1.
       -2   -1    0    0    0  501  0.00000000000E+00  0.00000000000E+00 -0.12669688368E+04  0.12669688369E+04  0.25500000920E-02 0.  1.
    10030    2    1    2    0    0  0.00000000000E+00  0.00000000000E+00 -0.13329907144E+03  0.24006386023E+04  0.23969349295E+04 0.  0.
        1    1    3    3  502    0  0.74075004976E+03  0.93335131709E+03  0.61880152206E+02  0.11931824968E+04  0.50400001928E-02 0. -1.
       -1    1    3    3    0  502 -0.74075004976E+03 -0.93335131709E+03 -0.19517922364E+03  0.12074561055E+04  0.50400001928E-02 0.  1.
</event>
<event>
 5   0  0.9083687E-06  0.2394497E+04  0.7818609E-02  0.8441567E-01
       -1   -1    0    0    0  501  0.00000000000E+00  0.00000000000E+00  0.16466974977E+04  0.16466974977E+04  0.50400001928E-02 0. -1.
        1   -1    0    0  501    0  0.00000000000E+00  0.00000000000E+00 -0.87047159000E+03  0.87047159001E+03  0.50400001928E-02 0.  1.
    10030    2    1    2    0    0  0.00000000000E+00  0.00000000000E+00  0.77622590774E+03  0.25171690878E+04  0.23944965142E+04 0.  0.
        2    1    3    3  502    0  0.20428881262E+03  0.11796721247E+04  0.38120768638E+03  0.12564551488E+04  0.25500000920E-02 0.  1.
       -2    1    3    3    0  502 -0.20428881262E+03 -0.11796721247E+04  0.39501822137E+03  0.12607139390E+04  0.25500000920E-02 0. -1.
</event>
<event>
 5   0  0.9038897E-06  0.2406248E+04  0.7818609E-02  0.8437168E-01
       -1   -1    0    0    0  501  0.00000000000E+00  0.00000000000E+00  0.14619240571E+04  0.14619240571E+04  0.50400001928E-02 0.  1.
        1   -1    0    0  501    0  0.00000000000E+00  0.00000000000E+00 -0.99013886877E+03  0.99013886878E+03  0.50400001928E-02 0. -1.
    10030    2    1    2    0    0  0.00000000000E+00  0.00000000000E+00  0.47178518833E+03  0.24520629259E+04  0.24062483929E+04 0.  0.
        1    1    3    3  502    0 -0.43879061858E+02  0.30915307095E+03  0.14199128671E+04  0.14538409623E+04  0.50400001928E-02 0.  1.
       -1    1    3    3    0  502  0.43879061858E+02 -0.30915307095E+03 -0.94812767878E+03  0.99822196362E+03  0.50400001928E-02 0. -1.
</event>
<event>
 5   0  0.2048028E-05  0.2414781E+04  0.7818609E-02  0.8433990E-01
       -2   -1    0    0    0  501  0.00000000000E+00  0.00000000000E+00  0.64222668392E+03  0.64222668392E+03  0.25500000920E-02 0.  1.
        2   -1    0    0  501    0  0.00000000000E+00  0.00000000000E+00 -0.22699020505E+04  0.22699020505E+04  0.25500000920E-02 0. -1.
    10030    2    1    2    0    0  0.00000000000E+00  0.00000000000E+00 -0.16276753666E+04  0.29121287345E+04  0.24147808735E+04 0.  0.
        5    1    3    3  502    0  0.94157534472E+03 -0.75310358151E+03 -0.73718147984E+03  0.14132189351E+04  0.46999998093E+01 0. -1.
       -5    1    3    3    0  502 -0.94157534472E+03  0.75310358151E+03 -0.89049388678E+03  0.14989097994E+04  0.46999998093E+01 0.  1.
</event>
<event>
 5   0  0.9176817E-06  0.2431739E+04  0.7818609E-02  0.8427716E-01
        1   -1    0    0  501    0  0.00000000000E+00  0.00000000000E+00  0.14875333712E+04  0.14875333712E+04  0.50400001928E-02 0. -1.
       -1   -1    0    0    0  501  0.00000000000E+00  0.00000000000E+00 -0.99381877502E+03  0.99381877503E+03  0.50400001928E-02 0.  1.
    10030    2    1    2    0    0  0.00000000000E+00  0.00000000000E+00  0.49371459621E+03  0.24813521463E+04  0.24317389604E+04 0.  0.
        3    1    3    3  502    0 -0.41966863970E+03  0.11179749709E+04  0.48032388366E+03  0.12871289159E+04  0.10100000352E+00 0.  1.
       -3    1    3    3    0  502  0.41966863970E+03 -0.11179749709E+04  0.13390712551E+02  0.11942232304E+04  0.10100000352E+00 0. -1.
</event>
<event>
 5   0  0.8528103E-06  0.2401467E+04  0.7818609E-02  0.8438955E-01
        1   -1    0    0  501    0  0.00000000000E+00  0.00000000000E+00  0.19522599547E+04  0.19522599547E+04  0.50400001928E-02 0.  1.
       -1   -1    0    0    0  501  0.00000000000E+00  0.00000000000E+00 -0.73850861415E+03  0.73850861417E+03  0.50400001928E-02 0. -1.
    10030    2    1    2    0    0  0.00000000000E+00  0.00000000000E+00  0.12137513405E+04  0.26907685688E+04  0.24014668797E+04 0.  0.
        4    1    3    3  502    0  0.27723857382E+03  0.47239832184E+03  0.18041203906E+04  0.18854371902E+04  0.12699999809E+01 0.  1.
       -4    1    3    3    0  502 -0.27723857382E+03 -0.47239832184E+03 -0.59036905010E+03  0.80533137869E+03  0.12699999809E+01 0. -1.
</event>
<event>
 5   0  0.2122194E-05  0.2363027E+04  0.7818609E-02  0.8453477E-01
       -2   -1    0    0    0  501  0.00000000000E+00  0.00000000000E+00  0.20180599866E+04  0.20180599866E+04  0.25500000920E-02 0.  1.
        2   -1    0    0  501    0  0.00000000000E+00  0.00000000000E+00 -0.69174046236E+03  0.69174046236E+03  0.25500000920E-02 0. -1.
    10030    2    1    2    0    0  0.00000000000E+00  0.00000000000E+00  0.13263195242E+04  0.27098004489E+04  0.23630266593E+04 0.  0.
        3    1    3    3  502    0 -0.62763680638E+03  0.73437036862E+03  0.14432412955E+04  0.17367133460E+04  0.10100000352E+00 0.  1.
       -3    1    3    3    0  502  0.62763680638E+03 -0.73437036862E+03 -0.11692177130E+03  0.97308710290E+03  0.10100000352E+00 0. -1.
</event>
<event>
 5   0  0.8898848E-06  0.2400407E+04  0.7818609E-02  0.8439351E-01
        1   -1    0    0  501    0  0.00000000000E+00  0.00000000000E+00  0.17628835314E+04  0.17628835314E+04  0.50400001928E-02 0. -1.
       -1   -1    0    0    0  501  0.00000000000E+00  0.00000000000E+00 -0.81712029474E+03  0.81712029475E+03  0.50400001928E-02 0.  1.
    10030    2    1    2    0    0  0.00000000000E+00  0.00000000000E+00  0.94576323670E+03  0.25800038262E+04  0.24004065579E+04 0.  0.
        5    1    3    3  502    0  0.10197166631E+04 -0.56519594654E+03  0.77915292558E+03  0.14022731198E+04  0.46999998093E+01 0. -1.
       -5    1    3    3    0  502 -0.10197166631E+04  0.56519594654E+03  0.16661031112E+03  0.11777307064E+04  0.46999998093E+01 0.  1.
</event>
<event>
 5   0  0.2048028E-05  0.2423543E+04  0.7818609E-02  0.8430742E-01
        2   -1    0    0  501    0  0.00000000000E+00  0.00000000000E+00  0.16635908849E+04  0.16635908849E+04  0.25500000920E-02 0. -1.
       -2   -1    0    0    0  501  0.00000000000E+00  0.00000000000E+00 -0.88266322360E+03  0.88266322361E+03  0.25500000920E-02 0.  1.
    10030    2    1    2    0    0  0.00000000000E+00  0.00000000000E+00  0.78092766133E+03  0.25462541085E+04  0.24235432682E+04 0.  0.
        5    1    3    3  502    0  0.15624468207E+03 -0.30094116262E+03 -0.83179311511E+03  0.89826491659E+03  0.46999998093E+01 0.  1.
       -5    1    3    3    0  502 -0.15624468207E+03  0.30094116262E+03  0.16127207764E+04  0.16479891919E+04  0.46999998093E+01 0. -1.
</event>
<event>
 5   0  0.2025353E-05  0.2380790E+04  0.7818609E-02  0.8446731E-01
       -2   -1    0    0    0  501  0.00000000000E+00  0.00000000000E+00  0.90892396215E+03  0.90892396215E+03  0.25500000920E-02 0. -1.
        2   -1    0    0  501    0  0.00000000000E+00  0.00000000000E+00 -0.15590300856E+04  0.15590300856E+04  0.25500000920E-02 0.  1.
    10030    2    1    2    0    0  0.00000000000E+00  0.00000000000E+00 -0.65010612348E+03  0.24679540478E+04  0.23807896190E+04 0.  0.
        4    1    3    3  502    0  0.37083660343E+02 -0.34399265537E+03  0.85565253430E+03  0.92295667134E+03  0.12699999809E+01 0. -1.
       -4    1    3    3    0  502 -0.37083660343E+02  0.34399265537E+03 -0.15057586578E+04  0.15449973764E+04  0.12699999809E+01 0.  1.
</event>
<event>
 5   0  0.2080257E-05  0.2395862E+04  0.7818609E-02  0.8441055E-01
        2   -1    0    0  501    0  0.00000000000E+00  0.00000000000E+00  0.14259479012E+04  0.14259479012E+04  0.25500000920E-02 0.  1.
       -2   -1    0    0    0  501  0.00000000000E+00  0.00000000000E+00 -0.10063749675E+04  0.10063749675E+04  0.25500000920E-02 0. -1.
    10030    2    1    2    0    0  0.00000000000E+00  0.00000000000E+00  0.41957293369E+03  0.24323228688E+04  0.23958616595E+04 0.  0.
        1    1    3    3  502    0  0.17230202205E+03 -0.48505136726E+02  0.14122943714E+04  0.14235926828E+04  0.50400001928E-02 0.  1.
       -1    1    3    3    0  502 -0.17230202205E+03  0.48505136726E+02 -0.99272143772E+03  0.10087301859E+04  0.50400001928E-02 0. -1.
</event>
<event>
 5   0  0.2080257E-05  0.2414029E+04  0.7818609E-02  0.8434270E-01
       -2   -1    0    0    0  501  0.00000000000E+00  0.00000000000E+00  0.11690166998E+04  0.11690166998E+04  0.25500000920E-02 0. -1.
        2   -1    0    0  501    0  0.00000000000E+00  0.00000000000E+00 -0.12462474555E+04  0.12462474555E+04  0.25500000920E-02 0.  1.
    10030    2    1    2    0    0  0.00000000000E+00  0.00000000000E+00 -0.77230755709E+02  0.24152641552E+04  0.24140290698E+04 0.  0.
        1    1    3    3  502    0 -0.83630104895E+03  0.63647948524E+03  0.55530311291E+03  0.11886408738E+04  0.50400001928E-02 0. -1.
       -1    1    3    3    0  502  0.83630104895E+03 -0.63647948524E+03 -0.63253386861E+03  0.12266232814E+04  0.50400001928E-02 0.  1.
</event>
<event>
 5   0  0.9083687E-06  0.2431069E+04  0.7818609E-02  0.8427963E-01
        1   -1    0    0  501    0  0.00000000000E+00  0.00000000000E+00  0.22563159040E+04  0.22563159040E+04  0.50400001928E-02 0. -1.
       -1   -1    0    0    0  501  0.00000000000E+00  0.00000000000E+00 -0.65483921166E+03  0.65483921168E+03  0.50400001928E-02 0.  1.
    10030    2    1    2    0    0  0.00000000000E+00  0.00000000000E+00  0.16014766924E+04  0.29111551157E+04  0.24310690059E+04 0.  0.
        2    1    3    3  502    0 -0.10118701973E+03  0.11134726879E+04  0.22962239593E+03  0.11413968129E+04  0.25500000920E-02 0. -1.
       -2    1    3    3    0  502  0.10118701973E+03 -0.11134726879E+04  0.13718542964E+04  0.17697583028E+04  0.25500000920E-02 0.  1.
</event>
<event>
 5   0  0.2080257E-05  0.2385549E+04  0.7818609E-02  0.8444934E-01
       -2   -1    0    0    0  501  0.00000000000E+00  0.00000000000E+00  0.10411815915E+04  0.10411815915E+04  0.25500000920E-02 0. -1.
        2   -1    0    0  501    0  0.00000000000E+00  0.00000000000E+00 -0.13664392333E+04  0.13664392333E+04  0.25500000920E-02 0.  1.
    10030    2    1    2    0    0  0.00000000000E+00  0.00000000000E+00 -0.32525764185E+03  0.24076208248E+04  0.23855493083E+04 0.  0.
        1    1    3    3  502    0  0.58814048205E+03  0.66969777539E+03  0.63736320091E+03  0.10957354548E+04  0.50400001928E-02 0. -1.
       -1    1    3    3    0  502 -0.58814048205E+03 -0.66969777539E+03 -0.96262084275E+03  0.13118853700E+04  0.50400001928E-02 0.  1.
</event>
<event>
 5   0  0.8898848E-06  0.2402606E+04  0.7818609E-02  0.8438529E-01
       -1   -1    0    0    0  501  0.00000000000E+00  0.00000000000E+00  0.57315794886E+03  0.57315794888E+03  0.50400001928E-02 0. -1.
        1   -1    0    0  501    0  0.00000000000E+00  0.00000000000E+00 -0.25178552016E+04  0.25178552016E+04  0.50400001928E-02 0.  1.
    10030    2    1    2    0    0  0.00000000000E+00  0.00000000000E+00 -0.19446972527E+04  0.30910131505E+04  0.24026058544E+04 0.  0.
        5    1    3    3  502    0  0.96829403987E+03 -0.58951733627E+02 -0.18839114559E+04  0.21190122978E+04  0.46999998093E+01 0.  1.
       -5    1    3    3    0  502 -0.96829403987E+03  0.58951733627E+02 -0.60785796856E+02  0.97200085270E+03  0.46999998093E+01 0. -1.
</event>
<event>
 5   0  0.9176817E-06  0.2403426E+04  0.7818609E-02  0.8438222E-01
        1   -1    0    0  501    0  0.00000000000E+00  0.00000000000E+00  0.14735392815E+04  0.14735392815E+04  0.50400001928E-02 0. -1.
       -1   -1    0    0    0  501  0.00000000000E+00  0.00000000000E+00 -0.98003107144E+03  0.98003107145E+03  0.50400001928E-02 0.  1.
    10030    2    1    2    0    0  0.00000000000E+00  0.00000000000E+00  0.49350821010E+03  0.24535703530E+04  0.24034261220E+04 0.  0.
        3    1    3    3  502    0 -0.35284618871E+03  0.79430617276E+03  0.10939427240E+04  0.13971876834E+04  0.10100000352E+00 0. -1.
       -3    1    3    3    0  502  0.35284618871E+03 -0.79430617276E+03 -0.60043451392E+03  0.10563826696E+04  0.10100000352E+00 0.  1.
</event>
<event>
 5   0  0.2025353E-05  0.2402206E+04  0.7818609E-02  0.8438678E-01
        2   -1    0    0  501    0  0.00000000000E+00  0.00000000000E+00  0.16148673111E+04  0.16148673111E+04  0.25500000920E-02 0. -1.
       -2   -1    0    0    0  501  0.00000000000E+00  0.00000000000E+00 -0.89335427486E+03  0.89335427486E+03  0.25500000920E-02 0.  1.
    10030    2    1    2    0    0  0.00000000000E+00  0.00000000000E+00  0.72151303627E+03  0.25082215860E+04  0.24022061658E+04 0.  0.
        4    1    3    3  502    0 -0.11267148702E+04  0.37534502145E+03  0.54834247107E+03  0.13080716198E+04  0.12699999809E+01 0. -1.
       -4    1    3    3    0  502  0.11267148702E+04 -0.37534502145E+03  0.17317056520E+03  0.12001499662E+04  0.12699999809E+01 0.  1.
</event>
<event>
 5   0  0.8528103E-06  0.2405061E+04  0.7818609E-02  0.8437611E-01
       -1   -1    0    0    0  501  0.00000000000E+00  0.00000000000E+00  0.18786621955E+04  0.18786621955E+04  0.50400001928E-02 0.  1.
        1   -1    0    0  501    0  0.00000000000E+00  0.00000000000E+00 -0.76973874283E+03  0.76973874285E+03  0.50400001928E-02 0. -1.
    10030    2    1    2    0    0  0.00000000000E+00  0.00000000000E+00  0.11089234527E+04  0.26484009384E+04  0.24050605619E+04 0.  0.
        4    1    3    3  502    0  0.57913301133E+03 -0.43984483591E+03 -0.50015395118E+03  0.88261776113E+03  0.12699999809E+01 0. -1.
       -4    1    3    3    0  502 -0.57913301133E+03  0.43984483591E+03  0.16090774039E+04  0.17657831772E+04  0.12699999809E+01 0.  1.
</event>
<event>
 5   0  0.2122194E-05  0.2387502E+04  0.7818609E-02  0.8444197E-01
       -2   -1    0    0    0  501  0.00000000000E+00  0.00000000000E+00  0.95926488667E+03  0.95926488667E+03  0.25500000920E-02 0. -1.
        2   -1    0    0  501    0  0.00000000000E+00  0.00000000000E+00 -0.14855561995E+04  0.14855561995E+04  0.25500000920E-02 0.  1.
    10030    2    1    2    0    0  0.00000000000E+00  0.00000000000E+00 -0.52629131288E+03  0.24448210862E+04  0.23875023765E+04 0.  0.
        3    1    3    3  502    0  0.61186482951E+03 -0.85714716283E+03  0.31245428228E+03  0.10985023974E+04  0.10100000352E+00 0. -1.
       -3    1    3    3    0  502 -0.61186482951E+03  0.85714716283E+03 -0.83874559515E+03  0.13463186888E+04  0.10100000352E+00 0.  1.
</event>
<event>
 5   0  0.2122194E-05  0.2412286E+04  0.7818609E-02  0.8434918E-01
       -2   -1    0    0    0  501  0.00000000000E+00  0.00000000000E+00  0.14046704076E+04  0.14046704076E+04  0.25500000920E-02 0. -1.
        2   -1    0    0  501    0  0.00000000000E+00  0.00000000000E+00 -0.10356738835E+04  0.10356738835E+04  0.25500000920E-02 0.  1.
    10030    2    1    2    0    0  0.00000000000E+00  0.00000000000E+00  0.36899652406E+03  0.24403442911E+04  0.24122856017E+04 0.  0.
        3    1    3    3  502    0 -0.10757943679E+04  0.50436539481E+03  0.39442698201E+03  0.12519147846E+04  0.10100000352E+00 0.  1.
       -3    1    3    3    0  502  0.10757943679E+04 -0.50436539481E+03 -0.25430457943E+02  0.11884295065E+04  0.10100000352E+00 0. -1.
</event>
<event>
 5   0  0.2122194E-05  0.2406453E+04  0.7818609E-02  0.8437092E-01
        2   -1    0    0  501    0  0.00000000000E+00  0.00000000000E+00  0.15773777315E+04  0.15773777315E+04  0.25500000920E-02 0. -1.
       -2   -1    0    0    0  501  0.00000000000E+00  0.00000000000E+00 -0.91782294334E+03  0.91782294334E+03  0.25500000920E-02 0.  1.
    10030    2    1    2    0    0  0.00000000000E+00  0.00000000000E+00  0.65955478812E+03  0.24952006748E+04  0.24064525528E+04 0.  0.
        3    1    3    3  502    0  0.10543317165E+04  0.16855925278E+03 -0.24541108869E+03  0.10955611360E+04  0.10100000352E+00 0. -1.
       -3    1    3    3    0  502 -0.10543317165E+04 -0.16855925278E+03  0.90496587681E+03  0.13996395388E+04  0.10100000352E+00 0.  1.
</event>
<event>
 5   0  0.9083687E-06  0.2168774E+04  0.7818609E-02  0.8531539E-01
       -1   -1    0    0    0  501  0.00000000000E+00  0.00000000000E+00  0.13087577162E+04  0.13087577162E+04  0.50400001928E-02 0. -1.
        1   -1    0    0  501    0  0.00000000000E+00  0.00000000000E+00 -0.89848196810E+03  0.89848196811E+03  0.50400001928E-02 0.  1.
    10030    2    1    2    0    0  0.00000000000E+00  0.00000000000E+00  0.41027574812E+03  0.22072396843E+04  0.21687740396E+04 0.  0.
        2    1    3    3  502    0  0.32842740644E+03  0.77302330060E+03 -0.49293238857E+03  0.97386442808E+03  0.25500000920E-02 0.  1.
       -2    1    3    3    0  502 -0.32842740644E+03 -0.77302330060E+03  0.90320813669E+03  0.12333752563E+04  0.25500000920E-02 0. -1.
</event>
<event>
 5   0  0.2048028E-05  0.2432373E+04  0.7818609E-02  0.8427482E-01
       -2   -1    0    0    0  501  0.00000000000E+00  0.00000000000E+00  0.12763079738E+04  0.12763079738E+04  0.25500000920E-02 0. -1.
        2   -1    0    0  501    0  0.00000000000E+00  0.00000000000E+00 -0.11588973689E+04  0.11588973689E+04  0.25500000920E-02 0.  1.
    10030    2    1    2    0    0  0.00000000000E+00  0.00000000000E+00  0.11741060487E+03  0.24352053426E+04  0.24323732877E+04 0.  0.
        5    1    3    3  502    0 -0.52190618746E+02  0.57384665320E+03 -0.10135524414E+04  0.11659050062E+04  0.46999998093E+01 0.  1.
       -5    1    3    3    0  502  0.52190618746E+02 -0.57384665320E+03  0.11309630463E+04  0.12693003364E+04  0.46999998093E+01 0. -1.
</event>
<event>
 5   0  0.2048028E-05  0.2397717E+04  0.7818609E-02  0.8440359E-01
       -2   -1    0    0    0  501  0.00000000000E+00  0.00000000000E+00  0.79756708619E+03  0.79756708619E+03  0.25500000920E-02 0.  1.
        2   -1    0    0  501    0  0.00000000000E+00  0.00000000000E+00 -0.18020580321E+04  0.18020580321E+04  0.25500000920E-02 0. -1.
    10030    2    1    2    0    0  0.00000000000E+00  0.00000000000E+00 -0.10044909459E+04  0.25996251183E+04  0.23977173927E+04 0.  0.
        5    1    3    3  502    0 -0.11732305641E+04 -0.12656540338E+02 -0.23532329785E+03  0.11966742619E+04  0.46999998093E+01 0.  1.
       -5    1    3    3    0  502  0.11732305641E+04  0.12656540338E+02 -0.76916764802E+03  0.14029508564E+04  0.46999998093E+01 0. -1.
</event>
<event>
 5   0  0.2025353E-05  0.2461221E+04  0.7818609E-02  0.8416932E-01
       -2   -1    0    0    0  501  0.00000000000E+00  0.00000000000E+00  0.89929677422E+03  0.89929677422E+03  0.25500000920E-02 0. -1.
        2   -1    0    0  501    0  0.00000000000E+00  0.00000000000E+00 -0.16839855568E+04  0.16839855568E+04  0.25500000920E-02 0.  1.
    10030    2    1    2    0    0  0.00000000000E+00  0.00000000000E+00 -0.78468878255E+03  0.25832823310E+04  0.24612214683E+04 0.  0.
        4    1    3    3  502    0 -0.11158011086E+04 -0.57650973936E+02 -0.93374082868E+03  0.14560938489E+04  0.12699999809E+01 0.  1.
       -4    1    3    3    0  502  0.11158011086E+04  0.57650973936E+02  0.14905204612E+03  0.11271884821E+04  0.12699999809E+01 0. -1.
</event>
<event>
 5   0  0.2025353E-05  0.2395746E+04  0.7818609E-02  0.8441098E-01
       -2   -1    0    0    0  501  0.00000000000E+00  0.00000000000E+00  0.15981942566E+04  0.15981942566E+04  0.25500000920E-02 0.  1.
        2   -1    0    0  501    0  0.00000000000E+00  0.00000000000E+00 -0.89782537580E+03  0.89782537580E+03  0.25500000920E-02 0. -1.
    10030    2    1    2    0    0  0.00000000000E+00  0.00000000000E+00  0.70036888076E+03  0.24960196324E+04  0.23957456952E+04 0.  0.
        4    1    3    3  502    0 -0.10003083735E+04  0.61466763777E+03  0.10261592912E+03  0.11785435031E+04  0.12699999809E+01 0.  1.
       -4    1    3    3    0  502  0.10003083735E+04 -0.61466763777E+03  0.59775295164E+03  0.13174761292E+04  0.12699999809E+01 0. -1.
</event>
<event>
 5   0  0.9083687E-06  0.2539144E+04  0.7818609E-02  0.8389172E-01
        1   -1    0    0  501    0  0.00000000000E+00  0.00000000000E+00  0.18270006200E+04  0.18270006200E+04  0.50400001928E-02 0.  1.
       -1   -1    0    0    0  501  0.00000000000E+00  0.00000000000E+00 -0.88221796140E+03  0.88221796141E+03  0.50400001928E-02 0. -1.
    10030    2    1    2    0    0  0.00000000000E+00  0.00000000000E+00  0.94478265862E+03  0.27092185814E+04  0.25391437632E+04 0.  0.
        2    1    3    3  502    0 -0.12265898431E+04 -0.30941082363E+03  0.58708590708E+03  0.13946065980E+04  0.25500000920E-02 0.  1.
       -2    1    3    3    0  502  0.12265898431E+04  0.30941082363E+03  0.35769675155E+03  0.13146119834E+04  0.25500000920E-02 0. -1.
</event>
<event>
 5   0  0.2122194E-05  0.2394387E+04  0.7818609E-02  0.8441608E-01
        2   -1    0    0  501    0  0.00000000000E+00  0.00000000000E+00  0.13810926591E+04  0.13810926591E+04  0.25500000920E-02 0. -1.
       -2   -1    0    0    0  501  0.00000000000E+00  0.00000000000E+00 -0.10377813537E+04  0.10377813537E+04  0.25500000920E-02 0.  1.
    10030    2    1    2    0    0  0.00000000000E+00  0.00000000000E+00  0.34331130540E+03  0.24188740127E+04  0.23943869439E+04 0.  0.
        3    1    3    3  502    0  0.53123073277E+03  0.87722867062E+03  0.79565862069E+03  0.12980018809E+04  0.10100000352E+00 0. -1.
       -3    1    3    3    0  502 -0.53123073277E+03 -0.87722867062E+03 -0.45234731529E+03  0.11208721318E+04  0.10100000352E+00 0.  1.
</event>
<event>
 5   0  0.8528103E-06  0.2386960E+04  0.7818609E-02  0.8444402E-01
        1   -1    0    0  501    0  0.00000000000E+00  0.00000000000E+00  0.20997528740E+04  0.20997528740E+04  0.50400001928E-02 0. -1.
       -1   -1    0    0    0  501  0.00000000000E+00  0.00000000000E+00 -0.67836319234E+03  0.67836319236E+03  0.50400001928E-02 0.  1.
    10030    2    1    2    0    0  0.00000000000E+00  0.00000000000E+00  0.14213896816E+04  0.27781160663E+04  0.23869604628E+04 0.  0.
        4    1    3    3  502    0 -0.50857849925E+03 -0.71827454175E+01 -0.54590399440E+03  0.74613434831E+03  0.12699999809E+01 0.  1.
       -4    1    3    3    0  502  0.50857849925E+03  0.71827454175E+01  0.19672936760E+04  0.20319817180E+04  0.12699999809E+01 0. -1.
</event>
<event>
 5   0  0.2080257E-05  0.2316977E+04  0.7818609E-02  0.8471257E-01
        2   -1    0    0  501    0  0.00000000000E+00  0.00000000000E+00  0.20926718831E+04  0.20926718831E+04  0.25500000920E-02 0. -1.
       -2   -1    0    0    0  501  0.00000000000E+00  0.00000000000E+00 -0.64133092315E+03  0.64133092316E+03  0.25500000920E-02 0.  1.
    10030    2    1    2    0    0  0.00000000000E+00  0.00000000000E+00  0.14513409600E+04  0.27340028063E+04  0.23169766427E+04 0.  0.
        1    1    3    3  502    0 -0.27578853184E+03 -0.93937354688E+03  0.14565134613E+04  0.17549682156E+04  0.50400001928E-02 0. -1.
       -1    1    3    3    0  502  0.27578853184E+03  0.93937354688E+03 -0.51725013570E+01  0.97903459064E+03  0.50400001928E-02 0.  1.
</event>
<event>
 5   0  0.2087882E-05  0.2404630E+04  0.7818609E-02  0.8437772E-01
        2   -1    0    0  501    0  0.00000000000E+00  0.00000000000E+00  0.26751289643E+04  0.26751289643E+04  0.25500000920E-02 0. -1.
       -2   -1    0    0    0  501  0.00000000000E+00  0.00000000000E+00 -0.54037092337E+03  0.54037092337E+03  0.25500000920E-02 0.  1.
    10030    2    1    2    0    0  0.00000000000E+00  0.00000000000E+00  0.21347580409E+04  0.32154998877E+04  0.24046304569E+04 0.  0.
        2    1    3    3  502    0  0.34317430838E+03 -0.11449238193E+04  0.89332177195E+03  0.14921940042E+04  0.25500000920E-02 0. -1.
       -2    1    3    3    0  502 -0.34317430838E+03  0.11449238193E+04  0.12414362690E+04  0.17233058834E+04  0.25500000920E-02 0.  1.
</event>
<event>
 5   0  0.8528103E-06  0.2416884E+04  0.7818609E-02  0.8433209E-01
        1   -1    0    0  501    0  0.00000000000E+00  0.00000000000E+00  0.21915510469E+04  0.21915510469E+04  0.50400001928E-02 0. -1.
       -1   -1    0    0    0  501  0.00000000000E+00  0.00000000000E+00 -0.66634622172E+03  0.66634622173E+03  0.50400001928E-02 0.  1.
    10030    2    1    2    0    0  0.00000000000E+00  0.00000000000E+00  0.15252048252E+04  0.28578972687E+04  0.24168837455E+04 0.  0.
        4    1    3    3  502    0 -0.44568990306E+03 -0.11206784367E+04  0.67277734950E+03  0.13810107252E+04  0.12699999809E+01 0.  1.
       -4    1    3    3    0  502  0.44568990306E+03  0.11206784367E+04  0.85242747573E+03  0.14768865435E+04  0.12699999809E+01 0. -1.
</event>
<event>
 5   0  0.9083687E-06  0.2398812E+04  0.7818609E-02  0.8439948E-01
       -1   -1    0    0    0  501  0.00000000000E+00  0.00000000000E+00  0.92007593068E+03  0.92007593070E+03  0.50400001928E-02 0.  1.
        1   -1    0    0  501    0  0.00000000000E+00  0.00000000000E+00 -0.15635391015E+04  0.15635391015E+04  0.50400001928E-02 0. -1.
    10030    2    1    2    0    0  0.00000000000E+00  0.00000000000E+00 -0.64346317084E+03  0.24836150322E+04  0.23988119510E+04 0.  0.
        2    1    3    3  502    0  0.34534998901E+03  0.30740842968E+03  0.82410347655E+03  0.94494079053E+03  0.25500000920E-02 0.  1.
       -2    1    3    3    0  502 -0.34534998901E+03 -0.30740842968E+03 -0.14675666474E+04  0.15386742417E+04  0.25500000920E-02 0. -1.
</event>
<event>
 5   0  0.2025353E-05  0.2397931E+04  0.7818609E-02  0.8440278E-01
        2   -1    0    0  501    0  0.00000000000E+00  0.00000000000E+00  0.22189353139E+04  0.22189353139E+04  0.25500000920E-02 0. -1.
       -2   -1    0    0    0  501  0.00000000000E+00  0.00000000000E+00 -0.64784171477E+03  0.64784171478E+03  0.25500000920E-02 0.  1.
    10030    2    1    2    0    0  0.00000000000E+00  0.00000000000E+00  0.15710935992E+04  0.28667770287E+04  0.23979314909E+04 0.  0.
        4    1    3    3  502    0 -0.98777829281E+03  0.67935399851E+03  0.76520766238E+03  0.14222419592E+04  0.12699999809E+01 0. -1.
       -4    1    3    3    0  502  0.98777829281E+03 -0.67935399851E+03  0.80588593678E+03  0.14445350695E+04  0.12699999809E+01 0.  1.
</event>
<event>
 5   0  0.2025353E-05  0.2401154E+04  0.7818609E-02  0.8439072E-01
       -2   -1    0    0    0  501  0.00000000000E+00  0.00000000000E+00  0.10687798814E+04  0.10687798814E+04  0.25500000920E-02 0. -1.
        2   -1    0    0  501    0  0.00000000000E+00  0.00000000000E+00 -0.13486269566E+04  0.13486269566E+04  0.25500000920E-02 0.  1.
    10030    2    1    2    0    0  0.00000000000E+00  0.00000000000E+00 -0.27984707527E+03  0.24174068380E+04  0.24011541881E+04 0.  0.
        4    1    3    3  502    0 -0.68938921609E+02 -0.26083755690E+03 -0.13177116386E+04  0.13450480963E+04  0.12699999809E+01 0.  1.
       -4    1    3    3    0  502  0.68938921609E+02  0.26083755690E+03  0.10378645634E+04  0.10723587416E+04  0.12699999809E+01 0. -1.
</event>
<event>
 5   0  0.8528103E-06  0.2405852E+04  0.7818609E-02  0.8437316E-01
        1   -1    0    0  501    0  0.00000000000E+00  0.00000000000E+00  0.53773116649E+03  0.53773116652E+03  0.50400001928E-02 0.  1.
       -1   -1    0    0    0  501  0.00000000000E+00  0.00000000000E+00 -0.26909941003E+04  0.26909941003E+04  0.50400001928E-02 0. -1.
    10030    2    1    2    0    0  0.00000000000E+00  0.00000000000E+00 -0.21532629338E+04  0.32287252668E+04  0.24058523617E+04 0.  0.
        4    1    3    3  502    0  0.75964474353E+02  0.11943066945E+04 -0.91286699007E+03  0.15051467824E+04  0.12699999809E+01 0.  1.
       -4    1    3    3    0  502 -0.75964474353E+02 -0.11943066945E+04 -0.12403959437E+04  0.17235784845E+04  0.12699999809E+01 0. -1.
</event>
<event>
 5   0  0.9083687E-06  0.2459187E+04  0.7818609E-02  0.8417671E-01
       -1   -1    0    0    0  501  0.00000000000E+00  0.00000000000E+00  0.20859682777E+04  0.20859682777E+04  0.50400001928E-02 0.  1.
        1   -1    0    0  501    0  0.00000000000E+00  0.00000000000E+00 -0.72479545900E+03  0.72479545902E+03  0.50400001928E-02 0. -1.
    10030    2    1    2    0    0  0.00000000000E+00  0.00000000000E+00  0.13611728187E+04  0.28107637367E+04  0.24591871302E+04 0.  0.
        2    1    3    3  502    0  0.21425019344E+03  0.41360964187E+03  0.19812199433E+04  0.20352416429E+04  0.25500000920E-02 0.  1.
       -2    1    3    3    0  502 -0.21425019344E+03 -0.41360964187E+03 -0.62004712461E+03  0.77552209381E+03  0.25500000920E-02 0. -1.
</event>
<event>
 5   0  0.2048028E-05  0.2381854E+04  0.7818609E-02  0.8446328E-01
        2   -1    0    0  501    0  0.00000000000E+00  0.00000000000E+00  0.11505139033E+04  0.11505139033E+04  0.25500000920E-02 0.  1.
       -2   -1    0    0    0  501  0.00000000000E+00  0.00000000000E+00 -0.12327599330E+04  0.12327599330E+04  0.25500000920E-02 0. -1.
    10030    2    1    2    0    0  0.00000000000E+00  0.00000000000E+00 -0.82246029674E+02  0.23832738363E+04  0.23818542713E+04 0.  0.
        5    1    3    3  502    0 -0.22832605011E+03  0.38831309303E+03  0.10619701979E+04  0.11535695187E+04  0.46999998093E+01 0.  1.
       -5    1    3    3    0  502  0.22832605011E+03 -0.38831309303E+03 -0.11442162275E+04  0.12297043176E+04  0.46999998093E+01 0. -1.
</event>
<event>
 5   0  0.2048028E-05  0.2433270E+04  0.7818609E-02  0.8427152E-01
        2   -1    0    0  501    0  0.00000000000E+00  0.00000000000E+00  0.21730284098E+04  0.21730284098E+04  0.25500000920E-02 0. -1.
       -2   -1    0    0    0  501  0.00000000000E+00  0.00000000000E+00 -0.68116955670E+03  0.68116955670E+03  0.25500000920E-02 0.  1.
    10030    2    1    2    0    0  0.00000000000E+00  0.00000000000E+00  0.14918588531E+04  0.28541979665E+04  0.24332700620E+04 0.  0.
        5    1    3    3  502    0  0.46535589812E+03  0.10154063177E+03 -0.56724795986E+03  0.74071516103E+03  0.46999998093E+01 0.  1.
       -5    1    3    3    0  502 -0.46535589812E+03 -0.10154063177E+03  0.20591068130E+04  0.21134828055E+04  0.46999998093E+01 0. -1.
</event>
<event>
 5   0  0.8898848E-06  0.2429592E+04  0.7818609E-02  0.8428507E-01
        1   -1    0    0  501    0  0.00000000000E+00  0.00000000000E+00  0.16212777394E+04  0.16212777394E+04  0.50400001928E-02 0.  1.
       -1   -1    0    0    0  501  0.00000000000E+00  0.00000000000E+00 -0.91022576138E+03  0.91022576139E+03  0.50400001928E-02 0. -1.
    10030    2    1    2    0    0  0.00000000000E+00  0.00000000000E+00  0.71105197799E+03  0.25315035008E+04  0.24295915416E+04 0.  0.
        5    1    3    3  502    0  0.51763605246E+03 -0.10444346428E+04  0.71179823853E+03  0.13658219607E+04  0.46999998093E+01 0.  1.
       -5    1    3    3    0  502 -0.51763605246E+03  0.10444346428E+04 -0.74626054476E+00  0.11656815401E+04  0.46999998093E+01 0. -1.
</event>
<event>
 5   0  0.2087882E-05  0.2384665E+04  0.7818609E-02  0.8445267E-01
        2   -1    0    0  501    0  0.00000000000E+00  0.00000000000E+00  0.21106481303E+04  0.21106481303E+04  0.25500000920E-02 0.  1.
       -2   -1    0    0    0  501  0.00000000000E+00  0.00000000000E+00 -0.67356418618E+03  0.67356418619E+03  0.25500000920E-02 0. -1.
    10030    2    1    2    0    0  0.00000000000E+00  0.00000000000E+00  0.14370839442E+04  0.27842123165E+04  0.23846651675E+04 0.  0.
        2    1    3    3  502    0  0.62579455745E+03 -0.18096063644E+03  0.18845082273E+04  0.19939249832E+04  0.25500000920E-02 0.  1.
       -2    1    3    3    0  502 -0.62579455745E+03  0.18096063644E+03 -0.44742428310E+03  0.79028733331E+03  0.25500000920E-02 0. -1.
</event>
<event>
 5   0  0.8528103E-06  0.2386216E+04  0.7818609E-02  0.8444682E-01
       -1   -1    0    0    0  501  0.00000000000E+00  0.00000000000E+00  0.19008520357E+04  0.19008520357E+04  0.50400001928E-02 0. -1.
        1   -1    0    0  501    0  0.00000000000E+00  0.00000000000E+00 -0.74887807273E+03  0.74887807275E+03  0.50400001928E-02 0.  1.
    10030    2    1    2    0    0  0.00000000000E+00  0.00000000000E+00  0.11519739630E+04  0.26497301085E+04  0.23862157565E+04 0.  0.
        4    1    3    3  502    0  0.94380719766E+03 -0.57446235245E+03  0.76014137053E+02  0.11075011434E+04  0.12699999809E+01 0.  1.
       -4    1    3    3    0  502 -0.94380719766E+03  0.57446235245E+03  0.10759598260E+04  0.15422289651E+04  0.12699999809E+01 0. -1.
</event>
<event>
 5   0  0.2122194E-05  0.2222693E+04  0.7818609E-02  0.8509042E-01
       -2   -1    0    0    0  501  0.00000000000E+00  0.00000000000E+00  0.50643121738E+03  0.50643121739E+03  0.25500000920E-02 0. -1.
        2   -1    0    0  501    0  0.00000000000E+00  0.00000000000E+00 -0.24388132180E+04  0.24388132180E+04  0.25500000920E-02 0.  1.
    10030    2    1    2    0    0  0.00000000000E+00  0.00000000000E+00 -0.19323820006E+04  0.29452444354E+04  0.22226930935E+04 0.  0.
        3    1    3    3  502    0  0.80506599382E+03 -0.75322996768E+03 -0.78065862327E+03  0.13508939762E+04  0.10100000352E+00 0.  1.
       -3    1    3    3    0  502 -0.80506599382E+03  0.75322996768E+03 -0.11517233774E+04  0.15943504592E+04  0.10100000352E+00 0. -1.
</event>
<event>
 5   0  0.2048028E-05  0.2402031E+04  0.7818609E-02  0.8438744E-01
        2   -1    0    0  501    0  0.00000000000E+00  0.00000000000E+00  0.15851918826E+04  0.15851918826E+04  0.25500000920E-02 0. -1.
       -2   -1    0    0    0  501  0.00000000000E+00  0.00000000000E+00 -0.90994549126E+03  0.90994549127E+03  0.25500000920E-02 0.  1.
    10030    2    1    2    0    0  0.00000000000E+00  0.00000000000E+00  0.67524639130E+03  0.24951373738E+04  0.24020309793E+04 0.  0.
        5    1    3    3  502    0 -0.11324250325E+04 -0.16268039838E+03 -0.42007905984E+02  0.11448310445E+04  0.46999998093E+01 0.  1.
       -5    1    3    3    0  502  0.11324250325E+04  0.16268039838E+03  0.71725429729E+03  0.13503063294E+04  0.46999998093E+01 0. -1.
</event>
<event>
 5   0  0.2087882E-05  0.2423808E+04  0.7818609E-02  0.8430644E-01
        2   -1    0    0  501    0  0.00000000000E+00  0.00000000000E+00  0.13865155785E+04  0.13865155785E+04  0.25500000920E-02 0.  1.
       -2   -1    0    0    0  501  0.00000000000E+00  0.00000000000E+00 -0.10592822861E+04  0.10592822861E+04  0.25500000920E-02 0. -1.
    10030    2    1    2    0    0  0.00000000000E+00  0.00000000000E+00  0.32723329235E+03  0.24457978646E+04  0.24238080714E+04 0.  0.
        2    1    3    3  502    0 -0.76614301453E+03 -0.34232474169E+03 -0.71870166615E+03  0.11048499592E+04  0.25500000920E-02 0. -1.
       -2    1    3    3    0  502  0.76614301453E+03  0.34232474169E+03  0.10459349585E+04  0.13409479054E+04  0.25500000920E-02 0.  1.
</event>
<event>
 5   0  0.9176817E-06  0.2413839E+04  0.7818609E-02  0.8434340E-01
        1   -1    0    0  501    0  0.00000000000E+00  0.00000000000E+00  0.17313588842E+04  0.17313588842E+04  0.50400001928E-02 0. -1.
       -1   -1    0    0    0  501  0.00000000000E+00  0.00000000000E+00 -0.84133636220E+03  0.84133636221E+03  0.50400001928E-02 0.  1.
    10030    2    1    2    0    0  0.00000000000E+00  0.00000000000E+00  0.89002252201E+03  0.25726952464E+04  0.24138394191E+04 0.  0.
        3    1    3    3  502    0  0.11293053234E+04  0.39677022894E+03  0.28024769797E+03  0.12293477581E+04  0.10100000352E+00 0.  1.
       -3    1    3    3    0  502 -0.11293053234E+04 -0.39677022894E+03  0.60977482404E+03  0.13433474883E+04  0.10100000352E+00 0. -1.
</event>
<event>
 5   0  0.2087882E-05  0.2385867E+04  0.7818609E-02  0.8444814E-01
        2   -1    0    0  501    0  0.00000000000E+00  0.00000000000E+00  0.19979903353E+04  0.19979903353E+04  0.25500000920E-02 0.  1.
       -2   -1    0    0    0  501  0.00000000000E+00  0.00000000000E+00 -0.71226114924E+03  0.71226114925E+03  0.25500000920E-02 0. -1.
    10030    2    1    2    0    0  0.00000000000E+00  0.00000000000E+00  0.12857291861E+04  0.27102514846E+04  0.23858674669E+04 0.  0.
        2    1    3    3  502    0  0.50731961916E+03  0.43355021494E+03  0.17661176563E+04  0.18879911443E+04  0.25500000920E-02 0.  1.
       -2    1    3    3    0  502 -0.50731961916E+03 -0.43355021494E+03 -0.48038847025E+03  0.82226034029E+03  0.25500000920E-02 0. -1.
</event>
<event>
 5   0  0.8898848E-06  0.2400221E+04  0.7818609E-02  0.8439421E-01
       -1   -1    0    0    0  501  0.00000000000E+00  0.00000000000E+00  0.52455345594E+03  0.52455345596E+03  0.50400001928E-02 0. -1.
        1   -1    0    0  501    0  0.00000000000E+00  0.00000000000E+00 -0.27456969226E+04  0.27456969226E+04  0.50400001928E-02 0.  1.
    10030    2    1    2    0    0  0.00000000000E+00  0.00000000000E+00 -0.22211434666E+04  0.32702503785E+04  0.24002206646E+04 0.  0.
        5    1    3    3  502    0 -0.17386854243E+02  0.45070364336E+03  0.40466586699E+03  0.60598071813E+03  0.46999998093E+01 0. -1.
       -5    1    3    3    0  502  0.17386854243E+02 -0.45070364336E+03 -0.26258093336E+04  0.26642696604E+04  0.46999998093E+01 0.  1.
</event>
<event>
 5   0  0.8528103E-06  0.2401184E+04  0.7818609E-02  0.8439061E-01
        1   -1    0    0  501    0  0.00000000000E+00  0.00000000000E+00  0.14409403097E+04  0.14409403097E+04  0.50400001928E-02 0. -1.
       -1   -1    0    0    0  501  0.00000000000E+00  0.00000000000E+00 -0.10003334449E+04  0.10003334449E+04  0.50400001928E-02 0.  1.
    10030    2    1    2    0    0  0.00000000000E+00  0.00000000000E+00  0.44060686483E+03  0.24412737546E+04  0.24011836947E+04 0.  0.
        4    1    3    3  502    0 -0.11392402941E+04 -0.22603600741E+03  0.52944997464E+03  0.12764323769E+04  0.12699999809E+01 0. -1.
       -4    1    3    3    0  502  0.11392402941E+04  0.22603600741E+03 -0.88843109810E+02  0.11648413777E+04  0.12699999809E+01 0.  1.
</event>
<event>
 5   0  0.2122194E-05  0.2393184E+04  0.7818609E-02  0.8442060E-01
       -2   -1    0    0    0  501  0.00000000000E+00  0.00000000000E+00  0.74397714415E+03  0.74397714416E+03  0.25500000920E-02 0.  1.
        2   -1    0    0  501    0  0.00000000000E+00  0.00000000000E+00 -0.19245643040E+04  0.19245643040E+04  0.25500000920E-02 0. -1.
    10030    2    1    2    0    0  0.00000000000E+00  0.00000000000E+00 -0.11805871598E+04  0.26685414481E+04  0.23931835321E+04 0.  0.
        3    1    3    3  502    0 -0.97556908219E+03  0.17764602093E+03  0.15649541225E+03  0.10038844391E+04  0.10100000352E+00 0.  1.
       -3    1    3    3    0  502  0.97556908219E+03 -0.17764602093E+03 -0.13370825721E+04  0.16646570090E+04  0.10100000352E+00 0. -1.
</event>
<event>
 5   0  0.9176817E-06  0.2377512E+04  0.7818609E-02  0.8447971E-01
        1   -1    0    0  501    0  0.00000000000E+00  0.00000000000E+00  0.17711894623E+04  0.17711894623E+04  0.50400001928E-02 0. -1.
       -1   -1    0    0    0  501  0.00000000000E+00  0.00000000000E+00 -0.79784856963E+03  0.79784856965E+03  0.50400001928E-02 0.  1.
    10030    2    1    2    0    0  0.00000000000E+00  0.00000000000E+00  0.97334089265E+03  0.25690380319E+04  0.23775121275E+04 0.  0.
        3    1    3    3  502    0 -0.83483790077E+03  0.84543255892E+03  0.52753832578E+03  0.13000027798E+04  0.10100000352E+00 0.  1.
       -3    1    3    3    0  502  0.83483790077E+03 -0.84543255892E+03  0.44580256688E+03  0.12690352521E+04  0.10100000352E+00 0. -1.
</event>
<event>
 5   0  0.9083687E-06  0.2392389E+04  0.7818609E-02  0.8442359E-01
        1   -1    0    0  501    0  0.00000000000E+00  0.00000000000E+00  0.27532996422E+04  0.27532996423E+04  0.50400001928E-02 0. -1.
       -1   -1    0    0    0  501  0.00000000000E+00  0.00000000000E+00 -0.51969680643E+03  0.51969680646E+03  0.50400001928E-02 0.  1.
    10030    2    1    2    0    0  0.00000000000E+00  0.00000000000E+00  0.22336028358E+04  0.32729964487E+04  0.23923887905E+04 0.  0.
        2    1    3    3  502    0  0.39567066299E+03  0.63247102623E+03 -0.16241947529E+03  0.76351487119E+03  0.25500000920E-02 0.  1.
       -2    1    3    3    0  502 -0.39567066299E+03 -0.63247102623E+03  0.23960223111E+04  0.25094815775E+04  0.25500000920E-02 0. -1.
</event>
<event>
 5   0  0.9083687E-06  0.2429840E+04  0.7818609E-02  0.8428416E-01
        1   -1    0    0  501    0  0.00000000000E+00  0.00000000000E+00  0.13360287686E+04  0.13360287686E+04  0.50400001928E-02 0. -1.
       -1   -1    0    0    0  501  0.00000000000E+00  0.00000000000E+00 -0.11047891708E+04  0.11047891708E+04  0.50400001928E-02 0.  1.
    10030    2    1    2    0    0  0.00000000000E+00  0.00000000000E+00  0.23123959782E+03  0.24408179395E+04  0.24298395959E+04 0.  0.
        2    1    3    3  502    0 -0.12063910986E+04 -0.82628903951E+02 -0.24830729235E+01  0.12092200727E+04  0.25500000920E-02 0. -1.
       -2    1    3    3    0  502  0.12063910986E+04  0.82628903951E+02  0.23372267074E+03  0.12315978668E+04  0.25500000920E-02 0.  1.
</event>
<event>
 5   0  0.2025353E-05  0.2336234E+04  0.7818609E-02  0.8463770E-01
       -2   -1    0    0    0  501  0.00000000000E+00  0.00000000000E+00  0.11319312035E+04  0.11319312035E+04  0.25500000920E-02 0.  1.
        2   -1    0    0  501    0  0.00000000000E+00  0.00000000000E+00 -0.12054595942E+04  0.12054595942E+04  0.25500000920E-02 0. -1.
    10030    2    1    2    0    0  0.00000000000E+00  0.00000000000E+00 -0.73528390661E+02  0.23373907977E+04  0.23362340030E+04 0.  0.
        4    1    3    3  502    0 -0.59283298210E+03  0.72793247696E+03 -0.73220482904E+03  0.11905721987E+04  0.12699999809E+01 0. -1.
       -4    1    3    3    0  502  0.59283298210E+03 -0.72793247696E+03  0.65867643838E+03  0.11468185990E+04  0.12699999809E+01 0.  1.
</event>
<event>
 5   0  0.8528103E-06  0.2361117E+04  0.7818609E-02  0.8454206E-01
       -1   -1    0    0    0  501  0.00000000000E+00  0.00000000000E+00  0.59350598009E+03  0.59350598011E+03  0.50400001928E-02 0. -1.
        1   -1    0    0  501    0  0.00000000000E+00  0.00000000000E+00 -0.23482795938E+04  0.23482795938E+04  0.50400001928E-02 0.  1.
    10030    2    1    2    0    0  0.00000000000E+00  0.00000000000E+00 -0.17547736137E+04  0.29417855740E+04  0.23611166696E+04 0.  0.
        4    1    3    3  502    0  0.49718003735E+03 -0.31587756907E+03  0.39733377357E+03  0.71052260253E+03  0.12699999809E+01 0. -1.
       -4    1    3    3    0  502 -0.49718003735E+03  0.31587756907E+03 -0.21521073873E+04  0.22312629714E+04  0.12699999809E+01 0.  1.
</event>
<event>
 5   0  0.9038897E-06  0.2373632E+04  0.7818609E-02  0.8449442E-01
        1   -1    0    0  501    0  0.00000000000E+00  0.00000000000E+00  0.86960904525E+03  0.86960904526E+03  0.50400001928E-02 0. -1.
       -1   -1    0    0    0  501  0.00000000000E+00  0.00000000000E+00 -0.16197302140E+04  0.16197302140E+04  0.50400001928E-02 0.  1.
    10030    2    1    2    0    0  0.00000000000E+00  0.00000000000E+00 -0.75012116874E+03  0.24893392593E+04  0.23736318543E+04 0.  0.
        1    1    3    3  502    0  0.58613908645E+03  0.26484371050E+03  0.67097231407E+03  0.92946493529E+03  0.50400001928E-02 0. -1.
       -1    1    3    3    0  502 -0.58613908645E+03 -0.26484371050E+03 -0.14210934828E+04  0.15598743240E+04  0.50400001928E-02 0.  1.
</event>
<event>
 5   0  0.2048028E-05  0.2427630E+04  0.7818609E-02  0.8429231E-01
        2   -1    0    0  501    0  0.00000000000E+00  0.00000000000E+00  0.18378303743E+04  0.18378303743E+04  0.25500000920E-02 0.  1.
       -2   -1    0    0    0  501  0.00000000000E+00  0.00000000000E+00 -0.80167711503E+03  0.80167711503E+03  0.25500000920E-02 0. -1.
    10030    2    1    2    0    0  0.00000000000E+00  0.00000000000E+00  0.10361532593E+04  0.26395074893E+04  0.24276297513E+04 0.  0.
        5    1    3    3  502    0 -0.16623422946E+03  0.30044046802E+03  0.17839153626E+04  0.18166657384E+04  0.46999998093E+01 0.  1.
       -5    1    3    3    0  502  0.16623422946E+03 -0.30044046802E+03 -0.74776210338E+03  0.82284175096E+03  0.46999998093E+01 0. -1.
</event>
<event>
 5   0  0.2080257E-05  0.2402352E+04  0.7818609E-02  0.8438623E-01
       -2   -1    0    0    0  501  0.00000000000E+00  0.00000000000E+00  0.87422147178E+03  0.87422147178E+03  0.25500000920E-02 0. -1.
        2   -1    0    0  501    0  0.00000000000E+00  0.00000000000E+00 -0.16504100464E+04  0.16504100464E+04  0.25500000920E-02 0.  1.
    10030    2    1    2    0    0  0.00000000000E+00  0.00000000000E+00 -0.77618857466E+03  0.25246315182E+04  0.24023520973E+04 0.  0.
        1    1    3    3  502    0 -0.25827722123E+03 -0.82811593846E+03 -0.12612528180E+04  0.15307651033E+04  0.50400001928E-02 0.  1.
       -1    1    3    3    0  502  0.25827722123E+03  0.82811593846E+03  0.48506424333E+03  0.99386641493E+03  0.50400001928E-02 0. -1.
</event>
<event>
 5   0  0.2080257E-05  0.2391770E+04  0.7818609E-02  0.8442591E-01
       -2   -1    0    0    0  501  0.00000000000E+00  0.00000000000E+00  0.11874490719E+04  0.11874490719E+04  0.25500000920E-02 0. -1.
        2   -1    0    0  501    0  0.00000000000E+00  0.00000000000E+00 -0.12043805708E+04  0.12043805708E+04  0.25500000920E-02 0.  1.
    10030    2    1    2    0    0  0.00000000000E+00  0.00000000000E+00 -0.16931498872E+02  0.23918296426E+04  0.23917697138E+04 0.  0.
        1    1    3    3  502    0 -0.96868287034E+03 -0.68784466351E+03  0.12815321637E+03  0.11949477107E+04  0.50400001928E-02 0.  1.
       -1    1    3    3    0  502  0.96868287034E+03  0.68784466351E+03 -0.14508471524E+03  0.11968819320E+04  0.50400001928E-02 0. -1.
</event>
<event>
 5   0  0.9176817E-06  0.2419225E+04  0.7818609E-02  0.8432341E-01
       -1   -1    0    0    0  501  0.00000000000E+00  0.00000000000E+00  0.93931563483E+03  0.93931563484E+03  0.50400001928E-02 0.  1.
        1   -1    0    0  501    0  0.00000000000E+00  0.00000000000E+00 -0.15576893819E+04  0.15576893819E+04  0.50400001928E-02 0. -1.
    10030    2    1    2    0    0  0.00000000000E+00  0.00000000000E+00 -0.61837374710E+03  0.24970050168E+04  0.24192246615E+04 0.  0.
        3    1    3    3  502    0  0.78791036585E+03 -0.32241646084E+03  0.57774666110E+03  0.10288568090E+04  0.10100000352E+00 0.  1.
       -3    1    3    3    0  502 -0.78791036585E+03  0.32241646084E+03 -0.11961204082E+04  0.14681482078E+04  0.10100000352E+00 0. -1.
</event>
<event>
 5   0  0.2048028E-05  0.2456010E+04  0.7818609E-02  0.8418827E-01
       -2   -1    0    0    0  501  0.00000000000E+00  0.00000000000E+00  0.26237475590E+04  0.26237475590E+04  0.25500000920E-02 0. -1.
        2   -1    0    0  501    0  0.00000000000E+00  0.00000000000E+00 -0.57474879941E+03  0.57474879942E+03  0.25500000920E-02 0.  1.
    10030    2    1    2    0    0  0.00000000000E+00  0.00000000000E+00  0.20489987596E+04  0.31984963585E+04  0.24560095761E+04 0.  0.
        5    1    3    3  502    0 -0.91140906169E+03  0.74194883095E+03  0.14882752825E+04  0.18963491113E+04  0.46999998093E+01 0. -1.
       -5    1    3    3    0  502  0.91140906169E+03 -0.74194883095E+03  0.56072347717E+03  0.13021472472E+04  0.46999998093E+01 0.  1.
</event>
<event>
 5   0  0.2087882E-05  0.2407813E+04  0.7818609E-02  0.8436584E-01
        2   -1    0    0  501    0  0.00000000000E+00  0.00000000000E+00  0.27769975825E+04  0.27769975825E+04  0.25500000920E-02 0.  1.
       -2   -1    0    0    0  501  0.00000000000E+00  0.00000000000E+00 -0.52192731506E+03  0.52192731506E+03  0.25500000920E-02 0. -1.
    10030    2    1    2    0    0  0.00000000000E+00  0.00000000000E+00  0.22550702674E+04  0.32989248976E+04  0.24078130261E+04 0.  0.
        2    1    3    3  502    0 -0.74571152852E+02 -0.94078166513E+03  0.10338816927E+03  0.94937880313E+03  0.25500000920E-02 0. -1.
       -2    1    3    3    0  502  0.74571152852E+02  0.94078166513E+03  0.21516820982E+04  0.23495460944E+04  0.25500000920E-02 0.  1.
</event>
<event>
 5   0  0.8898848E-06  0.2410291E+04  0.7818609E-02  0.8435661E-01
        1   -1    0    0  501    0  0.00000000000E+00  0.00000000000E+00  0.20672224614E+04  0.20672224615E+04  0.50400001928E-02 0. -1.
       -1   -1    0    0    0  501  0.00000000000E+00  0.00000000000E+00 -0.70257327959E+03  0.70257327960E+03  0.50400001928E-02 0.  1.
    10030    2    1    2    0    0  0.00000000000E+00  0.00000000000E+00  0.13646491819E+04  0.27697957411E+04  0.24102906583E+04 0.  0.
        5    1    3    3  502    0  0.67861442795E+03  0.32149982836E+03  0.17655044183E+04  0.19185691602E+04  0.46999998093E+01 0. -1.
       -5    1    3    3    0  502 -0.67861442795E+03 -0.32149982836E+03 -0.40085523640E+03  0.85122658089E+03  0.46999998093E+01 0.  1.
</event>
<event>
 5   0  0.2080257E-05  0.2276007E+04  0.7818609E-02  0.8487442E-01
       -2   -1    0    0    0  501  0.00000000000E+00  0.00000000000E+00  0.67254320926E+03  0.67254320926E+03  0.25500000920E-02 0. -1.
        2   -1    0    0  501    0  0.00000000000E+00  0.00000000000E+00 -0.19256037458E+04  0.19256037458E+04  0.25500000920E-02 0.  1.
    10030    2    1    2    0    0  0.00000000000E+00  0.00000000000E+00 -0.12530605365E+04  0.25981469550E+04  0.22760067864E+04 0.  0.
        1    1    3    3  502    0  0.39271963845E+03  0.49361496313E+03  0.45472160146E+03  0.77759641274E+03  0.50400001928E-02 0. -1.
       -1    1    3    3    0  502 -0.39271963845E+03 -0.49361496313E+03 -0.17077821380E+04  0.18205505423E+04  0.50400001928E-02 0.  1.
</event>
<event>
 5   0  0.2025353E-05  0.2396978E+04  0.7818609E-02  0.8440636E-01
        2   -1    0    0  501    0  0.00000000000E+00  0.00000000000E+00  0.22937806953E+04  0.22937806953E+04  0.25500000920E-02 0.  1.
       -2   -1    0    0    0  501  0.00000000000E+00  0.00000000000E+00 -0.62620454525E+03  0.62620454526E+03  0.25500000920E-02 0. -1.
    10030    2    1    2    0    0  0.00000000000E+00  0.00000000000E+00  0.16675761500E+04  0.29199852405E+04  0.23969780117E+04 0.  0.
        4    1    3    3  502    0 -0.12608930204E+03 -0.17045825459E+03 -0.60317526585E+03  0.63935635047E+03  0.12699999809E+01 0. -1.
       -4    1    3    3    0  502  0.12608930204E+03  0.17045825459E+03  0.22707514159E+04  0.22806288901E+04  0.12699999809E+01 0.  1.
</event>
<event>
 5   0  0.2080257E-05  0.2403980E+04  0.7818609E-02  0.8438015E-01
       -2   -1    0    0    0  501  0.00000000000E+00  0.00000000000E+00  0.61451901253E+03  0.61451901254E+03  0.25500000920E-02 0.  1.
        2   -1    0    0  501    0  0.00000000000E+00  0.00000000000E+00 -0.23510752295E+04  0.23510752295E+04  0.25500000920E-02 0. -1.
    10030    2    1    2    0    0  0.00000000000E+00  0.00000000000E+00 -0.17365562169E+04  0.29655942420E+04  0.24039803896E+04 0.  0.
        1    1    3    3  502    0 -0.34863720613E+03 -0.54251199728E+03  0.38304709286E+03  0.75006149352E+03  0.50400001928E-02 0.  1.
       -1    1    3    3    0  502  0.34863720613E+03  0.54251199728E+03 -0.21196033098E+04  0.22155327485E+04  0.50400001928E-02 0. -1.
</event>
<event>
 5   0  0.2087882E-05  0.2420954E+04  0.7818609E-02  0.8431700E-01
        2   -1    0    0  501    0  0.00000000000E+00  0.00000000000E+00  0.18142141223E+04  0.18142141223E+04  0.25500000920E-02 0. -1.
       -2   -1    0    0    0  501  0.00000000000E+00  0.00000000000E+00 -0.80765263092E+03  0.80765263093E+03  0.25500000920E-02 0.  1.
    10030    2    1    2    0    0  0.00000000000E+00  0.00000000000E+00  0.10065614913E+04  0.26218667532E+04  0.24209541994E+04 0.  0.
        2    1    3    3  502    0  0.95359556861E+03  0.66475725691E+03  0.86895288936E+03  0.14513186566E+04  0.25500000920E-02 0. -1.
       -2    1    3    3    0  502 -0.95359556861E+03 -0.66475725691E+03  0.13760860198E+03  0.11705480966E+04  0.25500000920E-02 0.  1.
</event>
<event>
 5   0  0.9083687E-06  0.2335271E+04  0.7818609E-02  0.8464143E-01
       -1   -1    0    0    0  501  0.00000000000E+00  0.00000000000E+00  0.10345017284E+04  0.10345017284E+04  0.50400001928E-02 0. -1.
        1   -1    0    0  501    0  0.00000000000E+00  0.00000000000E+00 -0.13179027502E+04  0.13179027502E+04  0.50400001928E-02 0.  1.
    10030    2    1    2    0    0  0.00000000000E+00  0.00000000000E+00 -0.28340102181E+03  0.23524044786E+04  0.23352710103E+04 0.  0.
        2    1    3    3  502    0 -0.10544246877E+03 -0.19609144326E+03 -0.12963223966E+04  0.13153029021E+04  0.25500000920E-02 0.  1.
       -2    1    3    3    0  502  0.10544246877E+03  0.19609144326E+03  0.10129213748E+04  0.10371015764E+04  0.25500000920E-02 0. -1.
</event>
<event>
 5   0  0.9083687E-06  0.2413856E+04  0.7818609E-02  0.8434334E-01
        1   -1    0    0  501    0  0.00000000000E+00  0.00000000000E+00  0.11686031430E+04  0.11686031430E+04  0.50400001928E-02 0. -1.
       -1   -1    0    0    0  501  0.00000000000E+00  0.00000000000E+00 -0.12465095425E+04  0.12465095425E+04  0.50400001928E-02 0.  1.
    10030    2    1    2    0    0  0.00000000000E+00  0.00000000000E+00 -0.77906399475E+02  0.24151126855E+04  0.24138558110E+04 0.  0.
        2    1    3    3  502    0 -0.73160888848E+03 -0.93466536852E+03 -0.25775417874E+03  0.12146143970E+04  0.25500000920E-02 0.  1.
       -2    1    3    3    0  502  0.73160888848E+03  0.93466536852E+03  0.17984777926E+03  0.12004982884E+04  0.25500000920E-02 0. -1.
</event>
<event>
 5   0  0.2080257E-05  0.2364161E+04  0.7818609E-02  0.8453044E-01
       -2   -1    0    0    0  501  0.00000000000E+00  0.00000000000E+00  0.10064395158E+04  0.10064395158E+04  0.25500000920E-02 0. -1.
        2   -1    0    0  501    0  0.00000000000E+00  0.00000000000E+00 -0.13883736139E+04  0.13883736139E+04  0.25500000920E-02 0.  1.
    10030    2    1    2    0    0  0.00000000000E+00  0.00000000000E+00 -0.38193409806E+03  0.23948131297E+04  0.23641607963E+04 0.  0.
        1    1    3    3  502    0 -0.23819325855E+03 -0.56676643147E+03  0.83175378525E+03  0.10342990745E+04  0.50400001928E-02 0. -1.
       -1    1    3    3    0  502  0.23819325855E+03  0.56676643147E+03 -0.12136878833E+04  0.13605140552E+04  0.50400001928E-02 0.  1.
</event>
<event>
 5   0  0.9038897E-06  0.2371117E+04  0.7818609E-02  0.8450397E-01
       -1   -1    0    0    0  501  0.00000000000E+00  0.00000000000E+00  0.11176794666E+04  0.11176794666E+04  0.50400001928E-02 0.  1.
        1   -1    0    0  501    0  0.00000000000E+00  0.00000000000E+00 -0.12575600671E+04  0.12575600671E+04  0.50400001928E-02 0. -1.
    10030    2    1    2    0    0  0.00000000000E+00  0.00000000000E+00 -0.13988060054E+03  0.23752395337E+04  0.23711170911E+04 0.  0.
        1    1    3    3  502    0  0.84352564451E+03 -0.42248126167E+03 -0.78918801758E+03  0.12299770959E+04  0.50400001928E-02 0. -1.
       -1    1    3    3    0  502 -0.84352564451E+03  0.42248126167E+03  0.64930741705E+03  0.11452624377E+04  0.50400001928E-02 0.  1.
</event>
<event>
 5   0  0.8898848E-06  0.2393200E+04  0.7818609E-02  0.8442054E-01
        1   -1    0    0  501    0  0.00000000000E+00  0.00000000000E+00  0.21801591926E+04  0.21801591926E+04  0.50400001928E-02 0. -1.
       -1   -1    0    0    0  501  0.00000000000E+00  0.00000000000E+00 -0.65676443409E+03  0.65676443411E+03  0.50400001928E-02 0.  1.
    10030    2    1    2    0    0  0.00000000000E+00  0.00000000000E+00  0.15233947585E+04  0.28369236267E+04  0.23931995474E+04 0.  0.
        5    1    3    3  502    0 -0.28243767061E+03  0.75616583847E+03  0.18088054266E+04  0.19807465699E+04  0.46999998093E+01 0. -1.
       -5    1    3    3    0  502  0.28243767061E+03 -0.75616583847E+03 -0.28541066810E+03  0.85617705675E+03  0.46999998093E+01 0.  1.
</event>
<event>
 5   0  0.2080257E-05  0.2409151E+04  0.7818609E-02  0.8436085E-01
        2   -1    0    0  501    0  0.00000000000E+00  0.00000000000E+00  0.98166809992E+03  0.98166809992E+03  0.25500000920E-02 0. -1.
       -2   -1    0    0    0  501  0.00000000000E+00  0.00000000000E+00 -0.14780987247E+04  0.14780987247E+04  0.25500000920E-02 0.  1.
    10030    2    1    2    0    0  0.00000000000E+00  0.00000000000E+00 -0.49643062480E+03  0.24597668246E+04  0.24091511921E+04 0.  0.
        1    1    3    3  502    0 -0.44828187419E+03  0.11053696563E+04 -0.76747523636E+02  0.11952777494E+04  0.50400001928E-02 0. -1.
       -1    1    3    3    0  502  0.44828187419E+03 -0.11053696563E+04 -0.41968310116E+03  0.12644890752E+04  0.50400001928E-02 0.  1.
</event>
<event>
 5   0  0.8528103E-06  0.2207773E+04  0.7818609E-02  0.8515200E-01
        1   -1    0    0  501    0  0.00000000000E+00  0.00000000000E+00  0.16598561312E+04  0.16598561312E+04  0.50400001928E-02 0.  1.
       -1   -1    0    0    0  501  0.00000000000E+00  0.00000000000E+00 -0.73413936029E+03  0.73413936031E+03  0.50400001928E-02 0. -1.
    10030    2    1    2    0    0  0.00000000000E+00  0.00000000000E+00  0.92571677091E+03  0.23939954915E+04  0.22077732840E+04 0.  0.
        4    1    3    3  502    0 -0.63951994371E+03  0.82262178109E+03  0.85812049647E+03  0.13498387876E+04  0.12699999809E+01 0.  1.
       -4    1    3    3    0  502  0.63951994371E+03 -0.82262178109E+03  0.67596274446E+02  0.10441567039E+04  0.12699999809E+01 0. -1.
</event>
<event>
 5   0  0.2087882E-05  0.2407067E+04  0.7818609E-02  0.8436862E-01
        2   -1    0    0  501    0  0.00000000000E+00  0.00000000000E+00  0.23336890712E+04  0.23336890712E+04  0.25500000920E-02 0. -1.
       -2   -1    0    0    0  501  0.00000000000E+00  0.00000000000E+00 -0.62068828033E+03  0.62068828034E+03  0.25500000920E-02 0.  1.
    10030    2    1    2    0    0  0.00000000000E+00  0.00000000000E+00  0.17130007908E+04  0.29543773515E+04  0.24070674743E+04 0.  0.
        2    1    3    3  502    0  0.42327412902E+03  0.37550689740E+03 -0.44725223748E+03  0.72124959774E+03  0.25500000920E-02 0.  1.
       -2    1    3    3    0  502 -0.42327412902E+03 -0.37550689740E+03  0.21602530283E+04  0.22331277538E+04  0.25500000920E-02 0. -1.
</event>
<event>
 5   0  0.8528103E-06  0.2403226E+04  0.7818609E-02  0.8438297E-01
       -1   -1    0    0    0  501  0.00000000000E+00  0.00000000000E+00  0.19939762651E+04  0.19939762651E+04  0.50400001928E-02 0.  1.
        1   -1    0    0  501    0  0.00000000000E+00  0.00000000000E+00 -0.72411768280E+03  0.72411768281E+03  0.50400001928E-02 0. -1.
    10030    2    1    2    0    0  0.00000000000E+00  0.00000000000E+00  0.12698585823E+04  0.27180939479E+04  0.24032257261E+04 0.  0.
        4    1    3    3  502    0  0.70158227247E+03 -0.41954241228E+03 -0.36116289436E+03  0.89368549832E+03  0.12699999809E+01 0. -1.
       -4    1    3    3    0  502 -0.70158227247E+03  0.41954241228E+03  0.16310214766E+04  0.18244084496E+04  0.12699999809E+01 0.  1.
</event>
<event>
 5   0  0.9038897E-06  0.2388952E+04  0.7818609E-02  0.8443651E-01
        1   -1    0    0  501    0  0.00000000000E+00  0.00000000000E+00  0.16898706350E+04  0.16898706350E+04  0.50400001928E-02 0.  1.
       -1   -1    0    0    0  501  0.00000000000E+00  0.00000000000E+00 -0.84430891032E+03  0.84430891034E+03  0.50400001928E-02 0. -1.
    10030    2    1    2    0    0  0.00000000000E+00  0.00000000000E+00  0.84556172469E+03  0.25341795454E+04  0.23889519329E+04 0.  0.
        1    1    3    3  502    0  0.52560082804E+03  0.19799996406E+03 -0.69549278935E+03  0.89396333050E+03  0.50400001928E-02 0. -1.
       -1    1    3    3    0  502 -0.52560082804E+03 -0.19799996406E+03  0.15410545140E+04  0.16402162149E+04  0.50400001928E-02 0.  1.
</event>
<event>
 5   0  0.2048028E-05  0.2413714E+04  0.7818609E-02  0.8434387E-01
        2   -1    0    0  501    0  0.00000000000E+00  0.00000000000E+00  0.14892397046E+04  0.14892397046E+04  0.25500000920E-02 0. -1.
       -2   -1    0    0    0  501  0.00000000000E+00  0.00000000000E+00 -0.97801826152E+03  0.97801826153E+03  0.25500000920E-02 0.  1.
    10030    2    1    2    0    0  0.00000000000E+00  0.00000000000E+00  0.51122144308E+03  0.24672579661E+04  0.24137138413E+04 0.  0.
        5    1    3    3  502    0 -0.91162520199E+03 -0.16504525656E+02 -0.55259220815E+03  0.10661675041E+04  0.46999998093E+01 0.  1.
       -5    1    3    3    0  502  0.91162520199E+03  0.16504525656E+02  0.10638136512E+04  0.14010904620E+04  0.46999998093E+01 0. -1.
</event>
<event>
 5   0  0.9176817E-06  0.2385016E+04  0.7818609E-02  0.8445135E-01
       -1   -1    0    0    0  501  0.00000000000E+00  0.00000000000E+00  0.13293845273E+04  0.13293845273E+04  0.50400001928E-02 0.  1.
        1   -1    0    0  501    0  0.00000000000E+00  0.00000000000E+00 -0.10697243908E+04  0.10697243909E+04  0.50400001928E-02 0. -1.
    10030    2    1    2    0    0  0.00000000000E+00  0.00000000000E+00  0.25966013649E+03  0.23991089182E+04  0.23850157683E+04 0.  0.
        3    1    3    3  502    0  0.25005585278E+03 -0.10689388688E+04  0.59832544954E+03  0.12502606083E+04  0.10100000352E+00 0. -1.
       -3    1    3    3    0  502 -0.25005585278E+03  0.10689388688E+04 -0.33866531305E+03  0.11488483099E+04  0.10100000352E+00 0.  1.
</event>
<event>
 5   0  0.9176817E-06  0.2396458E+04  0.7818609E-02  0.8440831E-01
        1   -1    0    0  501    0  0.00000000000E+00  0.00000000000E+00  0.11424843248E+04  0.11424843248E+04  0.50400001928E-02 0.  1.
       -1   -1    0    0    0  501  0.00000000000E+00  0.00000000000E+00 -0.12566936942E+04  0.12566936942E+04  0.50400001928E-02 0. -1.
    10030    2    1    2    0    0  0.00000000000E+00  0.00000000000E+00 -0.11420936942E+03  0.23991780190E+04  0.23964580920E+04 0.  0.
        3    1    3    3  502    0 -0.24118002206E+03  0.10292786521E+04 -0.62181092035E+03  0.12264710260E+04  0.10100000352E+00 0. -1.
       -3    1    3    3    0  502  0.24118002206E+03 -0.10292786521E+04  0.50760155093E+03  0.11727069930E+04  0.10100000352E+00 0.  1.
</event>
<event>
 5   0  0.2087882E-05  0.2513817E+04  0.7818609E-02  0.8398080E-01
        2   -1    0    0  501    0  0.00000000000E+00  0.00000000000E+00  0.12923816021E+04  0.12923816021E+04  0.25500000920E-02 0. -1.
       -2   -1    0    0    0  501  0.00000000000E+00  0.00000000000E+00 -0.12224085760E+04  0.12224085760E+04  0.25500000920E-02 0.  1.
    10030    2    1    2    0    0  0.00000000000E+00  0.00000000000E+00  0.69973026103E+02  0.25147901781E+04  0.25138165039E+04 0.  0.
        2    1    3    3  502    0 -0.29801561084E+02 -0.11122611935E+04  0.61985409781E+03  0.12736687945E+04  0.25500000920E-02 0. -1.
       -2    1    3    3    0  502  0.29801561084E+02  0.11122611935E+04 -0.54988107170E+03  0.12411213835E+04  0.25500000920E-02 0.  1.
</event>
<event>
 5   0  0.2025353E-05  0.2401996E+04  0.7818609E-02  0.8438757E-01
        2   -1    0    0  501    0  0.00000000000E+00  0.00000000000E+00  0.16856716055E+04  0.16856716055E+04  0.25500000920E-02 0. -1.
       -2   -1    0    0    0  501  0.00000000000E+00  0.00000000000E+00 -0.85568025261E+03  0.85568025262E+03  0.25500000920E-02 0.  1.
    10030    2    1    2    0    0  0.00000000000E+00  0.00000000000E+00  0.82999135289E+03  0.25413518581E+04  0.24019957579E+04 0.  0.
        4    1    3    3  502    0  0.10062748448E+04 -0.61984795721E+03  0.18908062489E+03  0.11968933323E+04  0.12699999809E+01 0. -1.
       -4    1    3    3    0  502 -0.10062748448E+04  0.61984795721E+03  0.64091072800E+03  0.13444585258E+04  0.12699999809E+01 0.  1.
</event>
<event>
 5   0  0.9176817E-06  0.2332915E+04  0.7818609E-02  0.8465055E-01
        1   -1    0    0  501    0  0.00000000000E+00  0.00000000000E+00  0.12823833146E+04  0.12823833146E+04  0.50400001928E-02 0.  1.
       -1   -1    0    0    0  501  0.00000000000E+00  0.00000000000E+00 -0.10610107788E+04  0.10610107788E+04  0.50400001928E-02 0. -1.
    10030    2    1    2    0    0  0.00000000000E+00  0.00000000000E+00  0.22137253580E+03  0.23433940934E+04  0.23329145028E+04 0.  0.
        3    1    3    3  502    0  0.20516602465E+03 -0.11462914692E+04  0.17840780180E+03  0.11780944716E+04  0.10100000352E+00 0.  1.
       -3    1    3    3    0  502 -0.20516602465E+03  0.11462914692E+04  0.42964734000E+02  0.11652996218E+04  0.10100000352E+00 0. -1.
</event>
<event>
 5   0  0.2087882E-05  0.2398200E+04  0.7818609E-02  0.8440178E-01
        2   -1    0    0  501    0  0.00000000000E+00  0.00000000000E+00  0.11952505389E+04  0.11952505389E+04  0.25500000920E-02 0.  1.
       -2   -1    0    0    0  501  0.00000000000E+00  0.00000000000E+00 -0.12029616009E+04  0.12029616009E+04  0.25500000920E-02 0. -1.
    10030    2    1    2    0    0  0.00000000000E+00  0.00000000000E+00 -0.77110620347E+01  0.23982121398E+04  0.23981997429E+04 0.  0.
        2    1    3    3  502    0  0.10404268699E+04  0.17086209804E+03  0.56725036588E+03  0.11972697715E+04  0.25500000920E-02 0.  1.
       -2    1    3    3    0  502 -0.10404268699E+04 -0.17086209804E+03 -0.57496142791E+03  0.12009423682E+04  0.25500000920E-02 0. -1.
</event>
<event>
 5   0  0.2025353E-05  0.2370259E+04  0.7818609E-02  0.8450723E-01
        2   -1    0    0  501    0  0.00000000000E+00  0.00000000000E+00  0.19757587364E+04  0.19757587364E+04  0.25500000920E-02 0.  1.
       -2   -1    0    0    0  501  0.00000000000E+00  0.00000000000E+00 -0.71088208591E+03  0.71088208592E+03  0.25500000920E-02 0. -1.
    10030    2    1    2    0    0  0.00000000000E+00  0.00000000000E+00  0.12648766505E+04  0.26866408223E+04  0.23702586287E+04 0.  0.
        4    1    3    3  502    0 -0.73706127086E+03  0.55609483992E+02 -0.41759383019E+03  0.84896286822E+03  0.12699999809E+01 0. -1.
       -4    1    3    3    0  502  0.73706127086E+03 -0.55609483992E+02  0.16824704807E+04  0.18376779541E+04  0.12699999809E+01 0.  1.
</event>
<event>
 5   0  0.2122194E-05  0.2396900E+04  0.7818609E-02  0.8440665E-01
        2   -1    0    0  501    0  0.00000000000E+00  0.00000000000E+00  0.12973302231E+04  0.12973302231E+04  0.25500000920E-02 0. -1.
       -2   -1    0    0    0  501  0.00000000000E+00  0.00000000000E+00 -0.11071060434E+04  0.11071060434E+04  0.25500000920E-02 0.  1.
    10030    2    1    2    0    0  0.00000000000E+00  0.00000000000E+00  0.19022417963E+03  0.24044362665E+04  0.23968997729E+04 0.  0.
        3    1    3    3  502    0  0.82838345305E+03  0.28553988389E+02  0.96342466124E+03  0.12709136728E+04  0.10100000352E+00 0. -1.
       -3    1    3    3    0  502 -0.82838345305E+03 -0.28553988389E+02 -0.77320048161E+03  0.11335225937E+04  0.10100000352E+00 0.  1.
</event>
<event>
 5   0  0.9176817E-06  0.2466807E+04  0.7818609E-02  0.8414907E-01
       -1   -1    0    0    0  501  0.00000000000E+00  0.00000000000E+00  0.11878705514E+04  0.11878705514E+04  0.50400001928E-02 0.  1.
        1   -1    0    0  501    0  0.00000000000E+00  0.00000000000E+00 -0.12806814895E+04  0.12806814895E+04  0.50400001928E-02 0. -1.
    10030    2    1    2    0    0  0.00000000000E+00  0.00000000000E+00 -0.92810938053E+02  0.24685520409E+04  0.24668067027E+04 0.  0.
        3    1    3    3  502    0 -0.98676374635E+03 -0.42011931418E+03  0.56318962171E+03  0.12113568795E+04  0.10100000352E+00 0.  1.
       -3    1    3    3    0  502  0.98676374635E+03  0.42011931418E+03 -0.65600055976E+03  0.12571951614E+04  0.10100000352E+00 0. -1.
</event>
<event>
 5   0  0.2087882E-05  0.2384223E+04  0.7818609E-02  0.8445434E-01
       -2   -1    0    0    0  501  0.00000000000E+00  0.00000000000E+00  0.10618638157E+04  0.10618638157E+04  0.25500000920E-02 0. -1.
        2   -1    0    0  501    0  0.00000000000E+00  0.00000000000E+00 -0.13383353479E+04  0.13383353479E+04  0.25500000920E-02 0.  1.
    10030    2    1    2    0    0  0.00000000000E+00  0.00000000000E+00 -0.27647153212E+03  0.24001991636E+04  0.23842230426E+04 0.  0.
        2    1    3    3  502    0  0.90990635223E+03 -0.65570575913E+03  0.26851403484E+03  0.11532473279E+04  0.25500000920E-02 0. -1.
       -2    1    3    3    0  502 -0.90990635223E+03  0.65570575913E+03 -0.54498556696E+03  0.12469518357E+04  0.25500000920E-02 0.  1.
</event>
<event>
 5   0  0.8898848E-06  0.2404971E+04  0.7818609E-02  0.8437645E-01
       -1   -1    0    0    0  501  0.00000000000E+00  0.00000000000E+00  0.84446784473E+03  0.84446784474E+03  0.50400001928E-02 0.  1.
        1   -1    0    0  501    0  0.00000000000E+00  0.00000000000E+00 -0.17122874485E+04  0.17122874486E+04  0.50400001928E-02 0. -1.
    10030    2    1    2    0    0  0.00000000000E+00  0.00000000000E+00 -0.86781960382E+03  0.25567552933E+04  0.24049712607E+04 0.  0.
        5    1    3    3  502    0  0.57155984067E+03 -0.48335648902E+03  0.56656641669E+03  0.93879376940E+03  0.46999998093E+01 0.  1.
       -5    1    3    3    0  502 -0.57155984067E+03  0.48335648902E+03 -0.14343860205E+04  0.16179615239E+04  0.46999998093E+01 0. -1.
</event>
<event>
 5   0  0.8528103E-06  0.2427480E+04  0.7818609E-02  0.8429287E-01
        1   -1    0    0  501    0  0.00000000000E+00  0.00000000000E+00  0.13565563840E+04  0.13565563840E+04  0.50400001928E-02 0. -1.
       -1   -1    0    0    0  501  0.00000000000E+00  0.00000000000E+00 -0.10859590545E+04  0.10859590545E+04  0.50400001928E-02 0.  1.
    10030    2    1    2    0    0  0.00000000000E+00  0.00000000000E+00  0.27059732951E+03  0.24425154385E+04  0.24274799181E+04 0.  0.
        4    1    3    3  502    0  0.92360675626E+03  0.78653175938E+03  0.96570962662E+02  0.12169672191E+04  0.12699999809E+01 0. -1.
       -4    1    3    3    0  502 -0.92360675626E+03 -0.78653175938E+03  0.17402636684E+03  0.12255482194E+04  0.12699999809E+01 0.  1.
</event>
<event>
 5   0  0.2087882E-05  0.2397573E+04  0.7818609E-02  0.8440413E-01
        2   -1    0    0  501    0  0.00000000000E+00  0.00000000000E+00  0.13197955931E+04  0.13197955931E+04  0.25500000920E-02 0.  1.
       -2   -1    0    0    0  501  0.00000000000E+00  0.00000000000E+00 -0.10888723755E+04  0.10888723755E+04  0.25500000920E-02 0. -1.
    10030    2    1    2    0    0  0.00000000000E+00  0.00000000000E+00  0.23092321763E+03  0.24086679686E+04  0.23975729083E+04 0.  0.
        2    1    3    3  502    0  0.87841588026E+02 -0.11497915693E+04  0.44462423509E+03  0.12358913819E+04  0.25500000920E-02 0.  1.
       -2    1    3    3    0  502 -0.87841588026E+02  0.11497915693E+04 -0.21370101746E+03  0.11727765867E+04  0.25500000920E-02 0. -1.
</event>
<event>
 5   0  0.8898848E-06  0.2396619E+04  0.7818609E-02  0.8440770E-01
       -1   -1    0    0    0  501  0.00000000000E+00  0.00000000000E+00  0.96319910665E+03  0.96319910666E+03  0.50400001928E-02 0.  1.
        1   -1    0    0  501    0  0.00000000000E+00  0.00000000000E+00 -0.14908088389E+04  0.14908088389E+04  0.50400001928E-02 0. -1.
    10030    2    1    2    0    0  0.00000000000E+00  0.00000000000E+00 -0.52760973228E+03  0.24540079456E+04  0.23966190702E+04 0.  0.
        5    1    3    3  502    0  0.16348452947E+03 -0.12269574538E+03 -0.14728165356E+04  0.14869405082E+04  0.46999998093E+01 0. -1.
       -5    1    3    3    0  502 -0.16348452947E+03  0.12269574538E+03  0.94520680337E+03  0.96706743738E+03  0.46999998093E+01 0.  1.
</event>
<event>
 5   0  0.9176817E-06  0.2381563E+04  0.7818609E-02  0.8446438E-01
        1   -1    0    0  501    0  0.00000000000E+00  0.00000000000E+00  0.13446630754E+04  0.13446630754E+04  0.50400001928E-02 0. -1.
       -1   -1    0    0    0  501  0.00000000000E+00  0.00000000000E+00 -0.10545101652E+04  0.10545101653E+04  0.50400001928E-02 0.  1.
    10030    2    1    2    0    0  0.00000000000E+00  0.00000000000E+00  0.29015291014E+03  0.23991732406E+04  0.23815632529E+04 0.  0.
        3    1    3    3  502    0  0.10687763538E+04 -0.17398529396E+03 -0.35397237891E+03  0.11392322995E+04  0.10100000352E+00 0. -1.
       -3    1    3    3    0  502 -0.10687763538E+04  0.17398529396E+03  0.64412528905E+03  0.12599409412E+04  0.10100000352E+00 0.  1.
</event>
<event>
 5   0  0.9176817E-06  0.2428916E+04  0.7818609E-02  0.8428757E-01
       -1   -1    0    0    0  501  0.00000000000E+00  0.00000000000E+00  0.10988319541E+04  0.10988319541E+04  0.50400001928E-02 0. -1.
        1   -1    0    0  501    0  0.00000000000E+00  0.00000000000E+00 -0.13422505664E+04  0.13422505664E+04  0.50400001928E-02 0.  1.
    10030    2    1    2    0    0  0.00000000000E+00  0.00000000000E+00 -0.24341861228E+03  0.24410825205E+04  0.24289156533E+04 0.  0.
        3    1    3    3  502    0 -0.22703561743E+03  0.82997978129E+03 -0.98302984206E+03  0.13064299788E+04  0.10100000352E+00 0.  1.
       -3    1    3    3    0  502  0.22703561743E+03 -0.82997978129E+03  0.73961122978E+03  0.11346525417E+04  0.10100000352E+00 0. -1.
</event>
<event>
 5   0  0.9083687E-06  0.2327383E+04  0.7818609E-02  0.8467202E-01
        1   -1    0    0  501    0  0.00000000000E+00  0.00000000000E+00  0.29158667621E+04  0.29158667621E+04  0.50400001928E-02 0.  1.
       -1   -1    0    0    0  501  0.00000000000E+00  0.00000000000E+00 -0.46441692578E+03  0.46441692580E+03  0.50400001928E-02 0. -1.
    10030    2    1    2    0    0  0.00000000000E+00  0.00000000000E+00  0.24514498363E+04  0.33802836879E+04  0.23273829747E+04 0.  0.
        2    1    3    3  502    0  0.11465660114E+04 -0.10826445951E+03  0.14680753648E+04  0.18658992707E+04  0.25500000920E-02 0.  1.
       -2    1    3    3    0  502 -0.11465660114E+04  0.10826445951E+03  0.98337447157E+03  0.15143844172E+04  0.25500000920E-02 0. -1.
</event>
<event>
 5   0  0.2048028E-05  0.2388762E+04  0.7818609E-02  0.8443723E-01
       -2   -1    0    0    0  501  0.00000000000E+00  0.00000000000E+00  0.61077254056E+03  0.61077254057E+03  0.25500000920E-02 0.  1.
        2   -1    0    0  501    0  0.00000000000E+00  0.00000000000E+00 -0.23356425290E+04  0.23356425290E+04  0.25500000920E-02 0. -1.
    10030    2    1    2    0    0  0.00000000000E+00  0.00000000000E+00 -0.17248699885E+04  0.29464150696E+04  0.23887622915E+04 0.  0.
        5    1    3    3  502    0 -0.33851894269E+03 -0.97764403045E+03 -0.12634287841E+03  0.10422895652E+04  0.46999998093E+01 0.  1.
       -5    1    3    3    0  502  0.33851894269E+03  0.97764403045E+03 -0.15985271101E+04  0.19041255044E+04  0.46999998093E+01 0. -1.
</event>
<event>
 5   0  0.8528103E-06  0.2504410E+04  0.7818609E-02  0.8401416E-01
       -1   -1    0    0    0  501  0.00000000000E+00  0.00000000000E+00  0.96754435488E+03  0.96754435489E+03  0.50400001928E-02 0.  1.
        1   -1    0    0  501    0  0.00000000000E+00  0.00000000000E+00 -0.16206156293E+04  0.16206156293E+04  0.50400001928E-02 0. -1.
    10030    2    1    2    0    0  0.00000000000E+00  0.00000000000E+00 -0.65307127445E+03  0.25881599842E+04  0.25044101131E+04 0.  0.
        4    1    3    3  502    0  0.49190915336E+03 -0.11509216782E+04 -0.36548643909E+03  0.13039084610E+04  0.12699999809E+01 0. -1.
       -4    1    3    3    0  502 -0.49190915336E+03  0.11509216782E+04 -0.28758483536E+03  0.12842515232E+04  0.12699999809E+01 0.  1.
</event>
<event>
 5   0  0.9176817E-06  0.2450158E+04  0.7818609E-02  0.8420960E-01
        1   -1    0    0  501    0  0.00000000000E+00  0.00000000000E+00  0.95088479563E+03  0.95088479564E+03  0.50400001928E-02 0. -1.
       -1   -1    0    0    0  501  0.00000000000E+00  0.00000000000E+00 -0.15783394493E+04  0.15783394493E+04  0.50400001928E-02 0.  1.
    10030    2    1    2    0    0  0.00000000000E+00  0.00000000000E+00 -0.62745465368E+03  0.25292242450E+04  0.24501583497E+04 0.  0.
        3    1    3    3  502    0 -0.97454984203E+03  0.23076070779E+03 -0.10420600499E+04  0.14452982587E+04  0.10100000352E+00 0.  1.
       -3    1    3    3    0  502  0.97454984203E+03 -0.23076070779E+03  0.41460539621E+03  0.10839259862E+04  0.10100000352E+00 0. -1.
</event>
<event>
 5   0  0.2087882E-05  0.2286931E+04  0.7818609E-02  0.8483092E-01
        2   -1    0    0  501    0  0.00000000000E+00  0.00000000000E+00  0.11900687011E+04  0.11900687011E+04  0.25500000920E-02 0. -1.
       -2   -1    0    0    0  501  0.00000000000E+00  0.00000000000E+00 -0.10986877281E+04  0.10986877281E+04  0.25500000920E-02 0.  1.
    10030    2    1    2    0    0  0.00000000000E+00  0.00000000000E+00  0.91380973013E+02  0.22887564292E+04  0.22869314616E+04 0.  0.
        2    1    3    3  502    0  0.76549946896E+03  0.84589936472E+03 -0.31693304600E+02  0.11412885865E+04  0.25500000920E-02 0.  1.
       -2    1    3    3    0  502 -0.76549946896E+03 -0.84589936472E+03  0.12307427761E+03  0.11474678427E+04  0.25500000920E-02 0. -1.
</event>
<event>
 5   0  0.9083687E-06  0.2396864E+04  0.7818609E-02  0.8440679E-01
        1   -1    0    0  501    0  0.00000000000E+00  0.00000000000E+00  0.18110790243E+04  0.18110790243E+04  0.50400001928E-02 0. -1.
       -1   -1    0    0    0  501  0.00000000000E+00  0.00000000000E+00 -0.79302953026E+03  0.79302953028E+03  0.50400001928E-02 0.  1.
    10030    2    1    2    0    0  0.00000000000E+00  0.00000000000E+00  0.10180494940E+04  0.26041085546E+04  0.23968639076E+04 0.  0.
        2    1    3    3  502    0 -0.52579223067E+03  0.71662919053E+03 -0.36436350232E+03  0.96061211131E+03  0.25500000920E-02 0.  1.
       -2    1    3    3    0  502  0.52579223067E+03 -0.71662919053E+03  0.13824129963E+04  0.16434964433E+04  0.25500000920E-02 0. -1.
</event>
<event>
 5   0  0.2048028E-05  0.2393338E+04  0.7818609E-02  0.8442002E-01
        2   -1    0    0  501    0  0.00000000000E+00  0.00000000000E+00  0.11671895143E+04  0.11671895143E+04  0.25500000920E-02 0. -1.
       -2   -1    0    0    0  501  0.00000000000E+00  0.00000000000E+00 -0.12268931727E+04  0.12268931727E+04  0.25500000920E-02 0.  1.
    10030    2    1    2    0    0  0.00000000000E+00  0.00000000000E+00 -0.59703658409E+02  0.23940826870E+04  0.23933381260E+04 0.  0.
        5    1    3    3  502    0  0.18057046069E+03  0.82159855777E+03  0.82150922284E+03  0.11758100929E+04  0.46999998093E+01 0. -1.
       -5    1    3    3    0  502 -0.18057046069E+03 -0.82159855777E+03 -0.88121288125E+03  0.12182725941E+04  0.46999998093E+01 0.  1.
</event>
<event>
 5   0  0.9038897E-06  0.2373803E+04  0.7818609E-02  0.8449377E-01
        1   -1    0    0  501    0  0.00000000000E+00  0.00000000000E+00  0.12548569444E+04  0.12548569444E+04  0.50400001928E-02 0. -1.
       -1   -1    0    0    0  501  0.00000000000E+00  0.00000000000E+00 -0.11226265763E+04  0.11226265763E+04  0.50400001928E-02 0.  1.
    10030    2    1    2    0    0  0.00000000000E+00  0.00000000000E+00  0.13223036809E+03  0.23774835206E+04  0.23738034924E+04 0.  0.
        1    1    3    3  502    0 -0.47183412654E+03  0.17900713142E+03 -0.10098242886E+04  0.11289003897E+04  0.50400001928E-02 0.  1.
       -1    1    3    3    0  502  0.47183412654E+03 -0.17900713142E+03  0.11420546567E+04  0.12485831309E+04  0.50400001928E-02 0. -1.
</event>
<event>
 5   0  0.2122194E-05  0.2156021E+04  0.7818609E-02  0.8536959E-01
        2   -1    0    0  501    0  0.00000000000E+00  0.00000000000E+00  0.11098079505E+04  0.11098079505E+04  0.25500000920E-02 0. -1.
       -2   -1    0    0    0  501  0.00000000000E+00  0.00000000000E+00 -0.10471238908E+04  0.10471238908E+04  0.25500000920E-02 0.  1.
    10030    2    1    2    0    0  0.00000000000E+00  0.00000000000E+00  0.62684059688E+02  0.21569318412E+04  0.21560207968E+04 0.  0.
        3    1    3    3  502    0 -0.11539733946E+03 -0.31437851684E+03 -0.99376456644E+03  0.10486746023E+04  0.10100000352E+00 0.  1.
       -3    1    3    3    0  502  0.11539733946E+03  0.31437851684E+03  0.10564486261E+04  0.11082572389E+04  0.10100000352E+00 0. -1.
</event>
<event>
 5   0  0.2048028E-05  0.2402330E+04  0.7818609E-02  0.8438632E-01
       -2   -1    0    0    0  501  0.00000000000E+00  0.00000000000E+00  0.68631870073E+03  0.68631870073E+03  0.25500000920E-02 0. -1.
        2   -1    0    0  501    0  0.00000000000E+00  0.00000000000E+00 -0.21022256785E+04  0.21022256785E+04  0.25500000920E-02 0.  1.
    10030    2    1    2    0    0  0.00000000000E+00  0.00000000000E+00 -0.14159069778E+04  0.27885443793E+04  0.24023295331E+04 0.  0.
        5    1    3    3  502    0 -0.24379911754E+03  0.73962575049E+03  0.35355518658E+03  0.85528218761E+03  0.46999998093E+01 0. -1.
       -5    1    3    3    0  502  0.24379911754E+03 -0.73962575049E+03 -0.17694621644E+04  0.19332621917E+04  0.46999998093E+01 0.  1.
</event>
<event>
 5   0  0.9038897E-06  0.2406368E+04  0.7818609E-02  0.8437123E-01
       -1   -1    0    0    0  501  0.00000000000E+00  0.00000000000E+00  0.95984372504E+03  0.95984372505E+03  0.50400001928E-02 0. -1.
        1   -1    0    0  501    0  0.00000000000E+00  0.00000000000E+00 -0.15082165544E+04  0.15082165544E+04  0.50400001928E-02 0.  1.
    10030    2    1    2    0    0  0.00000000000E+00  0.00000000000E+00 -0.54837282938E+03  0.24680602795E+04  0.24063683806E+04 0.  0.
        1    1    3    3  502    0  0.30355741859E+03  0.53392448037E+03  0.78695370166E+03  0.99825777518E+03  0.50400001928E-02 0. -1.
       -1    1    3    3    0  502 -0.30355741859E+03 -0.53392448037E+03 -0.13353265310E+04  0.14698025043E+04  0.50400001928E-02 0.  1.
</event>
<event>
 5   0  0.2087882E-05  0.2421028E+04  0.7818609E-02  0.8431673E-01
       -2   -1    0    0    0  501  0.00000000000E+00  0.00000000000E+00  0.83842532111E+03  0.83842532112E+03  0.25500000920E-02 0.  1.
        2   -1    0    0  501    0  0.00000000000E+00  0.00000000000E+00 -0.17477339593E+04  0.17477339593E+04  0.25500000920E-02 0. -1.
    10030    2    1    2    0    0  0.00000000000E+00  0.00000000000E+00 -0.90930863814E+03  0.25861592804E+04  0.24210282163E+04 0.  0.
        2    1    3    3  502    0  0.87516831762E+03  0.63580208419E+03  0.12570808841E+03  0.10890208437E+04  0.25500000920E-02 0.  1.
       -2    1    3    3    0  502 -0.87516831762E+03 -0.63580208419E+03 -0.10350167265E+04  0.14971384367E+04  0.25500000920E-02 0. -1.
</event>
<event>
 5   0  0.2048028E-05  0.2397760E+04  0.7818609E-02  0.8440343E-01
       -2   -1    0    0    0  501  0.00000000000E+00  0.00000000000E+00  0.74230355190E+03  0.74230355190E+03  0.25500000920E-02 0. -1.
        2   -1    0    0  501    0  0.00000000000E+00  0.00000000000E+00 -0.19362875562E+04  0.19362875562E+04  0.25500000920E-02 0.  1.
    10030    2    1    2    0    0  0.00000000000E+00  0.00000000000E+00 -0.11939840043E+04  0.26785911081E+04  0.23977598966E+04 0.  0.
        5    1    3    3  502    0 -0.29960501380E+03  0.63962323839E+03 -0.16791658679E+04  0.18216753699E+04  0.46999998093E+01 0.  1.
       -5    1    3    3    0  502  0.29960501380E+03 -0.63962323839E+03  0.48518186369E+03  0.85691573811E+03  0.46999998093E+01 0. -1.
</event>
<event>
 5   0  0.9083687E-06  0.2380923E+04  0.7818609E-02  0.8446681E-01
       -1   -1    0    0    0  501  0.00000000000E+00  0.00000000000E+00  0.11331691605E+04  0.11331691605E+04  0.50400001928E-02 0.  1.
        1   -1    0    0  501    0  0.00000000000E+00  0.00000000000E+00 -0.12506500667E+04  0.12506500667E+04  0.50400001928E-02 0. -1.
    10030    2    1    2    0    0  0.00000000000E+00  0.00000000000E+00 -0.11748090616E+03  0.23838192272E+04  0.23809225827E+04 0.  0.
        2    1    3    3  502    0 -0.40378628184E+03  0.61219223296E+03 -0.99763150261E+03  0.12381806437E+04  0.25500000920E-02 0. -1.
       -2    1    3    3    0  502  0.40378628184E+03 -0.61219223296E+03  0.88015059645E+03  0.11456385835E+04  0.25500000920E-02 0.  1.
</event>
<event>
 5   0  0.2048028E-05  0.2409507E+04  0.7818609E-02  0.8435953E-01
        2   -1    0    0  501    0  0.00000000000E+00  0.00000000000E+00  0.20021514987E+04  0.20021514987E+04  0.25500000920E-02 0.  1.
       -2   -1    0    0    0  501  0.00000000000E+00  0.00000000000E+00 -0.72493557293E+03  0.72493557294E+03  0.25500000920E-02 0. -1.
    10030    2    1    2    0    0  0.00000000000E+00  0.00000000000E+00  0.12772159257E+04  0.27270870716E+04  0.24095068739E+04 0.  0.
        5    1    3    3  502    0 -0.44947613296E+02  0.29829508860E+03  0.19587039299E+04  0.19818030736E+04  0.46999998093E+01 0.  1.
       -5    1    3    3    0  502  0.44947613296E+02 -0.29829508860E+03 -0.68148800414E+03  0.74528399795E+03  0.46999998093E+01 0. -1.
</event>
<event>
 5   0  0.8528103E-06  0.2401782E+04  0.7818609E-02  0.8438837E-01
        1   -1    0    0  501    0  0.00000000000E+00  0.00000000000E+00  0.85092876340E+03  0.85092876342E+03  0.50400001928E-02 0.  1.
       -1   -1    0    0    0  501  0.00000000000E+00  0.00000000000E+00 -0.16947827337E+04  0.16947827337E+04  0.50400001928E-02 0. -1.
    10030    2    1    2    0    0  0.00000000000E+00  0.00000000000E+00 -0.84385397025E+03  0.25457114971E+04  0.24017821515E+04 0.  0.
        4    1    3    3  502    0 -0.29097437030E+03  0.90195436658E+03 -0.12036538931E+04  0.15319830517E+04  0.12699999809E+01 0. -1.
       -4    1    3    3    0  502  0.29097437030E+03 -0.90195436658E+03  0.35979992282E+03  0.10137284454E+04  0.12699999809E+01 0.  1.
</event>
<event>
 5   0  0.8898848E-06  0.2374791E+04  0.7818609E-02  0.8449002E-01
       -1   -1    0    0    0  501  0.00000000000E+00  0.00000000000E+00  0.10082812630E+04  0.10082812630E+04  0.50400001928E-02 0.  1.
        1   -1    0    0  501    0  0.00000000000E+00  0.00000000000E+00 -0.13983281155E+04  0.13983281156E+04  0.50400001928E-02 0. -1.
    10030    2    1    2    0    0  0.00000000000E+00  0.00000000000E+00 -0.39004685258E+03  0.24066093785E+04  0.23747909705E+04 0.  0.
        5    1    3    3  502    0  0.10160320818E+04 -0.27866756983E+02  0.42703168533E+03  0.11024862346E+04  0.46999998093E+01 0.  1.
       -5    1    3    3    0  502 -0.10160320818E+04  0.27866756983E+02 -0.81707853791E+03  0.13041231439E+04  0.46999998093E+01 0. -1.
</event>
<event>
 5   0  0.8898848E-06  0.2413711E+04  0.7818609E-02  0.8434388E-01
       -1   -1    0    0    0  501  0.00000000000E+00  0.00000000000E+00  0.78319915890E+03  0.78319915892E+03  0.50400001928E-02 0. -1.
        1   -1    0    0  501    0  0.00000000000E+00  0.00000000000E+00 -0.18596800911E+04  0.18596800911E+04  0.50400001928E-02 0.  1.
    10030    2    1    2    0    0  0.00000000000E+00  0.00000000000E+00 -0.10764809322E+04  0.26428792500E+04  0.24137107393E+04 0.  0.
        5    1    3    3  502    0 -0.86232829459E+03  0.59072253501E+02 -0.14604529769E+04  0.16970694172E+04  0.46999998093E+01 0.  1.
       -5    1    3    3    0  502  0.86232829459E+03 -0.59072253501E+02  0.38397204476E+03  0.94580983286E+03  0.46999998093E+01 0. -1.
</event>
<event>
 5   0  0.7233625E-06  0.2317455E+04  0.7818609E-02  0.8471070E-01
       -3   -1    0    0    0  501  0.00000000000E+00  0.00000000000E+00  0.13885063296E+04  0.13885063333E+04  0.10100000352E+00 0.  1.
        3   -1    0    0  501    0  0.00000000000E+00  0.00000000000E+00 -0.96697392649E+03  0.96697393176E+03  0.10100000352E+00 0. -1.
    10030    2    1    2    0    0  0.00000000000E+00  0.00000000000E+00  0.42153240310E+03  0.23554802650E+04  0.23174550076E+04 0.  0.
        2    1    3    3  502    0  0.63209763829E+03 -0.95811148432E+03  0.49658649667E+02  0.11489086222E+04  0.25500000920E-02 0. -1.
       -2    1    3    3    0  502 -0.63209763829E+03  0.95811148432E+03  0.37187375343E+03  0.12065716428E+04  0.25500000920E-02 0.  1.
</event>
<event>
 5   0  0.2122194E-05  0.2394620E+04  0.7818609E-02  0.8441520E-01
       -2   -1    0    0    0  501  0.00000000000E+00  0.00000000000E+00  0.86110205051E+03  0.86110205052E+03  0.25500000920E-02 0. -1.
        2   -1    0    0  501    0  0.00000000000E+00  0.00000000000E+00 -0.16647869251E+04  0.16647869251E+04  0.25500000920E-02 0.  1.
    10030    2    1    2    0    0  0.00000000000E+00  0.00000000000E+00 -0.80368487455E+03  0.25258889756E+04  0.23946201660E+04 0.  0.
        3    1    3    3  502    0  0.34820934030E+03  0.51541618586E+01  0.80650011172E+03  0.87847524180E+03  0.10100000352E+00 0. -1.
       -3    1    3    3    0  502 -0.34820934030E+03 -0.51541618586E+01 -0.16101849863E+04  0.16474137338E+04  0.10100000352E+00 0.  1.
</event>
<event>
 5   0  0.8898848E-06  0.2407229E+04  0.7818609E-02  0.8436802E-01
       -1   -1    0    0    0  501  0.00000000000E+00  0.00000000000E+00  0.11077503670E+04  0.11077503670E+04  0.50400001928E-02 0. -1.
        1   -1    0    0  501    0  0.00000000000E+00  0.00000000000E+00 -0.13077745192E+04  0.13077745192E+04  0.50400001928E-02 0.  1.
    10030    2    1    2    0    0  0.00000000000E+00  0.00000000000E+00 -0.20002415224E+03  0.24155248862E+04  0.24072288662E+04 0.  0.
        5    1    3    3  502    0 -0.33625603514E+03 -0.69352567682E+03  0.82763026896E+03  0.11309464787E+04  0.46999998093E+01 0. -1.
       -5    1    3    3    0  502  0.33625603514E+03  0.69352567682E+03 -0.10276544212E+04  0.12845784075E+04  0.46999998093E+01 0.  1.
</event>
<event>
 5   0  0.8898848E-06  0.2412081E+04  0.7818609E-02  0.8434994E-01
       -1   -1    0    0    0  501  0.00000000000E+00  0.00000000000E+00  0.14165640732E+04  0.14165640732E+04  0.50400001928E-02 0.  1.
        1   -1    0    0  501    0  0.00000000000E+00  0.00000000000E+00 -0.10268040772E+04  0.10268040772E+04  0.50400001928E-02 0. -1.
    10030    2    1    2    0    0  0.00000000000E+00  0.00000000000E+00  0.38975999598E+03  0.24433681503E+04  0.24120810649E+04 0.  0.
        5    1    3    3  502    0  0.85284085741E+03 -0.81834774802E+03 -0.47982012817E+02  0.11829433327E+04  0.46999998093E+01 0. -1.
       -5    1    3    3    0  502 -0.85284085741E+03  0.81834774802E+03  0.43774200880E+03  0.12604248177E+04  0.46999998093E+01 0.  1.
</event>
<event>
 5   0  0.2122194E-05  0.2389803E+04  0.7818609E-02  0.8443331E-01
       -2   -1    0    0    0  501  0.00000000000E+00  0.00000000000E+00  0.60712911209E+03  0.60712911210E+03  0.25500000920E-02 0.  1.
        2   -1    0    0  501    0  0.00000000000E+00  0.00000000000E+00 -0.23517061181E+04  0.23517061181E+04  0.25500000920E-02 0. -1.
    10030    2    1    2    0    0  0.00000000000E+00  0.00000000000E+00 -0.17445770060E+04  0.29588352302E+04  0.23898027093E+04 0.  0.
        3    1    3    3  502    0  0.44919385590E+03  0.45034869374E+03  0.38009989006E+03  0.74098920556E+03  0.10100000352E+00 0.  1.
       -3    1    3    3    0  502 -0.44919385590E+03 -0.45034869374E+03 -0.21246768961E+04  0.22178460246E+04  0.10100000352E+00 0. -1.
</event>
<event>
 5   0  0.2080257E-05  0.2406362E+04  0.7818609E-02  0.8437126E-01
        2   -1    0    0  501    0  0.00000000000E+00  0.00000000000E+00  0.17054093449E+04  0.17054093449E+04  0.25500000920E-02 0. -1.
       -2   -1    0    0    0  501  0.00000000000E+00  0.00000000000E+00 -0.84885438949E+03  0.84885438949E+03  0.25500000920E-02 0.  1.
    10030    2    1    2    0    0  0.00000000000E+00  0.00000000000E+00  0.85655495545E+03  0.25542637344E+04  0.24063617420E+04 0.  0.
        1    1    3    3  502    0  0.78801410230E+03 -0.18567288533E+03 -0.51648626633E+03  0.96031177703E+03  0.50400001928E-02 0.  1.
       -1    1    3    3    0  502 -0.78801410230E+03  0.18567288533E+03  0.13730412218E+04  0.15939519574E+04  0.50400001928E-02 0. -1.
</event>
<event>
 5   0  0.2025353E-05  0.2402689E+04  0.7818609E-02  0.8438498E-01
        2   -1    0    0  501    0  0.00000000000E+00  0.00000000000E+00  0.10461041591E+04  0.10461041591E+04  0.25500000920E-02 0. -1.
       -2   -1    0    0    0  501  0.00000000000E+00  0.00000000000E+00 -0.13796218009E+04  0.13796218009E+04  0.25500000920E-02 0.  1.
    10030    2    1    2    0    0  0.00000000000E+00  0.00000000000E+00 -0.33351764180E+03  0.24257259600E+04  0.24026885806E+04 0.  0.
        4    1    3    3  502    0  0.49412031930E+03  0.10035125523E+04  0.27565989913E+03  0.11520339949E+04  0.12699999809E+01 0. -1.
       -4    1    3    3    0  502 -0.49412031930E+03 -0.10035125523E+04 -0.60917754093E+03  0.12736919651E+04  0.12699999809E+01 0.  1.
</event>
<event>
 5   0  0.9083687E-06  0.2434101E+04  0.7818609E-02  0.8426846E-01
        1   -1    0    0  501    0  0.00000000000E+00  0.00000000000E+00  0.30112703097E+04  0.30112703098E+04  0.50400001928E-02 0. -1.
       -1   -1    0    0    0  501  0.00000000000E+00  0.00000000000E+00 -0.49188927841E+03  0.49188927844E+03  0.50400001928E-02 0.  1.
    10030    2    1    2    0    0  0.00000000000E+00  0.00000000000E+00  0.25193810313E+04  0.35031595882E+04  0.24341007209E+04 0.  0.
        2    1    3    3  502    0  0.73295061118E+03 -0.28579552320E+03  0.25961462365E+04  0.27127239006E+04  0.25500000920E-02 0. -1.
       -2    1    3    3    0  502 -0.73295061118E+03  0.28579552320E+03 -0.76765205162E+02  0.79043568761E+03  0.25500000920E-02 0.  1.
</event>
<event>
 5   0  0.2048028E-05  0.2530068E+04  0.7818609E-02  0.8392351E-01
        2   -1    0    0  501    0  0.00000000000E+00  0.00000000000E+00  0.23777264219E+04  0.23777264219E+04  0.25500000920E-02 0. -1.
       -2   -1    0    0    0  501  0.00000000000E+00  0.00000000000E+00 -0.67304253689E+03  0.67304253689E+03  0.25500000920E-02 0.  1.
    10030    2    1    2    0    0  0.00000000000E+00  0.00000000000E+00  0.17046838850E+04  0.30507689588E+04  0.25300680015E+04 0.  0.
        5    1    3    3  502    0 -0.26318553487E+03  0.12373310061E+04  0.85940270333E+03  0.15293298339E+04  0.46999998093E+01 0.  1.
       -5    1    3    3    0  502  0.26318553487E+03 -0.12373310061E+04  0.84528118164E+03  0.15214391248E+04  0.46999998093E+01 0. -1.
</event>
<event>
 5   0  0.8528103E-06  0.2390810E+04  0.7818609E-02  0.8442952E-01
       -1   -1    0    0    0  501  0.00000000000E+00  0.00000000000E+00  0.88328036810E+03  0.88328036812E+03  0.50400001928E-02 0. -1.
        1   -1    0    0  501    0  0.00000000000E+00  0.00000000000E+00 -0.16178256305E+04  0.16178256305E+04  0.50400001928E-02 0.  1.
    10030    2    1    2    0    0  0.00000000000E+00  0.00000000000E+00 -0.73454526236E+03  0.25011059986E+04  0.23908104219E+04 0.  0.
        4    1    3    3  502    0 -0.74602244630E+03  0.89093531964E+03 -0.66070648824E+03  0.13367310540E+04  0.12699999809E+01 0. -1.
       -4    1    3    3    0  502  0.74602244630E+03 -0.89093531964E+03 -0.73838774123E+02  0.11643749446E+04  0.12699999809E+01 0.  1.
</event>
<event>
 5   0  0.2080257E-05  0.2380401E+04  0.7818609E-02  0.8446878E-01
       -2   -1    0    0    0  501  0.00000000000E+00  0.00000000000E+00  0.60540188548E+03  0.60540188549E+03  0.25500000920E-02 0.  1.
        2   -1    0    0  501    0  0.00000000000E+00  0.00000000000E+00 -0.23398953979E+04  0.23398953979E+04  0.25500000920E-02 0. -1.
    10030    2    1    2    0    0  0.00000000000E+00  0.00000000000E+00 -0.17344935124E+04  0.29452972833E+04  0.23804008786E+04 0.  0.
        1    1    3    3  502    0  0.65133884662E+03  0.42899038930E+03 -0.19796592860E+04  0.21277513802E+04  0.50400001928E-02 0. -1.
       -1    1    3    3    0  502 -0.65133884662E+03 -0.42899038930E+03  0.24516577361E+03  0.81754590318E+03  0.50400001928E-02 0.  1.
</event>
<event>
 5   0  0.2048028E-05  0.2391852E+04  0.7818609E-02  0.8442560E-01
       -2   -1    0    0    0  501  0.00000000000E+00  0.00000000000E+00  0.84925779564E+03  0.84925779564E+03  0.25500000920E-02 0. -1.
        2   -1    0    0  501    0  0.00000000000E+00  0.00000000000E+00 -0.16841048547E+04  0.16841048547E+04  0.25500000920E-02 0.  1.
    10030    2    1    2    0    0  0.00000000000E+00  0.00000000000E+00 -0.83484705910E+03  0.25333626504E+04  0.23918521497E+04 0.  0.
        5    1    3    3  502    0 -0.92185033411E+03 -0.16697116523E+03 -0.12047245928E+04  0.15261293664E+04  0.46999998093E+01 0.  1.
       -5    1    3    3    0  502  0.92185033411E+03  0.16697116523E+03  0.36987753365E+03  0.10072332840E+04  0.46999998093E+01 0. -1.
</event>
<event>
 5   0  0.2087882E-05  0.2396265E+04  0.7818609E-02  0.8440903E-01
       -2   -1    0    0    0  501  0.00000000000E+00  0.00000000000E+00  0.12587873147E+04  0.12587873147E+04  0.25500000920E-02 0. -1.
        2   -1    0    0  501    0  0.00000000000E+00  0.00000000000E+00 -0.11404007199E+04  0.11404007199E+04  0.25500000920E-02 0.  1.
    10030    2    1    2    0    0  0.00000000000E+00  0.00000000000E+00  0.11838659484E+03  0.23991880346E+04  0.23962653943E+04 0.  0.
        2    1    3    3  502    0 -0.36834836736E+03  0.78659159569E+03  0.88549686096E+03  0.12403675056E+04  0.25500000920E-02 0. -1.
       -2    1    3    3    0  502  0.36834836736E+03 -0.78659159569E+03 -0.76711026612E+03  0.11588205290E+04  0.25500000920E-02 0.  1.
</event>
<event>
 5   0  0.9038897E-06  0.2407938E+04  0.7818609E-02  0.8436538E-01
       -1   -1    0    0    0  501  0.00000000000E+00  0.00000000000E+00  0.12473731578E+04  0.12473731578E+04  0.50400001928E-02 0. -1.
        1   -1    0    0  501    0  0.00000000000E+00  0.00000000000E+00 -0.11620752854E+04  0.11620752854E+04  0.50400001928E-02 0.  1.
    10030    2    1    2    0    0  0.00000000000E+00  0.00000000000E+00  0.85297872342E+02  0.24094484432E+04  0.24079381374E+04 0.  0.
        1    1    3    3  502    0  0.90249734773E+03  0.38044857976E+03  0.74330161535E+03  0.12295283144E+04  0.50400001928E-02 0. -1.
       -1    1    3    3    0  502 -0.90249734773E+03 -0.38044857976E+03 -0.65800374301E+03  0.11799201288E+04  0.50400001928E-02 0.  1.
</event>
<event>
 5   0  0.8528103E-06  0.2404394E+04  0.7818609E-02  0.8437860E-01
        1   -1    0    0  501    0  0.00000000000E+00  0.00000000000E+00  0.24220410981E+04  0.24220410981E+04  0.50400001928E-02 0. -1.
       -1   -1    0    0    0  501  0.00000000000E+00  0.00000000000E+00 -0.59671881864E+03  0.59671881866E+03  0.50400001928E-02 0.  1.
    10030    2    1    2    0    0  0.00000000000E+00  0.00000000000E+00  0.18253222795E+04  0.30187599168E+04  0.24043938968E+04 0.  0.
        4    1    3    3  502    0  0.86118430840E+03  0.34631224850E+03  0.18718845679E+04  0.20893836495E+04  0.12699999809E+01 0. -1.
       -4    1    3    3    0  502 -0.86118430840E+03 -0.34631224850E+03 -0.46562288424E+02  0.92937626724E+03  0.12699999809E+01 0.  1.
</event>
<event>
 5   0  0.2087882E-05  0.2397946E+04  0.7818609E-02  0.8440273E-01
       -2   -1    0    0    0  501  0.00000000000E+00  0.00000000000E+00  0.70664294600E+03  0.70664294600E+03  0.25500000920E-02 0.  1.
        2   -1    0    0  501    0  0.00000000000E+00  0.00000000000E+00 -0.20343173191E+04  0.20343173191E+04  0.25500000920E-02 0. -1.
    10030    2    1    2    0    0  0.00000000000E+00  0.00000000000E+00 -0.13276743731E+04  0.27409602651E+04  0.23979457737E+04 0.  0.
        2    1    3    3  502    0  0.49882113692E+03  0.10464376424E+04 -0.10136943764E+04  0.15399449844E+04  0.25500000920E-02 0. -1.
       -2    1    3    3    0  502 -0.49882113692E+03 -0.10464376424E+04 -0.31397999664E+03  0.12010152807E+04  0.25500000920E-02 0.  1.
</event>
<event>
 5   0  0.2048028E-05  0.2398091E+04  0.7818609E-02  0.8440218E-01
       -2   -1    0    0    0  501  0.00000000000E+00  0.00000000000E+00  0.63874958444E+03  0.63874958445E+03  0.25500000920E-02 0. -1.
        2   -1    0    0  501    0  0.00000000000E+00  0.00000000000E+00 -0.22508204745E+04  0.22508204745E+04  0.25500000920E-02 0.  1.
    10030    2    1    2    0    0  0.00000000000E+00  0.00000000000E+00 -0.16120708900E+04  0.28895700589E+04  0.23980914434E+04 0.  0.
        5    1    3    3  502    0  0.92637341056E+03 -0.63380052342E+03 -0.13141422936E+04  0.17282542802E+04  0.46999998093E+01 0.  1.
       -5    1    3    3    0  502 -0.92637341056E+03  0.63380052342E+03 -0.29792859642E+03  0.11613157787E+04  0.46999998093E+01 0. -1.
</event>
<event>
 5   0  0.8528103E-06  0.2375969E+04  0.7818609E-02  0.8448555E-01
       -1   -1    0    0    0  501  0.00000000000E+00  0.00000000000E+00  0.83195329719E+03  0.83195329721E+03  0.50400001928E-02 0.  1.
        1   -1    0    0  501    0  0.00000000000E+00  0.00000000000E+00 -0.16963781598E+04  0.16963781598E+04  0.50400001928E-02 0. -1.
    10030    2    1    2    0    0  0.00000000000E+00  0.00000000000E+00 -0.86442486258E+03  0.25283314570E+04  0.23759691945E+04 0.  0.
        4    1    3    3  502    0 -0.12842456050E+03 -0.61361653195E+03  0.64160004620E+03  0.89703419567E+03  0.12699999809E+01 0.  1.
       -4    1    3    3    0  502  0.12842456050E+03  0.61361653195E+03 -0.15060249088E+04  0.16312972613E+04  0.12699999809E+01 0. -1.
</event>
<event>
 5   0  0.9083687E-06  0.2422258E+04  0.7818609E-02  0.8431217E-01
       -1   -1    0    0    0  501  0.00000000000E+00  0.00000000000E+00  0.12588841216E+04  0.12588841216E+04  0.50400001928E-02 0. -1.
        1   -1    0    0  501    0  0.00000000000E+00  0.00000000000E+00 -0.11651855221E+04  0.11651855221E+04  0.50400001928E-02 0.  1.
    10030    2    1    2    0    0  0.00000000000E+00  0.00000000000E+00  0.93698599536E+02  0.24240696437E+04  0.24222580808E+04 0.  0.
        2    1    3    3  502    0  0.11287529348E+04 -0.43510279983E+03  0.10550984456E+03  0.12143022529E+04  0.25500000920E-02 0. -1.
       -2    1    3    3    0  502 -0.11287529348E+04  0.43510279983E+03 -0.11811245025E+02  0.12097673907E+04  0.25500000920E-02 0.  1.
</event>
<event>
 5   0  0.2025353E-05  0.2435836E+04  0.7818609E-02  0.8426208E-01
        2   -1    0    0  501    0  0.00000000000E+00  0.00000000000E+00  0.26277774108E+04  0.26277774108E+04  0.25500000920E-02 0.  1.
       -2   -1    0    0    0  501  0.00000000000E+00  0.00000000000E+00 -0.56447859608E+03  0.56447859609E+03  0.25500000920E-02 0. -1.
    10030    2    1    2    0    0  0.00000000000E+00  0.00000000000E+00  0.20632988147E+04  0.31922560068E+04  0.24358358760E+04 0.  0.
        4    1    3    3  502    0  0.93818469992E+03 -0.77390695668E+03  0.94671700593E+03  0.15412323676E+04  0.12699999809E+01 0. -1.
       -4    1    3    3    0  502 -0.93818469992E+03  0.77390695668E+03  0.11165818088E+04  0.16510236392E+04  0.12699999809E+01 0.  1.
</event>
<event>
 5   0  0.8898848E-06  0.2394461E+04  0.7818609E-02  0.8441580E-01
        1   -1    0    0  501    0  0.00000000000E+00  0.00000000000E+00  0.90393048681E+03  0.90393048682E+03  0.50400001928E-02 0.  1.
       -1   -1    0    0    0  501  0.00000000000E+00  0.00000000000E+00 -0.15856982456E+04  0.15856982457E+04  0.50400001928E-02 0. -1.
    10030    2    1    2    0    0  0.00000000000E+00  0.00000000000E+00 -0.68176775884E+03  0.24896287325E+04  0.23944610977E+04 0.  0.
        5    1    3    3  502    0  0.53400702321E+02  0.21583156059E+03 -0.15640340611E+04  0.15797656573E+04  0.46999998093E+01 0. -1.
       -5    1    3    3    0  502 -0.53400702321E+02 -0.21583156059E+03  0.88226630226E+03  0.90986307523E+03  0.46999998093E+01 0.  1.
</event>
<event>
 5   0  0.2025353E-05  0.2422605E+04  0.7818609E-02  0.8431089E-01
        2   -1    0    0  501    0  0.00000000000E+00  0.00000000000E+00  0.12658621500E+04  0.12658621501E+04  0.25500000920E-02 0. -1.
       -2   -1    0    0    0  501  0.00000000000E+00  0.00000000000E+00 -0.11590942905E+04  0.11590942905E+04  0.25500000920E-02 0.  1.
    10030    2    1    2    0    0  0.00000000000E+00  0.00000000000E+00  0.10676785960E+03  0.24249564405E+04  0.24226048713E+04 0.  0.
        4    1    3    3  502    0 -0.20367668911E+03  0.15815826658E+03 -0.11312993309E+04  0.11603180685E+04  0.12699999809E+01 0.  1.
       -4    1    3    3    0  502  0.20367668911E+03 -0.15815826658E+03  0.12380671905E+04  0.12646383721E+04  0.12699999809E+01 0. -1.
</event>
<event>
 5   0  0.2025353E-05  0.2408275E+04  0.7818609E-02  0.8436412E-01
       -2   -1    0    0    0  501  0.00000000000E+00  0.00000000000E+00  0.68486720013E+03  0.68486720013E+03  0.25500000920E-02 0.  1.
        2   -1    0    0  501    0  0.00000000000E+00  0.00000000000E+00 -0.21171220940E+04  0.21171220940E+04  0.25500000920E-02 0. -1.
    10030    2    1    2    0    0  0.00000000000E+00  0.00000000000E+00 -0.14322548939E+04  0.28019892942E+04  0.24082753006E+04 0.  0.
        4    1    3    3  502    0 -0.11842617634E+04 -0.21135506125E+03 -0.77768202679E+03  0.14324586674E+04  0.12699999809E+01 0.  1.
       -4    1    3    3    0  502  0.11842617634E+04  0.21135506125E+03 -0.65457286710E+03  0.13695306267E+04  0.12699999809E+01 0. -1.
</event>
<event>
 5   0  0.2122194E-05  0.2391043E+04  0.7818609E-02  0.8442865E-01
        2   -1    0    0  501    0  0.00000000000E+00  0.00000000000E+00  0.16639005687E+04  0.16639005687E+04  0.25500000920E-02 0. -1.
       -2   -1    0    0    0  501  0.00000000000E+00  0.00000000000E+00 -0.85898827106E+03  0.85898827107E+03  0.25500000920E-02 0.  1.
    10030    2    1    2    0    0  0.00000000000E+00  0.00000000000E+00  0.80491229761E+03  0.25228888397E+04  0.23910425113E+04 0.  0.
        3    1    3    3  502    0 -0.32009991877E+03 -0.43440145936E+03 -0.72318899516E+03  0.90231420182E+03  0.10100000352E+00 0.  1.
       -3    1    3    3    0  502  0.32009991877E+03  0.43440145936E+03  0.15281012928E+04  0.16205746379E+04  0.10100000352E+00 0. -1.
</event>
<event>
 5   0  0.9083687E-06  0.2410251E+04  0.7818609E-02  0.8435676E-01
       -1   -1    0    0    0  501  0.00000000000E+00  0.00000000000E+00  0.10353571791E+04  0.10353571791E+04  0.50400001928E-02 0.  1.
        1   -1    0    0  501    0  0.00000000000E+00  0.00000000000E+00 -0.14027311173E+04  0.14027311173E+04  0.50400001928E-02 0. -1.
    10030    2    1    2    0    0  0.00000000000E+00  0.00000000000E+00 -0.36737393819E+03  0.24380882964E+04  0.24102512173E+04 0.  0.
        2    1    3    3  502    0  0.98063081424E+03 -0.27062965149E+03 -0.83725323454E+03  0.13175242620E+04  0.25500000920E-02 0. -1.
       -2    1    3    3    0  502 -0.98063081424E+03  0.27062965149E+03  0.46987929635E+03  0.11205640344E+04  0.25500000920E-02 0.  1.
</event>
<event>
 5   0  0.8528103E-06  0.2459241E+04  0.7818609E-02  0.8417652E-01
       -1   -1    0    0    0  501  0.00000000000E+00  0.00000000000E+00  0.11668873838E+04  0.11668873838E+04  0.50400001928E-02 0. -1.
        1   -1    0    0  501    0  0.00000000000E+00  0.00000000000E+00 -0.12957261897E+04  0.12957261897E+04  0.50400001928E-02 0.  1.
    10030    2    1    2    0    0  0.00000000000E+00  0.00000000000E+00 -0.12883880589E+03  0.24626135734E+04  0.24592409752E+04 0.  0.
        4    1    3    3  502    0  0.49863395361E+03 -0.57205605695E+03 -0.10332590277E+04  0.12819944552E+04  0.12699999809E+01 0.  1.
       -4    1    3    3    0  502 -0.49863395361E+03  0.57205605695E+03  0.90442022176E+03  0.11806191183E+04  0.12699999809E+01 0. -1.
</event>
<event>
 5   0  0.8898848E-06  0.2434460E+04  0.7818609E-02  0.8426714E-01
       -1   -1    0    0    0  501  0.00000000000E+00  0.00000000000E+00  0.13672322380E+04  0.13672322380E+04  0.50400001928E-02 0.  1.
        1   -1    0    0  501    0  0.00000000000E+00  0.00000000000E+00 -0.10836850621E+04  0.10836850622E+04  0.50400001928E-02 0. -1.
    10030    2    1    2    0    0  0.00000000000E+00  0.00000000000E+00  0.28354717588E+03  0.24509173002E+04  0.24344602300E+04 0.  0.
        5    1    3    3  502    0 -0.28915484976E+02 -0.82508947994E+03  0.10422574539E+04  0.13296358319E+04  0.46999998093E+01 0.  1.
       -5    1    3    3    0  502  0.28915484976E+02  0.82508947994E+03 -0.75871027802E+03  0.11212814683E+04  0.46999998093E+01 0. -1.
</event>
<event>
 5   0  0.2080257E-05  0.2408638E+04  0.7818609E-02  0.8436277E-01
        2   -1    0    0  501    0  0.00000000000E+00  0.00000000000E+00  0.17777670479E+04  0.17777670479E+04  0.25500000920E-02 0. -1.
       -2   -1    0    0    0  501  0.00000000000E+00  0.00000000000E+00 -0.81584626943E+03  0.81584626944E+03  0.25500000920E-02 0.  1.
    10030    2    1    2    0    0  0.00000000000E+00  0.00000000000E+00  0.96192077842E+03  0.25936133173E+04  0.24086382991E+04 0.  0.
        1    1    3    3  502    0 -0.28265885892E+03  0.85039718895E+03  0.13473053885E+04  0.16181171834E+04  0.50400001928E-02 0.  1.
       -1    1    3    3    0  502  0.28265885892E+03 -0.85039718895E+03 -0.38538461004E+03  0.97549613386E+03  0.50400001928E-02 0. -1.
</event>
<event>
 5   0  0.2048028E-05  0.2408991E+04  0.7818609E-02  0.8436145E-01
       -2   -1    0    0    0  501  0.00000000000E+00  0.00000000000E+00  0.98302885220E+03  0.98302885220E+03  0.25500000920E-02 0. -1.
        2   -1    0    0  501    0  0.00000000000E+00  0.00000000000E+00 -0.14758567836E+04  0.14758567836E+04  0.25500000920E-02 0.  1.
    10030    2    1    2    0    0  0.00000000000E+00  0.00000000000E+00 -0.49282793137E+03  0.24588856358E+04  0.24089913242E+04 0.  0.
        5    1    3    3  502    0  0.90502551070E+03 -0.92972611673E+02 -0.10521122346E+04  0.13909267866E+04  0.46999998093E+01 0.  1.
       -5    1    3    3    0  502 -0.90502551070E+03  0.92972611673E+02  0.55928430326E+03  0.10679588491E+04  0.46999998093E+01 0. -1.
</event>
<event>
 5   0  0.2025353E-05  0.2407007E+04  0.7818609E-02  0.8436885E-01
       -2   -1    0    0    0  501  0.00000000000E+00  0.00000000000E+00  0.12531988617E+04  0.12531988617E+04  0.25500000920E-02 0.  1.
        2   -1    0    0  501    0  0.00000000000E+00  0.00000000000E+00 -0.11557788579E+04  0.11557788579E+04  0.25500000920E-02 0. -1.
    10030    2    1    2    0    0  0.00000000000E+00  0.00000000000E+00  0.97420003746E+02  0.24089777196E+04  0.24070070619E+04 0.  0.
        4    1    3    3  502    0 -0.41781973227E+02 -0.11432627687E+04  0.42267839987E+03  0.12196122885E+04  0.12699999809E+01 0.  1.
       -4    1    3    3    0  502  0.41781973227E+02  0.11432627687E+04 -0.32525839612E+03  0.11893654311E+04  0.12699999809E+01 0. -1.
</event>
<event>
 5   0  0.8898848E-06  0.2407761E+04  0.7818609E-02  0.8436604E-01
        1   -1    0    0  501    0  0.00000000000E+00  0.00000000000E+00  0.13163177195E+04  0.13163177196E+04  0.50400001928E-02 0. -1.
       -1   -1    0    0    0  501  0.00000000000E+00  0.00000000000E+00 -0.11010471273E+04  0.11010471273E+04  0.50400001928E-02 0.  1.
    10030    2    1    2    0    0  0.00000000000E+00  0.00000000000E+00  0.21527059223E+03  0.24173648469E+04  0.24077606557E+04 0.  0.
        5    1    3    3  502    0 -0.13136143608E+03  0.11720153515E+04 -0.13505176302E+03  0.11870707139E+04  0.46999998093E+01 0.  1.
       -5    1    3    3    0  502  0.13136143608E+03 -0.11720153515E+04  0.35032235525E+03  0.12302941330E+04  0.46999998093E+01 0. -1.
</event>
<event>
 5   0  0.9038897E-06  0.2394624E+04  0.7818609E-02  0.8441519E-01
        1   -1    0    0  501    0  0.00000000000E+00  0.00000000000E+00  0.11342154758E+04  0.11342154758E+04  0.50400001928E-02 0.  1.
       -1   -1    0    0    0  501  0.00000000000E+00  0.00000000000E+00 -0.12639187668E+04  0.12639187668E+04  0.50400001928E-02 0. -1.
    10030    2    1    2    0    0  0.00000000000E+00  0.00000000000E+00 -0.12970329103E+03  0.23981342426E+04  0.23946241671E+04 0.  0.
        1    1    3    3  502    0  0.18692226720E+03  0.83732848150E+03  0.77153559008E+03  0.11538310477E+04  0.50400001928E-02 0.  1.
       -1    1    3    3    0  502 -0.18692226720E+03 -0.83732848150E+03 -0.90123888111E+03  0.12443031949E+04  0.50400001928E-02 0. -1.
</event>
<event>
 5   0  0.9083687E-06  0.2394367E+04  0.7818609E-02  0.8441615E-01
       -1   -1    0    0    0  501  0.00000000000E+00  0.00000000000E+00  0.95688213676E+03  0.95688213677E+03  0.50400001928E-02 0.  1.
        1   -1    0    0  501    0  0.00000000000E+00  0.00000000000E+00 -0.14978321530E+04  0.14978321530E+04  0.50400001928E-02 0. -1.
    10030    2    1    2    0    0  0.00000000000E+00  0.00000000000E+00 -0.54095001627E+03  0.24547142898E+04  0.23943674164E+04 0.  0.
        2    1    3    3  502    0 -0.60094053744E+03  0.58389301456E+03 -0.11471220237E+04  0.14205455006E+04  0.25500000920E-02 0. -1.
       -2    1    3    3    0  502  0.60094053744E+03 -0.58389301456E+03  0.60617200744E+03  0.10341687892E+04  0.25500000920E-02 0.  1.
</event>
<event>
 5   0  0.9083687E-06  0.2403405E+04  0.7818609E-02  0.8438230E-01
        1   -1    0    0  501    0  0.00000000000E+00  0.00000000000E+00  0.87411769987E+03  0.87411769988E+03  0.50400001928E-02 0.  1.
       -1   -1    0    0    0  501  0.00000000000E+00  0.00000000000E+00 -0.16520530182E+04  0.16520530182E+04  0.50400001928E-02 0. -1.
    10030    2    1    2    0    0  0.00000000000E+00  0.00000000000E+00 -0.77793531834E+03  0.25261707181E+04  0.24034049050E+04 0.  0.
        2    1    3    3  502    0 -0.77035585320E+03  0.90877549443E+03 -0.22355109986E+03  0.12121452611E+04  0.25500000920E-02 0. -1.
       -2    1    3    3    0  502  0.77035585320E+03 -0.90877549443E+03 -0.55438421848E+03  0.13140254570E+04  0.25500000920E-02 0.  1.
</event>
<event>
 5   0  0.8898848E-06  0.2400904E+04  0.7818609E-02  0.8439165E-01
        1   -1    0    0  501    0  0.00000000000E+00  0.00000000000E+00  0.19693751722E+04  0.19693751723E+04  0.50400001928E-02 0.  1.
       -1   -1    0    0    0  501  0.00000000000E+00  0.00000000000E+00 -0.73174705213E+03  0.73174705215E+03  0.50400001928E-02 0. -1.
    10030    2    1    2    0    0  0.00000000000E+00  0.00000000000E+00  0.12376281201E+04  0.27011222244E+04  0.24009035606E+04 0.  0.
        5    1    3    3  502    0 -0.16527202931E+03 -0.11812618361E+04  0.77128977098E+03  0.14204240106E+04  0.46999998093E+01 0.  1.
       -5    1    3    3    0  502  0.16527202931E+03  0.11812618361E+04  0.46633834913E+03  0.12806982138E+04  0.46999998093E+01 0. -1.
</event>
<event>
 5   0  0.2080257E-05  0.2397714E+04  0.7818609E-02  0.8440360E-01
        2   -1    0    0  501    0  0.00000000000E+00  0.00000000000E+00  0.10633645931E+04  0.10633645931E+04  0.25500000920E-02 0.  1.
       -2   -1    0    0    0  501  0.00000000000E+00  0.00000000000E+00 -0.13516131846E+04  0.13516131846E+04  0.25500000920E-02 0. -1.
    10030    2    1    2    0    0  0.00000000000E+00  0.00000000000E+00 -0.28824859147E+03  0.24149777777E+04  0.23977135810E+04 0.  0.
        1    1    3    3  502    0  0.37269506317E+03 -0.22709526787E+03  0.98051019714E+03  0.10732539856E+04  0.50400001928E-02 0.  1.
       -1    1    3    3    0  502 -0.37269506317E+03  0.22709526787E+03 -0.12687587886E+04  0.13417237922E+04  0.50400001928E-02 0. -1.
</event>
<event>
 5   0  0.9083687E-06  0.2400452E+04  0.7818609E-02  0.8439334E-01
       -1   -1    0    0    0  501  0.00000000000E+00  0.00000000000E+00  0.23575696453E+04  0.23575696453E+04  0.50400001928E-02 0.  1.
        1   -1    0    0  501    0  0.00000000000E+00  0.00000000000E+00 -0.61102852771E+03  0.61102852773E+03  0.50400001928E-02 0. -1.
    10030    2    1    2    0    0  0.00000000000E+00  0.00000000000E+00  0.17465411176E+04  0.29685981731E+04  0.24004518820E+04 0.  0.
        2    1    3    3  502    0 -0.89848482207E+03 -0.61212775995E+03  0.15021174358E+04  0.18542740253E+04  0.25500000920E-02 0.  1.
       -2    1    3    3    0  502  0.89848482207E+03  0.61212775995E+03  0.24442368180E+03  0.11143241477E+04  0.25500000920E-02 0. -1.
</event>
<event>
 5   0  0.9038897E-06  0.2375187E+04  0.7818609E-02  0.8448852E-01
       -1   -1    0    0    0  501  0.00000000000E+00  0.00000000000E+00  0.91052640350E+03  0.91052640351E+03  0.50400001928E-02 0.  1.
        1   -1    0    0  501    0  0.00000000000E+00  0.00000000000E+00 -0.15489699144E+04  0.15489699144E+04  0.50400001928E-02 0. -1.
    10030    2    1    2    0    0  0.00000000000E+00  0.00000000000E+00 -0.63844351088E+03  0.24594963179E+04  0.23751867340E+04 0.  0.
        1    1    3    3  502    0  0.15075709045E+03 -0.11739035277E+04 -0.21775999052E+03  0.12034104064E+04  0.50400001928E-02 0. -1.
       -1    1    3    3    0  502 -0.15075709045E+03  0.11739035277E+04 -0.42068352036E+03  0.12560859115E+04  0.50400001928E-02 0.  1.
</event>
<event>
 5   0  0.2025353E-05  0.2353155E+04  0.7818609E-02  0.8457253E-01
        2   -1    0    0  501    0  0.00000000000E+00  0.00000000000E+00  0.89950451107E+03  0.89950451108E+03  0.25500000920E-02 0.  1.
       -2   -1    0    0    0  501  0.00000000000E+00  0.00000000000E+00 -0.15389969467E+04  0.15389969467E+04  0.25500000920E-02 0. -1.
    10030    2    1    2    0    0  0.00000000000E+00  0.00000000000E+00 -0.63949243566E+03  0.24385014578E+04  0.23531550702E+04 0.  0.
        4    1    3    3  502    0  0.49548297564E+03 -0.19676709978E+03 -0.14066497606E+04  0.15042891453E+04  0.12699999809E+01 0. -1.
       -4    1    3    3    0  502 -0.49548297564E+03  0.19676709978E+03  0.76715732496E+03  0.93421231251E+03  0.12699999809E+01 0.  1.
</event>
<event>
 5   0  0.8898848E-06  0.2387319E+04  0.7818609E-02  0.8444266E-01
        1   -1    0    0  501    0  0.00000000000E+00  0.00000000000E+00  0.18314011555E+04  0.18314011555E+04  0.50400001928E-02 0.  1.
       -1   -1    0    0    0  501  0.00000000000E+00  0.00000000000E+00 -0.77799637850E+03  0.77799637851E+03  0.50400001928E-02 0. -1.
    10030    2    1    2    0    0  0.00000000000E+00  0.00000000000E+00  0.10534047770E+04  0.26093975341E+04  0.23873193893E+04 0.  0.
        5    1    3    3  502    0 -0.10878317338E+04 -0.44283078221E+03  0.75940203573E+03  0.13986388113E+04  0.46999998093E+01 0.  1.
       -5    1    3    3    0  502  0.10878317338E+04  0.44283078221E+03  0.29400274131E+03  0.12107587227E+04  0.46999998093E+01 0. -1.
</event>
<event>
 5   0  0.8898848E-06  0.2380090E+04  0.7818609E-02  0.8446996E-01
        1   -1    0    0  501    0  0.00000000000E+00  0.00000000000E+00  0.16445757736E+04  0.16445757736E+04  0.50400001928E-02 0.  1.
       -1   -1    0    0    0  501  0.00000000000E+00  0.00000000000E+00 -0.86113794423E+03  0.86113794425E+03  0.50400001928E-02 0. -1.
    10030    2    1    2    0    0  0.00000000000E+00  0.00000000000E+00  0.78343782940E+03  0.25057137179E+04  0.23800895789E+04 0.  0.
        5    1    3    3  502    0  0.57882512335E+03  0.78638595013E+03 -0.32443791062E+03  0.10289428720E+04  0.46999998093E+01 0. -1.
       -5    1    3    3    0  502 -0.57882512335E+03 -0.78638595013E+03  0.11078757400E+04  0.14767708459E+04  0.46999998093E+01 0.  1.
</event>
<event>
 5   0  0.9083687E-06  0.2393245E+04  0.7818609E-02  0.8442037E-01
        1   -1    0    0  501    0  0.00000000000E+00  0.00000000000E+00  0.11548431858E+04  0.11548431858E+04  0.50400001928E-02 0. -1.
       -1   -1    0    0    0  501  0.00000000000E+00  0.00000000000E+00 -0.12399128874E+04  0.12399128874E+04  0.50400001928E-02 0.  1.
    10030    2    1    2    0    0  0.00000000000E+00  0.00000000000E+00 -0.85069701593E+02  0.23947560731E+04  0.23932446168E+04 0.  0.
        2    1    3    3  502    0  0.33549779582E+03  0.10504601591E+04 -0.50745677572E+03  0.12138936099E+04  0.25500000920E-02 0.  1.
       -2    1    3    3    0  502 -0.33549779582E+03 -0.10504601591E+04  0.42238707413E+03  0.11808624633E+04  0.25500000920E-02 0. -1.
</event>
<event>
 5   0  0.2080257E-05  0.2434620E+04  0.7818609E-02  0.8426655E-01
       -2   -1    0    0    0  501  0.00000000000E+00  0.00000000000E+00  0.11046264978E+04  0.11046264978E+04  0.25500000920E-02 0.  1.
        2   -1    0    0  501    0  0.00000000000E+00  0.00000000000E+00 -0.13414880959E+04  0.13414880959E+04  0.25500000920E-02 0. -1.
    10030    2    1    2    0    0  0.00000000000E+00  0.00000000000E+00 -0.23686159807E+03  0.24461145938E+04  0.24346197217E+04 0.  0.
        1    1    3    3  502    0 -0.15062631256E+03  0.12076188260E+04 -0.89804483221E+02  0.12202853601E+04  0.50400001928E-02 0.  1.
       -1    1    3    3    0  502  0.15062631256E+03 -0.12076188260E+04 -0.14705711485E+03  0.12258292336E+04  0.50400001928E-02 0. -1.
</event>
<event>
 5   0  0.9083687E-06  0.2460972E+04  0.7818609E-02  0.8417023E-01
        1   -1    0    0  501    0  0.00000000000E+00  0.00000000000E+00  0.12044261739E+04  0.12044261739E+04  0.50400001928E-02 0. -1.
       -1   -1    0    0    0  501  0.00000000000E+00  0.00000000000E+00 -0.12571101770E+04  0.12571101770E+04  0.50400001928E-02 0.  1.
    10030    2    1    2    0    0  0.00000000000E+00  0.00000000000E+00 -0.52684003069E+02  0.24615363509E+04  0.24609724912E+04 0.  0.
        2    1    3    3  502    0 -0.85943990945E+03 -0.50231184678E+03 -0.74979345405E+03  0.12462521306E+04  0.25500000920E-02 0.  1.
       -2    1    3    3    0  502  0.85943990945E+03  0.50231184678E+03  0.69710945098E+03  0.12152842203E+04  0.25500000920E-02 0. -1.
</event>
<event>
 5   0  0.2080257E-05  0.2399210E+04  0.7818609E-02  0.8439799E-01
       -2   -1    0    0    0  501  0.00000000000E+00  0.00000000000E+00  0.75279418772E+03  0.75279418772E+03  0.25500000920E-02 0.  1.
        2   -1    0    0  501    0  0.00000000000E+00  0.00000000000E+00 -0.19116142293E+04  0.19116142293E+04  0.25500000920E-02 0. -1.
    10030    2    1    2    0    0  0.00000000000E+00  0.00000000000E+00 -0.11588200416E+04  0.26644084171E+04  0.23992099375E+04 0.  0.
        1    1    3    3  502    0 -0.86841958432E+03  0.19302539071E+03 -0.14731261870E+04  0.17209044537E+04  0.50400001928E-02 0. -1.
       -1    1    3    3    0  502  0.86841958432E+03 -0.19302539071E+03  0.31430614536E+03  0.94350396339E+03  0.50400001928E-02 0.  1.
</event>
<event>
 5   0  0.2122194E-05  0.2399214E+04  0.7818609E-02  0.8439798E-01
        2   -1    0    0  501    0  0.00000000000E+00  0.00000000000E+00  0.23484078265E+04  0.23484078265E+04  0.25500000920E-02 0. -1.
       -2   -1    0    0    0  501  0.00000000000E+00  0.00000000000E+00 -0.61277996466E+03  0.61277996467E+03  0.25500000920E-02 0.  1.
    10030    2    1    2    0    0  0.00000000000E+00  0.00000000000E+00  0.17356278618E+04  0.29611877911E+04  0.23992142588E+04 0.  0.
        3    1    3    3  502    0 -0.41459639560E+03 -0.10927864609E+04  0.12012505006E+04  0.16760295928E+04  0.10100000352E+00 0. -1.
       -3    1    3    3    0  502  0.41459639560E+03  0.10927864609E+04  0.53437736119E+03  0.12851581984E+04  0.10100000352E+00 0.  1.
</event>
<event>
 5   0  0.2122194E-05  0.2399304E+04  0.7818609E-02  0.8439764E-01
       -2   -1    0    0    0  501  0.00000000000E+00  0.00000000000E+00  0.90426103291E+03  0.90426103292E+03  0.25500000920E-02 0. -1.
        2   -1    0    0  501    0  0.00000000000E+00  0.00000000000E+00 -0.15915374612E+04  0.15915374612E+04  0.25500000920E-02 0.  1.
    10030    2    1    2    0    0  0.00000000000E+00  0.00000000000E+00 -0.68727642829E+03  0.24957984941E+04  0.23993043230E+04 0.  0.
        3    1    3    3  502    0  0.10607174620E+04  0.49216504416E+03 -0.64872845225E+02  0.11711346895E+04  0.10100000352E+00 0. -1.
       -3    1    3    3    0  502 -0.10607174620E+04 -0.49216504416E+03 -0.62240358306E+03  0.13246638046E+04  0.10100000352E+00 0.  1.
</event>
<event>
 5   0  0.9038897E-06  0.2587633E+04  0.7818609E-02  0.8372414E-01
       -1   -1    0    0    0  501  0.00000000000E+00  0.00000000000E+00  0.12991516356E+04  0.12991516356E+04  0.50400001928E-02 0.  1.
        1   -1    0    0  501    0  0.00000000000E+00  0.00000000000E+00 -0.12885032180E+04  0.12885032180E+04  0.50400001928E-02 0. -1.
    10030    2    1    2    0    0  0.00000000000E+00  0.00000000000E+00  0.10648417562E+02  0.25876548536E+04  0.25876329439E+04 0.  0.
        1    1    3    3  502    0 -0.77847489558E+03 -0.70802958468E+03  0.75808021357E+03  0.12969250811E+04  0.50400001928E-02 0.  1.
       -1    1    3    3    0  502  0.77847489558E+03  0.70802958468E+03 -0.74743179601E+03  0.12907297725E+04  0.50400001928E-02 0. -1.
</event>
<event>
 5   0  0.8898848E-06  0.2384028E+04  0.7818609E-02  0.8445508E-01
        1   -1    0    0  501    0  0.00000000000E+00  0.00000000000E+00  0.75400235613E+03  0.75400235614E+03  0.50400001928E-02 0.  1.
       -1   -1    0    0    0  501  0.00000000000E+00  0.00000000000E+00 -0.18844733117E+04  0.18844733117E+04  0.50400001928E-02 0. -1.
    10030    2    1    2    0    0  0.00000000000E+00  0.00000000000E+00 -0.11304709556E+04  0.26384756679E+04  0.23840279504E+04 0.  0.
        5    1    3    3  502    0 -0.32654910578E+03 -0.83507568095E+03 -0.14344869708E+04  0.16916739257E+04  0.46999998093E+01 0. -1.
       -5    1    3    3    0  502  0.32654910578E+03  0.83507568095E+03  0.30401601526E+03  0.94680174215E+03  0.46999998093E+01 0.  1.
</event>
<event>
 5   0  0.2122194E-05  0.2388330E+04  0.7818609E-02  0.8443886E-01
        2   -1    0    0  501    0  0.00000000000E+00  0.00000000000E+00  0.20404320259E+04  0.20404320259E+04  0.25500000920E-02 0.  1.
       -2   -1    0    0    0  501  0.00000000000E+00  0.00000000000E+00 -0.69888639246E+03  0.69888639247E+03  0.25500000920E-02 0. -1.
    10030    2    1    2    0    0  0.00000000000E+00  0.00000000000E+00  0.13415456335E+04  0.27393184184E+04  0.23883301092E+04 0.  0.
        3    1    3    3  502    0  0.11695875804E+04 -0.69029809271E+01  0.39443547198E+03  0.12343265820E+04  0.10100000352E+00 0. -1.
       -3    1    3    3    0  502 -0.11695875804E+04  0.69029809271E+01  0.94711016148E+03  0.15049918364E+04  0.10100000352E+00 0.  1.
</event>
<event>
 5   0  0.8898848E-06  0.2354818E+04  0.7818609E-02  0.8456615E-01
        1   -1    0    0  501    0  0.00000000000E+00  0.00000000000E+00  0.12753738942E+04  0.12753738942E+04  0.50400001928E-02 0. -1.
       -1   -1    0    0    0  501  0.00000000000E+00  0.00000000000E+00 -0.10869690660E+04  0.10869690660E+04  0.50400001928E-02 0.  1.
    10030    2    1    2    0    0  0.00000000000E+00  0.00000000000E+00  0.18840482826E+03  0.23623429602E+04  0.23548180147E+04 0.  0.
        5    1    3    3  502    0 -0.28690741122E+03 -0.10052249739E+04 -0.44926369130E+03  0.11378282230E+04  0.46999998093E+01 0.  1.
       -5    1    3    3    0  502  0.28690741122E+03  0.10052249739E+04  0.63766851957E+03  0.12245147372E+04  0.46999998093E+01 0. -1.
</event>
<event>
 5   0  0.2087882E-05  0.2398509E+04  0.7818609E-02  0.8440062E-01
       -2   -1    0    0    0  501  0.00000000000E+00  0.00000000000E+00  0.11671671600E+04  0.11671671600E+04  0.25500000920E-02 0. -1.
        2   -1    0    0  501    0  0.00000000000E+00  0.00000000000E+00 -0.12322240776E+04  0.12322240776E+04  0.25500000920E-02 0.  1.
    10030    2    1    2    0    0  0.00000000000E+00  0.00000000000E+00 -0.65056917597E+02  0.23993912377E+04  0.23985091013E+04 0.  0.
        2    1    3    3  502    0  0.11402245603E+04 -0.35148300953E+03 -0.15323402815E+03  0.12029684208E+04  0.25500000920E-02 0.  1.
       -2    1    3    3    0  502 -0.11402245603E+04  0.35148300953E+03  0.88177110556E+02  0.11964228169E+04  0.25500000920E-02 0. -1.
</event>
<event>
 5   0  0.9038897E-06  0.2395743E+04  0.7818609E-02  0.8441099E-01
        1   -1    0    0  501    0  0.00000000000E+00  0.00000000000E+00  0.11824175101E+04  0.11824175101E+04  0.50400001928E-02 0. -1.
       -1   -1    0    0    0  501  0.00000000000E+00  0.00000000000E+00 -0.12135274123E+04  0.12135274123E+04  0.50400001928E-02 0.  1.
    10030    2    1    2    0    0  0.00000000000E+00  0.00000000000E+00 -0.31109902177E+02  0.23959449224E+04  0.23957429422E+04 0.  0.
        1    1    3    3  502    0  0.10881811853E+04 -0.30926023690E+03 -0.40943568331E+03  0.12030867653E+04  0.50400001928E-02 0.  1.
       -1    1    3    3    0  502 -0.10881811853E+04  0.30926023690E+03  0.37832578113E+03  0.11928581570E+04  0.50400001928E-02 0. -1.
</event>
<event>
 5   0  0.9038897E-06  0.2409845E+04  0.7818609E-02  0.8435827E-01
       -1   -1    0    0    0  501  0.00000000000E+00  0.00000000000E+00  0.59137714921E+03  0.59137714924E+03  0.50400001928E-02 0. -1.
        1   -1    0    0  501    0  0.00000000000E+00  0.00000000000E+00 -0.24550129414E+04  0.24550129414E+04  0.50400001928E-02 0.  1.
    10030    2    1    2    0    0  0.00000000000E+00  0.00000000000E+00 -0.18636357922E+04  0.30463900906E+04  0.24098452686E+04 0.  0.
        1    1    3    3  502    0 -0.16423039854E+03  0.67267437445E+03 -0.21783787870E+04  0.22857813932E+04  0.50400001928E-02 0.  1.
       -1    1    3    3    0  502  0.16423039854E+03 -0.67267437445E+03  0.31474299480E+03  0.76060869745E+03  0.50400001928E-02 0. -1.
</event>
<event>
 5   0  0.8528103E-06  0.2394624E+04  0.7818609E-02  0.8441519E-01
        1   -1    0    0  501    0  0.00000000000E+00  0.00000000000E+00  0.15856364188E+04  0.15856364188E+04  0.50400001928E-02 0. -1.
       -1   -1    0    0    0  501  0.00000000000E+00  0.00000000000E+00 -0.90408882756E+03  0.90408882758E+03  0.50400001928E-02 0.  1.
    10030    2    1    2    0    0  0.00000000000E+00  0.00000000000E+00  0.68154759121E+03  0.24897252464E+04  0.23946241215E+04 0.  0.
        4    1    3    3  502    0 -0.11018929096E+03  0.76275784514E+03  0.12934684696E+04  0.15056571672E+04  0.12699999809E+01 0. -1.
       -4    1    3    3    0  502  0.11018929096E+03 -0.76275784514E+03 -0.61192087842E+03  0.98406807921E+03  0.12699999809E+01 0.  1.
</event>
<event>
 5   0  0.2025353E-05  0.2373648E+04  0.7818609E-02  0.8449436E-01
       -2   -1    0    0    0  501  0.00000000000E+00  0.00000000000E+00  0.99271101307E+03  0.99271101308E+03  0.25500000920E-02 0.  1.
        2   -1    0    0  501    0  0.00000000000E+00  0.00000000000E+00 -0.14188931320E+04  0.14188931320E+04  0.25500000920E-02 0. -1.
    10030    2    1    2    0    0  0.00000000000E+00  0.00000000000E+00 -0.42618211895E+03  0.24116041451E+04  0.23736476896E+04 0.  0.
        4    1    3    3  502    0 -0.26467879710E+03 -0.40332844840E+03 -0.13147832751E+04  0.14004946898E+04  0.12699999809E+01 0. -1.
       -4    1    3    3    0  502  0.26467879710E+03  0.40332844840E+03  0.88860115614E+03  0.10111094553E+04  0.12699999809E+01 0.  1.
</event>
<event>
 5   0  0.9176817E-06  0.2428281E+04  0.7818609E-02  0.8428991E-01
        1   -1    0    0  501    0  0.00000000000E+00  0.00000000000E+00  0.78846158648E+03  0.78846158650E+03  0.50400001928E-02 0.  1.
       -1   -1    0    0    0  501  0.00000000000E+00  0.00000000000E+00 -0.18696376723E+04  0.18696376723E+04  0.50400001928E-02 0. -1.
    10030    2    1    2    0    0  0.00000000000E+00  0.00000000000E+00 -0.10811760858E+04  0.26580992588E+04  0.24282812731E+04 0.  0.
        3    1    3    3  502    0  0.65150097735E+03  0.40762265215E+03  0.48833358186E+03  0.91053799889E+03  0.10100000352E+00 0.  1.
       -3    1    3    3    0  502 -0.65150097735E+03 -0.40762265215E+03 -0.15695096677E+04  0.17475612599E+04  0.10100000352E+00 0. -1.
</event>
<event>
 5   0  0.8898848E-06  0.2376995E+04  0.7818609E-02  0.8448167E-01
        1   -1    0    0  501    0  0.00000000000E+00  0.00000000000E+00  0.16095764828E+04  0.16095764828E+04  0.50400001928E-02 0. -1.
       -1   -1    0    0    0  501  0.00000000000E+00  0.00000000000E+00 -0.87757661010E+03  0.87757661012E+03  0.50400001928E-02 0.  1.
    10030    2    1    2    0    0  0.00000000000E+00  0.00000000000E+00  0.73199987273E+03  0.24871530930E+04  0.23769953080E+04 0.  0.
        5    1    3    3  502    0 -0.52594913385E+03  0.18961493869E+03  0.14633782554E+04  0.15665485389E+04  0.46999998093E+01 0. -1.
       -5    1    3    3    0  502  0.52594913385E+03 -0.18961493869E+03 -0.73137838265E+03  0.92060455407E+03  0.46999998093E+01 0.  1.
</event>
<event>
 5   0  0.8528103E-06  0.2476304E+04  0.7818609E-02  0.8411476E-01
       -1   -1    0    0    0  501  0.00000000000E+00  0.00000000000E+00  0.13318511836E+04  0.13318511836E+04  0.50400001928E-02 0. -1.
        1   -1    0    0  501    0  0.00000000000E+00  0.00000000000E+00 -0.11510448776E+04  0.11510448776E+04  0.50400001928E-02 0.  1.
    10030    2    1    2    0    0  0.00000000000E+00  0.00000000000E+00  0.18080630599E+03  0.24828960612E+04  0.24763040868E+04 0.  0.
        4    1    3    3  502    0 -0.81014335276E+03 -0.50275239565E+03  0.88239613263E+03  0.12991215382E+04  0.12699999809E+01 0. -1.
       -4    1    3    3    0  502  0.81014335276E+03  0.50275239565E+03 -0.70158982664E+03  0.11837745229E+04  0.12699999809E+01 0.  1.
</event>
<event>
 5   0  0.2087882E-05  0.2397133E+04  0.7818609E-02  0.8440578E-01
       -2   -1    0    0    0  501  0.00000000000E+00  0.00000000000E+00  0.60248448496E+03  0.60248448496E+03  0.25500000920E-02 0. -1.
        2   -1    0    0  501    0  0.00000000000E+00  0.00000000000E+00 -0.23843960580E+04  0.23843960580E+04  0.25500000920E-02 0.  1.
    10030    2    1    2    0    0  0.00000000000E+00  0.00000000000E+00 -0.17819115731E+04  0.29868805430E+04  0.23971329800E+04 0.  0.
        2    1    3    3  502    0  0.71479348769E+03  0.14999901037E+03  0.29317968165E+03  0.78700937663E+03  0.25500000920E-02 0. -1.
       -2    1    3    3    0  502 -0.71479348769E+03 -0.14999901037E+03 -0.20750912547E+04  0.21998711663E+04  0.25500000920E-02 0.  1.
</event>
<event>
 5   0  0.2025353E-05  0.2312999E+04  0.7818609E-02  0.8472813E-01
       -2   -1    0    0    0  501  0.00000000000E+00  0.00000000000E+00  0.12884130171E+04  0.12884130171E+04  0.25500000920E-02 0.  1.
        2   -1    0    0  501    0  0.00000000000E+00  0.00000000000E+00 -0.10380922485E+04  0.10380922485E+04  0.25500000920E-02 0. -1.
    10030    2    1    2    0    0  0.00000000000E+00  0.00000000000E+00  0.25032076865E+03  0.23265052656E+04  0.23129994085E+04 0.  0.
        4    1    3    3  502    0 -0.11232861965E+04  0.43067470018E+02  0.39852529899E+03  0.11926653818E+04  0.12699999809E+01 0.  1.
       -4    1    3    3    0  502  0.11232861965E+04 -0.43067470018E+02 -0.14820453034E+03  0.11338398837E+04  0.12699999809E+01 0. -1.
</event>
<event>
 5   0  0.2025353E-05  0.2405175E+04  0.7818609E-02  0.8437569E-01
        2   -1    0    0  501    0  0.00000000000E+00  0.00000000000E+00  0.13218794229E+04  0.13218794230E+04  0.25500000920E-02 0. -1.
       -2   -1    0    0    0  501  0.00000000000E+00  0.00000000000E+00 -0.10940611860E+04  0.10940611860E+04  0.25500000920E-02 0.  1.
    10030    2    1    2    0    0  0.00000000000E+00  0.00000000000E+00  0.22781823694E+03  0.24159406090E+04  0.24051752279E+04 0.  0.
        4    1    3    3  502    0 -0.47928601115E+03  0.10866777396E+04 -0.75699557481E+02  0.11900905958E+04  0.12699999809E+01 0. -1.
       -4    1    3    3    0  502  0.47928601115E+03 -0.10866777396E+04  0.30351779442E+03  0.12258500132E+04  0.12699999809E+01 0.  1.
</event>
<event>
 5   0  0.8528103E-06  0.2403162E+04  0.7818609E-02  0.8438321E-01
        1   -1    0    0  501    0  0.00000000000E+00  0.00000000000E+00  0.24555580028E+04  0.24555580028E+04  0.50400001928E-02 0.  1.
       -1   -1    0    0    0  501  0.00000000000E+00  0.00000000000E+00 -0.58797080417E+03  0.58797080419E+03  0.50400001928E-02 0. -1.
    10030    2    1    2    0    0  0.00000000000E+00  0.00000000000E+00  0.18675871986E+04  0.30435288070E+04  0.24031615956E+04 0.  0.
        4    1    3    3  502    0 -0.95769189803E+03 -0.20943820906E+02  0.18524700725E+04  0.20854878081E+04  0.12699999809E+01 0.  1.
       -4    1    3    3    0  502  0.95769189803E+03  0.20943820906E+02  0.15117126109E+02  0.95804099891E+03  0.12699999809E+01 0. -1.
</event>
<event>
 5   0  0.2087882E-05  0.2392655E+04  0.7818609E-02  0.8442259E-01
       -2   -1    0    0    0  501  0.00000000000E+00  0.00000000000E+00  0.58139557561E+03  0.58139557562E+03  0.25500000920E-02 0. -1.
        2   -1    0    0  501    0  0.00000000000E+00  0.00000000000E+00 -0.24616621293E+04  0.24616621293E+04  0.25500000920E-02 0.  1.
    10030    2    1    2    0    0  0.00000000000E+00  0.00000000000E+00 -0.18802665537E+04  0.30430577049E+04  0.23926549861E+04 0.  0.
        2    1    3    3  502    0 -0.16252561153E+03 -0.11798125488E+04 -0.10841778235E+04  0.16105321411E+04  0.25500000920E-02 0.  1.
       -2    1    3    3    0  502  0.16252561153E+03  0.11798125488E+04 -0.79608873020E+03  0.14325255638E+04  0.25500000920E-02 0. -1.
</event>
<event>
 5   0  0.2025353E-05  0.2400080E+04  0.7818609E-02  0.8439474E-01
       -2   -1    0    0    0  501  0.00000000000E+00  0.00000000000E+00  0.61529097406E+03  0.61529097407E+03  0.25500000920E-02 0. -1.
        2   -1    0    0  501    0  0.00000000000E+00  0.00000000000E+00 -0.23405112631E+04  0.23405112631E+04  0.25500000920E-02 0.  1.
    10030    2    1    2    0    0  0.00000000000E+00  0.00000000000E+00 -0.17252202891E+04  0.29558022372E+04  0.24000795444E+04 0.  0.
        4    1    3    3  502    0 -0.46606810835E+03 -0.78439787509E+03 -0.18225777893E+04  0.20382077713E+04  0.12699999809E+01 0.  1.
       -4    1    3    3    0  502  0.46606810835E+03  0.78439787509E+03  0.97357500241E+02  0.91759446588E+03  0.12699999809E+01 0. -1.
</event>
<event>
 5   0  0.2048028E-05  0.2394133E+04  0.7818609E-02  0.8441703E-01
       -2   -1    0    0    0  501  0.00000000000E+00  0.00000000000E+00  0.15490749301E+04  0.15490749301E+04  0.25500000920E-02 0. -1.
        2   -1    0    0  501    0  0.00000000000E+00  0.00000000000E+00 -0.92504736487E+03  0.92504736487E+03  0.25500000920E-02 0.  1.
    10030    2    1    2    0    0  0.00000000000E+00  0.00000000000E+00  0.62402756519E+03  0.24741222949E+04  0.23941325628E+04 0.  0.
        5    1    3    3  502    0  0.21858162881E+03  0.10371622573E+03 -0.89950797651E+03  0.93148895524E+03  0.46999998093E+01 0.  1.
       -5    1    3    3    0  502 -0.21858162881E+03 -0.10371622573E+03  0.15235355417E+04  0.15426333397E+04  0.46999998093E+01 0. -1.
</event>
<event>
 5   0  0.7233625E-06  0.2404673E+04  0.7818609E-02  0.8437756E-01
       -4   -1    0    0    0  501  0.00000000000E+00  0.00000000000E+00  0.72346745601E+03  0.72346857071E+03  0.12699999809E+01 0. -1.
        4   -1    0    0  501    0  0.00000000000E+00  0.00000000000E+00 -0.19981696558E+04  0.19981700594E+04  0.12699999809E+01 0.  1.
    10030    2    1    2    0    0  0.00000000000E+00  0.00000000000E+00 -0.12747021998E+04  0.27216386301E+04  0.24046727708E+04 0.  0.
        4    1    3    3  502    0  0.11333302951E+04  0.38239496414E+03 -0.77572740377E+03  0.14256290135E+04  0.12699999809E+01 0. -1.
       -4    1    3    3    0  502 -0.11333302951E+04 -0.38239496414E+03 -0.49897479602E+03  0.12960096166E+04  0.12699999809E+01 0.  1.
</event>
<event>
 5   0  0.2122194E-05  0.2405207E+04  0.7818609E-02  0.8437557E-01
        2   -1    0    0  501    0  0.00000000000E+00  0.00000000000E+00  0.13652399609E+04  0.13652399609E+04  0.25500000920E-02 0.  1.
       -2   -1    0    0    0  501  0.00000000000E+00  0.00000000000E+00 -0.10593414155E+04  0.10593414155E+04  0.25500000920E-02 0. -1.
    10030    2    1    2    0    0  0.00000000000E+00  0.00000000000E+00  0.30589854542E+03  0.24245813765E+04  0.24052070454E+04 0.  0.
        3    1    3    3  502    0 -0.17492668635E+03 -0.10537611389E+04 -0.40398942574E+03  0.11420242334E+04  0.10100000352E+00 0. -1.
       -3    1    3    3    0  502  0.17492668635E+03  0.10537611389E+04  0.70988797116E+03  0.12825571431E+04  0.10100000352E+00 0.  1.
</event>
<event>
 5   0  0.8898848E-06  0.2409350E+04  0.7818609E-02  0.8436011E-01
       -1   -1    0    0    0  501  0.00000000000E+00  0.00000000000E+00  0.91297803437E+03  0.91297803438E+03  0.50400001928E-02 0.  1.
        1   -1    0    0  501    0  0.00000000000E+00  0.00000000000E+00 -0.15895690079E+04  0.15895690079E+04  0.50400001928E-02 0. -1.
    10030    2    1    2    0    0  0.00000000000E+00  0.00000000000E+00 -0.67659097356E+03  0.25025470423E+04  0.24093497782E+04 0.  0.
        5    1    3    3  502    0 -0.43552007405E+03  0.28181687128E+03 -0.14676059852E+04  0.15565949703E+04  0.46999998093E+01 0. -1.
       -5    1    3    3    0  502  0.43552007405E+03 -0.28181687128E+03  0.79101501165E+03  0.94595207199E+03  0.46999998093E+01 0.  1.
</event>
<event>
 5   0  0.9083687E-06  0.2403345E+04  0.7818609E-02  0.8438252E-01
        1   -1    0    0  501    0  0.00000000000E+00  0.00000000000E+00  0.23085906383E+04  0.23085906383E+04  0.50400001928E-02 0. -1.
       -1   -1    0    0    0  501  0.00000000000E+00  0.00000000000E+00 -0.62549730372E+03  0.62549730374E+03  0.50400001928E-02 0.  1.
    10030    2    1    2    0    0  0.00000000000E+00  0.00000000000E+00  0.16830933346E+04  0.29340879421E+04  0.24033453516E+04 0.  0.
        2    1    3    3  502    0  0.64639297128E+03 -0.55891814312E+03 -0.18989908007E+03  0.87537136385E+03  0.25500000920E-02 0.  1.
       -2    1    3    3    0  502 -0.64639297128E+03  0.55891814312E+03  0.18729924147E+04  0.20587165782E+04  0.25500000920E-02 0. -1.
</event>
<event>
 5   0  0.2080257E-05  0.2428422E+04  0.7818609E-02  0.8428939E-01
       -2   -1    0    0    0  501  0.00000000000E+00  0.00000000000E+00  0.84788652469E+03  0.84788652469E+03  0.25500000920E-02 0. -1.
        2   -1    0    0  501    0  0.00000000000E+00  0.00000000000E+00 -0.17388035597E+04  0.17388035597E+04  0.25500000920E-02 0.  1.
    10030    2    1    2    0    0  0.00000000000E+00  0.00000000000E+00 -0.89091703503E+03  0.25866900844E+04  0.24284217981E+04 0.  0.
        1    1    3    3  502    0  0.54539283064E+03  0.85840971180E+02 -0.15973665509E+04  0.16900893201E+04  0.50400001928E-02 0.  1.
       -1    1    3    3    0  502 -0.54539283064E+03 -0.85840971180E+02  0.70644951586E+03  0.89660076429E+03  0.50400001928E-02 0. -1.
</event>
<event>
 5   0  0.8528103E-06  0.2422572E+04  0.7818609E-02  0.8431101E-01
        1   -1    0    0  501    0  0.00000000000E+00  0.00000000000E+00  0.13327430876E+04  0.13327430876E+04  0.50400001928E-02 0.  1.
       -1   -1    0    0    0  501  0.00000000000E+00  0.00000000000E+00 -0.11008979529E+04  0.11008979530E+04  0.50400001928E-02 0. -1.
    10030    2    1    2    0    0  0.00000000000E+00  0.00000000000E+00  0.23184513469E+03  0.24336410406E+04  0.24225722998E+04 0.  0.
        4    1    3    3  502    0  0.51370956385E+03  0.51417952278E+03  0.10893361569E+04  0.13095544942E+04  0.12699999809E+01 0.  1.
       -4    1    3    3    0  502 -0.51370956385E+03 -0.51417952278E+03 -0.85749102223E+03  0.11240865464E+04  0.12699999809E+01 0. -1.
</event>
<event>
 5   0  0.2122194E-05  0.2389867E+04  0.7818609E-02  0.8443307E-01
        2   -1    0    0  501    0  0.00000000000E+00  0.00000000000E+00  0.28096220944E+04  0.28096220944E+04  0.25500000920E-02 0.  1.
       -2   -1    0    0    0  501  0.00000000000E+00  0.00000000000E+00 -0.50820586378E+03  0.50820586379E+03  0.25500000920E-02 0. -1.
    10030    2    1    2    0    0  0.00000000000E+00  0.00000000000E+00  0.23014162307E+04  0.33178279582E+04  0.23898672962E+04 0.  0.
        3    1    3    3  502    0  0.14719982397E+03 -0.66667112086E+03  0.25121865815E+04  0.26033055145E+04  0.10100000352E+00 0.  1.
       -3    1    3    3    0  502 -0.14719982397E+03  0.66667112086E+03 -0.21077035082E+03  0.71452244370E+03  0.10100000352E+00 0. -1.
</event>
<event>
 5   0  0.8898848E-06  0.2408343E+04  0.7818609E-02  0.8436387E-01
        1   -1    0    0  501    0  0.00000000000E+00  0.00000000000E+00  0.18557179629E+04  0.18557179629E+04  0.50400001928E-02 0.  1.
       -1   -1    0    0    0  501  0.00000000000E+00  0.00000000000E+00 -0.78138405177E+03  0.78138405179E+03  0.50400001928E-02 0. -1.
    10030    2    1    2    0    0  0.00000000000E+00  0.00000000000E+00  0.10743339111E+04  0.26371020147E+04  0.24083425179E+04 0.  0.
        5    1    3    3  502    0 -0.69305195172E+03  0.48446244770E+03 -0.40157638594E+03  0.93611460557E+03  0.46999998093E+01 0. -1.
       -5    1    3    3    0  502  0.69305195172E+03 -0.48446244770E+03  0.14759102971E+04  0.17009874091E+04  0.46999998093E+01 0.  1.
</event>
<event>
 5   0  0.9176817E-06  0.2403943E+04  0.7818609E-02  0.8438029E-01
       -1   -1    0    0    0  501  0.00000000000E+00  0.00000000000E+00  0.82842545198E+03  0.82842545199E+03  0.50400001928E-02 0. -1.
        1   -1    0    0  501    0  0.00000000000E+00  0.00000000000E+00 -0.17439542401E+04  0.17439542401E+04  0.50400001928E-02 0.  1.
    10030    2    1    2    0    0  0.00000000000E+00  0.00000000000E+00 -0.91552878814E+03  0.25723796921E+04  0.24039434932E+04 0.  0.
        3    1    3    3  502    0 -0.19491312023E+03  0.81716275837E+03  0.46211330394E+03  0.95879863057E+03  0.10100000352E+00 0. -1.
       -3    1    3    3    0  502  0.19491312023E+03 -0.81716275837E+03 -0.13776420921E+04  0.16135810615E+04  0.10100000352E+00 0.  1.
</event>
<event>
 5   0  0.7233625E-06  0.2407080E+04  0.7818609E-02  0.8436858E-01
       -3   -1    0    0    0  501  0.00000000000E+00  0.00000000000E+00  0.10374503444E+04  0.10374503493E+04  0.10100000352E+00 0. -1.
        3   -1    0    0  501    0  0.00000000000E+00  0.00000000000E+00 -0.13962200500E+04  0.13962200537E+04  0.10100000352E+00 0.  1.
    10030    2    1    2    0    0  0.00000000000E+00  0.00000000000E+00 -0.35876970564E+03  0.24336704029E+04  0.24070803743E+04 0.  0.
        4    1    3    3  502    0 -0.69475364309E+03 -0.97076376320E+03 -0.24584207469E+02  0.11940146166E+04  0.12699999809E+01 0. -1.
       -4    1    3    3    0  502  0.69475364309E+03  0.97076376320E+03 -0.33418549817E+03  0.12396557863E+04  0.12699999809E+01 0.  1.
</event>
<event>
 5   0  0.2087882E-05  0.2398286E+04  0.7818609E-02  0.8440145E-01
       -2   -1    0    0    0  501  0.00000000000E+00  0.00000000000E+00  0.96621228550E+03  0.96621228551E+03  0.25500000920E-02 0.  1.
        2   -1    0    0  501    0  0.00000000000E+00  0.00000000000E+00 -0.14882282485E+04  0.14882282485E+04  0.25500000920E-02 0. -1.
    10030    2    1    2    0    0  0.00000000000E+00  0.00000000000E+00 -0.52201596303E+03  0.24544405340E+04  0.23982864027E+04 0.  0.
        2    1    3    3  502    0 -0.52841262700E+03 -0.86587809720E+03 -0.91549691885E+03  0.13664184542E+04  0.25500000920E-02 0. -1.
       -2    1    3    3    0  502  0.52841262700E+03  0.86587809720E+03  0.39348095582E+03  0.10880220798E+04  0.25500000920E-02 0.  1.
</event>
<event>
 5   0  0.2048028E-05  0.2364320E+04  0.7818609E-02  0.8452984E-01
        2   -1    0    0  501    0  0.00000000000E+00  0.00000000000E+00  0.28281554199E+04  0.28281554199E+04  0.25500000920E-02 0. -1.
       -2   -1    0    0    0  501  0.00000000000E+00  0.00000000000E+00 -0.49413910919E+03  0.49413910920E+03  0.25500000920E-02 0.  1.
    10030    2    1    2    0    0  0.00000000000E+00  0.00000000000E+00  0.23340163107E+04  0.33222945291E+04  0.23643199444E+04 0.  0.
        5    1    3    3  502    0 -0.31644712879E+03 -0.65877266082E+03 -0.13864500240E+03  0.74388489072E+03  0.46999998093E+01 0.  1.
       -5    1    3    3    0  502  0.31644712879E+03  0.65877266082E+03  0.24726613131E+04  0.25784096384E+04  0.46999998093E+01 0. -1.
</event>
<event>
 5   0  0.8528103E-06  0.2408311E+04  0.7818609E-02  0.8436398E-01
       -1   -1    0    0    0  501  0.00000000000E+00  0.00000000000E+00  0.16121743080E+04  0.16121743081E+04  0.50400001928E-02 0.  1.
        1   -1    0    0  501    0  0.00000000000E+00  0.00000000000E+00 -0.89940075743E+03  0.89940075744E+03  0.50400001928E-02 0. -1.
    10030    2    1    2    0    0  0.00000000000E+00  0.00000000000E+00  0.71277355062E+03  0.25115750655E+04  0.24083112704E+04 0.  0.
        4    1    3    3  502    0 -0.44531684224E+03 -0.19072585991E+03  0.15060650345E+04  0.15820609801E+04  0.12699999809E+01 0.  1.
       -4    1    3    3    0  502  0.44531684224E+03  0.19072585991E+03 -0.79329148390E+03  0.92951408540E+03  0.12699999809E+01 0. -1.
</event>
<event>
 5   0  0.2025353E-05  0.2394870E+04  0.7818609E-02  0.8441427E-01
        2   -1    0    0  501    0  0.00000000000E+00  0.00000000000E+00  0.22987334564E+04  0.22987334564E+04  0.25500000920E-02 0.  1.
       -2   -1    0    0    0  501  0.00000000000E+00  0.00000000000E+00 -0.62375662117E+03  0.62375662118E+03  0.25500000920E-02 0. -1.
    10030    2    1    2    0    0  0.00000000000E+00  0.00000000000E+00  0.16749768352E+04  0.29224900775E+04  0.23948696948E+04 0.  0.
        4    1    3    3  502    0  0.79609073607E+03 -0.78783613853E+03  0.13543630671E+04  0.17574831924E+04  0.12699999809E+01 0.  1.
       -4    1    3    3    0  502 -0.79609073607E+03  0.78783613853E+03  0.32061376813E+03  0.11650068851E+04  0.12699999809E+01 0. -1.
</event>
<event>
 5   0  0.8898848E-06  0.2390575E+04  0.7818609E-02  0.8443040E-01
        1   -1    0    0  501    0  0.00000000000E+00  0.00000000000E+00  0.81112414825E+03  0.81112414827E+03  0.50400001928E-02 0.  1.
       -1   -1    0    0    0  501  0.00000000000E+00  0.00000000000E+00 -0.17613982943E+04  0.17613982943E+04  0.50400001928E-02 0. -1.
    10030    2    1    2    0    0  0.00000000000E+00  0.00000000000E+00 -0.95027414604E+03  0.25725224426E+04  0.23905754046E+04 0.  0.
        5    1    3    3  502    0 -0.83958275148E+03 -0.55931035465E+03  0.21471863504E+03  0.10314327179E+04  0.46999998093E+01 0.  1.
       -5    1    3    3    0  502  0.83958275148E+03  0.55931035465E+03 -0.11649927811E+04  0.15410897246E+04  0.46999998093E+01 0. -1.
</event>
<event>
 5   0  0.2087882E-05  0.2371676E+04  0.7818609E-02  0.8450184E-01
        2   -1    0    0  501    0  0.00000000000E+00  0.00000000000E+00  0.13499489404E+04  0.13499489404E+04  0.25500000920E-02 0. -1.
       -2   -1    0    0    0  501  0.00000000000E+00  0.00000000000E+00 -0.10416780616E+04  0.10416780616E+04  0.25500000920E-02 0.  1.
    10030    2    1    2    0    0  0.00000000000E+00  0.00000000000E+00  0.30827087883E+03  0.23916270021E+04  0.23716763654E+04 0.  0.
        2    1    3    3  502    0 -0.10559985214E+04 -0.52331340759E+03  0.21797366692E+02  0.11787556680E+04  0.25500000920E-02 0.  1.
       -2    1    3    3    0  502  0.10559985214E+04  0.52331340759E+03  0.28647351214E+03  0.12128713340E+04  0.25500000920E-02 0. -1.
</event>
<event>
 5   0  0.2122194E-05  0.2428489E+04  0.7818609E-02  0.8428914E-01
        2   -1    0    0  501    0  0.00000000000E+00  0.00000000000E+00  0.15214459677E+04  0.15214459677E+04  0.25500000920E-02 0. -1.
       -2   -1    0    0    0  501  0.00000000000E+00  0.00000000000E+00 -0.96907127675E+03  0.96907127675E+03  0.25500000920E-02 0.  1.
    10030    2    1    2    0    0  0.00000000000E+00  0.00000000000E+00  0.55237469096E+03  0.24905172445E+04  0.24284889017E+04 0.  0.
        3    1    3    3  502    0  0.94673417387E+03  0.30060919641E+03  0.99239319353E+03  0.14041067430E+04  0.10100000352E+00 0. -1.
       -3    1    3    3    0  502 -0.94673417387E+03 -0.30060919641E+03 -0.44001850256E+03  0.10864105015E+04  0.10100000352E+00 0.  1.
</event>
<event>
 5   0  0.9083687E-06  0.2397273E+04  0.7818609E-02  0.8440525E-01
       -1   -1    0    0    0  501  0.00000000000E+00  0.00000000000E+00  0.88769146933E+03  0.88769146934E+03  0.50400001928E-02 0.  1.
        1   -1    0    0  501    0  0.00000000000E+00  0.00000000000E+00 -0.16185014148E+04  0.16185014148E+04  0.50400001928E-02 0. -1.
    10030    2    1    2    0    0  0.00000000000E+00  0.00000000000E+00 -0.73080994542E+03  0.25061928841E+04  0.23972733670E+04 0.  0.
        2    1    3    3  502    0  0.55646623583E+03  0.40880794740E+03  0.65888171927E+03  0.95441276682E+03  0.25500000920E-02 0.  1.
       -2    1    3    3    0  502 -0.55646623583E+03 -0.40880794740E+03 -0.13896916647E+04  0.15517801173E+04  0.25500000920E-02 0. -1.
</event>
<event>
 5   0  0.8898848E-06  0.2394483E+04  0.7818609E-02  0.8441572E-01
        1   -1    0    0  501    0  0.00000000000E+00  0.00000000000E+00  0.19107015711E+04  0.19107015711E+04  0.50400001928E-02 0. -1.
       -1   -1    0    0    0  501  0.00000000000E+00  0.00000000000E+00 -0.75018888984E+03  0.75018888985E+03  0.50400001928E-02 0.  1.
    10030    2    1    2    0    0  0.00000000000E+00  0.00000000000E+00  0.11605126813E+04  0.26608904610E+04  0.23944829007E+04 0.  0.
        5    1    3    3  502    0  0.63559358573E+03 -0.18006598776E+03 -0.52931330330E+03  0.84652089710E+03  0.46999998093E+01 0.  1.
       -5    1    3    3    0  502 -0.63559358573E+03  0.18006598776E+03  0.16898259846E+04  0.18143695639E+04  0.46999998093E+01 0. -1.
</event>
<event>
 5   0  0.2122194E-05  0.2394252E+04  0.7818609E-02  0.8441659E-01
        2   -1    0    0  501    0  0.00000000000E+00  0.00000000000E+00  0.20030005196E+04  0.20030005196E+04  0.25500000920E-02 0.  1.
       -2   -1    0    0    0  501  0.00000000000E+00  0.00000000000E+00 -0.71548190774E+03  0.71548190775E+03  0.25500000920E-02 0. -1.
    10030    2    1    2    0    0  0.00000000000E+00  0.00000000000E+00  0.12875186119E+04  0.27184824273E+04  0.23942519775E+04 0.  0.
        3    1    3    3  502    0 -0.50401944342E+03  0.33238165350E+03 -0.52995863740E+03  0.80334882242E+03  0.10100000352E+00 0. -1.
       -3    1    3    3    0  502  0.50401944342E+03 -0.33238165350E+03  0.18174772493E+04  0.19151336049E+04  0.10100000352E+00 0.  1.
</event>
<event>
 5   0  0.2122194E-05  0.2402031E+04  0.7818609E-02  0.8438744E-01
       -2   -1    0    0    0  501  0.00000000000E+00  0.00000000000E+00  0.13809712567E+04  0.13809712567E+04  0.25500000920E-02 0. -1.
        2   -1    0    0  501    0  0.00000000000E+00  0.00000000000E+00 -0.10445099125E+04  0.10445099125E+04  0.25500000920E-02 0.  1.
    10030    2    1    2    0    0  0.00000000000E+00  0.00000000000E+00  0.33646134416E+03  0.24254811692E+04  0.24020309461E+04 0.  0.
        3    1    3    3  502    0 -0.11761526902E+04  0.59333882393E+01  0.41364205841E+03  0.12467839101E+04  0.10100000352E+00 0. -1.
       -3    1    3    3    0  502  0.11761526902E+04 -0.59333882393E+01 -0.77180714256E+02  0.11786972591E+04  0.10100000352E+00 0.  1.
</event>
<event>
 5   0  0.2087882E-05  0.2382923E+04  0.7818609E-02  0.8445925E-01
        2   -1    0    0  501    0  0.00000000000E+00  0.00000000000E+00  0.22294899994E+04  0.22294899994E+04  0.25500000920E-02 0. -1.
       -2   -1    0    0    0  501  0.00000000000E+00  0.00000000000E+00 -0.63672893295E+03  0.63672893295E+03  0.25500000920E-02 0.  1.
    10030    2    1    2    0    0  0.00000000000E+00  0.00000000000E+00  0.15927610665E+04  0.28662189324E+04  0.23829232370E+04 0.  0.
        2    1    3    3  502    0  0.76976711303E+03 -0.49375916285E+03  0.17149741669E+04  0.19435729758E+04  0.25500000920E-02 0. -1.
       -2    1    3    3    0  502 -0.76976711303E+03  0.49375916285E+03 -0.12221310044E+03  0.92264595654E+03  0.25500000920E-02 0.  1.
</event>
<event>
 5   0  0.9038897E-06  0.2395638E+04  0.7818609E-02  0.8441138E-01
        1   -1    0    0  501    0  0.00000000000E+00  0.00000000000E+00  0.16963246920E+04  0.16963246920E+04  0.50400001928E-02 0. -1.
       -1   -1    0    0    0  501  0.00000000000E+00  0.00000000000E+00 -0.84581134674E+03  0.84581134675E+03  0.50400001928E-02 0.  1.
    10030    2    1    2    0    0  0.00000000000E+00  0.00000000000E+00  0.85051334526E+03  0.25421360388E+04  0.23956382634E+04 0.  0.
        1    1    3    3  502    0  0.10067882455E+04  0.26847410147E+03  0.10522077583E+04  0.14808247975E+04  0.50400001928E-02 0. -1.
       -1    1    3    3    0  502 -0.10067882455E+04 -0.26847410147E+03 -0.20169441301E+03  0.10613112412E+04  0.50400001928E-02 0.  1.
</event>
<event>
 5   0  0.2025353E-05  0.2406295E+04  0.7818609E-02  0.8437151E-01
       -2   -1    0    0    0  501  0.00000000000E+00  0.00000000000E+00  0.60355332564E+03  0.60355332564E+03  0.25500000920E-02 0. -1.
        2   -1    0    0  501    0  0.00000000000E+00  0.00000000000E+00 -0.23984019463E+04  0.23984019463E+04  0.25500000920E-02 0.  1.
    10030    2    1    2    0    0  0.00000000000E+00  0.00000000000E+00 -0.17948486207E+04  0.30019552720E+04  0.24062946378E+04 0.  0.
        4    1    3    3  502    0  0.10289855641E+03 -0.54990856968E+03 -0.22262618448E+04  0.22954805515E+04  0.12699999809E+01 0.  1.
       -4    1    3    3    0  502 -0.10289855641E+03  0.54990856968E+03  0.43141322405E+03  0.70647472050E+03  0.12699999809E+01 0. -1.
</event>
<event>
 5   0  0.2122194E-05  0.2419309E+04  0.7818609E-02  0.8432310E-01
       -2   -1    0    0    0  501  0.00000000000E+00  0.00000000000E+00  0.12474828976E+04  0.12474828976E+04  0.25500000920E-02 0. -1.
        2   -1    0    0  501    0  0.00000000000E+00  0.00000000000E+00 -0.11729733809E+04  0.11729733809E+04  0.25500000920E-02 0.  1.
    10030    2    1    2    0    0  0.00000000000E+00  0.00000000000E+00  0.74509516732E+02  0.24204562785E+04  0.24193091841E+04 0.  0.
        3    1    3    3  502    0 -0.76619475217E+03 -0.24992194095E+03  0.93976276046E+03  0.12380102709E+04  0.10100000352E+00 0. -1.
       -3    1    3    3    0  502  0.76619475217E+03  0.24992194095E+03 -0.86525324373E+03  0.11824460076E+04  0.10100000352E+00 0.  1.
</event>
<event>
 5   0  0.9083687E-06  0.2370367E+04  0.7818609E-02  0.8450682E-01
        1   -1    0    0  501    0  0.00000000000E+00  0.00000000000E+00  0.10744315372E+04  0.10744315372E+04  0.50400001928E-02 0.  1.
       -1   -1    0    0    0  501  0.00000000000E+00  0.00000000000E+00 -0.13073520289E+04  0.13073520289E+04  0.50400001928E-02 0. -1.
    10030    2    1    2    0    0  0.00000000000E+00  0.00000000000E+00 -0.23292049172E+03  0.23817835662E+04  0.23703672712E+04 0.  0.
        2    1    3    3  502    0 -0.94386392826E+03  0.74513136061E+02  0.59987503710E+03  0.11208395883E+04  0.25500000920E-02 0.  1.
       -2    1    3    3    0  502  0.94386392826E+03 -0.74513136061E+02 -0.83279552883E+03  0.12609439779E+04  0.25500000920E-02 0. -1.
</event>
<event>
 5   0  0.9038897E-06  0.2419926E+04  0.7818609E-02  0.8432081E-01
       -1   -1    0    0    0  501  0.00000000000E+00  0.00000000000E+00  0.93822023808E+03  0.93822023809E+03  0.50400001928E-02 0.  1.
        1   -1    0    0  501    0  0.00000000000E+00  0.00000000000E+00 -0.15604119787E+04  0.15604119787E+04  0.50400001928E-02 0. -1.
    10030    2    1    2    0    0  0.00000000000E+00  0.00000000000E+00 -0.62219174064E+03  0.24986322168E+04  0.24199256999E+04 0.  0.
        1    1    3    3  502    0  0.10944472986E+04  0.40646156671E+03 -0.63921158131E+03  0.13310211645E+04  0.50400001928E-02 0. -1.
       -1    1    3    3    0  502 -0.10944472986E+04 -0.40646156671E+03  0.17019840668E+02  0.11676110524E+04  0.50400001928E-02 0.  1.
</event>
<event>
 5   0  0.2080257E-05  0.2349301E+04  0.7818609E-02  0.8458732E-01
       -2   -1    0    0    0  501  0.00000000000E+00  0.00000000000E+00  0.83705258735E+03  0.83705258735E+03  0.25500000920E-02 0.  1.
        2   -1    0    0  501    0  0.00000000000E+00  0.00000000000E+00 -0.16484071422E+04  0.16484071422E+04  0.25500000920E-02 0. -1.
    10030    2    1    2    0    0  0.00000000000E+00  0.00000000000E+00 -0.81135455483E+03  0.24854597295E+04  0.23493007158E+04 0.  0.
        1    1    3    3  502    0  0.15006882831E+03 -0.27480216541E+03 -0.16034449621E+04  0.16337296686E+04  0.50400001928E-02 0. -1.
       -1    1    3    3    0  502 -0.15006882831E+03  0.27480216541E+03  0.79209040732E+03  0.85173006095E+03  0.50400001928E-02 0.  1.
</event>
<event>
 5   0  0.8898848E-06  0.2406346E+04  0.7818609E-02  0.8437131E-01
        1   -1    0    0  501    0  0.00000000000E+00  0.00000000000E+00  0.18320560721E+04  0.18320560721E+04  0.50400001928E-02 0. -1.
       -1   -1    0    0    0  501  0.00000000000E+00  0.00000000000E+00 -0.79016441565E+03  0.79016441566E+03  0.50400001928E-02 0.  1.
    10030    2    1    2    0    0  0.00000000000E+00  0.00000000000E+00  0.10418916564E+04  0.26222204877E+04  0.24063462059E+04 0.  0.
        5    1    3    3  502    0  0.83196372567E+03 -0.17969250445E+03  0.14476164779E+04  0.16793059859E+04  0.46999998093E+01 0. -1.
       -5    1    3    3    0  502 -0.83196372567E+03  0.17969250445E+03 -0.40572482154E+03  0.94291450185E+03  0.46999998093E+01 0.  1.
</event>
<event>
 5   0  0.8528103E-06  0.2395775E+04  0.7818609E-02  0.8441087E-01
       -1   -1    0    0    0  501  0.00000000000E+00  0.00000000000E+00  0.42911577905E+03  0.42911577908E+03  0.50400001928E-02 0. -1.
        1   -1    0    0  501    0  0.00000000000E+00  0.00000000000E+00 -0.33439323526E+04  0.33439323526E+04  0.50400001928E-02 0.  1.
    10030    2    1    2    0    0  0.00000000000E+00  0.00000000000E+00 -0.29148165736E+04  0.37730481317E+04  0.23957747278E+04 0.  0.
        4    1    3    3  502    0 -0.31953915301E+02 -0.11738573818E+04 -0.10848233830E+04  0.15986887097E+04  0.12699999809E+01 0. -1.
       -4    1    3    3    0  502  0.31953915301E+02  0.11738573818E+04 -0.18299931906E+04  0.21743594220E+04  0.12699999809E+01 0.  1.
</event>
<event>
 5   0  0.2122194E-05  0.2388851E+04  0.7818609E-02  0.8443689E-01
        2   -1    0    0  501    0  0.00000000000E+00  0.00000000000E+00  0.20876132916E+04  0.20876132916E+04  0.25500000920E-02 0. -1.
       -2   -1    0    0    0  501  0.00000000000E+00  0.00000000000E+00 -0.68338898761E+03  0.68338898762E+03  0.25500000920E-02 0.  1.
    10030    2    1    2    0    0  0.00000000000E+00  0.00000000000E+00  0.14042243040E+04  0.27710022792E+04  0.23888507144E+04 0.  0.
        3    1    3    3  502    0 -0.76610608442E+02 -0.72134163340E+03 -0.39860929702E+03  0.82770303810E+03  0.10100000352E+00 0.  1.
       -3    1    3    3    0  502  0.76610608442E+02  0.72134163340E+03  0.18028336010E+04  0.19432992411E+04  0.10100000352E+00 0. -1.
</event>
<event>
 5   0  0.8528103E-06  0.2418299E+04  0.7818609E-02  0.8432684E-01
       -1   -1    0    0    0  501  0.00000000000E+00  0.00000000000E+00  0.14702754675E+04  0.14702754675E+04  0.50400001928E-02 0.  1.
        1   -1    0    0  501    0  0.00000000000E+00  0.00000000000E+00 -0.99440011015E+03  0.99440011016E+03  0.50400001928E-02 0. -1.
    10030    2    1    2    0    0  0.00000000000E+00  0.00000000000E+00  0.47587535732E+03  0.24646755776E+04  0.24182986473E+04 0.  0.
        4    1    3    3  502    0 -0.55235936840E+03  0.22270612490E+03  0.13104212134E+04  0.14394110807E+04  0.12699999809E+01 0.  1.
       -4    1    3    3    0  502  0.55235936840E+03 -0.22270612490E+03 -0.83454585604E+03  0.10252644969E+04  0.12699999809E+01 0. -1.
</event>
<event>
 5   0  0.9038897E-06  0.2397806E+04  0.7818609E-02  0.8440325E-01
       -1   -1    0    0    0  501  0.00000000000E+00  0.00000000000E+00  0.21416002676E+04  0.21416002676E+04  0.50400001928E-02 0.  1.
        1   -1    0    0  501    0  0.00000000000E+00  0.00000000000E+00 -0.67116552804E+03  0.67116552805E+03  0.50400001928E-02 0. -1.
    10030    2    1    2    0    0  0.00000000000E+00  0.00000000000E+00  0.14704347396E+04  0.28127657957E+04  0.23978058925E+04 0.  0.
        1    1    3    3  502    0  0.43248578203E+03  0.97690078301E+03  0.13734183532E+04  0.17400163978E+04  0.50400001928E-02 0.  1.
       -1    1    3    3    0  502 -0.43248578203E+03 -0.97690078301E+03  0.97016386380E+02  0.10727493979E+04  0.50400001928E-02 0. -1.
</event>
<event>
 5   0  0.9083687E-06  0.2391301E+04  0.7818609E-02  0.8442768E-01
        1   -1    0    0  501    0  0.00000000000E+00  0.00000000000E+00  0.12109367153E+04  0.12109367153E+04  0.50400001928E-02 0. -1.
       -1   -1    0    0    0  501  0.00000000000E+00  0.00000000000E+00 -0.11805569820E+04  0.11805569820E+04  0.50400001928E-02 0.  1.
    10030    2    1    2    0    0  0.00000000000E+00  0.00000000000E+00  0.30379733235E+02  0.23914936973E+04  0.23913007289E+04 0.  0.
        2    1    3    3  502    0  0.26128285798E+03 -0.28553291783E+03  0.11465556651E+04  0.12101188669E+04  0.25500000920E-02 0. -1.
       -2    1    3    3    0  502 -0.26128285798E+03  0.28553291783E+03 -0.11161759318E+04  0.11813748304E+04  0.25500000920E-02 0.  1.
</event>
<event>
 5   0  0.2080257E-05  0.2384641E+04  0.7818609E-02  0.8445276E-01
       -2   -1    0    0    0  501  0.00000000000E+00  0.00000000000E+00  0.18628951391E+04  0.18628951391E+04  0.25500000920E-02 0. -1.
        2   -1    0    0  501    0  0.00000000000E+00  0.00000000000E+00 -0.76312864170E+03  0.76312864171E+03  0.25500000920E-02 0.  1.
    10030    2    1    2    0    0  0.00000000000E+00  0.00000000000E+00  0.10997664974E+04  0.26260237808E+04  0.23846413878E+04 0.  0.
        1    1    3    3  502    0 -0.10073162790E+04  0.16486358808E+03  0.12285110446E+04  0.15972180425E+04  0.50400001928E-02 0. -1.
       -1    1    3    3    0  502  0.10073162790E+04 -0.16486358808E+03 -0.12874454721E+03  0.10288057383E+04  0.50400001928E-02 0.  1.
</event>
<event>
 5   0  0.7233625E-06  0.2399023E+04  0.7818609E-02  0.8439869E-01
        3   -1    0    0  501    0  0.00000000000E+00  0.00000000000E+00  0.10023077583E+04  0.10023077634E+04  0.10100000352E+00 0.  1.
       -3   -1    0    0    0  501  0.00000000000E+00  0.00000000000E+00 -0.14355153972E+04  0.14355154008E+04  0.10100000352E+00 0. -1.
    10030    2    1    2    0    0  0.00000000000E+00  0.00000000000E+00 -0.43320763891E+03  0.24378231641E+04  0.23990233265E+04 0.  0.
        2    1    3    3  502    0  0.57228632038E+02  0.30847220844E+02 -0.14337237620E+04  0.14351970224E+04  0.25500000920E-02 0. -1.
       -2    1    3    3    0  502 -0.57228632038E+02 -0.30847220844E+02  0.10005161231E+04  0.10026261417E+04  0.25500000920E-02 0.  1.
</event>
<event>
 5   0  0.2122194E-05  0.2399030E+04  0.7818609E-02  0.8439867E-01
       -2   -1    0    0    0  501  0.00000000000E+00  0.00000000000E+00  0.14347726620E+04  0.14347726620E+04  0.25500000920E-02 0. -1.
        2   -1    0    0  501    0  0.00000000000E+00  0.00000000000E+00 -0.10028318371E+04  0.10028318371E+04  0.25500000920E-02 0.  1.
    10030    2    1    2    0    0  0.00000000000E+00  0.00000000000E+00  0.43194082495E+03  0.24376044991E+04  0.23990295575E+04 0.  0.
        3    1    3    3  502    0 -0.15432929588E+03  0.81451106488E+03 -0.66491234312E+03  0.10627107982E+04  0.10100000352E+00 0.  1.
       -3    1    3    3    0  502  0.15432929588E+03 -0.81451106488E+03  0.10968531681E+04  0.13748937009E+04  0.10100000352E+00 0. -1.
</event>
<event>
 5   0  0.2087882E-05  0.2404037E+04  0.7818609E-02  0.8437994E-01
       -2   -1    0    0    0  501  0.00000000000E+00  0.00000000000E+00  0.99707903653E+03  0.99707903654E+03  0.25500000920E-02 0.  1.
        2   -1    0    0  501    0  0.00000000000E+00  0.00000000000E+00 -0.14490811116E+04  0.14490811116E+04  0.25500000920E-02 0. -1.
    10030    2    1    2    0    0  0.00000000000E+00  0.00000000000E+00 -0.45200207510E+03  0.24461601482E+04  0.24040369370E+04 0.  0.
        2    1    3    3  502    0 -0.55933407039E+03 -0.83654887007E+03 -0.89492380003E+03  0.13466837870E+04  0.25500000920E-02 0. -1.
       -2    1    3    3    0  502  0.55933407039E+03  0.83654887007E+03  0.44292172493E+03  0.10994763612E+04  0.25500000920E-02 0.  1.
</event>
<event>
 5   0  0.2025353E-05  0.2397779E+04  0.7818609E-02  0.8440335E-01
        2   -1    0    0  501    0  0.00000000000E+00  0.00000000000E+00  0.21082433807E+04  0.21082433807E+04  0.25500000920E-02 0.  1.
       -2   -1    0    0    0  501  0.00000000000E+00  0.00000000000E+00 -0.68176974099E+03  0.68176974099E+03  0.25500000920E-02 0. -1.
    10030    2    1    2    0    0  0.00000000000E+00  0.00000000000E+00  0.14264736397E+04  0.27900131217E+04  0.23977794257E+04 0.  0.
        4    1    3    3  502    0  0.77039195441E+03  0.49498044066E+03  0.16136610442E+04  0.18553740805E+04  0.12699999809E+01 0.  1.
       -4    1    3    3    0  502 -0.77039195441E+03 -0.49498044066E+03 -0.18718740450E+03  0.93463904121E+03  0.12699999809E+01 0. -1.
</event>
<event>
 5   0  0.2122194E-05  0.2395931E+04  0.7818609E-02  0.8441028E-01
       -2   -1    0    0    0  501  0.00000000000E+00  0.00000000000E+00  0.10646756579E+04  0.10646756579E+04  0.25500000920E-02 0. -1.
        2   -1    0    0  501    0  0.00000000000E+00  0.00000000000E+00 -0.13479423516E+04  0.13479423516E+04  0.25500000920E-02 0.  1.
    10030    2    1    2    0    0  0.00000000000E+00  0.00000000000E+00 -0.28326669365E+03  0.24126180095E+04  0.23959310592E+04 0.  0.
        3    1    3    3  502    0  0.61086286792E+03 -0.53423696413E+03 -0.10289965733E+04  0.13104947674E+04  0.10100000352E+00 0.  1.
       -3    1    3    3    0  502 -0.61086286792E+03  0.53423696413E+03  0.74572987967E+03  0.11021232421E+04  0.10100000352E+00 0. -1.
</event>
<event>
 5   0  0.9038897E-06  0.2400558E+04  0.7818609E-02  0.8439295E-01
        1   -1    0    0  501    0  0.00000000000E+00  0.00000000000E+00  0.23746952108E+04  0.23746952108E+04  0.50400001928E-02 0.  1.
       -1   -1    0    0    0  501  0.00000000000E+00  0.00000000000E+00 -0.60667567706E+03  0.60667567708E+03  0.50400001928E-02 0. -1.
    10030    2    1    2    0    0  0.00000000000E+00  0.00000000000E+00  0.17680195337E+04  0.29813708879E+04  0.24005581225E+04 0.  0.
        1    1    3    3  502    0  0.30831202944E+03  0.10889660098E+04  0.13804268348E+04  0.17850718541E+04  0.50400001928E-02 0.  1.
       -1    1    3    3    0  502 -0.30831202944E+03 -0.10889660098E+04  0.38759269898E+03  0.11962990338E+04  0.50400001928E-02 0. -1.
</event>
<event>
 5   0  0.7233625E-06  0.2384737E+04  0.7818609E-02  0.8445240E-01
        3   -1    0    0  501    0  0.00000000000E+00  0.00000000000E+00  0.12724495398E+04  0.12724495438E+04  0.10100000352E+00 0.  1.
       -3   -1    0    0    0  501  0.00000000000E+00  0.00000000000E+00 -0.11173274077E+04  0.11173274122E+04  0.10100000352E+00 0. -1.
    10030    2    1    2    0    0  0.00000000000E+00  0.00000000000E+00  0.15512213211E+03  0.23897769560E+04  0.23847370974E+04 0.  0.
        2    1    3    3  502    0  0.51377091169E+03  0.81924157104E+03  0.77662077608E+03  0.12402649440E+04  0.25500000920E-02 0.  1.
       -2    1    3    3    0  502 -0.51377091169E+03 -0.81924157104E+03 -0.62149864398E+03  0.11495120121E+04  0.25500000920E-02 0. -1.
</event>
<event>
 5   0  0.7233625E-06  0.2330885E+04  0.7818609E-02  0.8465842E-01
        3   -1    0    0  501    0  0.00000000000E+00  0.00000000000E+00  0.16837750989E+04  0.16837751020E+04  0.10100000352E+00 0. -1.
       -3   -1    0    0    0  501  0.00000000000E+00  0.00000000000E+00 -0.80667301944E+03  0.80667302576E+03  0.10100000352E+00 0.  1.
    10030    2    1    2    0    0  0.00000000000E+00  0.00000000000E+00  0.87710207950E+03  0.24904481277E+04  0.23308847717E+04 0.  0.
        3    1    3    3  502    0 -0.32985191129E+03 -0.27537131729E+03  0.15960516862E+04  0.16528801049E+04  0.10100000352E+00 0. -1.
       -3    1    3    3    0  502  0.32985191129E+03  0.27537131729E+03 -0.71894960671E+03  0.83756802288E+03  0.10100000352E+00 0.  1.
</event>
<event>
 5   0  0.2025353E-05  0.2434421E+04  0.7818609E-02  0.8426728E-01
       -2   -1    0    0    0  501  0.00000000000E+00  0.00000000000E+00  0.16203690031E+04  0.16203690031E+04  0.25500000920E-02 0.  1.
        2   -1    0    0  501    0  0.00000000000E+00  0.00000000000E+00 -0.91436026424E+03  0.91436026424E+03  0.25500000920E-02 0. -1.
    10030    2    1    2    0    0  0.00000000000E+00  0.00000000000E+00  0.70600873882E+03  0.25347292673E+04  0.24344206948E+04 0.  0.
        4    1    3    3  502    0  0.47658091987E+03 -0.52331397450E+02 -0.81190337756E+03  0.94289800919E+03  0.12699999809E+01 0. -1.
       -4    1    3    3    0  502 -0.47658091987E+03  0.52331397450E+02  0.15179121164E+04  0.15918312581E+04  0.12699999809E+01 0.  1.
</event>
<event>
 5   0  0.2087882E-05  0.2405332E+04  0.7818609E-02  0.8437510E-01
        2   -1    0    0  501    0  0.00000000000E+00  0.00000000000E+00  0.98594549644E+03  0.98594549645E+03  0.25500000920E-02 0. -1.
       -2   -1    0    0    0  501  0.00000000000E+00  0.00000000000E+00 -0.14670235158E+04  0.14670235158E+04  0.25500000920E-02 0.  1.
    10030    2    1    2    0    0  0.00000000000E+00  0.00000000000E+00 -0.48107801936E+03  0.24529690123E+04  0.24053317680E+04 0.  0.
        2    1    3    3  502    0  0.36318438876E+03  0.25326500268E+03  0.89980127249E+03  0.10028401626E+04  0.25500000920E-02 0. -1.
       -2    1    3    3    0  502 -0.36318438876E+03 -0.25326500268E+03 -0.13808792919E+04  0.14501288496E+04  0.25500000920E-02 0.  1.
</event>
<event>
 5   0  0.9083687E-06  0.2379840E+04  0.7818609E-02  0.8447090E-01
        1   -1    0    0  501    0  0.00000000000E+00  0.00000000000E+00  0.23893274632E+04  0.23893274632E+04  0.50400001928E-02 0.  1.
       -1   -1    0    0    0  501  0.00000000000E+00  0.00000000000E+00 -0.59259776280E+03  0.59259776283E+03  0.50400001928E-02 0. -1.
    10030    2    1    2    0    0  0.00000000000E+00  0.00000000000E+00  0.17967297004E+04  0.29819252260E+04  0.23798404227E+04 0.  0.
        2    1    3    3  502    0 -0.63397919732E+03  0.46979545087E+03  0.20143545137E+04  0.21633912025E+04  0.25500000920E-02 0.  1.
       -2    1    3    3    0  502  0.63397919732E+03 -0.46979545087E+03 -0.21762481329E+03  0.81853402352E+03  0.25500000920E-02 0. -1.
</event>
<event>
 5   0  0.7233625E-06  0.2413351E+04  0.7818609E-02  0.8434522E-01
       -4   -1    0    0    0  501  0.00000000000E+00  0.00000000000E+00  0.82328589729E+03  0.82328687684E+03  0.12699999809E+01 0. -1.
        4   -1    0    0  501    0  0.00000000000E+00  0.00000000000E+00 -0.17686006832E+04  0.17686011392E+04  0.12699999809E+01 0.  1.
    10030    2    1    2    0    0  0.00000000000E+00  0.00000000000E+00 -0.94531478593E+03  0.25918880160E+04  0.24133510816E+04 0.  0.
        1    1    3    3  502    0  0.78191074829E+02  0.87941750947E+03  0.41073630874E+03  0.97375218381E+03  0.50400001928E-02 0. -1.
       -1    1    3    3    0  502 -0.78191074829E+02 -0.87941750947E+03 -0.13560510947E+04  0.16181358322E+04  0.50400001928E-02 0.  1.
</event>
<event>
 5   0  0.2080257E-05  0.2399488E+04  0.7818609E-02  0.8439695E-01
       -2   -1    0    0    0  501  0.00000000000E+00  0.00000000000E+00  0.65257940229E+03  0.65257940229E+03  0.25500000920E-02 0.  1.
        2   -1    0    0  501    0  0.00000000000E+00  0.00000000000E+00 -0.22056873685E+04  0.22056873685E+04  0.25500000920E-02 0. -1.
    10030    2    1    2    0    0  0.00000000000E+00  0.00000000000E+00 -0.15531079662E+04  0.28582667708E+04  0.23994883993E+04 0.  0.
        1    1    3    3  502    0 -0.30691897436E+03  0.76157527986E+03  0.26544847437E+03  0.86293629909E+03  0.50400001928E-02 0.  1.
       -1    1    3    3    0  502  0.30691897436E+03 -0.76157527986E+03 -0.18185564406E+04  0.19953304717E+04  0.50400001928E-02 0. -1.
</event>
<event>
 5   0  0.8528103E-06  0.2394350E+04  0.7818609E-02  0.8441622E-01
        1   -1    0    0  501    0  0.00000000000E+00  0.00000000000E+00  0.14642300648E+04  0.14642300648E+04  0.50400001928E-02 0.  1.
       -1   -1    0    0    0  501  0.00000000000E+00  0.00000000000E+00 -0.97882673181E+03  0.97882673182E+03  0.50400001928E-02 0. -1.
    10030    2    1    2    0    0  0.00000000000E+00  0.00000000000E+00  0.48540333296E+03  0.24430567966E+04  0.23943496227E+04 0.  0.
        4    1    3    3  502    0  0.64051102363E+03  0.15906076466E+03 -0.77645211197E+03  0.10190359137E+04  0.12699999809E+01 0. -1.
       -4    1    3    3    0  502 -0.64051102363E+03 -0.15906076466E+03  0.12618554449E+04  0.14240208829E+04  0.12699999809E+01 0.  1.
</event>
<event>
 5   0  0.8898848E-06  0.2334775E+04  0.7818609E-02  0.8464335E-01
        1   -1    0    0  501    0  0.00000000000E+00  0.00000000000E+00  0.80211020751E+03  0.80211020753E+03  0.50400001928E-02 0.  1.
       -1   -1    0    0    0  501  0.00000000000E+00  0.00000000000E+00 -0.16990099416E+04  0.16990099416E+04  0.50400001928E-02 0. -1.
    10030    2    1    2    0    0  0.00000000000E+00  0.00000000000E+00 -0.89689973406E+03  0.25011201491E+04  0.23347746931E+04 0.  0.
        5    1    3    3  502    0 -0.35086593900E+03  0.29974494013E+02  0.74384636690E+03  0.82300357532E+03  0.46999998093E+01 0.  1.
       -5    1    3    3    0  502  0.35086593900E+03 -0.29974494013E+02 -0.16407461010E+04  0.16781165738E+04  0.46999998093E+01 0. -1.
</event>
<event>
 5   0  0.9038897E-06  0.2404459E+04  0.7818609E-02  0.8437836E-01
       -1   -1    0    0    0  501  0.00000000000E+00  0.00000000000E+00  0.13353148127E+04  0.13353148127E+04  0.50400001928E-02 0. -1.
        1   -1    0    0  501    0  0.00000000000E+00  0.00000000000E+00 -0.10824080992E+04  0.10824080992E+04  0.50400001928E-02 0.  1.
    10030    2    1    2    0    0  0.00000000000E+00  0.00000000000E+00  0.25290671355E+03  0.24177229119E+04  0.24044588316E+04 0.  0.
        1    1    3    3  502    0  0.15015715357E+03 -0.89883584567E+03 -0.66202961193E+03  0.11263819314E+04  0.50400001928E-02 0.  1.
       -1    1    3    3    0  502 -0.15015715357E+03  0.89883584567E+03  0.91493632548E+03  0.12913409805E+04  0.50400001928E-02 0. -1.
</event>
<event>
 5   0  0.9176817E-06  0.2377234E+04  0.7818609E-02  0.8448076E-01
       -1   -1    0    0    0  501  0.00000000000E+00  0.00000000000E+00  0.84762931498E+03  0.84762931499E+03  0.50400001928E-02 0. -1.
        1   -1    0    0  501    0  0.00000000000E+00  0.00000000000E+00 -0.16667783494E+04  0.16667783494E+04  0.50400001928E-02 0.  1.
    10030    2    1    2    0    0  0.00000000000E+00  0.00000000000E+00 -0.81914903444E+03  0.25144076644E+04  0.23772338468E+04 0.  0.
        3    1    3    3  502    0 -0.90402136913E+03 -0.62018754585E+01  0.40665237283E+03  0.99129171369E+03  0.10100000352E+00 0. -1.
       -3    1    3    3    0  502  0.90402136913E+03  0.62018754585E+01 -0.12258014073E+04  0.15231159507E+04  0.10100000352E+00 0.  1.
</event>
<event>
 5   0  0.2080257E-05  0.2382133E+04  0.7818609E-02  0.8446223E-01
       -2   -1    0    0    0  501  0.00000000000E+00  0.00000000000E+00  0.10806592385E+04  0.10806592385E+04  0.25500000920E-02 0. -1.
        2   -1    0    0  501    0  0.00000000000E+00  0.00000000000E+00 -0.13127541765E+04  0.13127541765E+04  0.25500000920E-02 0.  1.
    10030    2    1    2    0    0  0.00000000000E+00  0.00000000000E+00 -0.23209493804E+03  0.23934134150E+04  0.23821334377E+04 0.  0.
        1    1    3    3  502    0 -0.19780823512E+03  0.32317817849E+03 -0.12505834064E+04  0.13067253305E+04  0.50400001928E-02 0.  1.
       -1    1    3    3    0  502  0.19780823512E+03 -0.32317817849E+03  0.10184884683E+04  0.10866880846E+04  0.50400001928E-02 0. -1.
</event>
<event>
 5   0  0.2080257E-05  0.2426582E+04  0.7818609E-02  0.8429618E-01
        2   -1    0    0  501    0  0.00000000000E+00  0.00000000000E+00  0.17684773618E+04  0.17684773618E+04  0.25500000920E-02 0. -1.
       -2   -1    0    0    0  501  0.00000000000E+00  0.00000000000E+00 -0.83239714023E+03  0.83239714023E+03  0.25500000920E-02 0.  1.
    10030    2    1    2    0    0  0.00000000000E+00  0.00000000000E+00  0.93608022152E+03  0.26008745020E+04  0.24265823691E+04 0.  0.
        1    1    3    3  502    0  0.46749771791E+03  0.80584827064E+03 -0.36504532372E+03  0.10006016390E+04  0.50400001928E-02 0.  1.
       -1    1    3    3    0  502 -0.46749771791E+03 -0.80584827064E+03  0.13011255452E+04  0.16002728630E+04  0.50400001928E-02 0. -1.
</event>
<event>
 5   0  0.7233625E-06  0.2403046E+04  0.7818609E-02  0.8438364E-01
        3   -1    0    0  501    0  0.00000000000E+00  0.00000000000E+00  0.13767244176E+04  0.13767244213E+04  0.10100000352E+00 0. -1.
       -3   -1    0    0    0  501  0.00000000000E+00  0.00000000000E+00 -0.10486173802E+04  0.10486173851E+04  0.10100000352E+00 0.  1.
    10030    2    1    2    0    0  0.00000000000E+00  0.00000000000E+00  0.32810703739E+03  0.24253418063E+04  0.24030457028E+04 0.  0.
        4    1    3    3  502    0  0.10975950788E+04  0.28321952537E+03  0.56615597586E+03  0.12670684506E+04  0.12699999809E+01 0. -1.
       -4    1    3    3    0  502 -0.10975950788E+04 -0.28321952537E+03 -0.23804893847E+03  0.11582733557E+04  0.12699999809E+01 0.  1.
</event>
<event>
 5   0  0.2025353E-05  0.2417002E+04  0.7818609E-02  0.8433166E-01
        2   -1    0    0  501    0  0.00000000000E+00  0.00000000000E+00  0.17751534542E+04  0.17751534542E+04  0.25500000920E-02 0.  1.
       -2   -1    0    0    0  501  0.00000000000E+00  0.00000000000E+00 -0.82273136709E+03  0.82273136710E+03  0.25500000920E-02 0. -1.
    10030    2    1    2    0    0  0.00000000000E+00  0.00000000000E+00  0.95242208708E+03  0.25978848213E+04  0.24170018024E+04 0.  0.
        4    1    3    3  502    0  0.72731775568E+03  0.67709888066E+03 -0.26302327530E+03  0.10279284353E+04  0.12699999809E+01 0. -1.
       -4    1    3    3    0  502 -0.72731775568E+03 -0.67709888066E+03  0.12154453624E+04  0.15699563859E+04  0.12699999809E+01 0.  1.
</event>
<event>
 5   0  0.9083687E-06  0.2402015E+04  0.7818609E-02  0.8438749E-01
        1   -1    0    0  501    0  0.00000000000E+00  0.00000000000E+00  0.14484274035E+04  0.14484274035E+04  0.50400001928E-02 0. -1.
       -1   -1    0    0    0  501  0.00000000000E+00  0.00000000000E+00 -0.99585199185E+03  0.99585199187E+03  0.50400001928E-02 0.  1.
    10030    2    1    2    0    0  0.00000000000E+00  0.00000000000E+00  0.45257541167E+03  0.24442793954E+04  0.24020152496E+04 0.  0.
        2    1    3    3  502    0  0.55364413591E+03 -0.35006040157E+03 -0.79808013788E+03  0.10324708327E+04  0.25500000920E-02 0.  1.
       -2    1    3    3    0  502 -0.55364413591E+03  0.35006040157E+03  0.12506555495E+04  0.14118085627E+04  0.25500000920E-02 0. -1.
</event>
<event>
 5   0  0.2048028E-05  0.2381904E+04  0.7818609E-02  0.8446310E-01
       -2   -1    0    0    0  501  0.00000000000E+00  0.00000000000E+00  0.81224347842E+03  0.81224347842E+03  0.25500000920E-02 0.  1.
        2   -1    0    0  501    0  0.00000000000E+00  0.00000000000E+00 -0.17462336952E+04  0.17462336952E+04  0.25500000920E-02 0. -1.
    10030    2    1    2    0    0  0.00000000000E+00  0.00000000000E+00 -0.93399021682E+03  0.25584771737E+04  0.23819042221E+04 0.  0.
        5    1    3    3  502    0  0.76767616516E+03  0.87329168186E+03 -0.19025304687E+03  0.11782119368E+04  0.46999998093E+01 0. -1.
       -5    1    3    3    0  502 -0.76767616516E+03 -0.87329168186E+03 -0.74373716995E+03  0.13802652369E+04  0.46999998093E+01 0.  1.
</event>
<event>
 5   0  0.2048028E-05  0.2379982E+04  0.7818609E-02  0.8447036E-01
       -2   -1    0    0    0  501  0.00000000000E+00  0.00000000000E+00  0.74594856370E+03  0.74594856370E+03  0.25500000920E-02 0. -1.
        2   -1    0    0  501    0  0.00000000000E+00  0.00000000000E+00 -0.18983588571E+04  0.18983588571E+04  0.25500000920E-02 0.  1.
    10030    2    1    2    0    0  0.00000000000E+00  0.00000000000E+00 -0.11524102934E+04  0.26443074208E+04  0.23799815654E+04 0.  0.
        5    1    3    3  502    0  0.11036241234E+04 -0.42344923469E+03 -0.72838624111E+03  0.13884754468E+04  0.46999998093E+01 0.  1.
       -5    1    3    3    0  502 -0.11036241234E+04  0.42344923469E+03 -0.42402405231E+03  0.12558319740E+04  0.46999998093E+01 0. -1.
</event>
<event>
 5   0  0.2122194E-05  0.2404035E+04  0.7818609E-02  0.8437994E-01
       -2   -1    0    0    0  501  0.00000000000E+00  0.00000000000E+00  0.86811331017E+03  0.86811331017E+03  0.25500000920E-02 0. -1.
        2   -1    0    0  501    0  0.00000000000E+00  0.00000000000E+00 -0.16643522779E+04  0.16643522779E+04  0.25500000920E-02 0.  1.
    10030    2    1    2    0    0  0.00000000000E+00  0.00000000000E+00 -0.79623896774E+03  0.25324655881E+04  0.24040352454E+04 0.  0.
        3    1    3    3  502    0  0.17262800302E+03 -0.11748412514E+04 -0.59461591322E+03  0.13280137378E+04  0.10100000352E+00 0. -1.
       -3    1    3    3    0  502 -0.17262800302E+03  0.11748412514E+04 -0.20162305452E+03  0.12044518503E+04  0.10100000352E+00 0.  1.
</event>
<event>
 5   0  0.2048028E-05  0.2424660E+04  0.7818609E-02  0.8430329E-01
       -2   -1    0    0    0  501  0.00000000000E+00  0.00000000000E+00  0.11375419348E+04  0.11375419348E+04  0.25500000920E-02 0. -1.
        2   -1    0    0  501    0  0.00000000000E+00  0.00000000000E+00 -0.12920350324E+04  0.12920350324E+04  0.25500000920E-02 0.  1.
    10030    2    1    2    0    0  0.00000000000E+00  0.00000000000E+00 -0.15449309760E+03  0.24295769672E+04  0.24246600014E+04 0.  0.
        5    1    3    3  502    0  0.17901958429E+03 -0.63831171965E+03  0.93981526234E+03  0.11501150726E+04  0.46999998093E+01 0. -1.
       -5    1    3    3    0  502 -0.17901958429E+03  0.63831171965E+03 -0.10943083599E+04  0.12794618946E+04  0.46999998093E+01 0.  1.
</event>
<event>
 5   0  0.2087882E-05  0.2397173E+04  0.7818609E-02  0.8440563E-01
       -2   -1    0    0    0  501  0.00000000000E+00  0.00000000000E+00  0.14203991000E+04  0.14203991000E+04  0.25500000920E-02 0. -1.
        2   -1    0    0  501    0  0.00000000000E+00  0.00000000000E+00 -0.10114123256E+04  0.10114123256E+04  0.25500000920E-02 0.  1.
    10030    2    1    2    0    0  0.00000000000E+00  0.00000000000E+00  0.40898677447E+03  0.24318114256E+04  0.23971726321E+04 0.  0.
        2    1    3    3  502    0  0.48407993963E+02  0.60125387642E+03  0.12552007812E+04  0.13926157255E+04  0.25500000920E-02 0. -1.
       -2    1    3    3    0  502 -0.48407993963E+02 -0.60125387642E+03 -0.84621400675E+03  0.10391957001E+04  0.25500000920E-02 0.  1.
</event>
<event>
 5   0  0.2048028E-05  0.2413531E+04  0.7818609E-02  0.8434455E-01
        2   -1    0    0  501    0  0.00000000000E+00  0.00000000000E+00  0.13166788629E+04  0.13166788629E+04  0.25500000920E-02 0. -1.
       -2   -1    0    0    0  501  0.00000000000E+00  0.00000000000E+00 -0.11060276466E+04  0.11060276466E+04  0.25500000920E-02 0.  1.
    10030    2    1    2    0    0  0.00000000000E+00  0.00000000000E+00  0.21065121636E+03  0.24227065095E+04  0.24135312089E+04 0.  0.
        5    1    3    3  502    0 -0.22886913709E+03 -0.76860240884E+03  0.10104910889E+04  0.12900562296E+04  0.46999998093E+01 0.  1.
       -5    1    3    3    0  502  0.22886913709E+03  0.76860240884E+03 -0.79983987256E+03  0.11326502799E+04  0.46999998093E+01 0. -1.
</event>
<event>
 5   0  0.2087882E-05  0.2405032E+04  0.7818609E-02  0.8437622E-01
        2   -1    0    0  501    0  0.00000000000E+00  0.00000000000E+00  0.16714142915E+04  0.16714142915E+04  0.25500000920E-02 0. -1.
       -2   -1    0    0    0  501  0.00000000000E+00  0.00000000000E+00 -0.86516270361E+03  0.86516270361E+03  0.25500000920E-02 0.  1.
    10030    2    1    2    0    0  0.00000000000E+00  0.00000000000E+00  0.80625158788E+03  0.25365769951E+04  0.24050324798E+04 0.  0.
        2    1    3    3  502    0 -0.20930648397E+03  0.72077958396E+03 -0.58779020145E+03  0.95332561794E+03  0.25500000920E-02 0.  1.
       -2    1    3    3    0  502  0.20930648397E+03 -0.72077958396E+03  0.13940417893E+04  0.15832513772E+04  0.25500000920E-02 0. -1.
</event>
<event>
 5   0  0.2025353E-05  0.2411377E+04  0.7818609E-02  0.8435256E-01
       -2   -1    0    0    0  501  0.00000000000E+00  0.00000000000E+00  0.62087321326E+03  0.62087321326E+03  0.25500000920E-02 0.  1.
        2   -1    0    0  501    0  0.00000000000E+00  0.00000000000E+00 -0.23413557858E+04  0.23413557858E+04  0.25500000920E-02 0. -1.
    10030    2    1    2    0    0  0.00000000000E+00  0.00000000000E+00 -0.17204825726E+04  0.29622289991E+04  0.24113772746E+04 0.  0.
        4    1    3    3  502    0 -0.10307013115E+04  0.10668322735E+03 -0.16174588429E+04  0.19209115612E+04  0.12699999809E+01 0. -1.
       -4    1    3    3    0  502  0.10307013115E+04 -0.10668322735E+03 -0.10302372963E+03  0.10413174378E+04  0.12699999809E+01 0.  1.
</event>
<event>
 5   0  0.2080257E-05  0.2415131E+04  0.7818609E-02  0.8433860E-01
       -2   -1    0    0    0  501  0.00000000000E+00  0.00000000000E+00  0.58637365357E+03  0.58637365357E+03  0.25500000920E-02 0.  1.
        2   -1    0    0  501    0  0.00000000000E+00  0.00000000000E+00 -0.24868355684E+04  0.24868355684E+04  0.25500000920E-02 0. -1.
    10030    2    1    2    0    0  0.00000000000E+00  0.00000000000E+00 -0.19004619148E+04  0.30732092219E+04  0.24151313488E+04 0.  0.
        1    1    3    3  502    0  0.33921212017E+02  0.92478959218E+03  0.36929427474E+02  0.92614805570E+03  0.50400001928E-02 0.  1.
       -1    1    3    3    0  502 -0.33921212017E+02 -0.92478959218E+03 -0.19373913423E+04  0.21470611662E+04  0.50400001928E-02 0. -1.
</event>
<event>
 5   0  0.9038897E-06  0.2451043E+04  0.7818609E-02  0.8420637E-01
        1   -1    0    0  501    0  0.00000000000E+00  0.00000000000E+00  0.20425856466E+04  0.20425856466E+04  0.50400001928E-02 0.  1.
       -1   -1    0    0    0  501  0.00000000000E+00  0.00000000000E+00 -0.73529484653E+03  0.73529484655E+03  0.50400001928E-02 0. -1.
    10030    2    1    2    0    0  0.00000000000E+00  0.00000000000E+00  0.13072908001E+04  0.27778804932E+04  0.24510427981E+04 0.  0.
        1    1    3    3  502    0 -0.16414229696E+03 -0.29852670462E+03 -0.68055016794E+03  0.76105809117E+03  0.50400001928E-02 0. -1.
       -1    1    3    3    0  502  0.16414229696E+03  0.29852670462E+03  0.19878409680E+04  0.20168224020E+04  0.50400001928E-02 0.  1.
</event>
<event>
 5   0  0.8898848E-06  0.2380081E+04  0.7818609E-02  0.8446999E-01
       -1   -1    0    0    0  501  0.00000000000E+00  0.00000000000E+00  0.15683774175E+04  0.15683774175E+04  0.50400001928E-02 0.  1.
        1   -1    0    0  501    0  0.00000000000E+00  0.00000000000E+00 -0.90296926424E+03  0.90296926425E+03  0.50400001928E-02 0. -1.
    10030    2    1    2    0    0  0.00000000000E+00  0.00000000000E+00  0.66540815327E+03  0.24713466818E+04  0.23800811774E+04 0.  0.
        5    1    3    3  502    0 -0.10968669046E+04  0.41266963988E+02  0.81006591542E+03  0.13642026411E+04  0.46999998093E+01 0. -1.
       -5    1    3    3    0  502  0.10968669046E+04 -0.41266963988E+02 -0.14465776215E+03  0.11071440407E+04  0.46999998093E+01 0.  1.
</event>
<event>
 5   0  0.9083687E-06  0.2395964E+04  0.7818609E-02  0.8441016E-01
       -1   -1    0    0    0  501  0.00000000000E+00  0.00000000000E+00  0.56244854420E+03  0.56244854422E+03  0.50400001928E-02 0. -1.
        1   -1    0    0  501    0  0.00000000000E+00  0.00000000000E+00 -0.25516302625E+04  0.25516302625E+04  0.50400001928E-02 0.  1.
    10030    2    1    2    0    0  0.00000000000E+00  0.00000000000E+00 -0.19891817183E+04  0.31140788068E+04  0.23959638783E+04 0.  0.
        2    1    3    3  502    0  0.33543054903E+03  0.43135755881E+03  0.39104432884E+03  0.67193650287E+03  0.25500000920E-02 0. -1.
       -2    1    3    3    0  502 -0.33543054903E+03 -0.43135755881E+03 -0.23802260472E+04  0.24421423039E+04  0.25500000920E-02 0.  1.
</event>
<event>
 5   0  0.8898848E-06  0.2394603E+04  0.7818609E-02  0.8441527E-01
        1   -1    0    0  501    0  0.00000000000E+00  0.00000000000E+00  0.12789687931E+04  0.12789687931E+04  0.50400001928E-02 0. -1.
       -1   -1    0    0    0  501  0.00000000000E+00  0.00000000000E+00 -0.11208488007E+04  0.11208488007E+04  0.50400001928E-02 0.  1.
    10030    2    1    2    0    0  0.00000000000E+00  0.00000000000E+00  0.15811999245E+03  0.23998175938E+04  0.23946027962E+04 0.  0.
        5    1    3    3  502    0 -0.88166459909E+03 -0.75310003064E+03  0.37806594270E+03  0.12196098017E+04  0.46999998093E+01 0. -1.
       -5    1    3    3    0  502  0.88166459909E+03  0.75310003064E+03 -0.21994595025E+03  0.11802077921E+04  0.46999998093E+01 0.  1.
</event>
<event>
 5   0  0.2080257E-05  0.2405096E+04  0.7818609E-02  0.8437598E-01
        2   -1    0    0  501    0  0.00000000000E+00  0.00000000000E+00  0.15383264993E+04  0.15383264993E+04  0.25500000920E-02 0.  1.
       -2   -1    0    0    0  501  0.00000000000E+00  0.00000000000E+00 -0.94006166566E+03  0.94006166566E+03  0.25500000920E-02 0. -1.
    10030    2    1    2    0    0  0.00000000000E+00  0.00000000000E+00  0.59826483360E+03  0.24783881649E+04  0.24050960656E+04 0.  0.
        1    1    3    3  502    0  0.11562211081E+04 -0.27877647082E+03  0.11607260629E+03  0.11950047789E+04  0.50400001928E-02 0. -1.
       -1    1    3    3    0  502 -0.11562211081E+04  0.27877647082E+03  0.48219222731E+03  0.12833833861E+04  0.50400001928E-02 0.  1.
</event>
<event>
 5   0  0.2025353E-05  0.2367790E+04  0.7818609E-02  0.8451662E-01
        2   -1    0    0  501    0  0.00000000000E+00  0.00000000000E+00  0.74582337943E+03  0.74582337943E+03  0.25500000920E-02 0. -1.
       -2   -1    0    0    0  501  0.00000000000E+00  0.00000000000E+00 -0.18792754079E+04  0.18792754079E+04  0.25500000920E-02 0.  1.
    10030    2    1    2    0    0  0.00000000000E+00  0.00000000000E+00 -0.11334520285E+04  0.26250987873E+04  0.23677901390E+04 0.  0.
        4    1    3    3  502    0 -0.99565444716E+03  0.53336290068E+03 -0.17349614937E+03  0.11427625688E+04  0.12699999809E+01 0.  1.
       -4    1    3    3    0  502  0.99565444716E+03 -0.53336290068E+03 -0.95995587909E+03  0.14823362185E+04  0.12699999809E+01 0. -1.
</event>
<event>
 5   0  0.8528103E-06  0.2400669E+04  0.7818609E-02  0.8439253E-01
        1   -1    0    0  501    0  0.00000000000E+00  0.00000000000E+00  0.17756980744E+04  0.17756980744E+04  0.50400001928E-02 0.  1.
       -1   -1    0    0    0  501  0.00000000000E+00  0.00000000000E+00 -0.81140090324E+03  0.81140090325E+03  0.50400001928E-02 0. -1.
    10030    2    1    2    0    0  0.00000000000E+00  0.00000000000E+00  0.96429717116E+03  0.25870989777E+04  0.24006690913E+04 0.  0.
        4    1    3    3  502    0  0.52526476248E+03  0.27835562714E+03 -0.64162468811E+03  0.87468210177E+03  0.12699999809E+01 0. -1.
       -4    1    3    3    0  502 -0.52526476248E+03 -0.27835562714E+03  0.16059218593E+04  0.17124168759E+04  0.12699999809E+01 0.  1.
</event>
<event>
 5   0  0.9083687E-06  0.2367621E+04  0.7818609E-02  0.8451726E-01
        1   -1    0    0  501    0  0.00000000000E+00  0.00000000000E+00  0.22274149541E+04  0.22274149541E+04  0.50400001928E-02 0.  1.
       -1   -1    0    0    0  501  0.00000000000E+00  0.00000000000E+00 -0.62916308687E+03  0.62916308689E+03  0.50400001928E-02 0. -1.
    10030    2    1    2    0    0  0.00000000000E+00  0.00000000000E+00  0.15982518672E+04  0.28565780410E+04  0.23676209733E+04 0.  0.
        2    1    3    3  502    0 -0.80976087309E+03 -0.26129284384E+03  0.17921576723E+04  0.19838890453E+04  0.25500000920E-02 0.  1.
       -2    1    3    3    0  502  0.80976087309E+03  0.26129284384E+03 -0.19390580511E+03  0.87268899563E+03  0.25500000920E-02 0. -1.
</event>
<event>
 5   0  0.9083687E-06  0.2401148E+04  0.7818609E-02  0.8439074E-01
       -1   -1    0    0    0  501  0.00000000000E+00  0.00000000000E+00  0.73251252229E+03  0.73251252231E+03  0.50400001928E-02 0.  1.
        1   -1    0    0  501    0  0.00000000000E+00  0.00000000000E+00 -0.19677175650E+04  0.19677175650E+04  0.50400001928E-02 0. -1.
    10030    2    1    2    0    0  0.00000000000E+00  0.00000000000E+00 -0.12352050427E+04  0.27002300873E+04  0.24011478561E+04 0.  0.
        2    1    3    3  502    0  0.91262543083E+03 -0.77923298587E+03 -0.57723521975E+03  0.13316492489E+04  0.25500000920E-02 0.  1.
       -2    1    3    3    0  502 -0.91262543083E+03  0.77923298587E+03 -0.65796982294E+03  0.13685808384E+04  0.25500000920E-02 0. -1.
</event>
<event>
 5   0  0.2087882E-05  0.2250507E+04  0.7818609E-02  0.8497695E-01
        2   -1    0    0  501    0  0.00000000000E+00  0.00000000000E+00  0.13328404528E+04  0.13328404528E+04  0.25500000920E-02 0. -1.
       -2   -1    0    0    0  501  0.00000000000E+00  0.00000000000E+00 -0.94999813469E+03  0.94999813470E+03  0.25500000920E-02 0.  1.
    10030    2    1    2    0    0  0.00000000000E+00  0.00000000000E+00  0.38284231810E+03  0.22828385875E+04  0.22505074486E+04 0.  0.
        2    1    3    3  502    0 -0.10866200185E+04  0.28353102190E+03  0.26359841891E+03  0.11535237455E+04  0.25500000920E-02 0.  1.
       -2    1    3    3    0  502  0.10866200185E+04 -0.28353102190E+03  0.11924389919E+03  0.11293148420E+04  0.25500000920E-02 0. -1.
</event>
<event>
 5   0  0.9038897E-06  0.2366551E+04  0.7818609E-02  0.8452134E-01
        1   -1    0    0  501    0  0.00000000000E+00  0.00000000000E+00  0.95757800946E+03  0.95757800947E+03  0.50400001928E-02 0. -1.
       -1   -1    0    0    0  501  0.00000000000E+00  0.00000000000E+00 -0.14621684502E+04  0.14621684502E+04  0.50400001928E-02 0.  1.
    10030    2    1    2    0    0  0.00000000000E+00  0.00000000000E+00 -0.50459044070E+03  0.24197464596E+04  0.23665505311E+04 0.  0.
        1    1    3    3  502    0 -0.70738918907E+03  0.29233107986E+03  0.67036517557E+03  0.10174705862E+04  0.50400001928E-02 0. -1.
       -1    1    3    3    0  502  0.70738918907E+03 -0.29233107986E+03 -0.11749556163E+04  0.14022758735E+04  0.50400001928E-02 0.  1.
</event>
<event>
 5   0  0.9083687E-06  0.2397495E+04  0.7818609E-02  0.8440442E-01
        1   -1    0    0  501    0  0.00000000000E+00  0.00000000000E+00  0.12023266109E+04  0.12023266109E+04  0.50400001928E-02 0.  1.
       -1   -1    0    0    0  501  0.00000000000E+00  0.00000000000E+00 -0.11951789725E+04  0.11951789725E+04  0.50400001928E-02 0. -1.
    10030    2    1    2    0    0  0.00000000000E+00  0.00000000000E+00  0.71476383865E+01  0.23975055834E+04  0.23974949289E+04 0.  0.
        2    1    3    3  502    0  0.23268919891E+03  0.58842883425E+03  0.10217152341E+04  0.12017881576E+04  0.25500000920E-02 0.  1.
       -2    1    3    3    0  502 -0.23268919891E+03 -0.58842883425E+03 -0.10145675957E+04  0.11957174258E+04  0.25500000920E-02 0. -1.
</event>
<event>
 5   0  0.9176817E-06  0.2401502E+04  0.7818609E-02  0.8438941E-01
        1   -1    0    0  501    0  0.00000000000E+00  0.00000000000E+00  0.15084132423E+04  0.15084132423E+04  0.50400001928E-02 0. -1.
       -1   -1    0    0    0  501  0.00000000000E+00  0.00000000000E+00 -0.95584083041E+03  0.95584083043E+03  0.50400001928E-02 0.  1.
    10030    2    1    2    0    0  0.00000000000E+00  0.00000000000E+00  0.55257241186E+03  0.24642540727E+04  0.24015020018E+04 0.  0.
        3    1    3    3  502    0  0.64369692829E+03 -0.20852054252E+03 -0.74158978828E+03  0.10038834476E+04  0.10100000352E+00 0.  1.
       -3    1    3    3    0  502 -0.64369692829E+03  0.20852054252E+03  0.12941622001E+04  0.14603706251E+04  0.10100000352E+00 0. -1.
</event>
<event>
 5   0  0.8528103E-06  0.2390177E+04  0.7818609E-02  0.8443190E-01
        1   -1    0    0  501    0  0.00000000000E+00  0.00000000000E+00  0.10220938017E+04  0.10220938017E+04  0.50400001928E-02 0. -1.
       -1   -1    0    0    0  501  0.00000000000E+00  0.00000000000E+00 -0.13973634641E+04  0.13973634641E+04  0.50400001928E-02 0.  1.
    10030    2    1    2    0    0  0.00000000000E+00  0.00000000000E+00 -0.37526966245E+03  0.24194572658E+04  0.23901770105E+04 0.  0.
        4    1    3    3  502    0  0.58190446445E+03  0.93700964658E+03  0.27803883246E+03  0.11375003687E+04  0.12699999809E+01 0. -1.
       -4    1    3    3    0  502 -0.58190446445E+03 -0.93700964658E+03 -0.65330849491E+03  0.12819568971E+04  0.12699999809E+01 0.  1.
</event>
<event>
 5   0  0.2025353E-05  0.2426128E+04  0.7818609E-02  0.8429786E-01
       -2   -1    0    0    0  501  0.00000000000E+00  0.00000000000E+00  0.12816942439E+04  0.12816942439E+04  0.25500000920E-02 0.  1.
        2   -1    0    0  501    0  0.00000000000E+00  0.00000000000E+00 -0.11481086379E+04  0.11481086379E+04  0.25500000920E-02 0. -1.
    10030    2    1    2    0    0  0.00000000000E+00  0.00000000000E+00  0.13358560594E+03  0.24298028818E+04  0.24261279708E+04 0.  0.
        4    1    3    3  502    0 -0.41224627208E+03  0.11390253925E+04  0.13167353705E+03  0.12184684513E+04  0.12699999809E+01 0.  1.
       -4    1    3    3    0  502  0.41224627208E+03 -0.11390253925E+04  0.19120688834E+01  0.12113344305E+04  0.12699999809E+01 0. -1.
</event>
<event>
 5   0  0.2087882E-05  0.2392359E+04  0.7818609E-02  0.8442370E-01
       -2   -1    0    0    0  501  0.00000000000E+00  0.00000000000E+00  0.77084174491E+03  0.77084174492E+03  0.25500000920E-02 0. -1.
        2   -1    0    0  501    0  0.00000000000E+00  0.00000000000E+00 -0.18562117720E+04  0.18562117720E+04  0.25500000920E-02 0.  1.
    10030    2    1    2    0    0  0.00000000000E+00  0.00000000000E+00 -0.10853700271E+04  0.26270535169E+04  0.23923591046E+04 0.  0.
        2    1    3    3  502    0 -0.60031146401E+03  0.55190600668E+03  0.41830856104E+03  0.91649121451E+03  0.25500000920E-02 0. -1.
       -2    1    3    3    0  502  0.60031146401E+03 -0.55190600668E+03 -0.15036785882E+04  0.17105623024E+04  0.25500000920E-02 0.  1.
</event>
<event>
 5   0  0.2048028E-05  0.2393261E+04  0.7818609E-02  0.8442031E-01
        2   -1    0    0  501    0  0.00000000000E+00  0.00000000000E+00  0.12888459934E+04  0.12888459934E+04  0.25500000920E-02 0. -1.
       -2   -1    0    0    0  501  0.00000000000E+00  0.00000000000E+00 -0.11110130522E+04  0.11110130522E+04  0.25500000920E-02 0.  1.
    10030    2    1    2    0    0  0.00000000000E+00  0.00000000000E+00  0.17783294117E+03  0.23998590456E+04  0.23932611399E+04 0.  0.
        5    1    3    3  502    0  0.69938285374E+03 -0.95801664484E+03  0.24737224620E+03  0.12116713193E+04  0.46999998093E+01 0. -1.
       -5    1    3    3    0  502 -0.69938285374E+03  0.95801664484E+03 -0.69539305032E+02  0.11881877263E+04  0.46999998093E+01 0.  1.
</event>
<event>
 5   0  0.2122194E-05  0.2416808E+04  0.7818609E-02  0.8433238E-01
        2   -1    0    0  501    0  0.00000000000E+00  0.00000000000E+00  0.14657483063E+04  0.14657483063E+04  0.25500000920E-02 0. -1.
       -2   -1    0    0    0  501  0.00000000000E+00  0.00000000000E+00 -0.99624200333E+03  0.99624200333E+03  0.25500000920E-02 0.  1.
    10030    2    1    2    0    0  0.00000000000E+00  0.00000000000E+00  0.46950630297E+03  0.24619903096E+04  0.24168078360E+04 0.  0.
        3    1    3    3  502    0 -0.57077445667E+03 -0.14995807023E+03  0.13089665906E+04  0.14358497306E+04  0.10100000352E+00 0. -1.
       -3    1    3    3    0  502  0.57077445667E+03  0.14995807023E+03 -0.83946028766E+03  0.10261405791E+04  0.10100000352E+00 0.  1.
</event>
<event>
 5   0  0.2080257E-05  0.2349677E+04  0.7818609E-02  0.8458588E-01
       -2   -1    0    0    0  501  0.00000000000E+00  0.00000000000E+00  0.81799892843E+03  0.81799892844E+03  0.25500000920E-02 0.  1.
        2   -1    0    0  501    0  0.00000000000E+00  0.00000000000E+00 -0.16873436627E+04  0.16873436627E+04  0.25500000920E-02 0. -1.
    10030    2    1    2    0    0  0.00000000000E+00  0.00000000000E+00 -0.86934473426E+03  0.25053425911E+04  0.23496768356E+04 0.  0.
        1    1    3    3  502    0 -0.98995800376E+03  0.62082344325E+03 -0.30492806723E+03  0.12076504971E+04  0.50400001928E-02 0.  1.
       -1    1    3    3    0  502  0.98995800376E+03 -0.62082344325E+03 -0.56441666703E+03  0.12976920940E+04  0.50400001928E-02 0. -1.
</event>
<event>
 5   0  0.9176817E-06  0.2393253E+04  0.7818609E-02  0.8442034E-01
        1   -1    0    0  501    0  0.00000000000E+00  0.00000000000E+00  0.99523660644E+03  0.99523660645E+03  0.50400001928E-02 0. -1.
       -1   -1    0    0    0  501  0.00000000000E+00  0.00000000000E+00 -0.14387684372E+04  0.14387684372E+04  0.50400001928E-02 0.  1.
    10030    2    1    2    0    0  0.00000000000E+00  0.00000000000E+00 -0.44353183072E+03  0.24340050436E+04  0.23932530304E+04 0.  0.
        3    1    3    3  502    0 -0.95573138766E+03  0.31385261114E+03  0.43733489434E+03  0.10968991599E+04  0.10100000352E+00 0. -1.
       -3    1    3    3    0  502  0.95573138766E+03 -0.31385261114E+03 -0.88086672506E+03  0.13371058838E+04  0.10100000352E+00 0.  1.
</event>
<event>
 5   0  0.9176817E-06  0.2420481E+04  0.7818609E-02  0.8431875E-01
       -1   -1    0    0    0  501  0.00000000000E+00  0.00000000000E+00  0.10308795207E+04  0.10308795207E+04  0.50400001928E-02 0. -1.
        1   -1    0    0  501    0  0.00000000000E+00  0.00000000000E+00 -0.14208081945E+04  0.14208081945E+04  0.50400001928E-02 0.  1.
    10030    2    1    2    0    0  0.00000000000E+00  0.00000000000E+00 -0.38992867382E+03  0.24516877153E+04  0.24204810023E+04 0.  0.
        3    1    3    3  502    0  0.10713857314E+04  0.45694200567E+02  0.37327366809E+03  0.11354684439E+04  0.10100000352E+00 0. -1.
       -3    1    3    3    0  502 -0.10713857314E+04 -0.45694200567E+02 -0.76320234191E+03  0.13162192714E+04  0.10100000352E+00 0.  1.
</event>
<event>
 5   0  0.2122194E-05  0.2393029E+04  0.7818609E-02  0.8442118E-01
       -2   -1    0    0    0  501  0.00000000000E+00  0.00000000000E+00  0.97995727901E+03  0.97995727901E+03  0.25500000920E-02 0.  1.
        2   -1    0    0  501    0  0.00000000000E+00  0.00000000000E+00 -0.14609282661E+04  0.14609282661E+04  0.25500000920E-02 0. -1.
    10030    2    1    2    0    0  0.00000000000E+00  0.00000000000E+00 -0.48097098705E+03  0.24408855451E+04  0.23930292839E+04 0.  0.
        3    1    3    3  502    0  0.97004974512E+03  0.21396501853E+03  0.43983857527E+03  0.10863864504E+04  0.10100000352E+00 0.  1.
       -3    1    3    3    0  502 -0.97004974512E+03 -0.21396501853E+03 -0.92080956233E+03  0.13544990947E+04  0.10100000352E+00 0. -1.
</event>
<event>
 5   0  0.8528103E-06  0.2290169E+04  0.7818609E-02  0.8481808E-01
       -1   -1    0    0    0  501  0.00000000000E+00  0.00000000000E+00  0.76961760063E+03  0.76961760064E+03  0.50400001928E-02 0. -1.
        1   -1    0    0  501    0  0.00000000000E+00  0.00000000000E+00 -0.17037266874E+04  0.17037266874E+04  0.50400001928E-02 0.  1.
    10030    2    1    2    0    0  0.00000000000E+00  0.00000000000E+00 -0.93410908677E+03  0.24733442881E+04  0.22901685923E+04 0.  0.
        4    1    3    3  502    0  0.45185238452E+03 -0.10140954280E+04 -0.76994383943E+03  0.13510644852E+04  0.12699999809E+01 0.  1.
       -4    1    3    3    0  502 -0.45185238452E+03  0.10140954280E+04 -0.16416524734E+03  0.11222798028E+04  0.12699999809E+01 0. -1.
</event>
<event>
 5   0  0.2080257E-05  0.2375219E+04  0.7818609E-02  0.8448840E-01
        2   -1    0    0  501    0  0.00000000000E+00  0.00000000000E+00  0.92553426111E+03  0.92553426111E+03  0.25500000920E-02 0.  1.
       -2   -1    0    0    0  501  0.00000000000E+00  0.00000000000E+00 -0.15238948656E+04  0.15238948656E+04  0.25500000920E-02 0. -1.
    10030    2    1    2    0    0  0.00000000000E+00  0.00000000000E+00 -0.59836060450E+03  0.24494291267E+04  0.23752194917E+04 0.  0.
        1    1    3    3  502    0  0.25624265459E+03  0.55401294328E+02  0.89532143267E+03  0.93291482423E+03  0.50400001928E-02 0.  1.
       -1    1    3    3    0  502 -0.25624265459E+03 -0.55401294328E+02 -0.14936820372E+04  0.15165143025E+04  0.50400001928E-02 0. -1.
</event>
<event>
 5   0  0.2122194E-05  0.2395595E+04  0.7818609E-02  0.8441155E-01
        2   -1    0    0  501    0  0.00000000000E+00  0.00000000000E+00  0.10496503705E+04  0.10496503705E+04  0.25500000920E-02 0.  1.
       -2   -1    0    0    0  501  0.00000000000E+00  0.00000000000E+00 -0.13668540337E+04  0.13668540337E+04  0.25500000920E-02 0. -1.
    10030    2    1    2    0    0  0.00000000000E+00  0.00000000000E+00 -0.31720366323E+03  0.24165044042E+04  0.23955949932E+04 0.  0.
        3    1    3    3  502    0 -0.85570530892E+02  0.31160082898E+03 -0.13220558526E+04  0.13609735780E+04  0.10100000352E+00 0.  1.
       -3    1    3    3    0  502  0.85570530892E+02 -0.31160082898E+03  0.10048521893E+04  0.10555308262E+04  0.10100000352E+00 0. -1.
</event>
<event>
 5   0  0.9038897E-06  0.2402156E+04  0.7818609E-02  0.8438697E-01
        1   -1    0    0  501    0  0.00000000000E+00  0.00000000000E+00  0.22957902751E+04  0.22957902751E+04  0.50400001928E-02 0.  1.
       -1   -1    0    0    0  501  0.00000000000E+00  0.00000000000E+00 -0.62836225535E+03  0.62836225537E+03  0.50400001928E-02 0. -1.
    10030    2    1    2    0    0  0.00000000000E+00  0.00000000000E+00  0.16674280197E+04  0.29241525304E+04  0.24021556611E+04 0.  0.
        1    1    3    3  502    0 -0.75413018734E+03 -0.67724400252E+03  0.49316856895E+02  0.10147925556E+04  0.50400001928E-02 0. -1.
       -1    1    3    3    0  502  0.75413018734E+03  0.67724400252E+03  0.16181111628E+04  0.19093599749E+04  0.50400001928E-02 0.  1.
</event>
<event>
 5   0  0.2122194E-05  0.2374427E+04  0.7818609E-02  0.8449140E-01
        2   -1    0    0  501    0  0.00000000000E+00  0.00000000000E+00  0.15197342039E+04  0.15197342039E+04  0.25500000920E-02 0.  1.
       -2   -1    0    0    0  501  0.00000000000E+00  0.00000000000E+00 -0.92744871510E+03  0.92744871511E+03  0.25500000920E-02 0. -1.
    10030    2    1    2    0    0  0.00000000000E+00  0.00000000000E+00  0.59228548875E+03  0.24471829190E+04  0.23744266968E+04 0.  0.
        3    1    3    3  502    0  0.11066069195E+04  0.37545616969E+03  0.80127261021E+02  0.11713097787E+04  0.10100000352E+00 0.  1.
       -3    1    3    3    0  502 -0.11066069195E+04 -0.37545616969E+03  0.51215822773E+03  0.12758731402E+04  0.10100000352E+00 0. -1.
</event>
<event>
 5   0  0.2080257E-05  0.2405545E+04  0.7818609E-02  0.8437430E-01
       -2   -1    0    0    0  501  0.00000000000E+00  0.00000000000E+00  0.95549959364E+03  0.95549959365E+03  0.25500000920E-02 0. -1.
        2   -1    0    0  501    0  0.00000000000E+00  0.00000000000E+00 -0.15140370349E+04  0.15140370349E+04  0.25500000920E-02 0.  1.
    10030    2    1    2    0    0  0.00000000000E+00  0.00000000000E+00 -0.55853744125E+03  0.24695366285E+04  0.24055450705E+04 0.  0.
        1    1    3    3  502    0 -0.82989645182E+03  0.66955105271E+03  0.29198234575E+03  0.11055679188E+04  0.50400001928E-02 0.  1.
       -1    1    3    3    0  502  0.82989645182E+03 -0.66955105271E+03 -0.85051978700E+03  0.13639687097E+04  0.50400001928E-02 0. -1.
</event>
<event>
 5   0  0.9083687E-06  0.2367490E+04  0.7818609E-02  0.8451776E-01
       -1   -1    0    0    0  501  0.00000000000E+00  0.00000000000E+00  0.11294800063E+04  0.11294800063E+04  0.50400001928E-02 0. -1.
        1   -1    0    0  501    0  0.00000000000E+00  0.00000000000E+00 -0.12406175490E+04  0.12406175490E+04  0.50400001928E-02 0.  1.
    10030    2    1    2    0    0  0.00000000000E+00  0.00000000000E+00 -0.11113754266E+03  0.23700975553E+04  0.23674904157E+04 0.  0.
        2    1    3    3  502    0  0.25355032411E+03  0.31057765925E+03 -0.11705755541E+04  0.12373331714E+04  0.25500000920E-02 0.  1.
       -2    1    3    3    0  502 -0.25355032411E+03 -0.31057765925E+03  0.10594380115E+04  0.11327643839E+04  0.25500000920E-02 0. -1.
</event>
<event>
 5   0  0.2025353E-05  0.2392611E+04  0.7818609E-02  0.8442275E-01
       -2   -1    0    0    0  501  0.00000000000E+00  0.00000000000E+00  0.14328086774E+04  0.14328086774E+04  0.25500000920E-02 0.  1.
        2   -1    0    0  501    0  0.00000000000E+00  0.00000000000E+00 -0.99883981204E+03  0.99883981204E+03  0.25500000920E-02 0. -1.
    10030    2    1    2    0    0  0.00000000000E+00  0.00000000000E+00  0.43396886541E+03  0.24316484895E+04  0.23926105827E+04 0.  0.
        4    1    3    3  502    0  0.64901884727E+03  0.72948616149E+03  0.91947072830E+03  0.13411948244E+04  0.12699999809E+01 0.  1.
       -4    1    3    3    0  502 -0.64901884727E+03 -0.72948616149E+03 -0.48550186289E+03  0.10904536651E+04  0.12699999809E+01 0. -1.
</event>
<event>
 5   0  0.2087882E-05  0.2411659E+04  0.7818609E-02  0.8435152E-01
        2   -1    0    0  501    0  0.00000000000E+00  0.00000000000E+00  0.13185919578E+04  0.13185919578E+04  0.25500000920E-02 0. -1.
       -2   -1    0    0    0  501  0.00000000000E+00  0.00000000000E+00 -0.11027099559E+04  0.11027099559E+04  0.25500000920E-02 0.  1.
    10030    2    1    2    0    0  0.00000000000E+00  0.00000000000E+00  0.21588200192E+03  0.24213019138E+04  0.24116587484E+04 0.  0.
        2    1    3    3  502    0 -0.10118122103E+04  0.45802173404E+03 -0.36348590274E+03  0.11686187827E+04  0.25500000920E-02 0.  1.
       -2    1    3    3    0  502  0.10118122103E+04 -0.45802173404E+03  0.57936790466E+03  0.12526831310E+04  0.25500000920E-02 0. -1.
</event>
<event>
 5   0  0.9176817E-06  0.2530532E+04  0.7818609E-02  0.8392188E-01
       -1   -1    0    0    0  501  0.00000000000E+00  0.00000000000E+00  0.65421841290E+03  0.65421841292E+03  0.50400001928E-02 0.  1.
        1   -1    0    0  501    0  0.00000000000E+00  0.00000000000E+00 -0.24470388874E+04  0.24470388874E+04  0.50400001928E-02 0. -1.
    10030    2    1    2    0    0  0.00000000000E+00  0.00000000000E+00 -0.17928204745E+04  0.31012573003E+04  0.25305318787E+04 0.  0.
        3    1    3    3  502    0  0.73157644598E+03  0.90651852944E+03 -0.15016784473E+04  0.19005310073E+04  0.10100000352E+00 0. -1.
       -3    1    3    3    0  502 -0.73157644598E+03 -0.90651852944E+03 -0.29114202723E+03  0.12007262930E+04  0.10100000352E+00 0.  1.
</event>
<event>
 5   0  0.8528103E-06  0.2421550E+04  0.7818609E-02  0.8431479E-01
        1   -1    0    0  501    0  0.00000000000E+00  0.00000000000E+00  0.19659886152E+04  0.19659886152E+04  0.50400001928E-02 0. -1.
       -1   -1    0    0    0  501  0.00000000000E+00  0.00000000000E+00 -0.74566884009E+03  0.74566884010E+03  0.50400001928E-02 0.  1.
    10030    2    1    2    0    0  0.00000000000E+00  0.00000000000E+00  0.12203197751E+04  0.27116574553E+04  0.24215502888E+04 0.  0.
        4    1    3    3  502    0 -0.90014492045E+03  0.51326178011E+03  0.13115140398E+04  0.16714572152E+04  0.12699999809E+01 0. -1.
       -4    1    3    3    0  502  0.90014492045E+03 -0.51326178011E+03 -0.91194264674E+02  0.10402002401E+04  0.12699999809E+01 0.  1.
</event>
<event>
 5   0  0.8898848E-06  0.2395635E+04  0.7818609E-02  0.8441139E-01
       -1   -1    0    0    0  501  0.00000000000E+00  0.00000000000E+00  0.14698213322E+04  0.14698213322E+04  0.50400001928E-02 0.  1.
        1   -1    0    0  501    0  0.00000000000E+00  0.00000000000E+00 -0.97615078622E+03  0.97615078624E+03  0.50400001928E-02 0. -1.
    10030    2    1    2    0    0  0.00000000000E+00  0.00000000000E+00  0.49367054594E+03  0.24459721184E+04  0.23956354055E+04 0.  0.
        5    1    3    3  502    0 -0.18178142337E+03  0.97323269932E+02  0.14515552013E+04  0.14661346790E+04  0.46999998093E+01 0.  1.
       -5    1    3    3    0  502  0.18178142337E+03 -0.97323269932E+02 -0.95788465531E+03  0.97983743939E+03  0.46999998093E+01 0. -1.
</event>
<event>
 5   0  0.8528103E-06  0.2313010E+04  0.7818609E-02  0.8472809E-01
       -1   -1    0    0    0  501  0.00000000000E+00  0.00000000000E+00  0.87430004554E+03  0.87430004556E+03  0.50400001928E-02 0.  1.
        1   -1    0    0  501    0  0.00000000000E+00  0.00000000000E+00 -0.15297994565E+04  0.15297994565E+04  0.50400001928E-02 0. -1.
    10030    2    1    2    0    0  0.00000000000E+00  0.00000000000E+00 -0.65549941097E+03  0.24040995021E+04  0.23130099304E+04 0.  0.
        4    1    3    3  502    0 -0.16845086297E+03 -0.22453610945E+03 -0.14938550242E+04  0.15199988829E+04  0.12699999809E+01 0. -1.
       -4    1    3    3    0  502  0.16845086297E+03  0.22453610945E+03  0.83835561325E+03  0.88410061919E+03  0.12699999809E+01 0.  1.
</event>
<event>
 5   0  0.9038897E-06  0.2411359E+04  0.7818609E-02  0.8435263E-01
       -1   -1    0    0    0  501  0.00000000000E+00  0.00000000000E+00  0.66865784155E+03  0.66865784157E+03  0.50400001928E-02 0.  1.
        1   -1    0    0  501    0  0.00000000000E+00  0.00000000000E+00 -0.21740008208E+04  0.21740008208E+04  0.50400001928E-02 0. -1.
    10030    2    1    2    0    0  0.00000000000E+00  0.00000000000E+00 -0.15053429793E+04  0.28426586624E+04  0.24113587011E+04 0.  0.
        1    1    3    3  502    0  0.82527915159E+03 -0.43760051518E+03  0.14596057028E+03  0.94545458751E+03  0.50400001928E-02 0. -1.
       -1    1    3    3    0  502 -0.82527915159E+03  0.43760051518E+03 -0.16513035495E+04  0.18972040749E+04  0.50400001928E-02 0.  1.
</event>
<event>
 5   0  0.2048028E-05  0.2407296E+04  0.7818609E-02  0.8436777E-01
        2   -1    0    0  501    0  0.00000000000E+00  0.00000000000E+00  0.12799906472E+04  0.12799906472E+04  0.25500000920E-02 0.  1.
       -2   -1    0    0    0  501  0.00000000000E+00  0.00000000000E+00 -0.11318589503E+04  0.11318589503E+04  0.25500000920E-02 0. -1.
    10030    2    1    2    0    0  0.00000000000E+00  0.00000000000E+00  0.14813169687E+03  0.24118495976E+04  0.24072963012E+04 0.  0.
        5    1    3    3  502    0 -0.28350413519E+03 -0.11286560387E+04  0.38206842086E+03  0.12248417925E+04  0.46999998093E+01 0.  1.
       -5    1    3    3    0  502  0.28350413519E+03  0.11286560387E+04 -0.23393672399E+03  0.11870078051E+04  0.46999998093E+01 0. -1.
</event>
<event>
 5   0  0.8528103E-06  0.2394642E+04  0.7818609E-02  0.8441512E-01
        1   -1    0    0  501    0  0.00000000000E+00  0.00000000000E+00  0.93265163085E+03  0.93265163086E+03  0.50400001928E-02 0. -1.
       -1   -1    0    0    0  501  0.00000000000E+00  0.00000000000E+00 -0.15370985801E+04  0.15370985801E+04  0.50400001928E-02 0.  1.
    10030    2    1    2    0    0  0.00000000000E+00  0.00000000000E+00 -0.60444694922E+03  0.24697502109E+04  0.23946419336E+04 0.  0.
        4    1    3    3  502    0 -0.30838497647E+03  0.57973076275E+03 -0.13348187286E+04  0.14875925861E+04  0.12699999809E+01 0.  1.
       -4    1    3    3    0  502  0.30838497647E+03 -0.57973076275E+03  0.73037177941E+03  0.98215762485E+03  0.12699999809E+01 0. -1.
</event>
<event>
 5   0  0.2048028E-05  0.2484356E+04  0.7818609E-02  0.8408580E-01
       -2   -1    0    0    0  501  0.00000000000E+00  0.00000000000E+00  0.13575788050E+04  0.13575788050E+04  0.25500000920E-02 0.  1.
        2   -1    0    0  501    0  0.00000000000E+00  0.00000000000E+00 -0.11365870346E+04  0.11365870346E+04  0.25500000920E-02 0. -1.
    10030    2    1    2    0    0  0.00000000000E+00  0.00000000000E+00  0.22099177046E+03  0.24941658396E+04  0.24843562290E+04 0.  0.
        5    1    3    3  502    0 -0.99907787391E+03  0.53703320793E+03  0.61887774140E+03  0.12921273209E+04  0.46999998093E+01 0.  1.
       -5    1    3    3    0  502  0.99907787391E+03 -0.53703320793E+03 -0.39788597094E+03  0.12020385187E+04  0.46999998093E+01 0. -1.
</event>
<event>
 5   0  0.2122194E-05  0.2411580E+04  0.7818609E-02  0.8435181E-01
       -2   -1    0    0    0  501  0.00000000000E+00  0.00000000000E+00  0.11364150681E+04  0.11364150681E+04  0.25500000920E-02 0. -1.
        2   -1    0    0  501    0  0.00000000000E+00  0.00000000000E+00 -0.12794002152E+04  0.12794002152E+04  0.25500000920E-02 0.  1.
    10030    2    1    2    0    0  0.00000000000E+00  0.00000000000E+00 -0.14298514716E+03  0.24158152833E+04  0.24115801315E+04 0.  0.
        3    1    3    3  502    0  0.30891411386E+03 -0.23948294949E+03  0.10711901297E+04  0.11402755443E+04  0.10100000352E+00 0. -1.
       -3    1    3    3    0  502 -0.30891411386E+03  0.23948294949E+03 -0.12141752768E+04  0.12755397390E+04  0.10100000352E+00 0.  1.
</event>
<event>
 5   0  0.2122194E-05  0.2410884E+04  0.7818609E-02  0.8435440E-01
        2   -1    0    0  501    0  0.00000000000E+00  0.00000000000E+00  0.21885962683E+04  0.21885962683E+04  0.25500000920E-02 0.  1.
       -2   -1    0    0    0  501  0.00000000000E+00  0.00000000000E+00 -0.66393708974E+03  0.66393708974E+03  0.25500000920E-02 0. -1.
    10030    2    1    2    0    0  0.00000000000E+00  0.00000000000E+00  0.15246591786E+04  0.28525333581E+04  0.24108838520E+04 0.  0.
        3    1    3    3  502    0 -0.29433272639E+03 -0.10208769221E+04  0.14360923669E+04  0.17863881830E+04  0.10100000352E+00 0.  1.
       -3    1    3    3    0  502  0.29433272639E+03  0.10208769221E+04  0.88566811663E+02  0.10661451750E+04  0.10100000352E+00 0. -1.
</event>
<event>
 5   0  0.8898848E-06  0.2383726E+04  0.7818609E-02  0.8445622E-01
        1   -1    0    0  501    0  0.00000000000E+00  0.00000000000E+00  0.86224271266E+03  0.86224271268E+03  0.50400001928E-02 0.  1.
       -1   -1    0    0    0  501  0.00000000000E+00  0.00000000000E+00 -0.16474910976E+04  0.16474910977E+04  0.50400001928E-02 0. -1.
    10030    2    1    2    0    0  0.00000000000E+00  0.00000000000E+00 -0.78524838498E+03  0.25097338103E+04  0.23837258174E+04 0.  0.
        5    1    3    3  502    0  0.10423122712E+04  0.37853388403E+03 -0.85253602148E+03  0.13987646442E+04  0.46999998093E+01 0. -1.
       -5    1    3    3    0  502 -0.10423122712E+04 -0.37853388403E+03  0.67287636491E+02  0.11109691661E+04  0.46999998093E+01 0.  1.
</event>
<event>
 5   0  0.2048028E-05  0.2411442E+04  0.7818609E-02  0.8435232E-01
        2   -1    0    0  501    0  0.00000000000E+00  0.00000000000E+00  0.18566095122E+04  0.18566095122E+04  0.25500000920E-02 0.  1.
       -2   -1    0    0    0  501  0.00000000000E+00  0.00000000000E+00 -0.78302044393E+03  0.78302044393E+03  0.25500000920E-02 0. -1.
    10030    2    1    2    0    0  0.00000000000E+00  0.00000000000E+00  0.10735890683E+04  0.26396299562E+04  0.24114420619E+04 0.  0.
        5    1    3    3  502    0  0.18439504150E+03 -0.84137882384E+03  0.14603259923E+04  0.16954332633E+04  0.46999998093E+01 0.  1.
       -5    1    3    3    0  502 -0.18439504150E+03  0.84137882384E+03 -0.38673692395E+03  0.94419669290E+03  0.46999998093E+01 0. -1.
</event>
<event>
 5   0  0.2122194E-05  0.2306620E+04  0.7818609E-02  0.8475316E-01
        2   -1    0    0  501    0  0.00000000000E+00  0.00000000000E+00  0.29693448085E+04  0.29693448085E+04  0.25500000920E-02 0. -1.
       -2   -1    0    0    0  501  0.00000000000E+00  0.00000000000E+00 -0.44795198740E+03  0.44795198741E+03  0.25500000920E-02 0.  1.
    10030    2    1    2    0    0  0.00000000000E+00  0.00000000000E+00  0.25213928211E+04  0.34172967959E+04  0.23066199585E+04 0.  0.
        3    1    3    3  502    0  0.63659155715E+03 -0.33579472184E+03 -0.74410219499E+02  0.72356326387E+03  0.10100000352E+00 0.  1.
       -3    1    3    3    0  502 -0.63659155715E+03  0.33579472184E+03  0.25958030406E+04  0.26937335320E+04  0.10100000352E+00 0. -1.
</event>
<event>
 5   0  0.9176817E-06  0.2413874E+04  0.7818609E-02  0.8434327E-01
       -1   -1    0    0    0  501  0.00000000000E+00  0.00000000000E+00  0.19594527883E+04  0.19594527883E+04  0.50400001928E-02 0. -1.
        1   -1    0    0  501    0  0.00000000000E+00  0.00000000000E+00 -0.74342052653E+03  0.74342052655E+03  0.50400001928E-02 0.  1.
    10030    2    1    2    0    0  0.00000000000E+00  0.00000000000E+00  0.12160322618E+04  0.27028733149E+04  0.24138744156E+04 0.  0.
        3    1    3    3  502    0 -0.88949344457E+03  0.35697358393E+03 -0.21333692604E+03  0.98190701280E+03  0.10100000352E+00 0. -1.
       -3    1    3    3    0  502  0.88949344457E+03 -0.35697358393E+03  0.14293691878E+04  0.17209663021E+04  0.10100000352E+00 0.  1.
</event>
<event>
 5   0  0.9176817E-06  0.2467559E+04  0.7818609E-02  0.8414635E-01
        1   -1    0    0  501    0  0.00000000000E+00  0.00000000000E+00  0.16610985310E+04  0.16610985310E+04  0.50400001928E-02 0. -1.
       -1   -1    0    0    0  501  0.00000000000E+00  0.00000000000E+00 -0.91638836011E+03  0.91638836012E+03  0.50400001928E-02 0.  1.
    10030    2    1    2    0    0  0.00000000000E+00  0.00000000000E+00  0.74471017088E+03  0.25774868911E+04  0.24675585981E+04 0.  0.
        3    1    3    3  502    0  0.30967093832E+03 -0.51150968259E+03 -0.75492286781E+03  0.96304038958E+03  0.10100000352E+00 0.  1.
       -3    1    3    3    0  502 -0.30967093832E+03  0.51150968259E+03  0.14996330387E+04  0.16144465015E+04  0.10100000352E+00 0. -1.
</event>
<event>
 5   0  0.8528103E-06  0.2396089E+04  0.7818609E-02  0.8440969E-01
       -1   -1    0    0    0  501  0.00000000000E+00  0.00000000000E+00  0.17073108344E+04  0.17073108344E+04  0.50400001928E-02 0.  1.
        1   -1    0    0  501    0  0.00000000000E+00  0.00000000000E+00 -0.84068516828E+03  0.84068516830E+03  0.50400001928E-02 0. -1.
    10030    2    1    2    0    0  0.00000000000E+00  0.00000000000E+00  0.86662566616E+03  0.25479960027E+04  0.23960892272E+04 0.  0.
        4    1    3    3  502    0 -0.11952699203E+03  0.54065343965E+03 -0.69645233560E+03  0.88974171099E+03  0.12699999809E+01 0. -1.
       -4    1    3    3    0  502  0.11952699203E+03 -0.54065343965E+03  0.15630780018E+04  0.16582542917E+04  0.12699999809E+01 0.  1.
</event>
<event>
 5   0  0.2080257E-05  0.2396982E+04  0.7818609E-02  0.8440634E-01
       -2   -1    0    0    0  501  0.00000000000E+00  0.00000000000E+00  0.12931117728E+04  0.12931117728E+04  0.25500000920E-02 0. -1.
        2   -1    0    0  501    0  0.00000000000E+00  0.00000000000E+00 -0.11107941361E+04  0.11107941361E+04  0.25500000920E-02 0.  1.
    10030    2    1    2    0    0  0.00000000000E+00  0.00000000000E+00  0.18231763671E+03  0.24039059090E+04  0.23969822483E+04 0.  0.
        1    1    3    3  502    0  0.73430031382E+03  0.41269198519E+03 -0.76387014268E+03  0.11371056329E+04  0.50400001928E-02 0.  1.
       -1    1    3    3    0  502 -0.73430031382E+03 -0.41269198519E+03  0.94618777939E+03  0.12668002761E+04  0.50400001928E-02 0. -1.
</event>
<event>
 5   0  0.2048028E-05  0.2395495E+04  0.7818609E-02  0.8441192E-01
        2   -1    0    0  501    0  0.00000000000E+00  0.00000000000E+00  0.10373798907E+04  0.10373798907E+04  0.25500000920E-02 0. -1.
       -2   -1    0    0    0  501  0.00000000000E+00  0.00000000000E+00 -0.13829064500E+04  0.13829064500E+04  0.25500000920E-02 0.  1.
    10030    2    1    2    0    0  0.00000000000E+00  0.00000000000E+00 -0.34552655933E+03  0.24202863407E+04  0.23954952239E+04 0.  0.
        5    1    3    3  502    0  0.24011179696E+02  0.97508105575E+03 -0.87509589176E+03  0.13104100548E+04  0.46999998093E+01 0.  1.
       -5    1    3    3    0  502 -0.24011179696E+02 -0.97508105575E+03  0.52956933242E+03  0.11098762858E+04  0.46999998093E+01 0. -1.
</event>
<event>
 5   0  0.2087882E-05  0.2388549E+04  0.7818609E-02  0.8443803E-01
        2   -1    0    0  501    0  0.00000000000E+00  0.00000000000E+00  0.13261890642E+04  0.13261890642E+04  0.25500000920E-02 0. -1.
       -2   -1    0    0    0  501  0.00000000000E+00  0.00000000000E+00 -0.10754816160E+04  0.10754816160E+04  0.25500000920E-02 0.  1.
    10030    2    1    2    0    0  0.00000000000E+00  0.00000000000E+00  0.25070744819E+03  0.24016706802E+04  0.23885493153E+04 0.  0.
        2    1    3    3  502    0 -0.45707261798E+03  0.11028586823E+04  0.92320445048E+02  0.11973870367E+04  0.25500000920E-02 0.  1.
       -2    1    3    3    0  502  0.45707261798E+03 -0.11028586823E+04  0.15838700314E+03  0.12042836435E+04  0.25500000920E-02 0. -1.
</event>
<event>
 5   0  0.2122194E-05  0.2384048E+04  0.7818609E-02  0.8445500E-01
        2   -1    0    0  501    0  0.00000000000E+00  0.00000000000E+00  0.11451308948E+04  0.11451308948E+04  0.25500000920E-02 0.  1.
       -2   -1    0    0    0  501  0.00000000000E+00  0.00000000000E+00 -0.12408376997E+04  0.12408376997E+04  0.25500000920E-02 0. -1.
    10030    2    1    2    0    0  0.00000000000E+00  0.00000000000E+00 -0.95706804930E+02  0.23859685945E+04  0.23840483094E+04 0.  0.
        3    1    3    3  502    0  0.51099635924E+01 -0.32872359100E+02  0.11446662141E+04  0.11451495342E+04  0.10100000352E+00 0.  1.
       -3    1    3    3    0  502 -0.51099635924E+01  0.32872359100E+02 -0.12403730191E+04  0.12408190603E+04  0.10100000352E+00 0. -1.
</event>
<event>
 5   0  0.9083687E-06  0.2406265E+04  0.7818609E-02  0.8437162E-01
        1   -1    0    0  501    0  0.00000000000E+00  0.00000000000E+00  0.11295070178E+04  0.11295070179E+04  0.50400001928E-02 0. -1.
       -1   -1    0    0    0  501  0.00000000000E+00  0.00000000000E+00 -0.12815576318E+04  0.12815576318E+04  0.50400001928E-02 0.  1.
    10030    2    1    2    0    0  0.00000000000E+00  0.00000000000E+00 -0.15205061392E+03  0.24110646496E+04  0.24062654375E+04 0.  0.
        2    1    3    3  502    0  0.18226009354E+03 -0.70411626029E+03  0.88428583761E+03  0.11449715683E+04  0.25500000920E-02 0. -1.
       -2    1    3    3    0  502 -0.18226009354E+03  0.70411626029E+03 -0.10363364515E+04  0.12660930813E+04  0.25500000920E-02 0.  1.
</event>
<event>
 5   0  0.9038897E-06  0.2382190E+04  0.7818609E-02  0.8446202E-01
        1   -1    0    0  501    0  0.00000000000E+00  0.00000000000E+00  0.11058958433E+04  0.11058958433E+04  0.50400001928E-02 0. -1.
       -1   -1    0    0    0  501  0.00000000000E+00  0.00000000000E+00 -0.12828581918E+04  0.12828581918E+04  0.50400001928E-02 0.  1.
    10030    2    1    2    0    0  0.00000000000E+00  0.00000000000E+00 -0.17696234849E+03  0.23887540351E+04  0.23821902039E+04 0.  0.
        1    1    3    3  502    0  0.60456453008E+03 -0.44501975893E+01 -0.11175590769E+04  0.12706125947E+04  0.50400001928E-02 0.  1.
       -1    1    3    3    0  502 -0.60456453008E+03  0.44501975893E+01  0.94059672845E+03  0.11181414405E+04  0.50400001928E-02 0. -1.
</event>
<event>
 5   0  0.2122194E-05  0.2406651E+04  0.7818609E-02  0.8437018E-01
       -2   -1    0    0    0  501  0.00000000000E+00  0.00000000000E+00  0.68654558136E+03  0.68654558136E+03  0.25500000920E-02 0. -1.
        2   -1    0    0  501    0  0.00000000000E+00  0.00000000000E+00 -0.21090988848E+04  0.21090988848E+04  0.25500000920E-02 0.  1.
    10030    2    1    2    0    0  0.00000000000E+00  0.00000000000E+00 -0.14225533035E+04  0.27956444662E+04  0.24066512170E+04 0.  0.
        3    1    3    3  502    0  0.10091922545E+04  0.63766909435E+03 -0.88706981298E+03  0.14872739303E+04  0.10100000352E+00 0.  1.
       -3    1    3    3    0  502 -0.10091922545E+04 -0.63766909435E+03 -0.53548349049E+03  0.13083705359E+04  0.10100000352E+00 0. -1.
</event>
<event>
 5   0  0.2048028E-05  0.2379780E+04  0.7818609E-02  0.8447113E-01
        2   -1    0    0  501    0  0.00000000000E+00  0.00000000000E+00  0.21018384513E+04  0.21018384513E+04  0.25500000920E-02 0.  1.
       -2   -1    0    0    0  501  0.00000000000E+00  0.00000000000E+00 -0.67361898580E+03  0.67361898580E+03  0.25500000920E-02 0. -1.
    10030    2    1    2    0    0  0.00000000000E+00  0.00000000000E+00  0.14282194655E+04  0.27754574371E+04  0.23797800620E+04 0.  0.
        5    1    3    3  502    0  0.89786426597E+03  0.61329886773E+03  0.15052371015E+03  0.10977136323E+04  0.46999998093E+01 0. -1.
       -5    1    3    3    0  502 -0.89786426597E+03 -0.61329886773E+03  0.12776957554E+04  0.16777438048E+04  0.46999998093E+01 0.  1.
</event>
<event>
 5   0  0.9176817E-06  0.2408718E+04  0.7818609E-02  0.8436247E-01
       -1   -1    0    0    0  501  0.00000000000E+00  0.00000000000E+00  0.98559567824E+03  0.98559567826E+03  0.50400001928E-02 0.  1.
        1   -1    0    0  501    0  0.00000000000E+00  0.00000000000E+00 -0.14716787229E+04  0.14716787229E+04  0.50400001928E-02 0. -1.
    10030    2    1    2    0    0  0.00000000000E+00  0.00000000000E+00 -0.48608304466E+03  0.24572744012E+04  0.24087176581E+04 0.  0.
        3    1    3    3  502    0  0.98609063434E+03 -0.38710438192E+03  0.34144413235E+03  0.11130178109E+04  0.10100000352E+00 0.  1.
       -3    1    3    3    0  502 -0.98609063434E+03  0.38710438192E+03 -0.82752717701E+03  0.13442565903E+04  0.10100000352E+00 0. -1.
</event>
<event>
 5   0  0.9083687E-06  0.2405816E+04  0.7818609E-02  0.8437329E-01
        1   -1    0    0  501    0  0.00000000000E+00  0.00000000000E+00  0.21501635029E+04  0.21501635029E+04  0.50400001928E-02 0.  1.
       -1   -1    0    0    0  501  0.00000000000E+00  0.00000000000E+00 -0.67296613500E+03  0.67296613502E+03  0.50400001928E-02 0. -1.
    10030    2    1    2    0    0  0.00000000000E+00  0.00000000000E+00  0.14771973679E+04  0.28231296379E+04  0.24058156390E+04 0.  0.
        2    1    3    3  502    0  0.70955045654E+03 -0.56069287142E+03 -0.19217734526E+03  0.92453798109E+03  0.25500000920E-02 0. -1.
       -2    1    3    3    0  502 -0.70955045654E+03  0.56069287142E+03  0.16693747131E+04  0.18985916568E+04  0.25500000920E-02 0.  1.
</event>
<event>
 5   0  0.9083687E-06  0.2403837E+04  0.7818609E-02  0.8438068E-01
       -1   -1    0    0    0  501  0.00000000000E+00  0.00000000000E+00  0.84342504533E+03  0.84342504534E+03  0.50400001928E-02 0. -1.
        1   -1    0    0  501    0  0.00000000000E+00  0.00000000000E+00 -0.17127880913E+04  0.17127880913E+04  0.50400001928E-02 0.  1.
    10030    2    1    2    0    0  0.00000000000E+00  0.00000000000E+00 -0.86936304597E+03  0.25562131366E+04  0.24038372437E+04 0.  0.
        2    1    3    3  502    0  0.35625254966E+03  0.11331750848E+04 -0.23973967602E+03  0.12118072307E+04  0.25500000920E-02 0. -1.
       -2    1    3    3    0  502 -0.35625254966E+03 -0.11331750848E+04 -0.62962336995E+03  0.13444059060E+04  0.25500000920E-02 0.  1.
</event>
<event>
 5   0  0.2025353E-05  0.2389943E+04  0.7818609E-02  0.8443278E-01
        2   -1    0    0  501    0  0.00000000000E+00  0.00000000000E+00  0.16972344497E+04  0.16972344497E+04  0.25500000920E-02 0. -1.
       -2   -1    0    0    0  501  0.00000000000E+00  0.00000000000E+00 -0.84134343576E+03  0.84134343576E+03  0.25500000920E-02 0.  1.
    10030    2    1    2    0    0  0.00000000000E+00  0.00000000000E+00  0.85589101395E+03  0.25385778855E+04  0.23899431485E+04 0.  0.
        4    1    3    3  502    0 -0.33127329781E+03 -0.96973223174E+03 -0.22496368079E+03  0.10491581719E+04  0.12699999809E+01 0.  1.
       -4    1    3    3    0  502  0.33127329781E+03  0.96973223174E+03  0.10808546947E+04  0.14894197136E+04  0.12699999809E+01 0. -1.
</event>
<event>
 5   0  0.8898848E-06  0.2337891E+04  0.7818609E-02  0.8463129E-01
        1   -1    0    0  501    0  0.00000000000E+00  0.00000000000E+00  0.20421776527E+04  0.20421776527E+04  0.50400001928E-02 0.  1.
       -1   -1    0    0    0  501  0.00000000000E+00  0.00000000000E+00 -0.66910621501E+03  0.66910621502E+03  0.50400001928E-02 0. -1.
    10030    2    1    2    0    0  0.00000000000E+00  0.00000000000E+00  0.13730714377E+04  0.27112838677E+04  0.23378911520E+04 0.  0.
        5    1    3    3  502    0  0.40920483294E+03 -0.98001879250E+03  0.12014153584E+03  0.10688037741E+04  0.46999998093E+01 0. -1.
       -5    1    3    3    0  502 -0.40920483294E+03  0.98001879250E+03  0.12529299019E+04  0.16424800936E+04  0.46999998093E+01 0.  1.
</event>
<event>
 5   0  0.2048028E-05  0.2400267E+04  0.7818609E-02  0.8439403E-01
        2   -1    0    0  501    0  0.00000000000E+00  0.00000000000E+00  0.15675234169E+04  0.15675234169E+04  0.25500000920E-02 0. -1.
       -2   -1    0    0    0  501  0.00000000000E+00  0.00000000000E+00 -0.91885132687E+03  0.91885132687E+03  0.25500000920E-02 0.  1.
    10030    2    1    2    0    0  0.00000000000E+00  0.00000000000E+00  0.64867209007E+03  0.24863747438E+04  0.24002674614E+04 0.  0.
        5    1    3    3  502    0 -0.83937483944E+03  0.41193299716E+03 -0.45502405592E+03  0.10398595562E+04  0.46999998093E+01 0.  1.
       -5    1    3    3    0  502  0.83937483944E+03 -0.41193299716E+03  0.11036961460E+04  0.14465151876E+04  0.46999998093E+01 0. -1.
</event>
<event>
 5   0  0.9083687E-06  0.2413976E+04  0.7818609E-02  0.8434290E-01
       -1   -1    0    0    0  501  0.00000000000E+00  0.00000000000E+00  0.14770224710E+04  0.14770224710E+04  0.50400001928E-02 0. -1.
        1   -1    0    0  501    0  0.00000000000E+00  0.00000000000E+00 -0.98632192239E+03  0.98632192241E+03  0.50400001928E-02 0.  1.
    10030    2    1    2    0    0  0.00000000000E+00  0.00000000000E+00  0.49070054861E+03  0.24633443934E+04  0.24139756776E+04 0.  0.
        2    1    3    3  502    0  0.73665605214E+03 -0.59739642547E+03  0.10071258247E+04  0.13834186117E+04  0.25500000920E-02 0. -1.
       -2    1    3    3    0  502 -0.73665605214E+03  0.59739642547E+03 -0.51642527609E+03  0.10799257818E+04  0.25500000920E-02 0.  1.
</event>
<event>
 5   0  0.2080257E-05  0.2401659E+04  0.7818609E-02  0.8438883E-01
        2   -1    0    0  501    0  0.00000000000E+00  0.00000000000E+00  0.12610303327E+04  0.12610303327E+04  0.25500000920E-02 0.  1.
       -2   -1    0    0    0  501  0.00000000000E+00  0.00000000000E+00 -0.11435029881E+04  0.11435029881E+04  0.25500000920E-02 0. -1.
    10030    2    1    2    0    0  0.00000000000E+00  0.00000000000E+00  0.11752734459E+03  0.24045333208E+04  0.24016593876E+04 0.  0.
        1    1    3    3  502    0  0.87608940156E+03 -0.71728607245E+03 -0.34166492797E+03  0.11826947503E+04  0.50400001928E-02 0. -1.
       -1    1    3    3    0  502 -0.87608940156E+03  0.71728607245E+03  0.45919227256E+03  0.12218385705E+04  0.50400001928E-02 0.  1.
</event>
<event>
 5   0  0.8898848E-06  0.2402950E+04  0.7818609E-02  0.8438400E-01
       -1   -1    0    0    0  501  0.00000000000E+00  0.00000000000E+00  0.88495707460E+03  0.88495707462E+03  0.50400001928E-02 0.  1.
        1   -1    0    0  501    0  0.00000000000E+00  0.00000000000E+00 -0.16312006772E+04  0.16312006772E+04  0.50400001928E-02 0. -1.
    10030    2    1    2    0    0  0.00000000000E+00  0.00000000000E+00 -0.74624360261E+03  0.25161577518E+04  0.24029503361E+04 0.  0.
        5    1    3    3  502    0  0.90170583772E+03  0.56105060290E+02 -0.12024577108E+04  0.15040438264E+04  0.46999998093E+01 0. -1.
       -5    1    3    3    0  502 -0.90170583772E+03 -0.56105060290E+02  0.45621410816E+03  0.10121139254E+04  0.46999998093E+01 0.  1.
</event>
<event>
 5   0  0.7233625E-06  0.2407891E+04  0.7818609E-02  0.8436555E-01
        4   -1    0    0  501    0  0.00000000000E+00  0.00000000000E+00  0.93344564270E+03  0.93344650664E+03  0.12699999809E+01 0.  1.
       -4   -1    0    0    0  501  0.00000000000E+00  0.00000000000E+00 -0.15528310817E+04  0.15528316011E+04  0.12699999809E+01 0. -1.
    10030    2    1    2    0    0  0.00000000000E+00  0.00000000000E+00 -0.61938543902E+03  0.24862781077E+04  0.24078912988E+04 0.  0.
        5    1    3    3  502    0  0.10397374127E+04  0.14350091410E+03 -0.91865165070E+03  0.13948438425E+04  0.46999998093E+01 0.  1.
       -5    1    3    3    0  502 -0.10397374127E+04 -0.14350091410E+03  0.29926621168E+03  0.10914342652E+04  0.46999998093E+01 0. -1.
</event>
<event>
 5   0  0.2087882E-05  0.2399914E+04  0.7818609E-02  0.8439536E-01
        2   -1    0    0  501    0  0.00000000000E+00  0.00000000000E+00  0.97559395436E+03  0.97559395436E+03  0.25500000920E-02 0.  1.
       -2   -1    0    0    0  501  0.00000000000E+00  0.00000000000E+00 -0.14759186082E+04  0.14759186082E+04  0.25500000920E-02 0. -1.
    10030    2    1    2    0    0  0.00000000000E+00  0.00000000000E+00 -0.50032465382E+03  0.24515125625E+04  0.23999143912E+04 0.  0.
        2    1    3    3  502    0  0.16373842772E+03 -0.11488927288E+03 -0.14587688494E+04  0.14724185457E+04  0.25500000920E-02 0. -1.
       -2    1    3    3    0  502 -0.16373842772E+03  0.11488927288E+03  0.95844419559E+03  0.97909401684E+03  0.25500000920E-02 0.  1.
</event>
<event>
 5   0  0.2087882E-05  0.2411089E+04  0.7818609E-02  0.8435364E-01
        2   -1    0    0  501    0  0.00000000000E+00  0.00000000000E+00  0.14486519228E+04  0.14486519228E+04  0.25500000920E-02 0.  1.
       -2   -1    0    0    0  501  0.00000000000E+00  0.00000000000E+00 -0.10032340746E+04  0.10032340746E+04  0.25500000920E-02 0. -1.
    10030    2    1    2    0    0  0.00000000000E+00  0.00000000000E+00  0.44541784828E+03  0.24518859974E+04  0.24110885269E+04 0.  0.
        2    1    3    3  502    0  0.35647080475E+03 -0.79457475596E+03 -0.62501302260E+03  0.10719429816E+04  0.25500000920E-02 0. -1.
       -2    1    3    3    0  502 -0.35647080475E+03  0.79457475596E+03  0.10704308709E+04  0.13799430158E+04  0.25500000920E-02 0.  1.
</event>
<event>
 5   0  0.2025353E-05  0.2395560E+04  0.7818609E-02  0.8441168E-01
       -2   -1    0    0    0  501  0.00000000000E+00  0.00000000000E+00  0.67329631293E+03  0.67329631294E+03  0.25500000920E-02 0. -1.
        2   -1    0    0  501    0  0.00000000000E+00  0.00000000000E+00 -0.21308263117E+04  0.21308263117E+04  0.25500000920E-02 0.  1.
    10030    2    1    2    0    0  0.00000000000E+00  0.00000000000E+00 -0.14575299988E+04  0.28041226247E+04  0.23955604765E+04 0.  0.
        4    1    3    3  502    0  0.71945304688E+03 -0.95729607989E+03 -0.69898112000E+03  0.13865802141E+04  0.12699999809E+01 0. -1.
       -4    1    3    3    0  502 -0.71945304688E+03  0.95729607989E+03 -0.75854887880E+03  0.14175424105E+04  0.12699999809E+01 0.  1.
</event>
<event>
 5   0  0.2087882E-05  0.2351185E+04  0.7818609E-02  0.8458009E-01
       -2   -1    0    0    0  501  0.00000000000E+00  0.00000000000E+00  0.83341999878E+03  0.83341999878E+03  0.25500000920E-02 0. -1.
        2   -1    0    0  501    0  0.00000000000E+00  0.00000000000E+00 -0.16582490038E+04  0.16582490038E+04  0.25500000920E-02 0.  1.
    10030    2    1    2    0    0  0.00000000000E+00  0.00000000000E+00 -0.82482900507E+03  0.24916690026E+04  0.23511851333E+04 0.  0.
        2    1    3    3  502    0 -0.66523517117E+03  0.26407557980E+03  0.57590935155E+03  0.91866496941E+03  0.25500000920E-02 0. -1.
       -2    1    3    3    0  502  0.66523517117E+03 -0.26407557980E+03 -0.14007383566E+04  0.15730040332E+04  0.25500000920E-02 0.  1.
</event>
<event>
 5   0  0.2087882E-05  0.2395490E+04  0.7818609E-02  0.8441194E-01
        2   -1    0    0  501    0  0.00000000000E+00  0.00000000000E+00  0.85421291857E+03  0.85421291857E+03  0.25500000920E-02 0.  1.
       -2   -1    0    0    0  501  0.00000000000E+00  0.00000000000E+00 -0.16794329173E+04  0.16794329173E+04  0.25500000920E-02 0. -1.
    10030    2    1    2    0    0  0.00000000000E+00  0.00000000000E+00 -0.82521999868E+03  0.25336458358E+04  0.23954901743E+04 0.  0.
        2    1    3    3  502    0 -0.22243223546E+03 -0.28479533013E+03  0.79518096665E+03  0.87343989442E+03  0.25500000920E-02 0.  1.
       -2    1    3    3    0  502  0.22243223546E+03  0.28479533013E+03 -0.16204009653E+04  0.16602059414E+04  0.25500000920E-02 0. -1.
</event>
<event>
 5   0  0.2122194E-05  0.2407102E+04  0.7818609E-02  0.8436849E-01
       -2   -1    0    0    0  501  0.00000000000E+00  0.00000000000E+00  0.13275656380E+04  0.13275656380E+04  0.25500000920E-02 0.  1.
        2   -1    0    0  501    0  0.00000000000E+00  0.00000000000E+00 -0.10911215927E+04  0.10911215927E+04  0.25500000920E-02 0. -1.
    10030    2    1    2    0    0  0.00000000000E+00  0.00000000000E+00  0.23644404529E+03  0.24186872307E+04  0.24071024351E+04 0.  0.
        3    1    3    3  502    0  0.10162362765E+04 -0.26587888927E+03 -0.47206401139E+03  0.11516389167E+04  0.10100000352E+00 0. -1.
       -3    1    3    3    0  502 -0.10162362765E+04  0.26587888927E+03  0.70850805668E+03  0.12670483140E+04  0.10100000352E+00 0.  1.
</event>
<event>
 5   0  0.8528103E-06  0.2421453E+04  0.7818609E-02  0.8431515E-01
        1   -1    0    0  501    0  0.00000000000E+00  0.00000000000E+00  0.11394279390E+04  0.11394279390E+04  0.50400001928E-02 0. -1.
       -1   -1    0    0    0  501  0.00000000000E+00  0.00000000000E+00 -0.12864860138E+04  0.12864860138E+04  0.50400001928E-02 0.  1.
    10030    2    1    2    0    0  0.00000000000E+00  0.00000000000E+00 -0.14705807476E+03  0.24259139528E+04  0.24214525453E+04 0.  0.
        4    1    3    3  502    0  0.52497302627E+03  0.29206843440E+03  0.97957648937E+03  0.11491180793E+04  0.12699999809E+01 0. -1.
       -4    1    3    3    0  502 -0.52497302627E+03 -0.29206843440E+03 -0.11266345641E+04  0.12767958735E+04  0.12699999809E+01 0.  1.
</event>
<event>
 5   0  0.9038897E-06  0.2396673E+04  0.7818609E-02  0.8440750E-01
        1   -1    0    0  501    0  0.00000000000E+00  0.00000000000E+00  0.16386190871E+04  0.16386190871E+04  0.50400001928E-02 0.  1.
       -1   -1    0    0    0  501  0.00000000000E+00  0.00000000000E+00 -0.87635389665E+03  0.87635389666E+03  0.50400001928E-02 0. -1.
    10030    2    1    2    0    0  0.00000000000E+00  0.00000000000E+00  0.76226519043E+03  0.25149729837E+04  0.23966728789E+04 0.  0.
        1    1    3    3  502    0 -0.66046767967E+02 -0.71491776031E+03 -0.62567398803E+03  0.95233267238E+03  0.50400001928E-02 0. -1.
       -1    1    3    3    0  502  0.66046767967E+02  0.71491776031E+03  0.13879391785E+04  0.15626403114E+04  0.50400001928E-02 0.  1.
</event>
<event>
 5   0  0.9176817E-06  0.2377806E+04  0.7818609E-02  0.8447860E-01
        1   -1    0    0  501    0  0.00000000000E+00  0.00000000000E+00  0.10390698151E+04  0.10390698151E+04  0.50400001928E-02 0.  1.
       -1   -1    0    0    0  501  0.00000000000E+00  0.00000000000E+00 -0.13603424338E+04  0.13603424338E+04  0.50400001928E-02 0. -1.
    10030    2    1    2    0    0  0.00000000000E+00  0.00000000000E+00 -0.32127261872E+03  0.23994122488E+04  0.23778063513E+04 0.  0.
        3    1    3    3  502    0  0.66491232479E+03 -0.95431349143E+03  0.87910748313E+02  0.11664265727E+04  0.10100000352E+00 0.  1.
       -3    1    3    3    0  502 -0.66491232479E+03  0.95431349143E+03 -0.40918336703E+03  0.12329856762E+04  0.10100000352E+00 0. -1.
</event>
<event>
 5   0  0.9083687E-06  0.2430976E+04  0.7818609E-02  0.8427997E-01
       -1   -1    0    0    0  501  0.00000000000E+00  0.00000000000E+00  0.77087620963E+03  0.77087620965E+03  0.50400001928E-02 0.  1.
        1   -1    0    0  501    0  0.00000000000E+00  0.00000000000E+00 -0.19165351398E+04  0.19165351398E+04  0.50400001928E-02 0. -1.
    10030    2    1    2    0    0  0.00000000000E+00  0.00000000000E+00 -0.11456589302E+04  0.26874113495E+04  0.24309762189E+04 0.  0.
        2    1    3    3  502    0  0.71401918221E+03  0.92647933452E+03 -0.20747664496E+03  0.11879536641E+04  0.25500000920E-02 0. -1.
       -2    1    3    3    0  502 -0.71401918221E+03 -0.92647933452E+03 -0.93818228522E+03  0.14994576854E+04  0.25500000920E-02 0.  1.
</event>
<event>
 5   0  0.9038897E-06  0.2416325E+04  0.7818609E-02  0.8433417E-01
       -1   -1    0    0    0  501  0.00000000000E+00  0.00000000000E+00  0.67513195211E+03  0.67513195212E+03  0.50400001928E-02 0.  1.
        1   -1    0    0  501    0  0.00000000000E+00  0.00000000000E+00 -0.21620318747E+04  0.21620318747E+04  0.50400001928E-02 0. -1.
    10030    2    1    2    0    0  0.00000000000E+00  0.00000000000E+00 -0.14868999226E+04  0.28371638268E+04  0.24163251438E+04 0.  0.
        1    1    3    3  502    0 -0.15263357098E+03 -0.83525955905E+03 -0.17526179394E+04  0.19474663488E+04  0.50400001928E-02 0. -1.
       -1    1    3    3    0  502  0.15263357098E+03  0.83525955905E+03  0.26571801683E+03  0.88969747806E+03  0.50400001928E-02 0.  1.
</event>
<event>
 5   0  0.2025353E-05  0.2457498E+04  0.7818609E-02  0.8418285E-01
        2   -1    0    0  501    0  0.00000000000E+00  0.00000000000E+00  0.25451075816E+04  0.25451075816E+04  0.25500000920E-02 0.  1.
       -2   -1    0    0    0  501  0.00000000000E+00  0.00000000000E+00 -0.59322611659E+03  0.59322611660E+03  0.25500000920E-02 0. -1.
    10030    2    1    2    0    0  0.00000000000E+00  0.00000000000E+00  0.19518814651E+04  0.31383336982E+04  0.24574981481E+04 0.  0.
        4    1    3    3  502    0  0.65113007548E+03 -0.28785918545E+03  0.22548922748E+04  0.23646086505E+04  0.12699999809E+01 0.  1.
       -4    1    3    3    0  502 -0.65113007548E+03  0.28785918545E+03 -0.30301080977E+03  0.77372504779E+03  0.12699999809E+01 0. -1.
</event>
<event>
 5   0  0.2025353E-05  0.2395970E+04  0.7818609E-02  0.8441014E-01
       -2   -1    0    0    0  501  0.00000000000E+00  0.00000000000E+00  0.90897423164E+03  0.90897423164E+03  0.25500000920E-02 0.  1.
        2   -1    0    0  501    0  0.00000000000E+00  0.00000000000E+00 -0.15788870577E+04  0.15788870577E+04  0.25500000920E-02 0. -1.
    10030    2    1    2    0    0  0.00000000000E+00  0.00000000000E+00 -0.66991282601E+03  0.24878612893E+04  0.23959696576E+04 0.  0.
        4    1    3    3  502    0  0.10864144632E+04 -0.34812774948E+03 -0.71459709199E+03  0.13461574694E+04  0.12699999809E+01 0.  1.
       -4    1    3    3    0  502 -0.10864144632E+04  0.34812774948E+03  0.44684265985E+02  0.11417038199E+04  0.12699999809E+01 0. -1.
</event>
<event>
 5   0  0.2087882E-05  0.2395537E+04  0.7818609E-02  0.8441176E-01
        2   -1    0    0  501    0  0.00000000000E+00  0.00000000000E+00  0.12118245547E+04  0.12118245547E+04  0.25500000920E-02 0. -1.
       -2   -1    0    0    0  501  0.00000000000E+00  0.00000000000E+00 -0.11838751064E+04  0.11838751064E+04  0.25500000920E-02 0.  1.
    10030    2    1    2    0    0  0.00000000000E+00  0.00000000000E+00  0.27949448310E+02  0.23956996611E+04  0.23955366194E+04 0.  0.
        2    1    3    3  502    0  0.48675249359E+03 -0.77996089423E+02 -0.10777210927E+04  0.11851135530E+04  0.25500000920E-02 0.  1.
       -2    1    3    3    0  502 -0.48675249359E+03  0.77996089423E+02  0.11056705410E+04  0.12105861081E+04  0.25500000920E-02 0. -1.
</event>
<event>
 5   0  0.7233625E-06  0.2402276E+04  0.7818609E-02  0.8438652E-01
        3   -1    0    0  501    0  0.00000000000E+00  0.00000000000E+00  0.15317618077E+04  0.15317618110E+04  0.10100000352E+00 0.  1.
       -3   -1    0    0    0  501  0.00000000000E+00  0.00000000000E+00 -0.94187779976E+03  0.94187780518E+03  0.10100000352E+00 0. -1.
    10030    2    1    2    0    0  0.00000000000E+00  0.00000000000E+00  0.58988400794E+03  0.24736396162E+04  0.24022759642E+04 0.  0.
        2    1    3    3  502    0  0.43013293836E+03 -0.12927099801E+03  0.14420403871E+04  0.15103661191E+04  0.25500000920E-02 0.  1.
       -2    1    3    3    0  502 -0.43013293836E+03  0.12927099801E+03 -0.85215637921E+03  0.96327349710E+03  0.25500000920E-02 0. -1.
</event>
<event>
 5   0  0.8528103E-06  0.2310522E+04  0.7818609E-02  0.8473784E-01
        1   -1    0    0  501    0  0.00000000000E+00  0.00000000000E+00  0.10112749138E+04  0.10112749138E+04  0.50400001928E-02 0. -1.
       -1   -1    0    0    0  501  0.00000000000E+00  0.00000000000E+00 -0.13197481783E+04  0.13197481783E+04  0.50400001928E-02 0.  1.
    10030    2    1    2    0    0  0.00000000000E+00  0.00000000000E+00 -0.30847326446E+03  0.23310230921E+04  0.23105222139E+04 0.  0.
        4    1    3    3  502    0 -0.21880920732E+03  0.43500184950E+03 -0.12111591496E+04  0.13053781739E+04  0.12699999809E+01 0.  1.
       -4    1    3    3    0  502  0.21880920732E+03 -0.43500184950E+03  0.90268588512E+03  0.10256449183E+04  0.12699999809E+01 0. -1.
</event>
<event>
 5   0  0.9176817E-06  0.2392568E+04  0.7818609E-02  0.8442291E-01
       -1   -1    0    0    0  501  0.00000000000E+00  0.00000000000E+00  0.11616445658E+04  0.11616445658E+04  0.50400001928E-02 0. -1.
        1   -1    0    0  501    0  0.00000000000E+00  0.00000000000E+00 -0.12319560344E+04  0.12319560344E+04  0.50400001928E-02 0.  1.
    10030    2    1    2    0    0  0.00000000000E+00  0.00000000000E+00 -0.70311468603E+02  0.23936006003E+04  0.23925676858E+04 0.  0.
        3    1    3    3  502    0 -0.55563543846E+03 -0.26662048661E+03 -0.10609167714E+04  0.12269317953E+04  0.10100000352E+00 0.  1.
       -3    1    3    3    0  502  0.55563543846E+03  0.26662048661E+03  0.99060530280E+03  0.11666688050E+04  0.10100000352E+00 0. -1.
</event>
<event>
 5   0  0.8528103E-06  0.2420956E+04  0.7818609E-02  0.8431699E-01
       -1   -1    0    0    0  501  0.00000000000E+00  0.00000000000E+00  0.10933128620E+04  0.10933128620E+04  0.50400001928E-02 0.  1.
        1   -1    0    0  501    0  0.00000000000E+00  0.00000000000E+00 -0.13401993411E+04  0.13401993411E+04  0.50400001928E-02 0. -1.
    10030    2    1    2    0    0  0.00000000000E+00  0.00000000000E+00 -0.24688647910E+03  0.24335122031E+04  0.24209561559E+04 0.  0.
        4    1    3    3  502    0 -0.33396915866E+03  0.11312946037E+04  0.14979868018E+03  0.11890349603E+04  0.12699999809E+01 0.  1.
       -4    1    3    3    0  502  0.33396915866E+03 -0.11312946037E+04 -0.39668515929E+03  0.12444772428E+04  0.12699999809E+01 0. -1.
</event>
<event>
 5   0  0.8528103E-06  0.2409673E+04  0.7818609E-02  0.8435891E-01
       -1   -1    0    0    0  501  0.00000000000E+00  0.00000000000E+00  0.82514734395E+03  0.82514734396E+03  0.50400001928E-02 0.  1.
        1   -1    0    0  501    0  0.00000000000E+00  0.00000000000E+00 -0.17592388105E+04  0.17592388105E+04  0.50400001928E-02 0. -1.
    10030    2    1    2    0    0  0.00000000000E+00  0.00000000000E+00 -0.93409146656E+03  0.25843861545E+04  0.24096731993E+04 0.  0.
        4    1    3    3  502    0  0.52053226444E+03 -0.98170357545E+03  0.32485837153E+02  0.11116441386E+04  0.12699999809E+01 0.  1.
       -4    1    3    3    0  502 -0.52053226444E+03  0.98170357545E+03 -0.96657730372E+03  0.14727420159E+04  0.12699999809E+01 0. -1.
</event>
<event>
 5   0  0.2080257E-05  0.2398244E+04  0.7818609E-02  0.8440161E-01
       -2   -1    0    0    0  501  0.00000000000E+00  0.00000000000E+00  0.89247785289E+03  0.89247785289E+03  0.25500000920E-02 0. -1.
        2   -1    0    0  501    0  0.00000000000E+00  0.00000000000E+00 -0.16111247239E+04  0.16111247239E+04  0.25500000920E-02 0.  1.
    10030    2    1    2    0    0  0.00000000000E+00  0.00000000000E+00 -0.71864687097E+03  0.25036025767E+04  0.23982436359E+04 0.  0.
        1    1    3    3  502    0 -0.16528336237E+03 -0.60137718170E+03 -0.14284848539E+04  0.15586988427E+04  0.50400001928E-02 0.  1.
       -1    1    3    3    0  502  0.16528336237E+03  0.60137718170E+03  0.70983798291E+03  0.94490373401E+03  0.50400001928E-02 0. -1.
</event>
<event>
 5   0  0.2087882E-05  0.2396080E+04  0.7818609E-02  0.8440973E-01
        2   -1    0    0  501    0  0.00000000000E+00  0.00000000000E+00  0.26657979285E+04  0.26657979285E+04  0.25500000920E-02 0.  1.
       -2   -1    0    0    0  501  0.00000000000E+00  0.00000000000E+00 -0.53841295227E+03  0.53841295227E+03  0.25500000920E-02 0. -1.
    10030    2    1    2    0    0  0.00000000000E+00  0.00000000000E+00  0.21273849763E+04  0.32042108808E+04  0.23960802431E+04 0.  0.
        2    1    3    3  502    0 -0.67420672031E+03 -0.88207462618E+03  0.46163818661E+03  0.12023810391E+04  0.25500000920E-02 0. -1.
       -2    1    3    3    0  502  0.67420672031E+03  0.88207462618E+03  0.16657467897E+04  0.20018298417E+04  0.25500000920E-02 0.  1.
</event>
<event>
 5   0  0.2122194E-05  0.2419219E+04  0.7818609E-02  0.8432343E-01
        2   -1    0    0  501    0  0.00000000000E+00  0.00000000000E+00  0.25627769416E+04  0.25627769416E+04  0.25500000920E-02 0. -1.
       -2   -1    0    0    0  501  0.00000000000E+00  0.00000000000E+00 -0.57092586442E+03  0.57092586442E+03  0.25500000920E-02 0.  1.
    10030    2    1    2    0    0  0.00000000000E+00  0.00000000000E+00  0.19918510771E+04  0.31337028060E+04  0.24192194119E+04 0.  0.
        3    1    3    3  502    0  0.71735761913E+03  0.43385335546E+03  0.21254149575E+04  0.22847799543E+04  0.10100000352E+00 0. -1.
       -3    1    3    3    0  502 -0.71735761913E+03 -0.43385335546E+03 -0.13356388036E+03  0.84892285168E+03  0.10100000352E+00 0.  1.
</event>
<event>
 5   0  0.2048028E-05  0.2395834E+04  0.7818609E-02  0.8441065E-01
        2   -1    0    0  501    0  0.00000000000E+00  0.00000000000E+00  0.21887418930E+04  0.21887418930E+04  0.25500000920E-02 0.  1.
       -2   -1    0    0    0  501  0.00000000000E+00  0.00000000000E+00 -0.65563039208E+03  0.65563039209E+03  0.25500000920E-02 0. -1.
    10030    2    1    2    0    0  0.00000000000E+00  0.00000000000E+00  0.15331115009E+04  0.28443722851E+04  0.23958344730E+04 0.  0.
        5    1    3    3  502    0 -0.56649402891E+03 -0.25438263804E+03  0.19827176282E+04  0.20776951881E+04  0.46999998093E+01 0.  1.
       -5    1    3    3    0  502  0.56649402891E+03  0.25438263804E+03 -0.44960612732E+03  0.76667709699E+03  0.46999998093E+01 0. -1.
</event>
<event>
 5   0  0.8898848E-06  0.2394826E+04  0.7818609E-02  0.8441443E-01
       -1   -1    0    0    0  501  0.00000000000E+00  0.00000000000E+00  0.11643057034E+04  0.11643057034E+04  0.50400001928E-02 0. -1.
        1   -1    0    0  501    0  0.00000000000E+00  0.00000000000E+00 -0.12314619435E+04  0.12314619435E+04  0.50400001928E-02 0.  1.
    10030    2    1    2    0    0  0.00000000000E+00  0.00000000000E+00 -0.67156240058E+02  0.23957676470E+04  0.23948262270E+04 0.  0.
        5    1    3    3  502    0 -0.44658031485E+03  0.77643738510E+03 -0.82855212199E+03  0.12201678981E+04  0.46999998093E+01 0.  1.
       -5    1    3    3    0  502  0.44658031485E+03 -0.77643738510E+03  0.76139588194E+03  0.11755997489E+04  0.46999998093E+01 0. -1.
</event>
<event>
 5   0  0.9083687E-06  0.2385344E+04  0.7818609E-02  0.8445011E-01
        1   -1    0    0  501    0  0.00000000000E+00  0.00000000000E+00  0.16341847055E+04  0.16341847055E+04  0.50400001928E-02 0.  1.
       -1   -1    0    0    0  501  0.00000000000E+00  0.00000000000E+00 -0.87044434100E+03  0.87044434101E+03  0.50400001928E-02 0. -1.
    10030    2    1    2    0    0  0.00000000000E+00  0.00000000000E+00  0.76374036450E+03  0.25046290465E+04  0.23853442763E+04 0.  0.
        2    1    3    3  502    0  0.43245921467E+03 -0.10841195921E+04  0.12439226257E+03  0.11738013876E+04  0.25500000920E-02 0.  1.
       -2    1    3    3    0  502 -0.43245921467E+03  0.10841195921E+04  0.63934810192E+03  0.13308276590E+04  0.25500000920E-02 0. -1.
</event>
<event>
 5   0  0.8898848E-06  0.2418779E+04  0.7818609E-02  0.8432506E-01
        1   -1    0    0  501    0  0.00000000000E+00  0.00000000000E+00  0.23703884574E+04  0.23703884574E+04  0.50400001928E-02 0.  1.
       -1   -1    0    0    0  501  0.00000000000E+00  0.00000000000E+00 -0.61703937123E+03  0.61703937125E+03  0.50400001928E-02 0. -1.
    10030    2    1    2    0    0  0.00000000000E+00  0.00000000000E+00  0.17533490862E+04  0.29874278287E+04  0.24187790336E+04 0.  0.
        5    1    3    3  502    0 -0.73884889329E+02 -0.31392817399E+03  0.23162870120E+04  0.23386358176E+04  0.46999998093E+01 0.  1.
       -5    1    3    3    0  502  0.73884889329E+02  0.31392817399E+03 -0.56293792583E+03  0.64879201107E+03  0.46999998093E+01 0. -1.
</event>
<event>
 5   0  0.2087882E-05  0.2438704E+04  0.7818609E-02  0.8425154E-01
        2   -1    0    0  501    0  0.00000000000E+00  0.00000000000E+00  0.17039150554E+04  0.17039150554E+04  0.25500000920E-02 0. -1.
       -2   -1    0    0    0  501  0.00000000000E+00  0.00000000000E+00 -0.87258968249E+03  0.87258968249E+03  0.25500000920E-02 0.  1.
    10030    2    1    2    0    0  0.00000000000E+00  0.00000000000E+00  0.83132537287E+03  0.25765047379E+04  0.24387035057E+04 0.  0.
        2    1    3    3  502    0 -0.67307258186E+03  0.70799497841E+03 -0.35532255513E+03  0.10394891573E+04  0.25500000920E-02 0.  1.
       -2    1    3    3    0  502  0.67307258186E+03 -0.70799497841E+03  0.11866479280E+04  0.15370155806E+04  0.25500000920E-02 0. -1.
</event>
<event>
 5   0  0.2080257E-05  0.2353089E+04  0.7818609E-02  0.8457278E-01
        2   -1    0    0  501    0  0.00000000000E+00  0.00000000000E+00  0.18394994700E+04  0.18394994700E+04  0.25500000920E-02 0.  1.
       -2   -1    0    0    0  501  0.00000000000E+00  0.00000000000E+00 -0.75251804943E+03  0.75251804943E+03  0.25500000920E-02 0. -1.
    10030    2    1    2    0    0  0.00000000000E+00  0.00000000000E+00  0.10869814206E+04  0.25920175195E+04  0.23530886538E+04 0.  0.
        1    1    3    3  502    0 -0.11651970395E+04 -0.15742250455E+03  0.49687900900E+03  0.12764618034E+04  0.50400001928E-02 0.  1.
       -1    1    3    3    0  502  0.11651970395E+04  0.15742250455E+03  0.59010241161E+03  0.13155557161E+04  0.50400001928E-02 0. -1.
</event>
<event>
 5   0  0.2080257E-05  0.2408364E+04  0.7818609E-02  0.8436379E-01
        2   -1    0    0  501    0  0.00000000000E+00  0.00000000000E+00  0.21174822498E+04  0.21174822498E+04  0.25500000920E-02 0.  1.
       -2   -1    0    0    0  501  0.00000000000E+00  0.00000000000E+00 -0.68480100603E+03  0.68480100604E+03  0.25500000920E-02 0. -1.
    10030    2    1    2    0    0  0.00000000000E+00  0.00000000000E+00  0.14326812438E+04  0.28022832559E+04  0.24083637391E+04 0.  0.
        1    1    3    3  502    0  0.46380966032E+03 -0.39497161572E+03  0.19249528626E+04  0.20190506436E+04  0.50400001928E-02 0.  1.
       -1    1    3    3    0  502 -0.46380966032E+03  0.39497161572E+03 -0.49227161879E+03  0.78323261227E+03  0.50400001928E-02 0. -1.
</event>
<event>
 5   0  0.2122194E-05  0.2398322E+04  0.7818609E-02  0.8440132E-01
        2   -1    0    0  501    0  0.00000000000E+00  0.00000000000E+00  0.20767114033E+04  0.20767114033E+04  0.25500000920E-02 0. -1.
       -2   -1    0    0    0  501  0.00000000000E+00  0.00000000000E+00 -0.69243490088E+03  0.69243490089E+03  0.25500000920E-02 0.  1.
    10030    2    1    2    0    0  0.00000000000E+00  0.00000000000E+00  0.13842765024E+04  0.27691463042E+04  0.23983222925E+04 0.  0.
        3    1    3    3  502    0 -0.74039969196E+03  0.28202200182E+03  0.17314608679E+04  0.19041231212E+04  0.10100000352E+00 0. -1.
       -3    1    3    3    0  502  0.74039969196E+03 -0.28202200182E+03 -0.34718436545E+03  0.86502318303E+03  0.10100000352E+00 0.  1.
</event>
<event>
 5   0  0.8528103E-06  0.2405127E+04  0.7818609E-02  0.8437587E-01
        1   -1    0    0  501    0  0.00000000000E+00  0.00000000000E+00  0.14713036085E+04  0.14713036086E+04  0.50400001928E-02 0. -1.
       -1   -1    0    0    0  501  0.00000000000E+00  0.00000000000E+00 -0.98291003150E+03  0.98291003151E+03  0.50400001928E-02 0.  1.
    10030    2    1    2    0    0  0.00000000000E+00  0.00000000000E+00  0.48839357705E+03  0.24542136401E+04  0.24051270871E+04 0.  0.
        4    1    3    3  502    0  0.33898921702E+03  0.15644555804E+03  0.14106670598E+04  0.14592368103E+04  0.12699999809E+01 0. -1.
       -4    1    3    3    0  502 -0.33898921702E+03 -0.15644555804E+03 -0.92227348278E+03  0.99497682979E+03  0.12699999809E+01 0.  1.
</event>
<event>
 5   0  0.2080257E-05  0.2391449E+04  0.7818609E-02  0.8442712E-01
        2   -1    0    0  501    0  0.00000000000E+00  0.00000000000E+00  0.13062311617E+04  0.13062311617E+04  0.25500000920E-02 0.  1.
       -2   -1    0    0    0  501  0.00000000000E+00  0.00000000000E+00 -0.10945662854E+04  0.10945662854E+04  0.25500000920E-02 0. -1.
    10030    2    1    2    0    0  0.00000000000E+00  0.00000000000E+00  0.21166487624E+03  0.24007974471E+04  0.23914485907E+04 0.  0.
        1    1    3    3  502    0 -0.98681433116E+03  0.67323657922E+03  0.53604307519E+02  0.11957940615E+04  0.50400001928E-02 0. -1.
       -1    1    3    3    0  502  0.98681433116E+03 -0.67323657922E+03  0.15806056872E+03  0.12050033855E+04  0.50400001928E-02 0.  1.
</event>
<event>
 5   0  0.9083687E-06  0.2375697E+04  0.7818609E-02  0.8448659E-01
        1   -1    0    0  501    0  0.00000000000E+00  0.00000000000E+00  0.10843813865E+04  0.10843813865E+04  0.50400001928E-02 0. -1.
       -1   -1    0    0    0  501  0.00000000000E+00  0.00000000000E+00 -0.13011880381E+04  0.13011880381E+04  0.50400001928E-02 0.  1.
    10030    2    1    2    0    0  0.00000000000E+00  0.00000000000E+00 -0.21680665160E+03  0.23855694246E+04  0.23756970252E+04 0.  0.
        2    1    3    3  502    0  0.87428448449E+03 -0.96011720505E+01 -0.91580844745E+03  0.12661637551E+04  0.25500000920E-02 0.  1.
       -2    1    3    3    0  502 -0.87428448449E+03  0.96011720505E+01  0.69900179585E+03  0.11194056695E+04  0.25500000920E-02 0. -1.
</event>
<event>
 5   0  0.2048028E-05  0.2416885E+04  0.7818609E-02  0.8433209E-01
       -2   -1    0    0    0  501  0.00000000000E+00  0.00000000000E+00  0.11280223917E+04  0.11280223917E+04  0.25500000920E-02 0. -1.
        2   -1    0    0  501    0  0.00000000000E+00  0.00000000000E+00 -0.12945959731E+04  0.12945959731E+04  0.25500000920E-02 0.  1.
    10030    2    1    2    0    0  0.00000000000E+00  0.00000000000E+00 -0.16657358134E+03  0.24226183648E+04  0.24168849752E+04 0.  0.
        5    1    3    3  502    0  0.23150462535E+03  0.90839572607E+01 -0.12721164090E+04  0.12930503307E+04  0.46999998093E+01 0.  1.
       -5    1    3    3    0  502 -0.23150462535E+03 -0.90839572607E+01  0.11055428276E+04  0.11295680341E+04  0.46999998093E+01 0. -1.
</event>
<event>
 5   0  0.2122194E-05  0.2472999E+04  0.7818609E-02  0.8412668E-01
       -2   -1    0    0    0  501  0.00000000000E+00  0.00000000000E+00  0.72175051688E+03  0.72175051688E+03  0.25500000920E-02 0.  1.
        2   -1    0    0  501    0  0.00000000000E+00  0.00000000000E+00 -0.21183644346E+04  0.21183644346E+04  0.25500000920E-02 0. -1.
    10030    2    1    2    0    0  0.00000000000E+00  0.00000000000E+00 -0.13966139177E+04  0.28401149515E+04  0.24729986863E+04 0.  0.
        3    1    3    3  502    0 -0.44934518153E+03  0.57753338082E+03  0.44638977102E+03  0.85715794110E+03  0.10100000352E+00 0. -1.
       -3    1    3    3    0  502  0.44934518153E+03 -0.57753338082E+03 -0.18430036888E+04  0.19829570104E+04  0.10100000352E+00 0.  1.
</event>
<event>
 5   0  0.9083687E-06  0.2405986E+04  0.7818609E-02  0.8437266E-01
       -1   -1    0    0    0  501  0.00000000000E+00  0.00000000000E+00  0.20320269655E+04  0.20320269655E+04  0.50400001928E-02 0. -1.
        1   -1    0    0  501    0  0.00000000000E+00  0.00000000000E+00 -0.71219153380E+03  0.71219153382E+03  0.50400001928E-02 0.  1.
    10030    2    1    2    0    0  0.00000000000E+00  0.00000000000E+00  0.13198354317E+04  0.27442184993E+04  0.24059862022E+04 0.  0.
        2    1    3    3  502    0  0.46997876419E+03  0.32071332338E+03  0.18688541301E+04  0.19535487796E+04  0.25500000920E-02 0. -1.
       -2    1    3    3    0  502 -0.46997876419E+03 -0.32071332338E+03 -0.54901869838E+03  0.79066971977E+03  0.25500000920E-02 0.  1.
</event>
<event>
 5   0  0.9083687E-06  0.2358069E+04  0.7818609E-02  0.8455371E-01
       -1   -1    0    0    0  501  0.00000000000E+00  0.00000000000E+00  0.16342931614E+04  0.16342931614E+04  0.50400001928E-02 0. -1.
        1   -1    0    0  501    0  0.00000000000E+00  0.00000000000E+00 -0.85059525389E+03  0.85059525391E+03  0.50400001928E-02 0.  1.
    10030    2    1    2    0    0  0.00000000000E+00  0.00000000000E+00  0.78369790751E+03  0.24848884153E+04  0.23580687069E+04 0.  0.
        2    1    3    3  502    0  0.76724988112E+03  0.78025713086E+03 -0.70673882879E+02  0.10965711870E+04  0.25500000920E-02 0.  1.
       -2    1    3    3    0  502 -0.76724988112E+03 -0.78025713086E+03  0.85437179038E+03  0.13883172284E+04  0.25500000920E-02 0. -1.
</event>
<event>
 5   0  0.8898848E-06  0.2406927E+04  0.7818609E-02  0.8436915E-01
       -1   -1    0    0    0  501  0.00000000000E+00  0.00000000000E+00  0.88063244410E+03  0.88063244411E+03  0.50400001928E-02 0.  1.
        1   -1    0    0  501    0  0.00000000000E+00  0.00000000000E+00 -0.16446409070E+04  0.16446409070E+04  0.50400001928E-02 0. -1.
    10030    2    1    2    0    0  0.00000000000E+00  0.00000000000E+00 -0.76400846290E+03  0.25252733511E+04  0.24069267888E+04 0.  0.
        5    1    3    3  502    0 -0.96523690610E+03 -0.71736655790E+03 -0.33502548332E+03  0.12484234970E+04  0.46999998093E+01 0. -1.
       -5    1    3    3    0  502  0.96523690610E+03  0.71736655790E+03 -0.42898297958E+03  0.12768498542E+04  0.46999998093E+01 0.  1.
</event>
<event>
 5   0  0.2087882E-05  0.2412035E+04  0.7818609E-02  0.8435012E-01
       -2   -1    0    0    0  501  0.00000000000E+00  0.00000000000E+00  0.89621140900E+03  0.89621140900E+03  0.25500000920E-02 0. -1.
        2   -1    0    0  501    0  0.00000000000E+00  0.00000000000E+00 -0.16229186704E+04  0.16229186704E+04  0.25500000920E-02 0.  1.
    10030    2    1    2    0    0  0.00000000000E+00  0.00000000000E+00 -0.72670726143E+03  0.25191300794E+04  0.24120350149E+04 0.  0.
        2    1    3    3  502    0 -0.62453514796E+03  0.40280409637E+03 -0.13553596105E+04  0.15457344419E+04  0.25500000920E-02 0.  1.
       -2    1    3    3    0  502  0.62453514796E+03 -0.40280409637E+03  0.62865234909E+03  0.97339563751E+03  0.25500000920E-02 0. -1.
</event>
<event>
 5   0  0.2087882E-05  0.2390954E+04  0.7818609E-02  0.8442898E-01
       -2   -1    0    0    0  501  0.00000000000E+00  0.00000000000E+00  0.13111541311E+04  0.13111541311E+04  0.25500000920E-02 0. -1.
        2   -1    0    0  501    0  0.00000000000E+00  0.00000000000E+00 -0.10900053753E+04  0.10900053753E+04  0.25500000920E-02 0.  1.
    10030    2    1    2    0    0  0.00000000000E+00  0.00000000000E+00  0.22114875584E+03  0.24011595064E+04  0.23909538271E+04 0.  0.
        2    1    3    3  502    0 -0.24614962324E+03  0.10130279962E+04  0.69817844437E+03  0.12546985687E+04  0.25500000920E-02 0. -1.
       -2    1    3    3    0  502  0.24614962324E+03 -0.10130279962E+04 -0.47702968853E+03  0.11464609378E+04  0.25500000920E-02 0.  1.
</event>
<event>
 5   0  0.9176817E-06  0.2430587E+04  0.7818609E-02  0.8428140E-01
        1   -1    0    0  501    0  0.00000000000E+00  0.00000000000E+00  0.17645522910E+04  0.17645522910E+04  0.50400001928E-02 0.  1.
       -1   -1    0    0    0  501  0.00000000000E+00  0.00000000000E+00 -0.83700477968E+03  0.83700477969E+03  0.50400001928E-02 0. -1.
    10030    2    1    2    0    0  0.00000000000E+00  0.00000000000E+00  0.92754751128E+03  0.26015570707E+04  0.24305873377E+04 0.  0.
        3    1    3    3  502    0 -0.18465259922E+03 -0.92307026631E+02 -0.81810037717E+03  0.84374487073E+03  0.10100000352E+00 0. -1.
       -3    1    3    3    0  502  0.18465259922E+03  0.92307026631E+02  0.17456478884E+04  0.17578121999E+04  0.10100000352E+00 0.  1.
</event>
<event>
 5   0  0.2025353E-05  0.2432781E+04  0.7818609E-02  0.8427332E-01
       -2   -1    0    0    0  501  0.00000000000E+00  0.00000000000E+00  0.12385084306E+04  0.12385084306E+04  0.25500000920E-02 0.  1.
        2   -1    0    0  501    0  0.00000000000E+00  0.00000000000E+00 -0.11946672076E+04  0.11946672076E+04  0.25500000920E-02 0. -1.
    10030    2    1    2    0    0  0.00000000000E+00  0.00000000000E+00  0.43841223040E+02  0.24331756382E+04  0.24327806381E+04 0.  0.
        4    1    3    3  502    0  0.21542403473E+03 -0.11546723502E+04 -0.29424468831E+03  0.12108911183E+04  0.12699999809E+01 0. -1.
       -4    1    3    3    0  502 -0.21542403473E+03  0.11546723502E+04  0.33808591135E+03  0.12222845198E+04  0.12699999809E+01 0.  1.
</event>
<event>
 5   0  0.9038897E-06  0.2405947E+04  0.7818609E-02  0.8437280E-01
       -1   -1    0    0    0  501  0.00000000000E+00  0.00000000000E+00  0.63251342813E+03  0.63251342815E+03  0.50400001928E-02 0.  1.
        1   -1    0    0  501    0  0.00000000000E+00  0.00000000000E+00 -0.22879286991E+04  0.22879286991E+04  0.50400001928E-02 0. -1.
    10030    2    1    2    0    0  0.00000000000E+00  0.00000000000E+00 -0.16554152710E+04  0.29204421272E+04  0.24059473185E+04 0.  0.
        1    1    3    3  502    0 -0.36417533464E+03  0.31148635380E+03  0.51165029980E+03  0.70102314675E+03  0.50400001928E-02 0.  1.
       -1    1    3    3    0  502  0.36417533464E+03 -0.31148635380E+03 -0.21670655708E+04  0.22194189805E+04  0.50400001928E-02 0. -1.
</event>
<event>
 5   0  0.2087882E-05  0.2392814E+04  0.7818609E-02  0.8442199E-01
        2   -1    0    0  501    0  0.00000000000E+00  0.00000000000E+00  0.14900774937E+04  0.14900774937E+04  0.25500000920E-02 0.  1.
       -2   -1    0    0    0  501  0.00000000000E+00  0.00000000000E+00 -0.96061440499E+03  0.96061440499E+03  0.25500000920E-02 0. -1.
    10030    2    1    2    0    0  0.00000000000E+00  0.00000000000E+00  0.52946308870E+03  0.24506918987E+04  0.23928141633E+04 0.  0.
        2    1    3    3  502    0 -0.32528695127E+03 -0.68255340664E+03  0.12143584119E+04  0.14305093869E+04  0.25500000920E-02 0.  1.
       -2    1    3    3    0  502  0.32528695127E+03  0.68255340664E+03 -0.68489532317E+03  0.10201825118E+04  0.25500000920E-02 0. -1.
</event>
<event>
 5   0  0.9176817E-06  0.2398941E+04  0.7818609E-02  0.8439900E-01
        1   -1    0    0  501    0  0.00000000000E+00  0.00000000000E+00  0.11670144159E+04  0.11670144159E+04  0.50400001928E-02 0.  1.
       -1   -1    0    0    0  501  0.00000000000E+00  0.00000000000E+00 -0.12328288163E+04  0.12328288163E+04  0.50400001928E-02 0. -1.
    10030    2    1    2    0    0  0.00000000000E+00  0.00000000000E+00 -0.65814400364E+02  0.23998432322E+04  0.23989406003E+04 0.  0.
        3    1    3    3  502    0  0.11919450002E+03  0.10756065743E+04  0.48458054569E+03  0.11857297951E+04  0.10100000352E+00 0.  1.
       -3    1    3    3    0  502 -0.11919450002E+03 -0.10756065743E+04 -0.55039494605E+03  0.12141134371E+04  0.10100000352E+00 0. -1.
</event>
<event>
 5   0  0.2080257E-05  0.2390346E+04  0.7818609E-02  0.8443127E-01
       -2   -1    0    0    0  501  0.00000000000E+00  0.00000000000E+00  0.67880207306E+03  0.67880207306E+03  0.25500000920E-02 0. -1.
        2   -1    0    0  501    0  0.00000000000E+00  0.00000000000E+00 -0.21043527907E+04  0.21043527907E+04  0.25500000920E-02 0.  1.
    10030    2    1    2    0    0  0.00000000000E+00  0.00000000000E+00 -0.14255507177E+04  0.27831548638E+04  0.23903464492E+04 0.  0.
        1    1    3    3  502    0 -0.69800253612E+03 -0.86870966393E+03 -0.12157004064E+04  0.16491790379E+04  0.50400001928E-02 0.  1.
       -1    1    3    3    0  502  0.69800253612E+03  0.86870966393E+03 -0.20985031121E+03  0.11339758259E+04  0.50400001928E-02 0. -1.
</event>
<event>
 5   0  0.2048028E-05  0.2380502E+04  0.7818609E-02  0.8446840E-01
       -2   -1    0    0    0  501  0.00000000000E+00  0.00000000000E+00  0.14594068807E+04  0.14594068807E+04  0.25500000920E-02 0.  1.
        2   -1    0    0  501    0  0.00000000000E+00  0.00000000000E+00 -0.97073479621E+03  0.97073479621E+03  0.25500000920E-02 0. -1.
    10030    2    1    2    0    0  0.00000000000E+00  0.00000000000E+00  0.48867208445E+03  0.24301416769E+04  0.23805016622E+04 0.  0.
        5    1    3    3  502    0 -0.45374647483E+03  0.73697558358E+03 -0.58980503328E+03  0.10473351620E+04  0.46999998093E+01 0. -1.
       -5    1    3    3    0  502  0.45374647483E+03 -0.73697558358E+03  0.10784771177E+04  0.13828065149E+04  0.46999998093E+01 0.  1.
</event>
<event>
 5   0  0.9038897E-06  0.2400799E+04  0.7818609E-02  0.8439205E-01
       -1   -1    0    0    0  501  0.00000000000E+00  0.00000000000E+00  0.13088922717E+04  0.13088922717E+04  0.50400001928E-02 0.  1.
        1   -1    0    0  501    0  0.00000000000E+00  0.00000000000E+00 -0.11008993986E+04  0.11008993986E+04  0.50400001928E-02 0. -1.
    10030    2    1    2    0    0  0.00000000000E+00  0.00000000000E+00  0.20799287309E+03  0.24097916703E+04  0.24007987960E+04 0.  0.
        1    1    3    3  502    0 -0.58429168588E+03 -0.10426224064E+04 -0.82278107668E+01  0.11952095855E+04  0.50400001928E-02 0. -1.
       -1    1    3    3    0  502  0.58429168588E+03  0.10426224064E+04  0.21622068386E+03  0.12145820848E+04  0.50400001928E-02 0.  1.
</event>
<event>
 5   0  0.8528103E-06  0.2414153E+04  0.7818609E-02  0.8434224E-01
       -1   -1    0    0    0  501  0.00000000000E+00  0.00000000000E+00  0.67288460798E+03  0.67288460800E+03  0.50400001928E-02 0. -1.
        1   -1    0    0  501    0  0.00000000000E+00  0.00000000000E+00 -0.21653551231E+04  0.21653551231E+04  0.50400001928E-02 0.  1.
    10030    2    1    2    0    0  0.00000000000E+00  0.00000000000E+00 -0.14924705152E+04  0.28382397311E+04  0.24141533781E+04 0.  0.
        4    1    3    3  502    0 -0.10489185536E+03 -0.12999510056E+03 -0.21517011523E+04  0.21581752685E+04  0.12699999809E+01 0.  1.
       -4    1    3    3    0  502  0.10489185536E+03  0.12999510056E+03  0.65923063719E+03  0.68006446268E+03  0.12699999809E+01 0. -1.
</event>
<event>
 5   0  0.8528103E-06  0.2391799E+04  0.7818609E-02  0.8442580E-01
        1   -1    0    0  501    0  0.00000000000E+00  0.00000000000E+00  0.81407484117E+03  0.81407484119E+03  0.50400001928E-02 0. -1.
       -1   -1    0    0    0  501  0.00000000000E+00  0.00000000000E+00 -0.17568106663E+04  0.17568106663E+04  0.50400001928E-02 0.  1.
    10030    2    1    2    0    0  0.00000000000E+00  0.00000000000E+00 -0.94273582517E+03  0.25708855075E+04  0.23917987910E+04 0.  0.
        4    1    3    3  502    0 -0.10145491369E+04  0.69197352923E+02 -0.11478356646E+04  0.15335014022E+04  0.12699999809E+01 0.  1.
       -4    1    3    3    0  502  0.10145491369E+04 -0.69197352923E+02  0.20509983943E+03  0.10373841053E+04  0.12699999809E+01 0. -1.
</event>
<event>
 5   0  0.2087882E-05  0.2401252E+04  0.7818609E-02  0.8439035E-01
       -2   -1    0    0    0  501  0.00000000000E+00  0.00000000000E+00  0.10088813273E+04  0.10088813273E+04  0.25500000920E-02 0. -1.
        2   -1    0    0  501    0  0.00000000000E+00  0.00000000000E+00 -0.14288133754E+04  0.14288133754E+04  0.25500000920E-02 0.  1.
    10030    2    1    2    0    0  0.00000000000E+00  0.00000000000E+00 -0.41993204811E+03  0.24376947027E+04  0.24012522855E+04 0.  0.
        2    1    3    3  502    0 -0.91470703816E+03 -0.31290994223E+03  0.51280931548E+03  0.10943376954E+04  0.25500000920E-02 0. -1.
       -2    1    3    3    0  502  0.91470703816E+03  0.31290994223E+03 -0.93274136359E+03  0.13433570073E+04  0.25500000920E-02 0.  1.
</event>
<event>
 5   0  0.2087882E-05  0.2409115E+04  0.7818609E-02  0.8436099E-01
       -2   -1    0    0    0  501  0.00000000000E+00  0.00000000000E+00  0.73701309809E+03  0.73701309810E+03  0.25500000920E-02 0. -1.
        2   -1    0    0  501    0  0.00000000000E+00  0.00000000000E+00 -0.19687020775E+04  0.19687020775E+04  0.25500000920E-02 0.  1.
    10030    2    1    2    0    0  0.00000000000E+00  0.00000000000E+00 -0.12316889794E+04  0.27057151756E+04  0.24091153707E+04 0.  0.
        2    1    3    3  502    0  0.11845858671E+04  0.93247566084E+02 -0.39398882777E+03  0.12518650013E+04  0.25500000920E-02 0. -1.
       -2    1    3    3    0  502 -0.11845858671E+04 -0.93247566084E+02 -0.83770015165E+03  0.14538501743E+04  0.25500000920E-02 0.  1.
</event>
<event>
 5   0  0.2025353E-05  0.2411603E+04  0.7818609E-02  0.8435172E-01
       -2   -1    0    0    0  501  0.00000000000E+00  0.00000000000E+00  0.94009054551E+03  0.94009054552E+03  0.25500000920E-02 0.  1.
        2   -1    0    0  501    0  0.00000000000E+00  0.00000000000E+00 -0.15466137451E+04  0.15466137451E+04  0.25500000920E-02 0. -1.
    10030    2    1    2    0    0  0.00000000000E+00  0.00000000000E+00 -0.60652319961E+03  0.24867042906E+04  0.24116027528E+04 0.  0.
        4    1    3    3  502    0  0.61474206235E+03 -0.79945948445E+03  0.37831613843E+03  0.10771109432E+04  0.12699999809E+01 0. -1.
       -4    1    3    3    0  502 -0.61474206235E+03  0.79945948445E+03 -0.98483933803E+03  0.14095933474E+04  0.12699999809E+01 0.  1.
</event>
<event>
 5   0  0.2048028E-05  0.2401711E+04  0.7818609E-02  0.8438863E-01
       -2   -1    0    0    0  501  0.00000000000E+00  0.00000000000E+00  0.93033367427E+03  0.93033367427E+03  0.25500000920E-02 0.  1.
        2   -1    0    0  501    0  0.00000000000E+00  0.00000000000E+00 -0.15500398303E+04  0.15500398303E+04  0.25500000920E-02 0. -1.
    10030    2    1    2    0    0  0.00000000000E+00  0.00000000000E+00 -0.61970615602E+03  0.24803735046E+04  0.24017112654E+04 0.  0.
        5    1    3    3  502    0 -0.47654144449E+03  0.80813058793E+03  0.46427428609E+03  0.10467757631E+04  0.46999998093E+01 0.  1.
       -5    1    3    3    0  502  0.47654144449E+03 -0.80813058793E+03 -0.10839804421E+04  0.14335977415E+04  0.46999998093E+01 0. -1.
</event>
<event>
 5   0  0.2087882E-05  0.2401980E+04  0.7818609E-02  0.8438763E-01
       -2   -1    0    0    0  501  0.00000000000E+00  0.00000000000E+00  0.60456516865E+03  0.60456516865E+03  0.25500000920E-02 0. -1.
        2   -1    0    0  501    0  0.00000000000E+00  0.00000000000E+00 -0.23858096110E+04  0.23858096110E+04  0.25500000920E-02 0.  1.
    10030    2    1    2    0    0  0.00000000000E+00  0.00000000000E+00 -0.17812444423E+04  0.29903747796E+04  0.24019803411E+04 0.  0.
        2    1    3    3  502    0 -0.79495922581E+03 -0.88788106264E+03 -0.70561045634E+03  0.13849834180E+04  0.25500000920E-02 0.  1.
       -2    1    3    3    0  502  0.79495922581E+03  0.88788106264E+03 -0.10756339860E+04  0.16053913616E+04  0.25500000920E-02 0. -1.
</event>
<event>
 5   0  0.2080257E-05  0.2402434E+04  0.7818609E-02  0.8438593E-01
       -2   -1    0    0    0  501  0.00000000000E+00  0.00000000000E+00  0.18925877207E+04  0.18925877207E+04  0.25500000920E-02 0.  1.
        2   -1    0    0  501    0  0.00000000000E+00  0.00000000000E+00 -0.76240700264E+03  0.76240700264E+03  0.25500000920E-02 0. -1.
    10030    2    1    2    0    0  0.00000000000E+00  0.00000000000E+00  0.11301807180E+04  0.26549947233E+04  0.24024338753E+04 0.  0.
        1    1    3    3  502    0  0.91932535502E+03 -0.76316247086E+03  0.70199266087E+03  0.13857740657E+04  0.50400001928E-02 0.  1.
       -1    1    3    3    0  502 -0.91932535502E+03  0.76316247086E+03  0.42818805716E+03  0.12692206576E+04  0.50400001928E-02 0. -1.
</event>
<event>
 5   0  0.2025353E-05  0.2189363E+04  0.7818609E-02  0.8522868E-01
        2   -1    0    0  501    0  0.00000000000E+00  0.00000000000E+00  0.91935689378E+03  0.91935689378E+03  0.25500000920E-02 0. -1.
       -2   -1    0    0    0  501  0.00000000000E+00  0.00000000000E+00 -0.13034412926E+04  0.13034412926E+04  0.25500000920E-02 0.  1.
    10030    2    1    2    0    0  0.00000000000E+00  0.00000000000E+00 -0.38408439882E+03  0.22227981864E+04  0.21893631384E+04 0.  0.
        4    1    3    3  502    0 -0.44152283171E+03 -0.47005322428E+03  0.70601913902E+03  0.95622020588E+03  0.12699999809E+01 0. -1.
       -4    1    3    3    0  502  0.44152283171E+03  0.47005322428E+03 -0.10901035378E+04  0.12665779805E+04  0.12699999809E+01 0.  1.
</event>
<event>
 5   0  0.2025353E-05  0.2399991E+04  0.7818609E-02  0.8439507E-01
        2   -1    0    0  501    0  0.00000000000E+00  0.00000000000E+00  0.85546575906E+03  0.85546575907E+03  0.25500000920E-02 0. -1.
       -2   -1    0    0    0  501  0.00000000000E+00  0.00000000000E+00 -0.16832804634E+04  0.16832804634E+04  0.25500000920E-02 0.  1.
    10030    2    1    2    0    0  0.00000000000E+00  0.00000000000E+00 -0.82781470436E+03  0.25387462225E+04  0.23999906661E+04 0.  0.
        4    1    3    3  502    0 -0.86536050885E+02 -0.39812268798E+03 -0.16078788079E+04  0.16586940756E+04  0.12699999809E+01 0.  1.
       -4    1    3    3    0  502  0.86536050885E+02  0.39812268798E+03  0.78006410349E+03  0.88005214689E+03  0.12699999809E+01 0. -1.
</event>
<event>
 5   0  0.2048028E-05  0.2398550E+04  0.7818609E-02  0.8440046E-01
        2   -1    0    0  501    0  0.00000000000E+00  0.00000000000E+00  0.26858632067E+04  0.26858632067E+04  0.25500000920E-02 0.  1.
       -2   -1    0    0    0  501  0.00000000000E+00  0.00000000000E+00 -0.53549305996E+03  0.53549305997E+03  0.25500000920E-02 0. -1.
    10030    2    1    2    0    0  0.00000000000E+00  0.00000000000E+00  0.21503701467E+04  0.32213562667E+04  0.23985504849E+04 0.  0.
        5    1    3    3  502    0 -0.24851418917E+03 -0.16334815855E+03  0.26355426670E+04  0.26522724525E+04  0.46999998093E+01 0.  1.
       -5    1    3    3    0  502  0.24851418917E+03  0.16334815855E+03 -0.48517252023E+03  0.56908381413E+03  0.46999998093E+01 0. -1.
</event>
<event>
 5   0  0.8528103E-06  0.2390203E+04  0.7818609E-02  0.8443181E-01
        1   -1    0    0  501    0  0.00000000000E+00  0.00000000000E+00  0.14672198697E+04  0.14672198697E+04  0.50400001928E-02 0.  1.
       -1   -1    0    0    0  501  0.00000000000E+00  0.00000000000E+00 -0.97345145429E+03  0.97345145430E+03  0.50400001928E-02 0. -1.
    10030    2    1    2    0    0  0.00000000000E+00  0.00000000000E+00  0.49376841540E+03  0.24406713240E+04  0.23902027662E+04 0.  0.
        4    1    3    3  502    0 -0.10178684285E+04 -0.61280994886E+03  0.37873670380E+03  0.12470105352E+04  0.12699999809E+01 0. -1.
       -4    1    3    3    0  502  0.10178684285E+04  0.61280994886E+03  0.11503171160E+03  0.11936607888E+04  0.12699999809E+01 0.  1.
</event>
<event>
 5   0  0.2048028E-05  0.2401653E+04  0.7818609E-02  0.8438885E-01
       -2   -1    0    0    0  501  0.00000000000E+00  0.00000000000E+00  0.88085922417E+03  0.88085922417E+03  0.25500000920E-02 0. -1.
        2   -1    0    0  501    0  0.00000000000E+00  0.00000000000E+00 -0.16370205375E+04  0.16370205375E+04  0.25500000920E-02 0.  1.
    10030    2    1    2    0    0  0.00000000000E+00  0.00000000000E+00 -0.75616131336E+03  0.25178797617E+04  0.24016532978E+04 0.  0.
        5    1    3    3  502    0 -0.92820497011E+03 -0.56157867336E+03  0.16164134934E+03  0.10968523550E+04  0.46999998093E+01 0. -1.
       -5    1    3    3    0  502  0.92820497011E+03  0.56157867336E+03 -0.91780266270E+03  0.14210274067E+04  0.46999998093E+01 0.  1.
</event>
<event>
 5   0  0.2122194E-05  0.2431987E+04  0.7818609E-02  0.8427624E-01
        2   -1    0    0  501    0  0.00000000000E+00  0.00000000000E+00  0.10735495913E+04  0.10735495913E+04  0.25500000920E-02 0. -1.
       -2   -1    0    0    0  501  0.00000000000E+00  0.00000000000E+00 -0.13773372953E+04  0.13773372953E+04  0.25500000920E-02 0.  1.
    10030    2    1    2    0    0  0.00000000000E+00  0.00000000000E+00 -0.30378770403E+03  0.24508868866E+04  0.24319867520E+04 0.  0.
        3    1    3    3  502    0 -0.83836675792E+03 -0.24181555440E+03  0.70162749014E+03  0.11196493774E+04  0.10100000352E+00 0. -1.
       -3    1    3    3    0  502  0.83836675792E+03  0.24181555440E+03 -0.10054151942E+04  0.13312375092E+04  0.10100000352E+00 0.  1.
</event>
<event>
 5   0  0.2048028E-05  0.2402333E+04  0.7818609E-02  0.8438631E-01
        2   -1    0    0  501    0  0.00000000000E+00  0.00000000000E+00  0.84944308291E+03  0.84944308292E+03  0.25500000920E-02 0. -1.
       -2   -1    0    0    0  501  0.00000000000E+00  0.00000000000E+00 -0.16985256939E+04  0.16985256939E+04  0.25500000920E-02 0.  1.
    10030    2    1    2    0    0  0.00000000000E+00  0.00000000000E+00 -0.84908261097E+03  0.25479687768E+04  0.24023329510E+04 0.  0.
        5    1    3    3  502    0  0.11162421515E+04 -0.16529133093E+03 -0.86115348485E+03  0.14194806019E+04  0.46999998093E+01 0.  1.
       -5    1    3    3    0  502 -0.11162421515E+04  0.16529133093E+03  0.12070873881E+02  0.11284881749E+04  0.46999998093E+01 0. -1.
</event>
<event>
 5   0  0.9038897E-06  0.2381058E+04  0.7818609E-02  0.8446630E-01
       -1   -1    0    0    0  501  0.00000000000E+00  0.00000000000E+00  0.10953238394E+04  0.10953238394E+04  0.50400001928E-02 0. -1.
        1   -1    0    0  501    0  0.00000000000E+00  0.00000000000E+00 -0.12940089338E+04  0.12940089338E+04  0.50400001928E-02 0.  1.
    10030    2    1    2    0    0  0.00000000000E+00  0.00000000000E+00 -0.19868509446E+03  0.23893327732E+04  0.23810576084E+04 0.  0.
        1    1    3    3  502    0  0.89107983601E+03 -0.58125046725E+02 -0.88945250369E+03  0.12603680223E+04  0.50400001928E-02 0.  1.
       -1    1    3    3    0  502 -0.89107983601E+03  0.58125046725E+02  0.69076740923E+03  0.11289647509E+04  0.50400001928E-02 0. -1.
</event>
<event>
 5   0  0.8898848E-06  0.2408393E+04  0.7818609E-02  0.8436368E-01
       -1   -1    0    0    0  501  0.00000000000E+00  0.00000000000E+00  0.10673263753E+04  0.10673263753E+04  0.50400001928E-02 0.  1.
        1   -1    0    0  501    0  0.00000000000E+00  0.00000000000E+00 -0.13586182506E+04  0.13586182506E+04  0.50400001928E-02 0. -1.
    10030    2    1    2    0    0  0.00000000000E+00  0.00000000000E+00 -0.29129187532E+03  0.24259446260E+04  0.24083929022E+04 0.  0.
        5    1    3    3  502    0  0.26162050231E+03  0.99704210007E+03 -0.77270076823E+03  0.12882650363E+04  0.46999998093E+01 0.  1.
       -5    1    3    3    0  502 -0.26162050231E+03 -0.99704210007E+03  0.48140889291E+03  0.11376795897E+04  0.46999998093E+01 0. -1.
</event>
<event>
 5   0  0.8898848E-06  0.2398153E+04  0.7818609E-02  0.8440195E-01
        1   -1    0    0  501    0  0.00000000000E+00  0.00000000000E+00  0.15483081696E+04  0.15483081696E+04  0.50400001928E-02 0.  1.
       -1   -1    0    0    0  501  0.00000000000E+00  0.00000000000E+00 -0.92861622292E+03  0.92861622293E+03  0.50400001928E-02 0. -1.
    10030    2    1    2    0    0  0.00000000000E+00  0.00000000000E+00  0.61969194671E+03  0.24769243926E+04  0.23981526927E+04 0.  0.
        5    1    3    3  502    0 -0.36754127977E+03 -0.10788350221E+04  0.69462875316E+03  0.13347294827E+04  0.46999998093E+01 0.  1.
       -5    1    3    3    0  502  0.36754127977E+03  0.10788350221E+04 -0.74936806442E+02  0.11421949099E+04  0.46999998093E+01 0. -1.
</event>
<event>
 5   0  0.2080257E-05  0.2307224E+04  0.7818609E-02  0.8475078E-01
       -2   -1    0    0    0  501  0.00000000000E+00  0.00000000000E+00  0.10226415640E+04  0.10226415640E+04  0.25500000920E-02 0. -1.
        2   -1    0    0  501    0  0.00000000000E+00  0.00000000000E+00 -0.13013561922E+04  0.13013561922E+04  0.25500000920E-02 0.  1.
    10030    2    1    2    0    0  0.00000000000E+00  0.00000000000E+00 -0.27871462823E+03  0.23239977562E+04  0.23072242472E+04 0.  0.
        1    1    3    3  502    0  0.34097058381E+03  0.15473689337E+03 -0.12384437375E+04  0.12938111671E+04  0.50400001928E-02 0.  1.
       -1    1    3    3    0  502 -0.34097058381E+03 -0.15473689337E+03  0.95972910925E+03  0.10301865891E+04  0.50400001928E-02 0. -1.
</event>
<event>
 5   0  0.2080257E-05  0.2403181E+04  0.7818609E-02  0.8438314E-01
       -2   -1    0    0    0  501  0.00000000000E+00  0.00000000000E+00  0.12040452845E+04  0.12040452845E+04  0.25500000920E-02 0.  1.
        2   -1    0    0  501    0  0.00000000000E+00  0.00000000000E+00 -0.11991406910E+04  0.11991406910E+04  0.25500000920E-02 0. -1.
    10030    2    1    2    0    0  0.00000000000E+00  0.00000000000E+00  0.49045935214E+01  0.24031859755E+04  0.24031809707E+04 0.  0.
        1    1    3    3  502    0  0.53381262126E+03 -0.70020792089E+03 -0.81521232401E+03  0.11999242394E+04  0.50400001928E-02 0. -1.
       -1    1    3    3    0  502 -0.53381262126E+03  0.70020792089E+03  0.82011691753E+03  0.12032617361E+04  0.50400001928E-02 0.  1.
</event>
<event>
 5   0  0.8528103E-06  0.2386672E+04  0.7818609E-02  0.8444510E-01
        1   -1    0    0  501    0  0.00000000000E+00  0.00000000000E+00  0.10931445145E+04  0.10931445145E+04  0.50400001928E-02 0. -1.
       -1   -1    0    0    0  501  0.00000000000E+00  0.00000000000E+00 -0.13027108874E+04  0.13027108874E+04  0.50400001928E-02 0.  1.
    10030    2    1    2    0    0  0.00000000000E+00  0.00000000000E+00 -0.20956637287E+03  0.23958554020E+04  0.23866723785E+04 0.  0.
        4    1    3    3  502    0 -0.10288158959E+04  0.56528707526E+03  0.11060710654E+03  0.11790874311E+04  0.12699999809E+01 0. -1.
       -4    1    3    3    0  502  0.10288158959E+04 -0.56528707526E+03 -0.32017347942E+03  0.12167679709E+04  0.12699999809E+01 0.  1.
</event>
<event>
 5   0  0.2087882E-05  0.2379231E+04  0.7818609E-02  0.8447320E-01
        2   -1    0    0  501    0  0.00000000000E+00  0.00000000000E+00  0.14327390630E+04  0.14327390630E+04  0.25500000920E-02 0.  1.
       -2   -1    0    0    0  501  0.00000000000E+00  0.00000000000E+00 -0.98774777822E+03  0.98774777822E+03  0.25500000920E-02 0. -1.
    10030    2    1    2    0    0  0.00000000000E+00  0.00000000000E+00  0.44499128482E+03  0.24204868413E+04  0.23792308222E+04 0.  0.
        2    1    3    3  502    0  0.44187923463E+03  0.34304105043E+03 -0.84559050465E+03  0.10138824990E+04  0.25500000920E-02 0. -1.
       -2    1    3    3    0  502 -0.44187923463E+03 -0.34304105043E+03  0.12905817895E+04  0.14066043422E+04  0.25500000920E-02 0.  1.
</event>
<event>
 5   0  0.7233625E-06  0.2372382E+04  0.7818609E-02  0.8449916E-01
       -3   -1    0    0    0  501  0.00000000000E+00  0.00000000000E+00  0.13925587905E+04  0.13925587941E+04  0.10100000352E+00 0.  1.
        3   -1    0    0  501    0  0.00000000000E+00  0.00000000000E+00 -0.10104057582E+04  0.10104057632E+04  0.10100000352E+00 0. -1.
    10030    2    1    2    0    0  0.00000000000E+00  0.00000000000E+00  0.38215303229E+03  0.24029645573E+04  0.23723822887E+04 0.  0.
        1    1    3    3  502    0 -0.84459199388E+03 -0.75787994866E+03  0.54097394262E+03  0.12571278612E+04  0.50400001928E-02 0. -1.
       -1    1    3    3    0  502  0.84459199388E+03  0.75787994866E+03 -0.15882091033E+03  0.11458366962E+04  0.50400001928E-02 0.  1.
</event>
<event>
 5   0  0.2048028E-05  0.2395740E+04  0.7818609E-02  0.8441100E-01
        2   -1    0    0  501    0  0.00000000000E+00  0.00000000000E+00  0.14870100720E+04  0.14870100720E+04  0.25500000920E-02 0.  1.
       -2   -1    0    0    0  501  0.00000000000E+00  0.00000000000E+00 -0.96495118276E+03  0.96495118276E+03  0.25500000920E-02 0. -1.
    10030    2    1    2    0    0  0.00000000000E+00  0.00000000000E+00  0.52205888925E+03  0.24519612548E+04  0.23957396584E+04 0.  0.
        5    1    3    3  502    0 -0.71269036650E+03  0.18997884955E+03 -0.70496893762E+03  0.10203052557E+04  0.46999998093E+01 0. -1.
       -5    1    3    3    0  502  0.71269036650E+03 -0.18997884955E+03  0.12270278269E+04  0.14316559991E+04  0.46999998093E+01 0.  1.
</event>
<event>
 5   0  0.2048028E-05  0.2415933E+04  0.7818609E-02  0.8433562E-01
       -2   -1    0    0    0  501  0.00000000000E+00  0.00000000000E+00  0.72271638007E+03  0.72271638008E+03  0.25500000920E-02 0.  1.
        2   -1    0    0  501    0  0.00000000000E+00  0.00000000000E+00 -0.20190258020E+04  0.20190258020E+04  0.25500000920E-02 0. -1.
    10030    2    1    2    0    0  0.00000000000E+00  0.00000000000E+00 -0.12963094220E+04  0.27417421821E+04  0.24159329618E+04 0.  0.
        5    1    3    3  502    0 -0.11353687221E+04  0.28832163505E+03 -0.31347834617E+03  0.12126344312E+04  0.46999998093E+01 0.  1.
       -5    1    3    3    0  502  0.11353687221E+04 -0.28832163505E+03 -0.98283107579E+03  0.15291077509E+04  0.46999998093E+01 0. -1.
</event>
<event>
 5   0  0.9038897E-06  0.2385510E+04  0.7818609E-02  0.8444948E-01
       -1   -1    0    0    0  501  0.00000000000E+00  0.00000000000E+00  0.77063725613E+03  0.77063725615E+03  0.50400001928E-02 0. -1.
        1   -1    0    0  501    0  0.00000000000E+00  0.00000000000E+00 -0.18460880302E+04  0.18460880302E+04  0.50400001928E-02 0.  1.
    10030    2    1    2    0    0  0.00000000000E+00  0.00000000000E+00 -0.10754507741E+04  0.26167252863E+04  0.23855097687E+04 0.  0.
        1    1    3    3  502    0 -0.63850799531E+03  0.93494039746E+03 -0.12603757476E+03  0.11391626210E+04  0.50400001928E-02 0. -1.
       -1    1    3    3    0  502  0.63850799531E+03 -0.93494039746E+03 -0.94941319929E+03  0.14775626653E+04  0.50400001928E-02 0.  1.
</event>
<event>
 5   0  0.8528103E-06  0.2415323E+04  0.7818609E-02  0.8433789E-01
       -1   -1    0    0    0  501  0.00000000000E+00  0.00000000000E+00  0.83943339710E+03  0.83943339712E+03  0.50400001928E-02 0. -1.
        1   -1    0    0  501    0  0.00000000000E+00  0.00000000000E+00 -0.17374178220E+04  0.17374178220E+04  0.50400001928E-02 0.  1.
    10030    2    1    2    0    0  0.00000000000E+00  0.00000000000E+00 -0.89798442488E+03  0.25768512191E+04  0.24153232037E+04 0.  0.
        4    1    3    3  502    0 -0.90883100305E+03  0.35462098414E+03 -0.12084366623E+04  0.15530777876E+04  0.12699999809E+01 0.  1.
       -4    1    3    3    0  502  0.90883100305E+03 -0.35462098414E+03  0.31045223744E+03  0.10237734315E+04  0.12699999809E+01 0. -1.
</event>
<event>
 5   0  0.2122194E-05  0.2403646E+04  0.7818609E-02  0.8438140E-01
       -2   -1    0    0    0  501  0.00000000000E+00  0.00000000000E+00  0.12909203053E+04  0.12909203053E+04  0.25500000920E-02 0. -1.
        2   -1    0    0  501    0  0.00000000000E+00  0.00000000000E+00 -0.11188747212E+04  0.11188747213E+04  0.25500000920E-02 0.  1.
    10030    2    1    2    0    0  0.00000000000E+00  0.00000000000E+00  0.17204558405E+03  0.24097950265E+04  0.24036456451E+04 0.  0.
        3    1    3    3  502    0 -0.76928016912E+03 -0.53368111917E+03  0.84145604901E+03  0.12588311277E+04  0.10100000352E+00 0. -1.
       -3    1    3    3    0  502  0.76928016912E+03  0.53368111917E+03 -0.66941046496E+03  0.11509638988E+04  0.10100000352E+00 0.  1.
</event>
<event>
 5   0  0.2080257E-05  0.2403527E+04  0.7818609E-02  0.8438184E-01
       -2   -1    0    0    0  501  0.00000000000E+00  0.00000000000E+00  0.98119006722E+03  0.98119006722E+03  0.25500000920E-02 0.  1.
        2   -1    0    0  501    0  0.00000000000E+00  0.00000000000E+00 -0.14719226623E+04  0.14719226623E+04  0.25500000920E-02 0. -1.
    10030    2    1    2    0    0  0.00000000000E+00  0.00000000000E+00 -0.49073259512E+03  0.24531127296E+04  0.24035273213E+04 0.  0.
        1    1    3    3  502    0 -0.10225414881E+03  0.25177297210E+03  0.94942098057E+03  0.98754530975E+03  0.50400001928E-02 0.  1.
       -1    1    3    3    0  502  0.10225414881E+03 -0.25177297210E+03 -0.14401535757E+04  0.14655674198E+04  0.50400001928E-02 0. -1.
</event>
<event>
 5   0  0.2048028E-05  0.2270691E+04  0.7818609E-02  0.8489568E-01
        2   -1    0    0  501    0  0.00000000000E+00  0.00000000000E+00  0.71120586440E+03  0.71120586441E+03  0.25500000920E-02 0.  1.
       -2   -1    0    0    0  501  0.00000000000E+00  0.00000000000E+00 -0.18124277735E+04  0.18124277735E+04  0.25500000920E-02 0. -1.
    10030    2    1    2    0    0  0.00000000000E+00  0.00000000000E+00 -0.11012219091E+04  0.25236336379E+04  0.22706908740E+04 0.  0.
        5    1    3    3  502    0 -0.57410213681E+03  0.21547372562E+03 -0.16125396411E+04  0.17252038645E+04  0.46999998093E+01 0. -1.
       -5    1    3    3    0  502  0.57410213681E+03 -0.21547372562E+03  0.51131773204E+03  0.79842977338E+03  0.46999998093E+01 0.  1.
</event>
<event>
 5   0  0.2048028E-05  0.2368380E+04  0.7818609E-02  0.8451437E-01
        2   -1    0    0  501    0  0.00000000000E+00  0.00000000000E+00  0.72446499780E+03  0.72446499780E+03  0.25500000920E-02 0. -1.
       -2   -1    0    0    0  501  0.00000000000E+00  0.00000000000E+00 -0.19356438770E+04  0.19356438770E+04  0.25500000920E-02 0.  1.
    10030    2    1    2    0    0  0.00000000000E+00  0.00000000000E+00 -0.12111788792E+04  0.26601088748E+04  0.23683802373E+04 0.  0.
        5    1    3    3  502    0  0.89957938695E+03 -0.72386683936E+03 -0.90074745478E+03  0.14644433556E+04  0.46999998093E+01 0.  1.
       -5    1    3    3    0  502 -0.89957938695E+03  0.72386683936E+03 -0.31043142445E+03  0.11956655192E+04  0.46999998093E+01 0. -1.
</event>
<event>
 5   0  0.2122194E-05  0.2338190E+04  0.7818609E-02  0.8463014E-01
       -2   -1    0    0    0  501  0.00000000000E+00  0.00000000000E+00  0.97580733230E+03  0.97580733230E+03  0.25500000920E-02 0. -1.
        2   -1    0    0  501    0  0.00000000000E+00  0.00000000000E+00 -0.14006695382E+04  0.14006695382E+04  0.25500000920E-02 0.  1.
    10030    2    1    2    0    0  0.00000000000E+00  0.00000000000E+00 -0.42486220588E+03  0.23764768705E+04  0.23381904161E+04 0.  0.
        3    1    3    3  502    0  0.86631790999E+03  0.49851037411E+03 -0.82879683996E+03  0.12984311789E+04  0.10100000352E+00 0.  1.
       -3    1    3    3    0  502 -0.86631790999E+03 -0.49851037411E+03  0.40393463408E+03  0.10780456916E+04  0.10100000352E+00 0. -1.
</event>
<event>
 5   0  0.2025353E-05  0.2471086E+04  0.7818609E-02  0.8413359E-01
       -2   -1    0    0    0  501  0.00000000000E+00  0.00000000000E+00  0.12750113740E+04  0.12750113740E+04  0.25500000920E-02 0.  1.
        2   -1    0    0  501    0  0.00000000000E+00  0.00000000000E+00 -0.11972967941E+04  0.11972967941E+04  0.25500000920E-02 0. -1.
    10030    2    1    2    0    0  0.00000000000E+00  0.00000000000E+00  0.77714579909E+02  0.24723081681E+04  0.24710864255E+04 0.  0.
        4    1    3    3  502    0  0.12189381475E+04  0.18638581837E+03  0.11645552918E+03  0.12385933085E+04  0.12699999809E+01 0.  1.
       -4    1    3    3    0  502 -0.12189381475E+04 -0.18638581837E+03 -0.38740949275E+02  0.12337148596E+04  0.12699999809E+01 0. -1.
</event>
<event>
 5   0  0.8898848E-06  0.2404786E+04  0.7818609E-02  0.8437714E-01
       -1   -1    0    0    0  501  0.00000000000E+00  0.00000000000E+00  0.92310116357E+03  0.92310116359E+03  0.50400001928E-02 0. -1.
        1   -1    0    0  501    0  0.00000000000E+00  0.00000000000E+00 -0.15661873587E+04  0.15661873587E+04  0.50400001928E-02 0.  1.
    10030    2    1    2    0    0  0.00000000000E+00  0.00000000000E+00 -0.64308619509E+03  0.24892885223E+04  0.24047863715E+04 0.  0.
        5    1    3    3  502    0  0.91927848291E+03  0.76607348182E+03 -0.20000447225E+03  0.12132458068E+04  0.46999998093E+01 0. -1.
       -5    1    3    3    0  502 -0.91927848291E+03 -0.76607348182E+03 -0.44308172284E+03  0.12760427155E+04  0.46999998093E+01 0.  1.
</event>
<event>
 5   0  0.2122194E-05  0.2411217E+04  0.7818609E-02  0.8435316E-01
        2   -1    0    0  501    0  0.00000000000E+00  0.00000000000E+00  0.13713242106E+04  0.13713242106E+04  0.25500000920E-02 0. -1.
       -2   -1    0    0    0  501  0.00000000000E+00  0.00000000000E+00 -0.10599188712E+04  0.10599188712E+04  0.25500000920E-02 0.  1.
    10030    2    1    2    0    0  0.00000000000E+00  0.00000000000E+00  0.31140533945E+03  0.24312430818E+04  0.24112174596E+04 0.  0.
        3    1    3    3  502    0 -0.11921640780E+04  0.22742026637E+02  0.33528295833E+03  0.12386230504E+04  0.10100000352E+00 0. -1.
       -3    1    3    3    0  502  0.11921640780E+04 -0.22742026637E+02 -0.23877618877E+02  0.11926200315E+04  0.10100000352E+00 0.  1.
</event>
<event>
 5   0  0.2025353E-05  0.2235117E+04  0.7818609E-02  0.8503952E-01
       -2   -1    0    0    0  501  0.00000000000E+00  0.00000000000E+00  0.12195439791E+04  0.12195439791E+04  0.25500000920E-02 0.  1.
        2   -1    0    0  501    0  0.00000000000E+00  0.00000000000E+00 -0.10241019020E+04  0.10241019020E+04  0.25500000920E-02 0. -1.
    10030    2    1    2    0    0  0.00000000000E+00  0.00000000000E+00  0.19544207717E+03  0.22436458811E+04  0.22351172753E+04 0.  0.
        4    1    3    3  502    0  0.14123630795E+03  0.92965450784E+03  0.70395468512E+03  0.11746314359E+04  0.12699999809E+01 0.  1.
       -4    1    3    3    0  502 -0.14123630795E+03 -0.92965450784E+03 -0.50851260795E+03  0.10690144452E+04  0.12699999809E+01 0. -1.
</event>
<event>
 5   0  0.2080257E-05  0.2396011E+04  0.7818609E-02  0.8440999E-01
        2   -1    0    0  501    0  0.00000000000E+00  0.00000000000E+00  0.15790147620E+04  0.15790147620E+04  0.25500000920E-02 0.  1.
       -2   -1    0    0    0  501  0.00000000000E+00  0.00000000000E+00 -0.90893174447E+03  0.90893174447E+03  0.25500000920E-02 0. -1.
    10030    2    1    2    0    0  0.00000000000E+00  0.00000000000E+00  0.67008301750E+03  0.24879465064E+04  0.23960105527E+04 0.  0.
        1    1    3    3  502    0  0.54253009218E+02  0.93064369451E+03  0.11163595879E+04  0.14544070285E+04  0.50400001928E-02 0.  1.
       -1    1    3    3    0  502 -0.54253009218E+02 -0.93064369451E+03 -0.44627657037E+03  0.10335394779E+04  0.50400001928E-02 0. -1.
</event>
<event>
 5   0  0.8528103E-06  0.2418539E+04  0.7818609E-02  0.8432595E-01
        1   -1    0    0  501    0  0.00000000000E+00  0.00000000000E+00  0.14975284098E+04  0.14975284098E+04  0.50400001928E-02 0.  1.
       -1   -1    0    0    0  501  0.00000000000E+00  0.00000000000E+00 -0.97649762524E+03  0.97649762525E+03  0.50400001928E-02 0. -1.
    10030    2    1    2    0    0  0.00000000000E+00  0.00000000000E+00  0.52103078453E+03  0.24740260350E+04  0.24185391755E+04 0.  0.
        4    1    3    3  502    0 -0.87256135104E+02  0.12059250555E+04  0.23851736408E+03  0.12323802248E+04  0.12699999809E+01 0. -1.
       -4    1    3    3    0  502  0.87256135104E+02 -0.12059250555E+04  0.28251342045E+03  0.12416458103E+04  0.12699999809E+01 0.  1.
</event>
<event>
 5   0  0.2122194E-05  0.2404918E+04  0.7818609E-02  0.8437665E-01
        2   -1    0    0  501    0  0.00000000000E+00  0.00000000000E+00  0.26710114680E+04  0.26710114680E+04  0.25500000920E-02 0. -1.
       -2   -1    0    0    0  501  0.00000000000E+00  0.00000000000E+00 -0.54133352993E+03  0.54133352994E+03  0.25500000920E-02 0.  1.
    10030    2    1    2    0    0  0.00000000000E+00  0.00000000000E+00  0.21296779381E+04  0.32123449979E+04  0.24049183491E+04 0.  0.
        3    1    3    3  502    0  0.47878027698E+03 -0.96798243101E+03  0.35842645168E+03  0.11378444849E+04  0.10100000352E+00 0.  1.
       -3    1    3    3    0  502 -0.47878027698E+03  0.96798243101E+03  0.17712514864E+04  0.20745005130E+04  0.10100000352E+00 0. -1.
</event>
<event>
 5   0  0.2048028E-05  0.2399858E+04  0.7818609E-02  0.8439557E-01
        2   -1    0    0  501    0  0.00000000000E+00  0.00000000000E+00  0.25213463333E+04  0.25213463333E+04  0.25500000920E-02 0.  1.
       -2   -1    0    0    0  501  0.00000000000E+00  0.00000000000E+00 -0.57105568766E+03  0.57105568767E+03  0.25500000920E-02 0. -1.
    10030    2    1    2    0    0  0.00000000000E+00  0.00000000000E+00  0.19502906456E+04  0.30924020210E+04  0.23998576326E+04 0.  0.
        5    1    3    3  502    0 -0.19363209016E+03 -0.11656272055E+04  0.70599948053E+03  0.13764583266E+04  0.46999998093E+01 0. -1.
       -5    1    3    3    0  502  0.19363209016E+03  0.11656272055E+04  0.12442911651E+04  0.17159436943E+04  0.46999998093E+01 0.  1.
</event>
<event>
 5   0  0.9176817E-06  0.2415651E+04  0.7818609E-02  0.8433667E-01
       -1   -1    0    0    0  501  0.00000000000E+00  0.00000000000E+00  0.61679069907E+03  0.61679069909E+03  0.50400001928E-02 0. -1.
        1   -1    0    0  501    0  0.00000000000E+00  0.00000000000E+00 -0.23652150104E+04  0.23652150104E+04  0.50400001928E-02 0.  1.
    10030    2    1    2    0    0  0.00000000000E+00  0.00000000000E+00 -0.17484243113E+04  0.29820057095E+04  0.24156511501E+04 0.  0.
        3    1    3    3  502    0 -0.11368285743E+04 -0.32108013386E+03 -0.11849680405E+04  0.16732067795E+04  0.10100000352E+00 0.  1.
       -3    1    3    3    0  502  0.11368285743E+04  0.32108013386E+03 -0.56345627080E+03  0.13087989300E+04  0.10100000352E+00 0. -1.
</event>
<event>
 5   0  0.8528103E-06  0.2424923E+04  0.7818609E-02  0.8430231E-01
       -1   -1    0    0    0  501  0.00000000000E+00  0.00000000000E+00  0.10840801047E+04  0.10840801048E+04  0.50400001928E-02 0. -1.
        1   -1    0    0  501    0  0.00000000000E+00  0.00000000000E+00 -0.13560462311E+04  0.13560462311E+04  0.50400001928E-02 0.  1.
    10030    2    1    2    0    0  0.00000000000E+00  0.00000000000E+00 -0.27196612637E+03  0.24401263359E+04  0.24249228774E+04 0.  0.
        4    1    3    3  502    0  0.37826142168E+03  0.11518345389E+04 -0.11986328357E+03  0.12182665257E+04  0.12699999809E+01 0. -1.
       -4    1    3    3    0  502 -0.37826142168E+03 -0.11518345389E+04 -0.15210284280E+03  0.12218598102E+04  0.12699999809E+01 0.  1.
</event>
<event>
 5   0  0.2025353E-05  0.2399767E+04  0.7818609E-02  0.8439591E-01
        2   -1    0    0  501    0  0.00000000000E+00  0.00000000000E+00  0.21674323748E+04  0.21674323748E+04  0.25500000920E-02 0. -1.
       -2   -1    0    0    0  501  0.00000000000E+00  0.00000000000E+00 -0.66425134893E+03  0.66425134893E+03  0.25500000920E-02 0.  1.
    10030    2    1    2    0    0  0.00000000000E+00  0.00000000000E+00  0.15031810258E+04  0.28316837237E+04  0.23997665542E+04 0.  0.
        4    1    3    3  502    0 -0.66246028663E+03  0.83605407528E+03  0.10326720260E+03  0.10716836176E+04  0.12699999809E+01 0.  1.
       -4    1    3    3    0  502  0.66246028663E+03 -0.83605407528E+03  0.13999138232E+04  0.17600001061E+04  0.12699999809E+01 0. -1.
</event>
<event>
 5   0  0.9176817E-06  0.2306140E+04  0.7818609E-02  0.8475504E-01
        1   -1    0    0  501    0  0.00000000000E+00  0.00000000000E+00  0.43222899025E+03  0.43222899028E+03  0.50400001928E-02 0. -1.
       -1   -1    0    0    0  501  0.00000000000E+00  0.00000000000E+00 -0.30760781884E+04  0.30760781884E+04  0.50400001928E-02 0.  1.
    10030    2    1    2    0    0  0.00000000000E+00  0.00000000000E+00 -0.26438491981E+04  0.35083071787E+04  0.23061397784E+04 0.  0.
        3    1    3    3  502    0 -0.76918165562E+01 -0.11450317430E+04 -0.15283569842E+04  0.19097203821E+04  0.10100000352E+00 0.  1.
       -3    1    3    3    0  502  0.76918165562E+01  0.11450317430E+04 -0.11154922140E+04  0.15985867966E+04  0.10100000352E+00 0. -1.
</event>
<event>
 5   0  0.2048028E-05  0.2398166E+04  0.7818609E-02  0.8440191E-01
        2   -1    0    0  501    0  0.00000000000E+00  0.00000000000E+00  0.11502047007E+04  0.11502047007E+04  0.25500000920E-02 0.  1.
       -2   -1    0    0    0  501  0.00000000000E+00  0.00000000000E+00 -0.12500381568E+04  0.12500381568E+04  0.25500000920E-02 0. -1.
    10030    2    1    2    0    0  0.00000000000E+00  0.00000000000E+00 -0.99833456116E+02  0.24002428575E+04  0.23981657691E+04 0.  0.
        5    1    3    3  502    0 -0.10242076230E+04 -0.50056387517E+03  0.32217431605E+03  0.11846450219E+04  0.46999998093E+01 0.  1.
       -5    1    3    3    0  502  0.10242076230E+04  0.50056387517E+03 -0.42200777216E+03  0.12155978356E+04  0.46999998093E+01 0. -1.
</event>
<event>
 5   0  0.2087882E-05  0.2412387E+04  0.7818609E-02  0.8434881E-01
        2   -1    0    0  501    0  0.00000000000E+00  0.00000000000E+00  0.12280355281E+04  0.12280355281E+04  0.25500000920E-02 0. -1.
       -2   -1    0    0    0  501  0.00000000000E+00  0.00000000000E+00 -0.11847401033E+04  0.11847401033E+04  0.25500000920E-02 0.  1.
    10030    2    1    2    0    0  0.00000000000E+00  0.00000000000E+00  0.43295424837E+02  0.24127756314E+04  0.24123871484E+04 0.  0.
        2    1    3    3  502    0  0.81673225162E+03  0.82133975326E+03  0.35823181159E+03  0.12124275615E+04  0.25500000920E-02 0. -1.
       -2    1    3    3    0  502 -0.81673225162E+03 -0.82133975326E+03 -0.31493638675E+03  0.12003480699E+04  0.25500000920E-02 0.  1.
</event>
<event>
 5   0  0.2048028E-05  0.2376244E+04  0.7818609E-02  0.8448451E-01
       -2   -1    0    0    0  501  0.00000000000E+00  0.00000000000E+00  0.10249948330E+04  0.10249948330E+04  0.25500000920E-02 0. -1.
        2   -1    0    0  501    0  0.00000000000E+00  0.00000000000E+00 -0.13772103162E+04  0.13772103162E+04  0.25500000920E-02 0.  1.
    10030    2    1    2    0    0  0.00000000000E+00  0.00000000000E+00 -0.35221548313E+03  0.24022051492E+04  0.23762436391E+04 0.  0.
        5    1    3    3  502    0 -0.90246265514E+03  0.49469185326E+03 -0.77627102187E+03  0.12890995551E+04  0.46999998093E+01 0.  1.
       -5    1    3    3    0  502  0.90246265514E+03 -0.49469185326E+03  0.42405553874E+03  0.11131055941E+04  0.46999998093E+01 0. -1.
</event>
<event>
 5   0  0.8898848E-06  0.2425953E+04  0.7818609E-02  0.8429851E-01
       -1   -1    0    0    0  501  0.00000000000E+00  0.00000000000E+00  0.19128549040E+04  0.19128549040E+04  0.50400001928E-02 0.  1.
        1   -1    0    0  501    0  0.00000000000E+00  0.00000000000E+00 -0.76917088497E+03  0.76917088498E+03  0.50400001928E-02 0. -1.
    10030    2    1    2    0    0  0.00000000000E+00  0.00000000000E+00  0.11436840191E+04  0.26820257890E+04  0.24259532554E+04 0.  0.
        5    1    3    3  502    0 -0.10013388189E+04 -0.98040216975E+02  0.13208498108E+04  0.16604088735E+04  0.46999998093E+01 0. -1.
       -5    1    3    3    0  502  0.10013388189E+04  0.98040216975E+02 -0.17716579175E+03  0.10216169156E+04  0.46999998093E+01 0.  1.
</event>
<event>
 5   0  0.8528103E-06  0.2351034E+04  0.7818609E-02  0.8458066E-01
        1   -1    0    0  501    0  0.00000000000E+00  0.00000000000E+00  0.13247725223E+04  0.13247725223E+04  0.50400001928E-02 0. -1.
       -1   -1    0    0    0  501  0.00000000000E+00  0.00000000000E+00 -0.10430776707E+04  0.10430776707E+04  0.50400001928E-02 0.  1.
    10030    2    1    2    0    0  0.00000000000E+00  0.00000000000E+00  0.28169485164E+03  0.23678501930E+04  0.23510343568E+04 0.  0.
        4    1    3    3  502    0  0.10505493392E+04 -0.32879822681E+03  0.55620088358E+03  0.12333382439E+04  0.12699999809E+01 0. -1.
       -4    1    3    3    0  502 -0.10505493392E+04  0.32879822681E+03 -0.27450603194E+03  0.11345119491E+04  0.12699999809E+01 0.  1.
</event>
<event>
 5   0  0.2122194E-05  0.2347546E+04  0.7818609E-02  0.8459407E-01
       -2   -1    0    0    0  501  0.00000000000E+00  0.00000000000E+00  0.10542111618E+04  0.10542111618E+04  0.25500000920E-02 0. -1.
        2   -1    0    0  501    0  0.00000000000E+00  0.00000000000E+00 -0.13068944424E+04  0.13068944424E+04  0.25500000920E-02 0.  1.
    10030    2    1    2    0    0  0.00000000000E+00  0.00000000000E+00 -0.25268328069E+03  0.23611056042E+04  0.23475457043E+04 0.  0.
        3    1    3    3  502    0 -0.10142009482E+04 -0.59074915991E+03 -0.13884586626E+03  0.11818909925E+04  0.10100000352E+00 0. -1.
       -3    1    3    3    0  502  0.10142009482E+04  0.59074915991E+03 -0.11383741443E+03  0.11792146117E+04  0.10100000352E+00 0.  1.
</event>
<event>
 5   0  0.9083687E-06  0.2384110E+04  0.7818609E-02  0.8445477E-01
        1   -1    0    0  501    0  0.00000000000E+00  0.00000000000E+00  0.77046276351E+03  0.77046276353E+03  0.50400001928E-02 0.  1.
       -1   -1    0    0    0  501  0.00000000000E+00  0.00000000000E+00 -0.18443391713E+04  0.18443391713E+04  0.50400001928E-02 0. -1.
    10030    2    1    2    0    0  0.00000000000E+00  0.00000000000E+00 -0.10738764078E+04  0.26148019348E+04  0.23841096072E+04 0.  0.
        2    1    3    3  502    0  0.59599836654E+03  0.76801765700E+03  0.21969236495E+03  0.99665937492E+03  0.25500000920E-02 0.  1.
       -2    1    3    3    0  502 -0.59599836654E+03 -0.76801765700E+03 -0.12935687727E+04  0.16181425599E+04  0.25500000920E-02 0. -1.
</event>
<event>
 5   0  0.2025353E-05  0.2476755E+04  0.7818609E-02  0.8411314E-01
       -2   -1    0    0    0  501  0.00000000000E+00  0.00000000000E+00  0.11401811453E+04  0.11401811453E+04  0.25500000920E-02 0. -1.
        2   -1    0    0  501    0  0.00000000000E+00  0.00000000000E+00 -0.13450308999E+04  0.13450308999E+04  0.25500000920E-02 0.  1.
    10030    2    1    2    0    0  0.00000000000E+00  0.00000000000E+00 -0.20484975460E+03  0.24852120451E+04  0.24767550318E+04 0.  0.
        4    1    3    3  502    0  0.42594517740E+03 -0.11556538300E+04  0.26903503188E+02  0.12319458107E+04  0.12699999809E+01 0. -1.
       -4    1    3    3    0  502 -0.42594517740E+03  0.11556538300E+04 -0.23175325779E+03  0.12532662345E+04  0.12699999809E+01 0.  1.
</event>
<event>
 5   0  0.8528103E-06  0.2416711E+04  0.7818609E-02  0.8433274E-01
       -1   -1    0    0    0  501  0.00000000000E+00  0.00000000000E+00  0.95726461251E+03  0.95726461252E+03  0.50400001928E-02 0.  1.
        1   -1    0    0  501    0  0.00000000000E+00  0.00000000000E+00 -0.15253079823E+04  0.15253079823E+04  0.50400001928E-02 0. -1.
    10030    2    1    2    0    0  0.00000000000E+00  0.00000000000E+00 -0.56804336982E+03  0.24825725949E+04  0.24167112816E+04 0.  0.
        4    1    3    3  502    0 -0.19286959483E+03  0.97971345113E+03  0.41502690457E+03  0.10813353187E+04  0.12699999809E+01 0.  1.
       -4    1    3    3    0  502  0.19286959483E+03 -0.97971345113E+03 -0.98307027439E+03  0.14012372762E+04  0.12699999809E+01 0. -1.
</event>
<event>
 5   0  0.9038897E-06  0.2402965E+04  0.7818609E-02  0.8438395E-01
       -1   -1    0    0    0  501  0.00000000000E+00  0.00000000000E+00  0.86311557201E+03  0.86311557203E+03  0.50400001928E-02 0.  1.
        1   -1    0    0  501    0  0.00000000000E+00  0.00000000000E+00 -0.16724987364E+04  0.16724987364E+04  0.50400001928E-02 0. -1.
    10030    2    1    2    0    0  0.00000000000E+00  0.00000000000E+00 -0.80938316439E+03  0.25356143084E+04  0.24029645887E+04 0.  0.
        1    1    3    3  502    0  0.38900958016E+03  0.49631333565E+03  0.67445838530E+03  0.92333606781E+03  0.50400001928E-02 0.  1.
       -1    1    3    3    0  502 -0.38900958016E+03 -0.49631333565E+03 -0.14838415497E+04  0.16122782406E+04  0.50400001928E-02 0. -1.
</event>
<event>
 5   0  0.8898848E-06  0.2399301E+04  0.7818609E-02  0.8439765E-01
       -1   -1    0    0    0  501  0.00000000000E+00  0.00000000000E+00  0.19805918073E+04  0.19805918073E+04  0.50400001928E-02 0.  1.
        1   -1    0    0  501    0  0.00000000000E+00  0.00000000000E+00 -0.72663191422E+03  0.72663191424E+03  0.50400001928E-02 0. -1.
    10030    2    1    2    0    0  0.00000000000E+00  0.00000000000E+00  0.12539598930E+04  0.27072237215E+04  0.23993009117E+04 0.  0.
        5    1    3    3  502    0 -0.40452141299E+03 -0.12144835906E+02  0.19012304432E+04  0.19438323896E+04  0.46999998093E+01 0.  1.
       -5    1    3    3    0  502  0.40452141299E+03  0.12144835906E+02 -0.64727055015E+03  0.76339133195E+03  0.46999998093E+01 0. -1.
</event>
<event>
 5   0  0.9176817E-06  0.2391780E+04  0.7818609E-02  0.8442588E-01
       -1   -1    0    0    0  501  0.00000000000E+00  0.00000000000E+00  0.96892441211E+03  0.96892441212E+03  0.50400001928E-02 0.  1.
        1   -1    0    0  501    0  0.00000000000E+00  0.00000000000E+00 -0.14760207613E+04  0.14760207613E+04  0.50400001928E-02 0. -1.
    10030    2    1    2    0    0  0.00000000000E+00  0.00000000000E+00 -0.50709634920E+03  0.24449451734E+04  0.23917797126E+04 0.  0.
        3    1    3    3  502    0  0.40774939881E+03 -0.21636617682E+03  0.87418736697E+03  0.98857344567E+03  0.10100000352E+00 0.  1.
       -3    1    3    3    0  502 -0.40774939881E+03  0.21636617682E+03 -0.13812837162E+04  0.14563717278E+04  0.10100000352E+00 0. -1.
</event>
<event>
 5   0  0.2087882E-05  0.2391887E+04  0.7818609E-02  0.8442547E-01
       -2   -1    0    0    0  501  0.00000000000E+00  0.00000000000E+00  0.14151964616E+04  0.14151964616E+04  0.25500000920E-02 0.  1.
        2   -1    0    0  501    0  0.00000000000E+00  0.00000000000E+00 -0.10106588863E+04  0.10106588863E+04  0.25500000920E-02 0. -1.
    10030    2    1    2    0    0  0.00000000000E+00  0.00000000000E+00  0.40453757529E+03  0.24258553479E+04  0.23918870205E+04 0.  0.
        2    1    3    3  502    0  0.84502322341E+03  0.81207605622E+03 -0.39335016421E+02  0.11726376306E+04  0.25500000920E-02 0.  1.
       -2    1    3    3    0  502 -0.84502322341E+03 -0.81207605622E+03  0.44387259171E+03  0.12532177173E+04  0.25500000920E-02 0. -1.
</event>
<event>
 5   0  0.8528103E-06  0.2395144E+04  0.7818609E-02  0.8441324E-01
       -1   -1    0    0    0  501  0.00000000000E+00  0.00000000000E+00  0.13639882714E+04  0.13639882714E+04  0.50400001928E-02 0.  1.
        1   -1    0    0  501    0  0.00000000000E+00  0.00000000000E+00 -0.10514594414E+04  0.10514594415E+04  0.50400001928E-02 0. -1.
    10030    2    1    2    0    0  0.00000000000E+00  0.00000000000E+00  0.31252882991E+03  0.24154477128E+04  0.23951437084E+04 0.  0.
        4    1    3    3  502    0 -0.84859034325E+03 -0.37293650633E+03 -0.60844428466E+03  0.11087800814E+04  0.12699999809E+01 0. -1.
       -4    1    3    3    0  502  0.84859034325E+03  0.37293650633E+03  0.92097311457E+03  0.13066676315E+04  0.12699999809E+01 0.  1.
</event>
<event>
 5   0  0.2122194E-05  0.2402667E+04  0.7818609E-02  0.8438506E-01
        2   -1    0    0  501    0  0.00000000000E+00  0.00000000000E+00  0.18245521079E+04  0.18245521079E+04  0.25500000920E-02 0.  1.
       -2   -1    0    0    0  501  0.00000000000E+00  0.00000000000E+00 -0.79098955627E+03  0.79098955627E+03  0.25500000920E-02 0. -1.
    10030    2    1    2    0    0  0.00000000000E+00  0.00000000000E+00  0.10335625516E+04  0.26155416642E+04  0.24026665705E+04 0.  0.
        3    1    3    3  502    0  0.38322935222E+03  0.10634858332E+04  0.74141668877E+02  0.11328565006E+04  0.10100000352E+00 0. -1.
       -3    1    3    3    0  502 -0.38322935222E+03 -0.10634858332E+04  0.95942088274E+03  0.14826851635E+04  0.10100000352E+00 0.  1.
</event>
<event>
 5   0  0.2025353E-05  0.2409006E+04  0.7818609E-02  0.8436140E-01
        2   -1    0    0  501    0  0.00000000000E+00  0.00000000000E+00  0.23332420352E+04  0.23332420352E+04  0.25500000920E-02 0. -1.
       -2   -1    0    0    0  501  0.00000000000E+00  0.00000000000E+00 -0.62180749368E+03  0.62180749369E+03  0.25500000920E-02 0.  1.
    10030    2    1    2    0    0  0.00000000000E+00  0.00000000000E+00  0.17114345415E+04  0.29550495289E+04  0.24090059212E+04 0.  0.
        4    1    3    3  502    0 -0.51288006824E+03  0.79917396865E+03  0.17646943335E+04  0.20039642462E+04  0.12699999809E+01 0.  1.
       -4    1    3    3    0  502  0.51288006824E+03 -0.79917396865E+03 -0.53259791979E+02  0.95108528267E+03  0.12699999809E+01 0. -1.
</event>
<event>
 5   0  0.9038897E-06  0.2323232E+04  0.7818609E-02  0.8468817E-01
        1   -1    0    0  501    0  0.00000000000E+00  0.00000000000E+00  0.99331475383E+03  0.99331475385E+03  0.50400001928E-02 0.  1.
       -1   -1    0    0    0  501  0.00000000000E+00  0.00000000000E+00 -0.13584336990E+04  0.13584336990E+04  0.50400001928E-02 0. -1.
    10030    2    1    2    0    0  0.00000000000E+00  0.00000000000E+00 -0.36511894517E+03  0.23517484529E+04  0.23232324338E+04 0.  0.
        1    1    3    3  502    0 -0.92150660997E+03  0.75302733193E+02  0.52928408536E+03  0.10653574878E+04  0.50400001928E-02 0.  1.
       -1    1    3    3    0  502  0.92150660997E+03 -0.75302733193E+02 -0.89440303053E+03  0.12863909650E+04  0.50400001928E-02 0. -1.
</event>
<event>
 5   0  0.2048028E-05  0.2402381E+04  0.7818609E-02  0.8438613E-01
        2   -1    0    0  501    0  0.00000000000E+00  0.00000000000E+00  0.15019297897E+04  0.15019297897E+04  0.25500000920E-02 0. -1.
       -2   -1    0    0    0  501  0.00000000000E+00  0.00000000000E+00 -0.96066970491E+03  0.96066970491E+03  0.25500000920E-02 0.  1.
    10030    2    1    2    0    0  0.00000000000E+00  0.00000000000E+00  0.54126008479E+03  0.24625994946E+04  0.24023808589E+04 0.  0.
        5    1    3    3  502    0  0.17246576692E+03  0.10792595470E+04  0.78140805596E+03  0.13435647549E+04  0.46999998093E+01 0. -1.
       -5    1    3    3    0  502 -0.17246576692E+03 -0.10792595470E+04 -0.24014797117E+03  0.11190347397E+04  0.46999998093E+01 0.  1.
</event>
<event>
 5   0  0.2080257E-05  0.2426901E+04  0.7818609E-02  0.8429500E-01
        2   -1    0    0  501    0  0.00000000000E+00  0.00000000000E+00  0.97975362324E+03  0.97975362324E+03  0.25500000920E-02 0. -1.
       -2   -1    0    0    0  501  0.00000000000E+00  0.00000000000E+00 -0.15028901793E+04  0.15028901793E+04  0.25500000920E-02 0.  1.
    10030    2    1    2    0    0  0.00000000000E+00  0.00000000000E+00 -0.52313655601E+03  0.24826438025E+04  0.24269009856E+04 0.  0.
        1    1    3    3  502    0 -0.67133442719E+03 -0.66695645922E+03 -0.10385810499E+04  0.14050521090E+04  0.50400001928E-02 0.  1.
       -1    1    3    3    0  502  0.67133442719E+03  0.66695645922E+03  0.51544449391E+03  0.10775916935E+04  0.50400001928E-02 0. -1.
</event>
<event>
 5   0  0.2122194E-05  0.2391800E+04  0.7818609E-02  0.8442580E-01
        2   -1    0    0  501    0  0.00000000000E+00  0.00000000000E+00  0.96579105689E+03  0.96579105689E+03  0.25500000920E-02 0. -1.
       -2   -1    0    0    0  501  0.00000000000E+00  0.00000000000E+00 -0.14808344710E+04  0.14808344710E+04  0.25500000920E-02 0.  1.
    10030    2    1    2    0    0  0.00000000000E+00  0.00000000000E+00 -0.51504341409E+03  0.24466255279E+04  0.23917998987E+04 0.  0.
        3    1    3    3  502    0 -0.66017175438E+03  0.56033499405E+03  0.58623398284E+03  0.10456922796E+04  0.10100000352E+00 0. -1.
       -3    1    3    3    0  502  0.66017175438E+03 -0.56033499405E+03 -0.11012773969E+04  0.14009332482E+04  0.10100000352E+00 0.  1.
</event>
<event>
 5   0  0.9038897E-06  0.2362369E+04  0.7818609E-02  0.8453728E-01
       -1   -1    0    0    0  501  0.00000000000E+00  0.00000000000E+00  0.10705358975E+04  0.10705358975E+04  0.50400001928E-02 0. -1.
        1   -1    0    0  501    0  0.00000000000E+00  0.00000000000E+00 -0.13032691678E+04  0.13032691678E+04  0.50400001928E-02 0.  1.
    10030    2    1    2    0    0  0.00000000000E+00  0.00000000000E+00 -0.23273327032E+03  0.23738050654E+04  0.23623686658E+04 0.  0.
        1    1    3    3  502    0  0.42258074659E+03 -0.27789937671E+03  0.95622478676E+03  0.10817432199E+04  0.50400001928E-02 0. -1.
       -1    1    3    3    0  502 -0.42258074659E+03  0.27789937671E+03 -0.11889580571E+04  0.12920618455E+04  0.50400001928E-02 0.  1.
</event>
<event>
 5   0  0.9083687E-06  0.2381141E+04  0.7818609E-02  0.8446598E-01
        1   -1    0    0  501    0  0.00000000000E+00  0.00000000000E+00  0.21811441944E+04  0.21811441944E+04  0.50400001928E-02 0.  1.
       -1   -1    0    0    0  501  0.00000000000E+00  0.00000000000E+00 -0.64986883939E+03  0.64986883941E+03  0.50400001928E-02 0. -1.
    10030    2    1    2    0    0  0.00000000000E+00  0.00000000000E+00  0.15312753550E+04  0.28310130338E+04  0.23811406059E+04 0.  0.
        2    1    3    3  502    0  0.21310008429E+03  0.39019597857E+03 -0.54746870901E+03  0.70525636117E+03  0.25500000920E-02 0. -1.
       -2    1    3    3    0  502 -0.21310008429E+03 -0.39019597857E+03  0.20787440640E+04  0.21257566727E+04  0.25500000920E-02 0.  1.
</event>
<event>
 5   0  0.2080257E-05  0.2108274E+04  0.7818609E-02  0.8557607E-01
       -2   -1    0    0    0  501  0.00000000000E+00  0.00000000000E+00  0.78093990636E+03  0.78093990636E+03  0.25500000920E-02 0. -1.
        2   -1    0    0  501    0  0.00000000000E+00  0.00000000000E+00 -0.14229069072E+04  0.14229069072E+04  0.25500000920E-02 0.  1.
    10030    2    1    2    0    0  0.00000000000E+00  0.00000000000E+00 -0.64196700085E+03  0.22038468136E+04  0.21082739735E+04 0.  0.
        1    1    3    3  502    0 -0.46152248807E+03  0.34923678000E+03 -0.12419653965E+04  0.13701997598E+04  0.50400001928E-02 0.  1.
       -1    1    3    3    0  502  0.46152248807E+03 -0.34923678000E+03  0.59999839566E+03  0.83364705381E+03  0.50400001928E-02 0. -1.
</event>
<event>
 5   0  0.2122194E-05  0.2407176E+04  0.7818609E-02  0.8436822E-01
       -2   -1    0    0    0  501  0.00000000000E+00  0.00000000000E+00  0.11723200194E+04  0.11723200194E+04  0.25500000920E-02 0.  1.
        2   -1    0    0  501    0  0.00000000000E+00  0.00000000000E+00 -0.12356899075E+04  0.12356899075E+04  0.25500000920E-02 0. -1.
    10030    2    1    2    0    0  0.00000000000E+00  0.00000000000E+00 -0.63369888152E+02  0.24080099269E+04  0.24071759523E+04 0.  0.
        3    1    3    3  502    0  0.11221911434E+04 -0.36112991142E+03 -0.27445447986E+03  0.12103937570E+04  0.10100000352E+00 0. -1.
       -3    1    3    3    0  502 -0.11221911434E+04  0.36112991142E+03  0.21108459171E+03  0.11976161699E+04  0.10100000352E+00 0.  1.
</event>
<event>
 5   0  0.8898848E-06  0.2390954E+04  0.7818609E-02  0.8442898E-01
       -1   -1    0    0    0  501  0.00000000000E+00  0.00000000000E+00  0.16900557856E+04  0.16900557856E+04  0.50400001928E-02 0.  1.
        1   -1    0    0  501    0  0.00000000000E+00  0.00000000000E+00 -0.84563230009E+03  0.84563230010E+03  0.50400001928E-02 0. -1.
    10030    2    1    2    0    0  0.00000000000E+00  0.00000000000E+00  0.84442348550E+03  0.25356880857E+04  0.23909544214E+04 0.  0.
        5    1    3    3  502    0 -0.58028532733E+03 -0.18610124570E+03 -0.66853014115E+03  0.90461006759E+03  0.46999998093E+01 0. -1.
       -5    1    3    3    0  502  0.58028532733E+03  0.18610124570E+03  0.15129536266E+04  0.16310780181E+04  0.46999998093E+01 0.  1.
</event>
<event>
 5   0  0.2122194E-05  0.2401361E+04  0.7818609E-02  0.8438994E-01
        2   -1    0    0  501    0  0.00000000000E+00  0.00000000000E+00  0.12840118281E+04  0.12840118281E+04  0.25500000920E-02 0. -1.
       -2   -1    0    0    0  501  0.00000000000E+00  0.00000000000E+00 -0.11227573520E+04  0.11227573520E+04  0.25500000920E-02 0.  1.
    10030    2    1    2    0    0  0.00000000000E+00  0.00000000000E+00  0.16125447610E+03  0.24067691802E+04  0.24013610475E+04 0.  0.
        3    1    3    3  502    0  0.90372519818E+03  0.38825486543E+03 -0.60952551303E+03  0.11571440859E+04  0.10100000352E+00 0.  1.
       -3    1    3    3    0  502 -0.90372519818E+03 -0.38825486543E+03  0.77077998914E+03  0.12496250943E+04  0.10100000352E+00 0. -1.
</event>
<event>
 5   0  0.8528103E-06  0.2369260E+04  0.7818609E-02  0.8451103E-01
       -1   -1    0    0    0  501  0.00000000000E+00  0.00000000000E+00  0.10087418097E+04  0.10087418097E+04  0.50400001928E-02 0.  1.
        1   -1    0    0  501    0  0.00000000000E+00  0.00000000000E+00 -0.13911868352E+04  0.13911868352E+04  0.50400001928E-02 0. -1.
    10030    2    1    2    0    0  0.00000000000E+00  0.00000000000E+00 -0.38244502548E+03  0.23999286449E+04  0.23692600750E+04 0.  0.
        4    1    3    3  502    0 -0.10297813568E+04 -0.53891804720E+03 -0.42323853842E+03  0.12369376612E+04  0.12699999809E+01 0.  1.
       -4    1    3    3    0  502  0.10297813568E+04  0.53891804720E+03  0.40793512935E+02  0.11629909837E+04  0.12699999809E+01 0. -1.
</event>
<event>
 5   0  0.8528103E-06  0.2546181E+04  0.7818609E-02  0.8386716E-01
       -1   -1    0    0    0  501  0.00000000000E+00  0.00000000000E+00  0.23668819688E+04  0.23668819688E+04  0.50400001928E-02 0.  1.
        1   -1    0    0  501    0  0.00000000000E+00  0.00000000000E+00 -0.68476569534E+03  0.68476569535E+03  0.50400001928E-02 0. -1.
    10030    2    1    2    0    0  0.00000000000E+00  0.00000000000E+00  0.16821162735E+04  0.30516476642E+04  0.25461811225E+04 0.  0.
        4    1    3    3  502    0 -0.95919086125E+02 -0.11168000491E+04  0.15644668038E+04  0.19245780872E+04  0.12699999809E+01 0.  1.
       -4    1    3    3    0  502  0.95919086125E+02  0.11168000491E+04  0.11764946970E+03  0.11270695770E+04  0.12699999809E+01 0. -1.
</event>
<event>
 5   0  0.2122194E-05  0.2403169E+04  0.7818609E-02  0.8438318E-01
       -2   -1    0    0    0  501  0.00000000000E+00  0.00000000000E+00  0.93134693796E+03  0.93134693796E+03  0.25500000920E-02 0. -1.
        2   -1    0    0  501    0  0.00000000000E+00  0.00000000000E+00 -0.15502337377E+04  0.15502337377E+04  0.25500000920E-02 0.  1.
    10030    2    1    2    0    0  0.00000000000E+00  0.00000000000E+00 -0.61888679974E+03  0.24815806757E+04  0.24031691116E+04 0.  0.
        3    1    3    3  502    0 -0.92250124253E+03 -0.62206625647E+03 -0.77793185432E+03  0.13576276920E+04  0.10100000352E+00 0.  1.
       -3    1    3    3    0  502  0.92250124253E+03  0.62206625647E+03  0.15904505458E+03  0.11239529837E+04  0.10100000352E+00 0. -1.
</event>
<event>
 5   0  0.9176817E-06  0.2388743E+04  0.7818609E-02  0.8443730E-01
        1   -1    0    0  501    0  0.00000000000E+00  0.00000000000E+00  0.11328090817E+04  0.11328090817E+04  0.50400001928E-02 0. -1.
       -1   -1    0    0    0  501  0.00000000000E+00  0.00000000000E+00 -0.12592790017E+04  0.12592790017E+04  0.50400001928E-02 0.  1.
    10030    2    1    2    0    0  0.00000000000E+00  0.00000000000E+00 -0.12646992005E+03  0.23920880834E+04  0.23887425056E+04 0.  0.
        3    1    3    3  502    0  0.72334749945E+03  0.34828760181E+03  0.82230374269E+03  0.11492255279E+04  0.10100000352E+00 0. -1.
       -3    1    3    3    0  502 -0.72334749945E+03 -0.34828760181E+03 -0.94877366274E+03  0.12428625555E+04  0.10100000352E+00 0.  1.
</event>
<event>
 5   0  0.9038897E-06  0.2416278E+04  0.7818609E-02  0.8433434E-01
       -1   -1    0    0    0  501  0.00000000000E+00  0.00000000000E+00  0.70917110494E+03  0.70917110496E+03  0.50400001928E-02 0.  1.
        1   -1    0    0  501    0  0.00000000000E+00  0.00000000000E+00 -0.20581775055E+04  0.20581775055E+04  0.50400001928E-02 0. -1.
    10030    2    1    2    0    0  0.00000000000E+00  0.00000000000E+00 -0.13490064006E+04  0.27673486105E+04  0.24162781428E+04 0.  0.
        1    1    3    3  502    0 -0.56862476469E+03 -0.13494510561E+03  0.53650941897E+03  0.79333893212E+03  0.50400001928E-02 0.  1.
       -1    1    3    3    0  502  0.56862476469E+03  0.13494510561E+03 -0.18855158196E+04  0.19740096784E+04  0.50400001928E-02 0. -1.
</event>
<event>
 5   0  0.8528103E-06  0.2695459E+04  0.7818609E-02  0.8336480E-01
        1   -1    0    0  501    0  0.00000000000E+00  0.00000000000E+00  0.13221426601E+04  0.13221426601E+04  0.50400001928E-02 0.  1.
       -1   -1    0    0    0  501  0.00000000000E+00  0.00000000000E+00 -0.13738111968E+04  0.13738111968E+04  0.50400001928E-02 0. -1.
    10030    2    1    2    0    0  0.00000000000E+00  0.00000000000E+00 -0.51668536635E+02  0.26959538569E+04  0.26954586921E+04 0.  0.
        4    1    3    3  502    0  0.60994868707E+03  0.52438812745E+02 -0.12267152967E+04  0.13709920721E+04  0.12699999809E+01 0. -1.
       -4    1    3    3    0  502 -0.60994868707E+03 -0.52438812745E+02  0.11750467600E+04  0.13249617848E+04  0.12699999809E+01 0.  1.
</event>
<event>
 5   0  0.2087882E-05  0.2451539E+04  0.7818609E-02  0.8420456E-01
        2   -1    0    0  501    0  0.00000000000E+00  0.00000000000E+00  0.21759459820E+04  0.21759459820E+04  0.25500000920E-02 0. -1.
       -2   -1    0    0    0  501  0.00000000000E+00  0.00000000000E+00 -0.69050936725E+03  0.69050936726E+03  0.25500000920E-02 0.  1.
    10030    2    1    2    0    0  0.00000000000E+00  0.00000000000E+00  0.14854366147E+04  0.28664553492E+04  0.24515391763E+04 0.  0.
        2    1    3    3  502    0  0.34916091169E+03 -0.66748330803E+03 -0.38792849671E+03  0.84731093897E+03  0.25500000920E-02 0.  1.
       -2    1    3    3    0  502 -0.34916091169E+03  0.66748330803E+03  0.18733651114E+04  0.20191444103E+04  0.25500000920E-02 0. -1.
</event>
<event>
 5   0  0.2087882E-05  0.2404821E+04  0.7818609E-02  0.8437701E-01
        2   -1    0    0  501    0  0.00000000000E+00  0.00000000000E+00  0.60151951392E+03  0.60151951392E+03  0.25500000920E-02 0. -1.
       -2   -1    0    0    0  501  0.00000000000E+00  0.00000000000E+00 -0.24035648009E+04  0.24035648009E+04  0.25500000920E-02 0.  1.
    10030    2    1    2    0    0  0.00000000000E+00  0.00000000000E+00 -0.18020452870E+04  0.30050843148E+04  0.24048211000E+04 0.  0.
        2    1    3    3  502    0  0.69679619070E+03 -0.74623414770E+03 -0.10734844260E+03  0.10266031476E+04  0.25500000920E-02 0. -1.
       -2    1    3    3    0  502 -0.69679619070E+03  0.74623414770E+03 -0.16946968444E+04  0.19784811672E+04  0.25500000920E-02 0.  1.
</event>
<event>
 5   0  0.2087882E-05  0.2378857E+04  0.7818609E-02  0.8447462E-01
        2   -1    0    0  501    0  0.00000000000E+00  0.00000000000E+00  0.10119063778E+04  0.10119063778E+04  0.25500000920E-02 0. -1.
       -2   -1    0    0    0  501  0.00000000000E+00  0.00000000000E+00 -0.13980937898E+04  0.13980937898E+04  0.25500000920E-02 0.  1.
    10030    2    1    2    0    0  0.00000000000E+00  0.00000000000E+00 -0.38618741203E+03  0.24100001676E+04  0.23788568873E+04 0.  0.
        2    1    3    3  502    0 -0.34201698769E+03 -0.30898365229E+03 -0.13039400954E+04  0.13830062508E+04  0.25500000920E-02 0.  1.
       -2    1    3    3    0  502  0.34201698769E+03  0.30898365229E+03  0.91775268339E+03  0.10269939168E+04  0.25500000920E-02 0. -1.
</event>
<event>
 5   0  0.9083687E-06  0.2399236E+04  0.7818609E-02  0.8439790E-01
        1   -1    0    0  501    0  0.00000000000E+00  0.00000000000E+00  0.94791229207E+03  0.94791229208E+03  0.50400001928E-02 0. -1.
       -1   -1    0    0    0  501  0.00000000000E+00  0.00000000000E+00 -0.15181604260E+04  0.15181604260E+04  0.50400001928E-02 0.  1.
    10030    2    1    2    0    0  0.00000000000E+00  0.00000000000E+00 -0.57024813393E+03  0.24660727181E+04  0.23992356526E+04 0.  0.
        2    1    3    3  502    0 -0.82827924854E+03 -0.49622378337E+03  0.44660545634E+03  0.10638331591E+04  0.25500000920E-02 0. -1.
       -2    1    3    3    0  502  0.82827924854E+03  0.49622378337E+03 -0.10168535903E+04  0.14022395590E+04  0.25500000920E-02 0.  1.
</event>
<event>
 5   0  0.8528103E-06  0.2398769E+04  0.7818609E-02  0.8439965E-01
        1   -1    0    0  501    0  0.00000000000E+00  0.00000000000E+00  0.11357118729E+04  0.11357118729E+04  0.50400001928E-02 0.  1.
       -1   -1    0    0    0  501  0.00000000000E+00  0.00000000000E+00 -0.12666270332E+04  0.12666270332E+04  0.50400001928E-02 0. -1.
    10030    2    1    2    0    0  0.00000000000E+00  0.00000000000E+00 -0.13091516024E+03  0.24023389061E+04  0.23987691512E+04 0.  0.
        4    1    3    3  502    0  0.93355327221E+03 -0.43931514958E+03 -0.67792489679E+03  0.12345457834E+04  0.12699999809E+01 0.  1.
       -4    1    3    3    0  502 -0.93355327221E+03  0.43931514958E+03  0.54700973655E+03  0.11677931227E+04  0.12699999809E+01 0. -1.
</event>
<event>
 5   0  0.9176817E-06  0.2365779E+04  0.7818609E-02  0.8452427E-01
       -1   -1    0    0    0  501  0.00000000000E+00  0.00000000000E+00  0.83850765526E+03  0.83850765528E+03  0.50400001928E-02 0.  1.
        1   -1    0    0  501    0  0.00000000000E+00  0.00000000000E+00 -0.16687123908E+04  0.16687123908E+04  0.50400001928E-02 0. -1.
    10030    2    1    2    0    0  0.00000000000E+00  0.00000000000E+00 -0.83020473551E+03  0.25072200461E+04  0.23657794607E+04 0.  0.
        3    1    3    3  502    0 -0.65247559105E+03 -0.27591239949E+03  0.58883225698E+03  0.92118157068E+03  0.10100000352E+00 0.  1.
       -3    1    3    3    0  502  0.65247559105E+03  0.27591239949E+03 -0.14190369925E+04  0.15860384754E+04  0.10100000352E+00 0. -1.
</event>
<event>
 5   0  0.2048028E-05  0.2315479E+04  0.7818609E-02  0.8471843E-01
       -2   -1    0    0    0  501  0.00000000000E+00  0.00000000000E+00  0.11595004692E+04  0.11595004692E+04  0.25500000920E-02 0.  1.
        2   -1    0    0  501    0  0.00000000000E+00  0.00000000000E+00 -0.11559808073E+04  0.11559808073E+04  0.25500000920E-02 0. -1.
    10030    2    1    2    0    0  0.00000000000E+00  0.00000000000E+00  0.35196618795E+01  0.23154812765E+04  0.23154786014E+04 0.  0.
        5    1    3    3  502    0  0.11094560810E+04  0.22602707235E+03 -0.23981272563E+03  0.11573734343E+04  0.46999998093E+01 0. -1.
       -5    1    3    3    0  502 -0.11094560810E+04 -0.22602707235E+03  0.24333238751E+03  0.11581078421E+04  0.46999998093E+01 0.  1.
</event>
<event>
 5   0  0.8528103E-06  0.2403532E+04  0.7818609E-02  0.8438182E-01
        1   -1    0    0  501    0  0.00000000000E+00  0.00000000000E+00  0.16315872312E+04  0.16315872312E+04  0.50400001928E-02 0.  1.
       -1   -1    0    0    0  501  0.00000000000E+00  0.00000000000E+00 -0.88517571708E+03  0.88517571709E+03  0.50400001928E-02 0. -1.
    10030    2    1    2    0    0  0.00000000000E+00  0.00000000000E+00  0.74641151415E+03  0.25167629483E+04  0.24035318990E+04 0.  0.
        4    1    3    3  502    0 -0.49296893867E+03  0.84500757043E+03 -0.35766192522E+03  0.10416236529E+04  0.12699999809E+01 0. -1.
       -4    1    3    3    0  502  0.49296893867E+03 -0.84500757043E+03  0.11040734394E+04  0.14751392955E+04  0.12699999809E+01 0.  1.
</event>
<event>
 5   0  0.2048028E-05  0.2374363E+04  0.7818609E-02  0.8449164E-01
        2   -1    0    0  501    0  0.00000000000E+00  0.00000000000E+00  0.17903715169E+04  0.17903715169E+04  0.25500000920E-02 0. -1.
       -2   -1    0    0    0  501  0.00000000000E+00  0.00000000000E+00 -0.78721098190E+03  0.78721098191E+03  0.25500000920E-02 0.  1.
    10030    2    1    2    0    0  0.00000000000E+00  0.00000000000E+00  0.10031605350E+04  0.25775824989E+04  0.23743631734E+04 0.  0.
        5    1    3    3  502    0  0.45358437442E+03  0.11994232093E+03 -0.68228579215E+03  0.82804645838E+03  0.46999998093E+01 0.  1.
       -5    1    3    3    0  502 -0.45358437442E+03 -0.11994232093E+03  0.16854463272E+04  0.17495360405E+04  0.46999998093E+01 0. -1.
</event>
<event>
 5   0  0.8528103E-06  0.2377479E+04  0.7818609E-02  0.8447984E-01
        1   -1    0    0  501    0  0.00000000000E+00  0.00000000000E+00  0.22738024787E+04  0.22738024787E+04  0.50400001928E-02 0.  1.
       -1   -1    0    0    0  501  0.00000000000E+00  0.00000000000E+00 -0.62147053123E+03  0.62147053125E+03  0.50400001928E-02 0. -1.
    10030    2    1    2    0    0  0.00000000000E+00  0.00000000000E+00  0.16523319474E+04  0.28952730099E+04  0.23774786934E+04 0.  0.
        4    1    3    3  502    0 -0.34290924019E+03 -0.39468827689E+03 -0.47392770801E+03  0.70567320215E+03  0.12699999809E+01 0. -1.
       -4    1    3    3    0  502  0.34290924019E+03  0.39468827689E+03  0.21262596554E+04  0.21895998078E+04  0.12699999809E+01 0.  1.
</event>
<event>
 5   0  0.8898848E-06  0.2409175E+04  0.7818609E-02  0.8436077E-01
       -1   -1    0    0    0  501  0.00000000000E+00  0.00000000000E+00  0.11335799140E+04  0.11335799140E+04  0.50400001928E-02 0. -1.
        1   -1    0    0  501    0  0.00000000000E+00  0.00000000000E+00 -0.12800427433E+04  0.12800427433E+04  0.50400001928E-02 0.  1.
    10030    2    1    2    0    0  0.00000000000E+00  0.00000000000E+00 -0.14646282929E+03  0.24136226573E+04  0.24091747490E+04 0.  0.
        5    1    3    3  502    0  0.11145342974E+04  0.24977841102E+03  0.31014033221E+03  0.11835476629E+04  0.46999998093E+01 0.  1.
       -5    1    3    3    0  502 -0.11145342974E+04 -0.24977841102E+03 -0.45660316150E+03  0.12300749944E+04  0.46999998093E+01 0. -1.
</event>
<event>
 5   0  0.9176817E-06  0.2416059E+04  0.7818609E-02  0.8433516E-01
       -1   -1    0    0    0  501  0.00000000000E+00  0.00000000000E+00  0.10781545071E+04  0.10781545071E+04  0.50400001928E-02 0.  1.
        1   -1    0    0  501    0  0.00000000000E+00  0.00000000000E+00 -0.13535492162E+04  0.13535492162E+04  0.50400001928E-02 0. -1.
    10030    2    1    2    0    0  0.00000000000E+00  0.00000000000E+00 -0.27539470909E+03  0.24317037233E+04  0.24160589297E+04 0.  0.
        3    1    3    3  502    0  0.18080003007E+01 -0.17106479946E+03  0.10659010243E+04  0.10795422355E+04  0.10100000352E+00 0.  1.
       -3    1    3    3    0  502 -0.18080003007E+01  0.17106479946E+03 -0.13412957334E+04  0.13521614878E+04  0.10100000352E+00 0. -1.
</event>
<event>
 5   0  0.9038897E-06  0.2401139E+04  0.7818609E-02  0.8439077E-01
        1   -1    0    0  501    0  0.00000000000E+00  0.00000000000E+00  0.71412008176E+03  0.71412008178E+03  0.50400001928E-02 0.  1.
       -1   -1    0    0    0  501  0.00000000000E+00  0.00000000000E+00 -0.20183824826E+04  0.20183824826E+04  0.50400001928E-02 0. -1.
    10030    2    1    2    0    0  0.00000000000E+00  0.00000000000E+00 -0.13042624009E+04  0.27325025644E+04  0.24011392826E+04 0.  0.
        1    1    3    3  502    0 -0.38657343931E+03  0.36818303758E+03 -0.18758780177E+04  0.19503630714E+04  0.50400001928E-02 0. -1.
       -1    1    3    3    0  502  0.38657343931E+03 -0.36818303758E+03  0.57161561679E+03  0.78213949301E+03  0.50400001928E-02 0.  1.
</event>
<event>
 5   0  0.2025353E-05  0.2450619E+04  0.7818609E-02  0.8420792E-01
       -2   -1    0    0    0  501  0.00000000000E+00  0.00000000000E+00  0.81277975038E+03  0.81277975039E+03  0.25500000920E-02 0.  1.
        2   -1    0    0  501    0  0.00000000000E+00  0.00000000000E+00 -0.18472209687E+04  0.18472209687E+04  0.25500000920E-02 0. -1.
    10030    2    1    2    0    0  0.00000000000E+00  0.00000000000E+00 -0.10344412183E+04  0.26600007191E+04  0.24506193485E+04 0.  0.
        4    1    3    3  502    0  0.97803227229E+03  0.12220854136E+03 -0.13073585380E+04  0.16372751794E+04  0.12699999809E+01 0. -1.
       -4    1    3    3    0  502 -0.97803227229E+03 -0.12220854136E+03  0.27291731972E+03  0.10227255397E+04  0.12699999809E+01 0.  1.
</event>
<event>
 5   0  0.2087882E-05  0.2383920E+04  0.7818609E-02  0.8445548E-01
       -2   -1    0    0    0  501  0.00000000000E+00  0.00000000000E+00  0.70830887403E+03  0.70830887404E+03  0.25500000920E-02 0.  1.
        2   -1    0    0  501    0  0.00000000000E+00  0.00000000000E+00 -0.20058596950E+04  0.20058596950E+04  0.25500000920E-02 0. -1.
    10030    2    1    2    0    0  0.00000000000E+00  0.00000000000E+00 -0.12975508210E+04  0.27141685690E+04  0.23839196480E+04 0.  0.
        2    1    3    3  502    0  0.67088997597E+02  0.17803986406E+03 -0.19884598734E+04  0.19975414376E+04  0.25500000920E-02 0. -1.
       -2    1    3    3    0  502 -0.67088997597E+02 -0.17803986406E+03  0.69090905243E+03  0.71662713145E+03  0.25500000920E-02 0.  1.
</event>
<event>
 5   0  0.9176817E-06  0.2393556E+04  0.7818609E-02  0.8441920E-01
        1   -1    0    0  501    0  0.00000000000E+00  0.00000000000E+00  0.20652215557E+04  0.20652215557E+04  0.50400001928E-02 0. -1.
       -1   -1    0    0    0  501  0.00000000000E+00  0.00000000000E+00 -0.69352247408E+03  0.69352247410E+03  0.50400001928E-02 0.  1.
    10030    2    1    2    0    0  0.00000000000E+00  0.00000000000E+00  0.13716990816E+04  0.27587440298E+04  0.23935559846E+04 0.  0.
        3    1    3    3  502    0 -0.10819330483E+04  0.21888871270E+03  0.15293494775E+03  0.11143969212E+04  0.10100000352E+00 0.  1.
       -3    1    3    3    0  502  0.10819330483E+04 -0.21888871270E+03  0.12187641338E+04  0.16443471086E+04  0.10100000352E+00 0. -1.
</event>
<event>
 5   0  0.2122194E-05  0.2412903E+04  0.7818609E-02  0.8434688E-01
        2   -1    0    0  501    0  0.00000000000E+00  0.00000000000E+00  0.95579092638E+03  0.95579092639E+03  0.25500000920E-02 0.  1.
       -2   -1    0    0    0  501  0.00000000000E+00  0.00000000000E+00 -0.15228494136E+04  0.15228494136E+04  0.25500000920E-02 0. -1.
    10030    2    1    2    0    0  0.00000000000E+00  0.00000000000E+00 -0.56705848724E+03  0.24786403400E+04  0.24129033564E+04 0.  0.
        3    1    3    3  502    0  0.51647731215E+03 -0.99601172739E+03  0.17210580455E+03  0.11350808752E+04  0.10100000352E+00 0.  1.
       -3    1    3    3    0  502 -0.51647731215E+03  0.99601172739E+03 -0.73916429180E+03  0.13435594648E+04  0.10100000352E+00 0. -1.
</event>
<event>
 5   0  0.9038897E-06  0.2394250E+04  0.7818609E-02  0.8441659E-01
       -1   -1    0    0    0  501  0.00000000000E+00  0.00000000000E+00  0.94959242614E+03  0.94959242616E+03  0.50400001928E-02 0.  1.
        1   -1    0    0  501    0  0.00000000000E+00  0.00000000000E+00 -0.15091822455E+04  0.15091822455E+04  0.50400001928E-02 0. -1.
    10030    2    1    2    0    0  0.00000000000E+00  0.00000000000E+00 -0.55958981939E+03  0.24587746717E+04  0.23942498032E+04 0.  0.
        1    1    3    3  502    0  0.56498373639E+03 -0.10358087693E+04 -0.48774048240E+03  0.12767134397E+04  0.50400001928E-02 0.  1.
       -1    1    3    3    0  502 -0.56498373639E+03  0.10358087693E+04 -0.71849336989E+02  0.11820612320E+04  0.50400001928E-02 0. -1.
</event>
<event>
 5   0  0.8528103E-06  0.2397449E+04  0.7818609E-02  0.8440459E-01
        1   -1    0    0  501    0  0.00000000000E+00  0.00000000000E+00  0.13054174979E+04  0.13054174979E+04  0.50400001928E-02 0.  1.
       -1   -1    0    0    0  501  0.00000000000E+00  0.00000000000E+00 -0.11007517803E+04  0.11007517803E+04  0.50400001928E-02 0. -1.
    10030    2    1    2    0    0  0.00000000000E+00  0.00000000000E+00  0.20466571754E+03  0.24061692782E+04  0.23974491735E+04 0.  0.
        4    1    3    3  502    0 -0.99554641974E+03  0.39783892229E+03  0.64052067581E+03  0.12488622146E+04  0.12699999809E+01 0.  1.
       -4    1    3    3    0  502  0.99554641974E+03 -0.39783892229E+03 -0.43585495827E+03  0.11573070636E+04  0.12699999809E+01 0. -1.
</event>
<event>
 5   0  0.8898848E-06  0.2384158E+04  0.7818609E-02  0.8445458E-01
        1   -1    0    0  501    0  0.00000000000E+00  0.00000000000E+00  0.15413440292E+04  0.15413440292E+04  0.50400001928E-02 0.  1.
       -1   -1    0    0    0  501  0.00000000000E+00  0.00000000000E+00 -0.92195675916E+03  0.92195675918E+03  0.50400001928E-02 0. -1.
    10030    2    1    2    0    0  0.00000000000E+00  0.00000000000E+00  0.61938727007E+03  0.24633007884E+04  0.23841581709E+04 0.  0.
        5    1    3    3  502    0  0.10719902178E+04 -0.36443090326E+03 -0.75589200662E+02  0.11347725444E+04  0.46999998093E+01 0. -1.
       -5    1    3    3    0  502 -0.10719902178E+04  0.36443090326E+03  0.69497647073E+03  0.13285282440E+04  0.46999998093E+01 0.  1.
</event>
<event>
 5   0  0.2122194E-05  0.2371095E+04  0.7818609E-02  0.8450405E-01
       -2   -1    0    0    0  501  0.00000000000E+00  0.00000000000E+00  0.85102518010E+03  0.85102518011E+03  0.25500000920E-02 0. -1.
        2   -1    0    0  501    0  0.00000000000E+00  0.00000000000E+00 -0.16515645429E+04  0.16515645429E+04  0.25500000920E-02 0.  1.
    10030    2    1    2    0    0  0.00000000000E+00  0.00000000000E+00 -0.80053936279E+03  0.25025897230E+04  0.23710951162E+04 0.  0.
        3    1    3    3  502    0  0.17710114941E+03  0.10421934545E+04 -0.96667866133E+03  0.14324802471E+04  0.10100000352E+00 0. -1.
       -3    1    3    3    0  502 -0.17710114941E+03 -0.10421934545E+04  0.16613929853E+03  0.10701094759E+04  0.10100000352E+00 0.  1.
</event>
<event>
 5   0  0.9038897E-06  0.2368243E+04  0.7818609E-02  0.8451489E-01
       -1   -1    0    0    0  501  0.00000000000E+00  0.00000000000E+00  0.80527075723E+03  0.80527075724E+03  0.50400001928E-02 0.  1.
        1   -1    0    0  501    0  0.00000000000E+00  0.00000000000E+00 -0.17412077741E+04  0.17412077741E+04  0.50400001928E-02 0. -1.
    10030    2    1    2    0    0  0.00000000000E+00  0.00000000000E+00 -0.93593701691E+03  0.25464785314E+04  0.23682429798E+04 0.  0.
        1    1    3    3  502    0  0.29355230251E+03 -0.84476438901E+03  0.36655007075E+03  0.96651889875E+03  0.50400001928E-02 0.  1.
       -1    1    3    3    0  502 -0.29355230251E+03  0.84476438901E+03 -0.13024870877E+04  0.15799596326E+04  0.50400001928E-02 0. -1.
</event>
<event>
 5   0  0.2080257E-05  0.2349796E+04  0.7818609E-02  0.8458542E-01
       -2   -1    0    0    0  501  0.00000000000E+00  0.00000000000E+00  0.56408139870E+03  0.56408139870E+03  0.25500000920E-02 0.  1.
        2   -1    0    0  501    0  0.00000000000E+00  0.00000000000E+00 -0.24471384537E+04  0.24471384537E+04  0.25500000920E-02 0. -1.
    10030    2    1    2    0    0  0.00000000000E+00  0.00000000000E+00 -0.18830570550E+04  0.30112198524E+04  0.23497959756E+04 0.  0.
        1    1    3    3  502    0  0.49157820116E+03 -0.52815507384E+03 -0.21297792661E+04  0.22486788638E+04  0.50400001928E-02 0. -1.
       -1    1    3    3    0  502 -0.49157820116E+03  0.52815507384E+03  0.24672221112E+03  0.76254098864E+03  0.50400001928E-02 0.  1.
</event>
<event>
 5   0  0.8528103E-06  0.2390535E+04  0.7818609E-02  0.8443056E-01
        1   -1    0    0  501    0  0.00000000000E+00  0.00000000000E+00  0.16989352141E+04  0.16989352142E+04  0.50400001928E-02 0. -1.
       -1   -1    0    0    0  501  0.00000000000E+00  0.00000000000E+00 -0.84091736386E+03  0.84091736387E+03  0.50400001928E-02 0.  1.
    10030    2    1    2    0    0  0.00000000000E+00  0.00000000000E+00  0.85801785029E+03  0.25398525780E+04  0.23905347700E+04 0.  0.
        4    1    3    3  502    0  0.60014376868E+02 -0.85716577647E+03  0.13117657174E+04  0.15681408751E+04  0.12699999809E+01 0. -1.
       -4    1    3    3    0  502 -0.60014376868E+02  0.85716577647E+03 -0.45374786715E+03  0.97171170294E+03  0.12699999809E+01 0.  1.
</event>
<event>
 5   0  0.8898848E-06  0.2389928E+04  0.7818609E-02  0.8443284E-01
        1   -1    0    0  501    0  0.00000000000E+00  0.00000000000E+00  0.18734464050E+04  0.18734464050E+04  0.50400001928E-02 0.  1.
       -1   -1    0    0    0  501  0.00000000000E+00  0.00000000000E+00 -0.76219900055E+03  0.76219900057E+03  0.50400001928E-02 0. -1.
    10030    2    1    2    0    0  0.00000000000E+00  0.00000000000E+00  0.11112474045E+04  0.26356454056E+04  0.23899280136E+04 0.  0.
        5    1    3    3  502    0  0.23007101080E+03 -0.10922917840E+04  0.85298698657E+02  0.11195230991E+04  0.46999998093E+01 0. -1.
       -5    1    3    3    0  502 -0.23007101080E+03  0.10922917840E+04  0.10259487058E+04  0.15161223065E+04  0.46999998093E+01 0.  1.
</event>
<event>
 5   0  0.9083687E-06  0.2420684E+04  0.7818609E-02  0.8431800E-01
        1   -1    0    0  501    0  0.00000000000E+00  0.00000000000E+00  0.15664833699E+04  0.15664833699E+04  0.50400001928E-02 0. -1.
       -1   -1    0    0    0  501  0.00000000000E+00  0.00000000000E+00 -0.93516958315E+03  0.93516958316E+03  0.50400001928E-02 0.  1.
    10030    2    1    2    0    0  0.00000000000E+00  0.00000000000E+00  0.63131378670E+03  0.25016529530E+04  0.24206838703E+04 0.  0.
        2    1    3    3  502    0 -0.98613848201E+03  0.69760137374E+03  0.23687841128E+03  0.12309460443E+04  0.25500000920E-02 0. -1.
       -2    1    3    3    0  502  0.98613848201E+03 -0.69760137374E+03  0.39443537543E+03  0.12707069087E+04  0.25500000920E-02 0.  1.
</event>
<event>
 5   0  0.9083687E-06  0.2391344E+04  0.7818609E-02  0.8442751E-01
       -1   -1    0    0    0  501  0.00000000000E+00  0.00000000000E+00  0.14059049352E+04  0.14059049352E+04  0.50400001928E-02 0. -1.
        1   -1    0    0  501    0  0.00000000000E+00  0.00000000000E+00 -0.10168767823E+04  0.10168767823E+04  0.50400001928E-02 0.  1.
    10030    2    1    2    0    0  0.00000000000E+00  0.00000000000E+00  0.38902815292E+03  0.24227817175E+04  0.23913444642E+04 0.  0.
        2    1    3    3  502    0 -0.34637505143E+03 -0.41442955134E+03  0.12752636356E+04  0.13849277489E+04  0.25500000920E-02 0. -1.
       -2    1    3    3    0  502  0.34637505143E+03  0.41442955134E+03 -0.88623548271E+03  0.10378539686E+04  0.25500000920E-02 0.  1.
</event>
<event>
 5   0  0.8898848E-06  0.2390723E+04  0.7818609E-02  0.8442985E-01
       -1   -1    0    0    0  501  0.00000000000E+00  0.00000000000E+00  0.87400213725E+03  0.87400213726E+03  0.50400001928E-02 0.  1.
        1   -1    0    0  501    0  0.00000000000E+00  0.00000000000E+00 -0.16348804585E+04  0.16348804585E+04  0.50400001928E-02 0. -1.
    10030    2    1    2    0    0  0.00000000000E+00  0.00000000000E+00 -0.76087832124E+03  0.25088825958E+04  0.23907229157E+04 0.  0.
        5    1    3    3  502    0 -0.63712956901E+03  0.94262007713E+03  0.42864486976E+01  0.11377641061E+04  0.46999998093E+01 0.  1.
       -5    1    3    3    0  502  0.63712956901E+03 -0.94262007713E+03 -0.76516476993E+03  0.13711184896E+04  0.46999998093E+01 0. -1.
</event>
<event>
 5   0  0.2087882E-05  0.2404692E+04  0.7818609E-02  0.8437749E-01
        2   -1    0    0  501    0  0.00000000000E+00  0.00000000000E+00  0.87223507727E+03  0.87223507728E+03  0.25500000920E-02 0.  1.
       -2   -1    0    0    0  501  0.00000000000E+00  0.00000000000E+00 -0.16573925440E+04  0.16573925440E+04  0.25500000920E-02 0. -1.
    10030    2    1    2    0    0  0.00000000000E+00  0.00000000000E+00 -0.78515746673E+03  0.25296276213E+04  0.24046920083E+04 0.  0.
        2    1    3    3  502    0 -0.86045269422E+03  0.83952349762E+03 -0.41507610350E+03  0.12717966480E+04  0.25500000920E-02 0.  1.
       -2    1    3    3    0  502  0.86045269422E+03 -0.83952349762E+03 -0.37008136323E+03  0.12578309733E+04  0.25500000920E-02 0. -1.
</event>
<event>
 5   0  0.8528103E-06  0.2401715E+04  0.7818609E-02  0.8438862E-01
       -1   -1    0    0    0  501  0.00000000000E+00  0.00000000000E+00  0.20617779314E+04  0.20617779314E+04  0.50400001928E-02 0. -1.
        1   -1    0    0  501    0  0.00000000000E+00  0.00000000000E+00 -0.69942500895E+03  0.69942500897E+03  0.50400001928E-02 0.  1.
    10030    2    1    2    0    0  0.00000000000E+00  0.00000000000E+00  0.13623529224E+04  0.27612029403E+04  0.24017152605E+04 0.  0.
        4    1    3    3  502    0 -0.56426668345E+03 -0.63431391186E+03 -0.29524362388E+03  0.89884450222E+03  0.12699999809E+01 0.  1.
       -4    1    3    3    0  502  0.56426668345E+03  0.63431391186E+03  0.16575965463E+04  0.18623584381E+04  0.12699999809E+01 0. -1.
</event>
<event>
 5   0  0.9038897E-06  0.2366821E+04  0.7818609E-02  0.8452031E-01
        1   -1    0    0  501    0  0.00000000000E+00  0.00000000000E+00  0.14518482358E+04  0.14518482358E+04  0.50400001928E-02 0.  1.
       -1   -1    0    0    0  501  0.00000000000E+00  0.00000000000E+00 -0.96460494871E+03  0.96460494873E+03  0.50400001928E-02 0. -1.
    10030    2    1    2    0    0  0.00000000000E+00  0.00000000000E+00  0.48724328704E+03  0.24164531845E+04  0.23668206464E+04 0.  0.
        1    1    3    3  502    0 -0.73333472544E+03 -0.24465431437E+03  0.11584156891E+04  0.13926817518E+04  0.50400001928E-02 0.  1.
       -1    1    3    3    0  502  0.73333472544E+03  0.24465431437E+03 -0.67117240205E+03  0.10237714327E+04  0.50400001928E-02 0. -1.
</event>
<event>
 5   0  0.9038897E-06  0.2458705E+04  0.7818609E-02  0.8417847E-01
        1   -1    0    0  501    0  0.00000000000E+00  0.00000000000E+00  0.12179928530E+04  0.12179928530E+04  0.50400001928E-02 0. -1.
       -1   -1    0    0    0  501  0.00000000000E+00  0.00000000000E+00 -0.12408181359E+04  0.12408181359E+04  0.50400001928E-02 0.  1.
    10030    2    1    2    0    0  0.00000000000E+00  0.00000000000E+00 -0.22825282945E+02  0.24588109889E+04  0.24587050425E+04 0.  0.
        1    1    3    3  502    0 -0.92943121323E+03 -0.59291634058E+03 -0.55541719764E+03  0.12344555199E+04  0.50400001928E-02 0.  1.
       -1    1    3    3    0  502  0.92943121323E+03  0.59291634058E+03  0.53259191469E+03  0.12243554691E+04  0.50400001928E-02 0. -1.
</event>
<event>
 5   0  0.2025353E-05  0.2412825E+04  0.7818609E-02  0.8434718E-01
        2   -1    0    0  501    0  0.00000000000E+00  0.00000000000E+00  0.17436695331E+04  0.17436695331E+04  0.25500000920E-02 0.  1.
       -2   -1    0    0    0  501  0.00000000000E+00  0.00000000000E+00 -0.83469427694E+03  0.83469427694E+03  0.25500000920E-02 0. -1.
    10030    2    1    2    0    0  0.00000000000E+00  0.00000000000E+00  0.90897525616E+03  0.25783638100E+04  0.24128248839E+04 0.  0.
        4    1    3    3  502    0 -0.68438692156E+02 -0.45801620708E+03 -0.73592753931E+03  0.86951345967E+03  0.12699999809E+01 0. -1.
       -4    1    3    3    0  502  0.68438692156E+02  0.45801620708E+03  0.16449027955E+04  0.17088503504E+04  0.12699999809E+01 0.  1.
</event>
<event>
 5   0  0.9176817E-06  0.2386411E+04  0.7818609E-02  0.8444609E-01
       -1   -1    0    0    0  501  0.00000000000E+00  0.00000000000E+00  0.12201901517E+04  0.12201901517E+04  0.50400001928E-02 0. -1.
        1   -1    0    0  501    0  0.00000000000E+00  0.00000000000E+00 -0.11668174870E+04  0.11668174870E+04  0.50400001928E-02 0.  1.
    10030    2    1    2    0    0  0.00000000000E+00  0.00000000000E+00  0.53372664652E+02  0.23870076387E+04  0.23864108670E+04 0.  0.
        3    1    3    3  502    0 -0.89885920208E+03  0.11316584635E+03 -0.75002882646E+03  0.11761367372E+04  0.10100000352E+00 0.  1.
       -3    1    3    3    0  502  0.89885920208E+03 -0.11316584635E+03  0.80340149111E+03  0.12108709015E+04  0.10100000352E+00 0. -1.
</event>
<event>
 5   0  0.2025353E-05  0.2430907E+04  0.7818609E-02  0.8428022E-01
        2   -1    0    0  501    0  0.00000000000E+00  0.00000000000E+00  0.20584225772E+04  0.20584225772E+04  0.25500000920E-02 0. -1.
       -2   -1    0    0    0  501  0.00000000000E+00  0.00000000000E+00 -0.71769875345E+03  0.71769875345E+03  0.25500000920E-02 0.  1.
    10030    2    1    2    0    0  0.00000000000E+00  0.00000000000E+00  0.13407238238E+04  0.27761213307E+04  0.24309070881E+04 0.  0.
        4    1    3    3  502    0  0.11978114328E+04  0.18510763395E+03  0.77445815511E+03  0.14383337970E+04  0.12699999809E+01 0. -1.
       -4    1    3    3    0  502 -0.11978114328E+04 -0.18510763395E+03  0.56626566866E+03  0.13377875336E+04  0.12699999809E+01 0.  1.
</event>
<event>
 5   0  0.2122194E-05  0.2424505E+04  0.7818609E-02  0.8430386E-01
        2   -1    0    0  501    0  0.00000000000E+00  0.00000000000E+00  0.47766881151E+03  0.47766881151E+03  0.25500000920E-02 0. -1.
       -2   -1    0    0    0  501  0.00000000000E+00  0.00000000000E+00 -0.30765161201E+04  0.30765161201E+04  0.25500000920E-02 0.  1.
    10030    2    1    2    0    0  0.00000000000E+00  0.00000000000E+00 -0.25988473086E+04  0.35541849316E+04  0.24245047318E+04 0.  0.
        3    1    3    3  502    0  0.84616563969E+03 -0.22630169325E+02 -0.25715438123E+04  0.27072764918E+04  0.10100000352E+00 0.  1.
       -3    1    3    3    0  502 -0.84616563969E+03  0.22630169325E+02 -0.27303496333E+02  0.84690843984E+03  0.10100000352E+00 0. -1.
</event>
<event>
 5   0  0.2080257E-05  0.2369993E+04  0.7818609E-02  0.8450824E-01
       -2   -1    0    0    0  501  0.00000000000E+00  0.00000000000E+00  0.11535203381E+04  0.11535203381E+04  0.25500000920E-02 0.  1.
        2   -1    0    0  501    0  0.00000000000E+00  0.00000000000E+00 -0.12173313470E+04  0.12173313470E+04  0.25500000920E-02 0. -1.
    10030    2    1    2    0    0  0.00000000000E+00  0.00000000000E+00 -0.63811008863E+02  0.23708516851E+04  0.23699927991E+04 0.  0.
        1    1    3    3  502    0  0.59258767725E+03 -0.55107605687E+03 -0.89788167878E+03  0.12087334217E+04  0.50400001928E-02 0. -1.
       -1    1    3    3    0  502 -0.59258767725E+03  0.55107605687E+03  0.83407066991E+03  0.11621182634E+04  0.50400001928E-02 0.  1.
</event>
<event>
 5   0  0.2025353E-05  0.2411406E+04  0.7818609E-02  0.8435246E-01
        2   -1    0    0  501    0  0.00000000000E+00  0.00000000000E+00  0.16904586171E+04  0.16904586171E+04  0.25500000920E-02 0.  1.
       -2   -1    0    0    0  501  0.00000000000E+00  0.00000000000E+00 -0.85995559096E+03  0.85995559096E+03  0.25500000920E-02 0. -1.
    10030    2    1    2    0    0  0.00000000000E+00  0.00000000000E+00  0.83050302615E+03  0.25504142081E+04  0.24114056806E+04 0.  0.
        4    1    3    3  502    0  0.38597630824E+03  0.15126206753E+03  0.16127106549E+04  0.16651411931E+04  0.12699999809E+01 0.  1.
       -4    1    3    3    0  502 -0.38597630824E+03 -0.15126206753E+03 -0.78220762878E+03  0.88527301496E+03  0.12699999809E+01 0. -1.
</event>
<event>
 5   0  0.9176817E-06  0.2389673E+04  0.7818609E-02  0.8443380E-01
        1   -1    0    0  501    0  0.00000000000E+00  0.00000000000E+00  0.23455597263E+04  0.23455597263E+04  0.50400001928E-02 0. -1.
       -1   -1    0    0    0  501  0.00000000000E+00  0.00000000000E+00 -0.60865400550E+03  0.60865400552E+03  0.50400001928E-02 0.  1.
    10030    2    1    2    0    0  0.00000000000E+00  0.00000000000E+00  0.17369057208E+04  0.29542137318E+04  0.23896730509E+04 0.  0.
        3    1    3    3  502    0  0.29320224947E+03  0.71584458741E+03  0.19942024267E+04  0.21389820853E+04  0.10100000352E+00 0. -1.
       -3    1    3    3    0  502 -0.29320224947E+03 -0.71584458741E+03 -0.25729670590E+03  0.81523164652E+03  0.10100000352E+00 0.  1.
</event>
<event>
 5   0  0.2122194E-05  0.2381240E+04  0.7818609E-02  0.8446560E-01
       -2   -1    0    0    0  501  0.00000000000E+00  0.00000000000E+00  0.77208849884E+03  0.77208849885E+03  0.25500000920E-02 0. -1.
        2   -1    0    0  501    0  0.00000000000E+00  0.00000000000E+00 -0.18360285652E+04  0.18360285652E+04  0.25500000920E-02 0.  1.
    10030    2    1    2    0    0  0.00000000000E+00  0.00000000000E+00 -0.10639400664E+04  0.26081170641E+04  0.23812404656E+04 0.  0.
        3    1    3    3  502    0 -0.39780632613E+03 -0.34550463321E+03 -0.17013814735E+04  0.17811014158E+04  0.10100000352E+00 0.  1.
       -3    1    3    3    0  502  0.39780632613E+03  0.34550463321E+03  0.63744140717E+03  0.82701564825E+03  0.10100000352E+00 0. -1.
</event>
<event>
 5   0  0.9038897E-06  0.2444023E+04  0.7818609E-02  0.8423203E-01
        1   -1    0    0  501    0  0.00000000000E+00  0.00000000000E+00  0.23496012929E+04  0.23496012929E+04  0.50400001928E-02 0.  1.
       -1   -1    0    0    0  501  0.00000000000E+00  0.00000000000E+00 -0.63556002735E+03  0.63556002737E+03  0.50400001928E-02 0. -1.
    10030    2    1    2    0    0  0.00000000000E+00  0.00000000000E+00  0.17140412656E+04  0.29851613203E+04  0.24440234549E+04 0.  0.
        1    1    3    3  502    0  0.11167016938E+04  0.25287274195E+03  0.13785872672E+04  0.17920575186E+04  0.50400001928E-02 0. -1.
       -1    1    3    3    0  502 -0.11167016938E+04 -0.25287274195E+03  0.33545399840E+03  0.11931038017E+04  0.50400001928E-02 0.  1.
</event>
<event>
 5   0  0.2025353E-05  0.2384849E+04  0.7818609E-02  0.8445198E-01
       -2   -1    0    0    0  501  0.00000000000E+00  0.00000000000E+00  0.85509766651E+03  0.85509766651E+03  0.25500000920E-02 0. -1.
        2   -1    0    0  501    0  0.00000000000E+00  0.00000000000E+00 -0.16628235970E+04  0.16628235970E+04  0.25500000920E-02 0.  1.
    10030    2    1    2    0    0  0.00000000000E+00  0.00000000000E+00 -0.80772593054E+03  0.25179212636E+04  0.23848493266E+04 0.  0.
        4    1    3    3  502    0 -0.11272777637E+03 -0.86577566817E+03  0.45361208442E+03  0.98389054025E+03  0.12699999809E+01 0. -1.
       -4    1    3    3    0  502  0.11272777637E+03  0.86577566817E+03 -0.12613380150E+04  0.15340307233E+04  0.12699999809E+01 0.  1.
</event>
<event>
 5   0  0.2087882E-05  0.2358407E+04  0.7818609E-02  0.8455242E-01
        2   -1    0    0  501    0  0.00000000000E+00  0.00000000000E+00  0.17630628051E+04  0.17630628051E+04  0.25500000920E-02 0.  1.
       -2   -1    0    0    0  501  0.00000000000E+00  0.00000000000E+00 -0.78869612369E+03  0.78869612369E+03  0.25500000920E-02 0. -1.
    10030    2    1    2    0    0  0.00000000000E+00  0.00000000000E+00  0.97436668143E+03  0.25517589288E+04  0.23584069201E+04 0.  0.
        2    1    3    3  502    0 -0.97507098463E+03  0.65363305879E+03  0.60825538403E+03  0.13221097582E+04  0.25500000920E-02 0.  1.
       -2    1    3    3    0  502  0.97507098463E+03 -0.65363305879E+03  0.36611129740E+03  0.12296491706E+04  0.25500000920E-02 0. -1.
</event>
<event>
 5   0  0.2080257E-05  0.2408321E+04  0.7818609E-02  0.8436395E-01
       -2   -1    0    0    0  501  0.00000000000E+00  0.00000000000E+00  0.70690764487E+03  0.70690764488E+03  0.25500000920E-02 0.  1.
        2   -1    0    0  501    0  0.00000000000E+00  0.00000000000E+00 -0.20511907403E+04  0.20511907403E+04  0.25500000920E-02 0. -1.
    10030    2    1    2    0    0  0.00000000000E+00  0.00000000000E+00 -0.13442830954E+04  0.27580983852E+04  0.24083209216E+04 0.  0.
        1    1    3    3  502    0 -0.72919394040E+02  0.60425985065E+03 -0.18620617128E+04  0.19590102162E+04  0.50400001928E-02 0. -1.
       -1    1    3    3    0  502  0.72919394040E+02 -0.60425985065E+03  0.51777861734E+03  0.79908816894E+03  0.50400001928E-02 0.  1.
</event>
<event>
 5   0  0.2122194E-05  0.2423545E+04  0.7818609E-02  0.8430741E-01
       -2   -1    0    0    0  501  0.00000000000E+00  0.00000000000E+00  0.54959505138E+03  0.54959505139E+03  0.25500000920E-02 0. -1.
        2   -1    0    0  501    0  0.00000000000E+00  0.00000000000E+00 -0.26717712985E+04  0.26717712985E+04  0.25500000920E-02 0.  1.
    10030    2    1    2    0    0  0.00000000000E+00  0.00000000000E+00 -0.21221762471E+04  0.32213663499E+04  0.24235447461E+04 0.  0.
        3    1    3    3  502    0 -0.90077519070E+03  0.50754344888E+03 -0.19011106227E+04  0.21640743764E+04  0.10100000352E+00 0.  1.
       -3    1    3    3    0  502  0.90077519070E+03 -0.50754344888E+03 -0.22106562442E+03  0.10572919735E+04  0.10100000352E+00 0. -1.
</event>
<event>
 5   0  0.2087882E-05  0.2392974E+04  0.7818609E-02  0.8442139E-01
       -2   -1    0    0    0  501  0.00000000000E+00  0.00000000000E+00  0.72527997525E+03  0.72527997526E+03  0.25500000920E-02 0.  1.
        2   -1    0    0  501    0  0.00000000000E+00  0.00000000000E+00 -0.19738321147E+04  0.19738321147E+04  0.25500000920E-02 0. -1.
    10030    2    1    2    0    0  0.00000000000E+00  0.00000000000E+00 -0.12485521394E+04  0.26991120899E+04  0.23929738045E+04 0.  0.
        2    1    3    3  502    0  0.52068005013E+03 -0.83709306757E+03  0.14051548584E+03  0.99577965441E+03  0.25500000920E-02 0. -1.
       -2    1    3    3    0  502 -0.52068005013E+03  0.83709306757E+03 -0.13890676253E+04  0.17033324355E+04  0.25500000920E-02 0.  1.
</event>
<event>
 5   0  0.9083687E-06  0.2472259E+04  0.7818609E-02  0.8412936E-01
       -1   -1    0    0    0  501  0.00000000000E+00  0.00000000000E+00  0.10359686900E+04  0.10359686901E+04  0.50400001928E-02 0. -1.
        1   -1    0    0  501    0  0.00000000000E+00  0.00000000000E+00 -0.14749634657E+04  0.14749634657E+04  0.50400001928E-02 0.  1.
    10030    2    1    2    0    0  0.00000000000E+00  0.00000000000E+00 -0.43899477567E+03  0.25109321558E+04  0.24722588614E+04 0.  0.
        2    1    3    3  502    0 -0.66086555694E+03 -0.64535038102E+03 -0.10538068093E+04  0.14013312206E+04  0.25500000920E-02 0.  1.
       -2    1    3    3    0  502  0.66086555694E+03  0.64535038102E+03  0.61481203359E+03  0.11096009352E+04  0.25500000920E-02 0. -1.
</event>
<event>
 5   0  0.9083687E-06  0.2404372E+04  0.7818609E-02  0.8437869E-01
        1   -1    0    0  501    0  0.00000000000E+00  0.00000000000E+00  0.14546781985E+04  0.14546781985E+04  0.50400001928E-02 0.  1.
       -1   -1    0    0    0  501  0.00000000000E+00  0.00000000000E+00 -0.99351954549E+03  0.99351954550E+03  0.50400001928E-02 0. -1.
    10030    2    1    2    0    0  0.00000000000E+00  0.00000000000E+00  0.46115865296E+03  0.24481977440E+04  0.24043720366E+04 0.  0.
        2    1    3    3  502    0  0.88681381488E+03 -0.40800265384E+03  0.94504303052E+03  0.13586799613E+04  0.25500000920E-02 0.  1.
       -2    1    3    3    0  502 -0.88681381488E+03  0.40800265384E+03 -0.48388437756E+03  0.10895177826E+04  0.25500000920E-02 0. -1.
</event>
<event>
 5   0  0.8528103E-06  0.2423031E+04  0.7818609E-02  0.8430931E-01
       -1   -1    0    0    0  501  0.00000000000E+00  0.00000000000E+00  0.86985278669E+03  0.86985278671E+03  0.50400001928E-02 0. -1.
        1   -1    0    0  501    0  0.00000000000E+00  0.00000000000E+00 -0.16873771704E+04  0.16873771704E+04  0.50400001928E-02 0.  1.
    10030    2    1    2    0    0  0.00000000000E+00  0.00000000000E+00 -0.81752438369E+03  0.25572299571E+04  0.24230309399E+04 0.  0.
        4    1    3    3  502    0 -0.15869349241E+03  0.10460242516E+04 -0.10317233467E+04  0.14777702922E+04  0.12699999809E+01 0.  1.
       -4    1    3    3    0  502  0.15869349241E+03 -0.10460242516E+04  0.21419896306E+03  0.10794596649E+04  0.12699999809E+01 0. -1.
</event>
<event>
 5   0  0.8898848E-06  0.2313123E+04  0.7818609E-02  0.8472765E-01
       -1   -1    0    0    0  501  0.00000000000E+00  0.00000000000E+00  0.46407441965E+03  0.46407441968E+03  0.50400001928E-02 0. -1.
        1   -1    0    0  501    0  0.00000000000E+00  0.00000000000E+00 -0.28823712583E+04  0.28823712584E+04  0.50400001928E-02 0.  1.
    10030    2    1    2    0    0  0.00000000000E+00  0.00000000000E+00 -0.24182968387E+04  0.33464456780E+04  0.23131232297E+04 0.  0.
        5    1    3    3  502    0  0.28034367756E+03 -0.62165122831E+03 -0.25605521433E+04  0.26498098414E+04  0.46999998093E+01 0.  1.
       -5    1    3    3    0  502 -0.28034367756E+03  0.62165122831E+03  0.14225530457E+03  0.69663583663E+03  0.46999998093E+01 0. -1.
</event>
<event>
 5   0  0.8898848E-06  0.2401973E+04  0.7818609E-02  0.8438765E-01
        1   -1    0    0  501    0  0.00000000000E+00  0.00000000000E+00  0.70290092482E+03  0.70290092484E+03  0.50400001928E-02 0.  1.
       -1   -1    0    0    0  501  0.00000000000E+00  0.00000000000E+00 -0.20520231920E+04  0.20520231920E+04  0.50400001928E-02 0. -1.
    10030    2    1    2    0    0  0.00000000000E+00  0.00000000000E+00 -0.13491222672E+04  0.27549241169E+04  0.24019733549E+04 0.  0.
        5    1    3    3  502    0  0.25645287943E+03  0.66294365636E+03  0.43571458388E+03  0.83374556039E+03  0.46999998093E+01 0.  1.
       -5    1    3    3    0  502 -0.25645287943E+03 -0.66294365636E+03 -0.17848368511E+04  0.19211785565E+04  0.46999998093E+01 0. -1.
</event>
<event>
 5   0  0.2122194E-05  0.2396402E+04  0.7818609E-02  0.8440852E-01
        2   -1    0    0  501    0  0.00000000000E+00  0.00000000000E+00  0.96693899187E+03  0.96693899187E+03  0.25500000920E-02 0. -1.
       -2   -1    0    0    0  501  0.00000000000E+00  0.00000000000E+00 -0.14847731509E+04  0.14847731509E+04  0.25500000920E-02 0.  1.
    10030    2    1    2    0    0  0.00000000000E+00  0.00000000000E+00 -0.51783415905E+03  0.24517121428E+04  0.23964015137E+04 0.  0.
        3    1    3    3  502    0 -0.44872044859E+03  0.64437927799E+03  0.66701919676E+03  0.10302860350E+04  0.10100000352E+00 0. -1.
       -3    1    3    3    0  502  0.44872044859E+03 -0.64437927799E+03 -0.11848533558E+04  0.14214261078E+04  0.10100000352E+00 0.  1.
</event>
<event>
 5   0  0.2122194E-05  0.2397266E+04  0.7818609E-02  0.8440528E-01
        2   -1    0    0  501    0  0.00000000000E+00  0.00000000000E+00  0.13255485156E+04  0.13255485156E+04  0.25500000920E-02 0. -1.
       -2   -1    0    0    0  501  0.00000000000E+00  0.00000000000E+00 -0.10838688839E+04  0.10838688839E+04  0.25500000920E-02 0.  1.
    10030    2    1    2    0    0  0.00000000000E+00  0.00000000000E+00  0.24167963169E+03  0.24094173994E+04  0.23972657676E+04 0.  0.
        3    1    3    3  502    0 -0.40276132607E+03  0.90335520998E+03 -0.55968424551E+03  0.11364478809E+04  0.10100000352E+00 0.  1.
       -3    1    3    3    0  502  0.40276132607E+03 -0.90335520998E+03  0.80136387720E+03  0.12729695185E+04  0.10100000352E+00 0. -1.
</event>
<event>
 5   0  0.8898848E-06  0.2390854E+04  0.7818609E-02  0.8442936E-01
       -1   -1    0    0    0  501  0.00000000000E+00  0.00000000000E+00  0.88914838676E+03  0.88914838677E+03  0.50400001928E-02 0.  1.
        1   -1    0    0  501    0  0.00000000000E+00  0.00000000000E+00 -0.16072066386E+04  0.16072066386E+04  0.50400001928E-02 0. -1.
    10030    2    1    2    0    0  0.00000000000E+00  0.00000000000E+00 -0.71805825184E+03  0.24963550254E+04  0.23908535630E+04 0.  0.
        5    1    3    3  502    0  0.90008700939E+02  0.24526160784E+03 -0.15770240010E+04  0.15985248238E+04  0.46999998093E+01 0. -1.
       -5    1    3    3    0  502 -0.90008700939E+02 -0.24526160784E+03  0.85896574920E+03  0.89783020156E+03  0.46999998093E+01 0.  1.
</event>
<event>
 5   0  0.2080257E-05  0.2399013E+04  0.7818609E-02  0.8439873E-01
        2   -1    0    0  501    0  0.00000000000E+00  0.00000000000E+00  0.11476258927E+04  0.11476258927E+04  0.25500000920E-02 0. -1.
       -2   -1    0    0    0  501  0.00000000000E+00  0.00000000000E+00 -0.12537323274E+04  0.12537323274E+04  0.25500000920E-02 0.  1.
    10030    2    1    2    0    0  0.00000000000E+00  0.00000000000E+00 -0.10610643477E+03  0.24013582201E+04  0.23990128649E+04 0.  0.
        1    1    3    3  502    0  0.25895260234E+03  0.92214184075E+03  0.66974250612E+03  0.11687416521E+04  0.50400001928E-02 0. -1.
       -1    1    3    3    0  502 -0.25895260234E+03 -0.92214184075E+03 -0.77584894089E+03  0.12326165680E+04  0.50400001928E-02 0.  1.
</event>
<event>
 5   0  0.9083687E-06  0.2396731E+04  0.7818609E-02  0.8440728E-01
        1   -1    0    0  501    0  0.00000000000E+00  0.00000000000E+00  0.12492460129E+04  0.12492460129E+04  0.50400001928E-02 0.  1.
       -1   -1    0    0    0  501  0.00000000000E+00  0.00000000000E+00 -0.11495573513E+04  0.11495573513E+04  0.50400001928E-02 0. -1.
    10030    2    1    2    0    0  0.00000000000E+00  0.00000000000E+00  0.99688661644E+02  0.23988033642E+04  0.23967310552E+04 0.  0.
        2    1    3    3  502    0 -0.63585845146E+03  0.87554542239E+03 -0.46556129256E+03  0.11779826289E+04  0.25500000920E-02 0. -1.
       -2    1    3    3    0  502  0.63585845146E+03 -0.87554542239E+03  0.56524995420E+03  0.12208207353E+04  0.25500000920E-02 0.  1.
</event>
<event>
 5   0  0.2122194E-05  0.2445177E+04  0.7818609E-02  0.8422781E-01
       -2   -1    0    0    0  501  0.00000000000E+00  0.00000000000E+00  0.12856627544E+04  0.12856627544E+04  0.25500000920E-02 0.  1.
        2   -1    0    0  501    0  0.00000000000E+00  0.00000000000E+00 -0.11626086998E+04  0.11626086998E+04  0.25500000920E-02 0. -1.
    10030    2    1    2    0    0  0.00000000000E+00  0.00000000000E+00  0.12305405454E+03  0.24482714542E+04  0.24451770515E+04 0.  0.
        3    1    3    3  502    0  0.98668103206E+03  0.44699870488E+03 -0.50609019933E+03  0.11956063739E+04  0.10100000352E+00 0. -1.
       -3    1    3    3    0  502 -0.98668103206E+03 -0.44699870488E+03  0.62914425387E+03  0.12526650804E+04  0.10100000352E+00 0.  1.
</event>
<event>
 5   0  0.2025353E-05  0.2375109E+04  0.7818609E-02  0.8448882E-01
        2   -1    0    0  501    0  0.00000000000E+00  0.00000000000E+00  0.14128944676E+04  0.14128944676E+04  0.25500000920E-02 0. -1.
       -2   -1    0    0    0  501  0.00000000000E+00  0.00000000000E+00 -0.99815323866E+03  0.99815323867E+03  0.25500000920E-02 0.  1.
    10030    2    1    2    0    0  0.00000000000E+00  0.00000000000E+00  0.41474122894E+03  0.24110477063E+04  0.23751085775E+04 0.  0.
        4    1    3    3  502    0 -0.87103786412E+02 -0.10979067469E+04  0.65827336666E+03  0.12830867985E+04  0.12699999809E+01 0. -1.
       -4    1    3    3    0  502  0.87103786412E+02  0.10979067469E+04 -0.24353213772E+03  0.11279609077E+04  0.12699999809E+01 0.  1.
</event>
<event>
 5   0  0.2048028E-05  0.2390267E+04  0.7818609E-02  0.8443156E-01
        2   -1    0    0  501    0  0.00000000000E+00  0.00000000000E+00  0.12146775338E+04  0.12146775338E+04  0.25500000920E-02 0. -1.
       -2   -1    0    0    0  501  0.00000000000E+00  0.00000000000E+00 -0.11759042487E+04  0.11759042487E+04  0.25500000920E-02 0.  1.
    10030    2    1    2    0    0  0.00000000000E+00  0.00000000000E+00  0.38773285115E+02  0.23905817825E+04  0.23902673263E+04 0.  0.
        5    1    3    3  502    0 -0.76637657390E+03  0.10317150528E+03 -0.89196590171E+03  0.11805094969E+04  0.46999998093E+01 0.  1.
       -5    1    3    3    0  502  0.76637657390E+03 -0.10317150528E+03  0.93073918682E+03  0.12100722856E+04  0.46999998093E+01 0. -1.
</event>
<event>
 5   0  0.9038897E-06  0.2390597E+04  0.7818609E-02  0.8443032E-01
       -1   -1    0    0    0  501  0.00000000000E+00  0.00000000000E+00  0.80354587628E+03  0.80354587629E+03  0.50400001928E-02 0.  1.
        1   -1    0    0  501    0  0.00000000000E+00  0.00000000000E+00 -0.17780417460E+04  0.17780417460E+04  0.50400001928E-02 0. -1.
    10030    2    1    2    0    0  0.00000000000E+00  0.00000000000E+00 -0.97449586973E+03  0.25815876223E+04  0.23905966727E+04 0.  0.
        1    1    3    3  502    0  0.72953012718E+03  0.59750238196E+02  0.53320988498E+03  0.90559211508E+03  0.50400001928E-02 0.  1.
       -1    1    3    3    0  502 -0.72953012718E+03 -0.59750238196E+02 -0.15077057547E+04  0.16759955072E+04  0.50400001928E-02 0. -1.
</event>
<event>
 5   0  0.9176817E-06  0.2389973E+04  0.7818609E-02  0.8443267E-01
       -1   -1    0    0    0  501  0.00000000000E+00  0.00000000000E+00  0.13299949914E+04  0.13299949915E+04  0.50400001928E-02 0. -1.
        1   -1    0    0  501    0  0.00000000000E+00  0.00000000000E+00 -0.10736830500E+04  0.10736830501E+04  0.50400001928E-02 0.  1.
    10030    2    1    2    0    0  0.00000000000E+00  0.00000000000E+00  0.25631194141E+03  0.24036780415E+04  0.23899732877E+04 0.  0.
        3    1    3    3  502    0 -0.21779307195E+02  0.11712204747E+04  0.36564842307E+03  0.12271636069E+04  0.10100000352E+00 0. -1.
       -3    1    3    3    0  502  0.21779307195E+02 -0.11712204747E+04 -0.10933648166E+03  0.11765144346E+04  0.10100000352E+00 0.  1.
</event>
<event>
 5   0  0.8528103E-06  0.2394229E+04  0.7818609E-02  0.8441667E-01
        1   -1    0    0  501    0  0.00000000000E+00  0.00000000000E+00  0.10239769263E+04  0.10239769263E+04  0.50400001928E-02 0. -1.
       -1   -1    0    0    0  501  0.00000000000E+00  0.00000000000E+00 -0.13995262768E+04  0.13995262768E+04  0.50400001928E-02 0.  1.
    10030    2    1    2    0    0  0.00000000000E+00  0.00000000000E+00 -0.37554935054E+03  0.24235032031E+04  0.23942285732E+04 0.  0.
        4    1    3    3  502    0  0.31286618790E+03  0.10702998925E+04  0.25304286510E+03  0.11434419163E+04  0.12699999809E+01 0.  1.
       -4    1    3    3    0  502 -0.31286618790E+03 -0.10702998925E+04 -0.62859221564E+03  0.12800612868E+04  0.12699999809E+01 0. -1.
</event>
<event>
 5   0  0.8898848E-06  0.2403041E+04  0.7818609E-02  0.8438366E-01
       -1   -1    0    0    0  501  0.00000000000E+00  0.00000000000E+00  0.10004456426E+04  0.10004456426E+04  0.50400001928E-02 0.  1.
        1   -1    0    0  501    0  0.00000000000E+00  0.00000000000E+00 -0.14430081328E+04  0.14430081328E+04  0.50400001928E-02 0. -1.
    10030    2    1    2    0    0  0.00000000000E+00  0.00000000000E+00 -0.44256249020E+03  0.24434537754E+04  0.24030407393E+04 0.  0.
        5    1    3    3  502    0 -0.36393687368E+03 -0.18589077066E+03  0.92759815467E+03  0.10136399031E+04  0.46999998093E+01 0.  1.
       -5    1    3    3    0  502  0.36393687368E+03  0.18589077066E+03 -0.13701606449E+04  0.14298138723E+04  0.46999998093E+01 0. -1.
</event>
<event>
 5   0  0.2122194E-05  0.2363294E+04  0.7818609E-02  0.8453375E-01
        2   -1    0    0  501    0  0.00000000000E+00  0.00000000000E+00  0.20273831961E+04  0.20273831961E+04  0.25500000920E-02 0. -1.
       -2   -1    0    0    0  501  0.00000000000E+00  0.00000000000E+00 -0.68871518607E+03  0.68871518607E+03  0.25500000920E-02 0.  1.
    10030    2    1    2    0    0  0.00000000000E+00  0.00000000000E+00  0.13386680100E+04  0.27160983822E+04  0.23632939683E+04 0.  0.
        3    1    3    3  502    0  0.44761577186E+03 -0.10912354712E+04  0.75168933747E+03  0.13986391969E+04  0.10100000352E+00 0. -1.
       -3    1    3    3    0  502 -0.44761577186E+03  0.10912354712E+04  0.58697867255E+03  0.13174591853E+04  0.10100000352E+00 0.  1.
</event>
<event>
 5   0  0.9083687E-06  0.2422808E+04  0.7818609E-02  0.8431014E-01
        1   -1    0    0  501    0  0.00000000000E+00  0.00000000000E+00  0.12814111668E+04  0.12814111668E+04  0.50400001928E-02 0.  1.
       -1   -1    0    0    0  501  0.00000000000E+00  0.00000000000E+00 -0.11452217244E+04  0.11452217244E+04  0.50400001928E-02 0. -1.
    10030    2    1    2    0    0  0.00000000000E+00  0.00000000000E+00  0.13618944239E+03  0.24266328913E+04  0.24228082105E+04 0.  0.
        2    1    3    3  502    0  0.30310839619E+03 -0.98258290967E+03  0.70953997282E+03  0.12493161518E+04  0.25500000920E-02 0.  1.
       -2    1    3    3    0  502 -0.30310839619E+03  0.98258290967E+03 -0.57335053043E+03  0.11773167394E+04  0.25500000920E-02 0. -1.
</event>
<event>
 5   0  0.8528103E-06  0.2395917E+04  0.7818609E-02  0.8441034E-01
       -1   -1    0    0    0  501  0.00000000000E+00  0.00000000000E+00  0.10717592897E+04  0.10717592897E+04  0.50400001928E-02 0. -1.
        1   -1    0    0  501    0  0.00000000000E+00  0.00000000000E+00 -0.13390175018E+04  0.13390175018E+04  0.50400001928E-02 0.  1.
    10030    2    1    2    0    0  0.00000000000E+00  0.00000000000E+00 -0.26725821209E+03  0.24107767914E+04  0.23959168989E+04 0.  0.
        4    1    3    3  502    0 -0.11137554303E+04  0.14528447915E+03  0.28554087414E+03  0.11589192992E+04  0.12699999809E+01 0. -1.
       -4    1    3    3    0  502  0.11137554303E+04 -0.14528447915E+03 -0.55279908623E+03  0.12518574923E+04  0.12699999809E+01 0.  1.
</event>
<event>
 5   0  0.9176817E-06  0.2394258E+04  0.7818609E-02  0.8441656E-01
        1   -1    0    0  501    0  0.00000000000E+00  0.00000000000E+00  0.15527132109E+04  0.15527132109E+04  0.50400001928E-02 0. -1.
       -1   -1    0    0    0  501  0.00000000000E+00  0.00000000000E+00 -0.92297635652E+03  0.92297635653E+03  0.50400001928E-02 0.  1.
    10030    2    1    2    0    0  0.00000000000E+00  0.00000000000E+00  0.62973685435E+03  0.24756895674E+04  0.23942577824E+04 0.  0.
        3    1    3    3  502    0 -0.65069304205E+03 -0.73933255255E+03 -0.38879392683E+03  0.10588554132E+04  0.10100000352E+00 0.  1.
       -3    1    3    3    0  502  0.65069304205E+03  0.73933255255E+03  0.10185307812E+04  0.14168341542E+04  0.10100000352E+00 0. -1.
</event>
<event>
 5   0  0.8528103E-06  0.2368790E+04  0.7818609E-02  0.8451281E-01
       -1   -1    0    0    0  501  0.00000000000E+00  0.00000000000E+00  0.18559185497E+04  0.18559185497E+04  0.50400001928E-02 0. -1.
        1   -1    0    0  501    0  0.00000000000E+00  0.00000000000E+00 -0.75584748941E+03  0.75584748942E+03  0.50400001928E-02 0.  1.
    10030    2    1    2    0    0  0.00000000000E+00  0.00000000000E+00  0.11000710603E+04  0.26117660391E+04  0.23687898821E+04 0.  0.
        4    1    3    3  502    0  0.42853492917E+03 -0.83963088362E+03  0.13406414578E+04  0.16388847847E+04  0.12699999809E+01 0. -1.
       -4    1    3    3    0  502 -0.42853492917E+03  0.83963088362E+03 -0.24057039746E+03  0.97288125447E+03  0.12699999809E+01 0.  1.
</event>
<event>
 5   0  0.2087882E-05  0.2440064E+04  0.7818609E-02  0.8424655E-01
        2   -1    0    0  501    0  0.00000000000E+00  0.00000000000E+00  0.16565784839E+04  0.16565784839E+04  0.25500000920E-02 0.  1.
       -2   -1    0    0    0  501  0.00000000000E+00  0.00000000000E+00 -0.89852575677E+03  0.89852575677E+03  0.25500000920E-02 0. -1.
    10030    2    1    2    0    0  0.00000000000E+00  0.00000000000E+00  0.75805272717E+03  0.25551042407E+04  0.24400642909E+04 0.  0.
        2    1    3    3  502    0 -0.12112575283E+04 -0.56194098676E+02  0.52020039957E+03  0.13194358765E+04  0.25500000920E-02 0.  1.
       -2    1    3    3    0  502  0.12112575283E+04  0.56194098676E+02  0.23785232760E+03  0.12356683642E+04  0.25500000920E-02 0. -1.
</event>
<event>
 5   0  0.2048028E-05  0.2381466E+04  0.7818609E-02  0.8446475E-01
       -2   -1    0    0    0  501  0.00000000000E+00  0.00000000000E+00  0.99374446961E+03  0.99374446962E+03  0.25500000920E-02 0.  1.
        2   -1    0    0  501    0  0.00000000000E+00  0.00000000000E+00 -0.14267702463E+04  0.14267702463E+04  0.25500000920E-02 0. -1.
    10030    2    1    2    0    0  0.00000000000E+00  0.00000000000E+00 -0.43302577673E+03  0.24205147160E+04  0.23814659701E+04 0.  0.
        5    1    3    3  502    0 -0.10320939218E+04  0.55358500497E+03  0.18320996515E+01  0.11711958280E+04  0.46999998093E+01 0.  1.
       -5    1    3    3    0  502  0.10320939218E+04 -0.55358500497E+03 -0.43485787638E+03  0.12493188879E+04  0.46999998093E+01 0. -1.
</event>
<event>
 5   0  0.2122194E-05  0.2388031E+04  0.7818609E-02  0.8443998E-01
        2   -1    0    0  501    0  0.00000000000E+00  0.00000000000E+00  0.11335244476E+04  0.11335244476E+04  0.25500000920E-02 0.  1.
       -2   -1    0    0    0  501  0.00000000000E+00  0.00000000000E+00 -0.12577349004E+04  0.12577349004E+04  0.25500000920E-02 0. -1.
    10030    2    1    2    0    0  0.00000000000E+00  0.00000000000E+00 -0.12421045286E+03  0.23912593480E+04  0.23880312043E+04 0.  0.
        3    1    3    3  502    0 -0.59107322156E+03 -0.32655012727E+02  0.97623399059E+03  0.11416946692E+04  0.10100000352E+00 0.  1.
       -3    1    3    3    0  502  0.59107322156E+03  0.32655012727E+02 -0.11004444435E+04  0.12495646788E+04  0.10100000352E+00 0. -1.
</event>
<event>
 5   0  0.2048028E-05  0.2456867E+04  0.7818609E-02  0.8418515E-01
       -2   -1    0    0    0  501  0.00000000000E+00  0.00000000000E+00  0.93514616405E+03  0.93514616405E+03  0.25500000920E-02 0.  1.
        2   -1    0    0  501    0  0.00000000000E+00  0.00000000000E+00 -0.16137036705E+04  0.16137036705E+04  0.25500000920E-02 0. -1.
    10030    2    1    2    0    0  0.00000000000E+00  0.00000000000E+00 -0.67855750643E+03  0.25488498345E+04  0.24568669458E+04 0.  0.
        5    1    3    3  502    0 -0.78919565284E+03  0.93120052500E+03 -0.19604259385E+03  0.12362924350E+04  0.46999998093E+01 0. -1.
       -5    1    3    3    0  502  0.78919565284E+03 -0.93120052500E+03 -0.48251491258E+03  0.13125573995E+04  0.46999998093E+01 0.  1.
</event>
<event>
 5   0  0.8528103E-06  0.2316553E+04  0.7818609E-02  0.8471423E-01
        1   -1    0    0  501    0  0.00000000000E+00  0.00000000000E+00  0.16495516614E+04  0.16495516614E+04  0.50400001928E-02 0.  1.
       -1   -1    0    0    0  501  0.00000000000E+00  0.00000000000E+00 -0.81331439602E+03  0.81331439604E+03  0.50400001928E-02 0. -1.
    10030    2    1    2    0    0  0.00000000000E+00  0.00000000000E+00  0.83623726541E+03  0.24628660575E+04  0.23165527089E+04 0.  0.
        4    1    3    3  502    0  0.10160432405E+03  0.75608106495E+03 -0.50849127855E+03  0.91681350814E+03  0.12699999809E+01 0. -1.
       -4    1    3    3    0  502 -0.10160432405E+03 -0.75608106495E+03  0.13447285440E+04  0.15460525493E+04  0.12699999809E+01 0.  1.
</event>
<event>
 5   0  0.9176817E-06  0.2398769E+04  0.7818609E-02  0.8439964E-01
        1   -1    0    0  501    0  0.00000000000E+00  0.00000000000E+00  0.18411960517E+04  0.18411960518E+04  0.50400001928E-02 0.  1.
       -1   -1    0    0    0  501  0.00000000000E+00  0.00000000000E+00 -0.78129842778E+03  0.78129842780E+03  0.50400001928E-02 0. -1.
    10030    2    1    2    0    0  0.00000000000E+00  0.00000000000E+00  0.10598976240E+04  0.26224944796E+04  0.23987693349E+04 0.  0.
        3    1    3    3  502    0 -0.26198391863E+03  0.10907485249E+04  0.65914558158E+02  0.11237048800E+04  0.10100000352E+00 0. -1.
       -3    1    3    3    0  502  0.26198391863E+03 -0.10907485249E+04  0.99398306581E+03  0.14987895995E+04  0.10100000352E+00 0.  1.
</event>
<event>
 5   0  0.9176817E-06  0.2388080E+04  0.7818609E-02  0.8443980E-01
       -1   -1    0    0    0  501  0.00000000000E+00  0.00000000000E+00  0.83031241943E+03  0.83031241945E+03  0.50400001928E-02 0. -1.
        1   -1    0    0  501    0  0.00000000000E+00  0.00000000000E+00 -0.17171031897E+04  0.17171031897E+04  0.50400001928E-02 0.  1.
    10030    2    1    2    0    0  0.00000000000E+00  0.00000000000E+00 -0.88679077022E+03  0.25474156091E+04  0.23880804876E+04 0.  0.
        3    1    3    3  502    0  0.42715967037E+03  0.10995601556E+04 -0.24602555280E+03  0.12050006234E+04  0.10100000352E+00 0.  1.
       -3    1    3    3    0  502 -0.42715967037E+03 -0.10995601556E+04 -0.64076521743E+03  0.13424149857E+04  0.10100000352E+00 0. -1.
</event>
<event>
 5   0  0.8898848E-06  0.2359434E+04  0.7818609E-02  0.8454849E-01
        1   -1    0    0  501    0  0.00000000000E+00  0.00000000000E+00  0.12971646351E+04  0.12971646351E+04  0.50400001928E-02 0.  1.
       -1   -1    0    0    0  501  0.00000000000E+00  0.00000000000E+00 -0.10729036218E+04  0.10729036218E+04  0.50400001928E-02 0. -1.
    10030    2    1    2    0    0  0.00000000000E+00  0.00000000000E+00  0.22426101322E+03  0.23700682569E+04  0.23594343687E+04 0.  0.
        5    1    3    3  502    0  0.41118630886E+03 -0.90962606329E+03 -0.51936555348E+03  0.11252805978E+04  0.46999998093E+01 0. -1.
       -5    1    3    3    0  502 -0.41118630886E+03  0.90962606329E+03  0.74362656670E+03  0.12447876591E+04  0.46999998093E+01 0.  1.
</event>
<event>
 5   0  0.2087882E-05  0.2393359E+04  0.7818609E-02  0.8441994E-01
        2   -1    0    0  501    0  0.00000000000E+00  0.00000000000E+00  0.17205490761E+04  0.17205490761E+04  0.25500000920E-02 0. -1.
       -2   -1    0    0    0  501  0.00000000000E+00  0.00000000000E+00 -0.83231658103E+03  0.83231658103E+03  0.25500000920E-02 0.  1.
    10030    2    1    2    0    0  0.00000000000E+00  0.00000000000E+00  0.88823249511E+03  0.25528656572E+04  0.23933587483E+04 0.  0.
        2    1    3    3  502    0  0.67391837748E+03  0.13557003721E+03 -0.60070456271E+03  0.91290261593E+03  0.25500000920E-02 0.  1.
       -2    1    3    3    0  502 -0.67391837748E+03 -0.13557003721E+03  0.14889370578E+04  0.16399630412E+04  0.25500000920E-02 0. -1.
</event>
<event>
 5   0  0.2122194E-05  0.2383251E+04  0.7818609E-02  0.8445801E-01
       -2   -1    0    0    0  501  0.00000000000E+00  0.00000000000E+00  0.61453069073E+03  0.61453069074E+03  0.25500000920E-02 0. -1.
        2   -1    0    0  501    0  0.00000000000E+00  0.00000000000E+00 -0.23106605280E+04  0.23106605280E+04  0.25500000920E-02 0.  1.
    10030    2    1    2    0    0  0.00000000000E+00  0.00000000000E+00 -0.16961298373E+04  0.29251912187E+04  0.23832514012E+04 0.  0.
        3    1    3    3  502    0  0.51545635959E+03  0.79563078279E+03  0.38083950714E+02  0.94877499896E+03  0.10100000352E+00 0. -1.
       -3    1    3    3    0  502 -0.51545635959E+03 -0.79563078279E+03 -0.17342137880E+04  0.19764162198E+04  0.10100000352E+00 0.  1.
</event>
<event>
 5   0  0.2122194E-05  0.2352852E+04  0.7818609E-02  0.8457369E-01
        2   -1    0    0  501    0  0.00000000000E+00  0.00000000000E+00  0.10367260394E+04  0.10367260394E+04  0.25500000920E-02 0.  1.
       -2   -1    0    0    0  501  0.00000000000E+00  0.00000000000E+00 -0.13349510627E+04  0.13349510627E+04  0.25500000920E-02 0. -1.
    10030    2    1    2    0    0  0.00000000000E+00  0.00000000000E+00 -0.29822502327E+03  0.23716771021E+04  0.23528523354E+04 0.  0.
        3    1    3    3  502    0 -0.97323140988E+03 -0.24815163912E+03  0.46834037200E+03  0.11081973323E+04  0.10100000352E+00 0.  1.
       -3    1    3    3    0  502  0.97323140988E+03  0.24815163912E+03 -0.76656539527E+03  0.12634797698E+04  0.10100000352E+00 0. -1.
</event>
<event>
 5   0  0.9083687E-06  0.2408732E+04  0.7818609E-02  0.8436242E-01
       -1   -1    0    0    0  501  0.00000000000E+00  0.00000000000E+00  0.15039193286E+04  0.15039193286E+04  0.50400001928E-02 0. -1.
        1   -1    0    0  501    0  0.00000000000E+00  0.00000000000E+00 -0.96447812013E+03  0.96447812015E+03  0.50400001928E-02 0.  1.
    10030    2    1    2    0    0  0.00000000000E+00  0.00000000000E+00  0.53944120842E+03  0.24683974487E+04  0.24087318546E+04 0.  0.
        2    1    3    3  502    0  0.38368123755E+03 -0.59887999415E+03  0.12657157272E+04  0.14518625422E+04  0.25500000920E-02 0. -1.
       -2    1    3    3    0  502 -0.38368123755E+03  0.59887999415E+03 -0.72627451878E+03  0.10165349065E+04  0.25500000920E-02 0.  1.
</event>
<event>
 5   0  0.2025353E-05  0.2419549E+04  0.7818609E-02  0.8432221E-01
        2   -1    0    0  501    0  0.00000000000E+00  0.00000000000E+00  0.13506014237E+04  0.13506014237E+04  0.25500000920E-02 0.  1.
       -2   -1    0    0    0  501  0.00000000000E+00  0.00000000000E+00 -0.10836314070E+04  0.10836314070E+04  0.25500000920E-02 0. -1.
    10030    2    1    2    0    0  0.00000000000E+00  0.00000000000E+00  0.26697001672E+03  0.24342328306E+04  0.24195488183E+04 0.  0.
        4    1    3    3  502    0  0.96946621136E+03 -0.39381058272E+03  0.74429478499E+03  0.12841058562E+04  0.12699999809E+01 0.  1.
       -4    1    3    3    0  502 -0.96946621136E+03  0.39381058272E+03 -0.47732476827E+03  0.11501269744E+04  0.12699999809E+01 0. -1.
</event>
<event>
 5   0  0.2122194E-05  0.2371874E+04  0.7818609E-02  0.8450109E-01
       -2   -1    0    0    0  501  0.00000000000E+00  0.00000000000E+00  0.96904452752E+03  0.96904452753E+03  0.25500000920E-02 0. -1.
        2   -1    0    0  501    0  0.00000000000E+00  0.00000000000E+00 -0.14513751010E+04  0.14513751010E+04  0.25500000920E-02 0.  1.
    10030    2    1    2    0    0  0.00000000000E+00  0.00000000000E+00 -0.48233057350E+03  0.24204196285E+04  0.23718744478E+04 0.  0.
        3    1    3    3  502    0  0.43573006993E+02  0.93690988198E+02 -0.14467728791E+04  0.14504579905E+04  0.10100000352E+00 0.  1.
       -3    1    3    3    0  502 -0.43573006993E+02 -0.93690988198E+02  0.96444230563E+03  0.96996163805E+03  0.10100000352E+00 0. -1.
</event>
<event>
 5   0  0.2122194E-05  0.2395786E+04  0.7818609E-02  0.8441083E-01
       -2   -1    0    0    0  501  0.00000000000E+00  0.00000000000E+00  0.10427960916E+04  0.10427960916E+04  0.25500000920E-02 0.  1.
        2   -1    0    0  501    0  0.00000000000E+00  0.00000000000E+00 -0.13760578525E+04  0.13760578525E+04  0.25500000920E-02 0. -1.
    10030    2    1    2    0    0  0.00000000000E+00  0.00000000000E+00 -0.33326176089E+03  0.24188539442E+04  0.23957860927E+04 0.  0.
        3    1    3    3  502    0  0.98871828246E+03  0.25811909408E+02 -0.84894679428E+03  0.13034342202E+04  0.10100000352E+00 0. -1.
       -3    1    3    3    0  502 -0.98871828246E+03 -0.25811909408E+02  0.51568503339E+03  0.11154197240E+04  0.10100000352E+00 0.  1.
</event>
<event>
 5   0  0.2122194E-05  0.2369869E+04  0.7818609E-02  0.8450871E-01
       -2   -1    0    0    0  501  0.00000000000E+00  0.00000000000E+00  0.10568889936E+04  0.10568889936E+04  0.25500000920E-02 0. -1.
        2   -1    0    0  501    0  0.00000000000E+00  0.00000000000E+00 -0.13284926432E+04  0.13284926432E+04  0.25500000920E-02 0.  1.
    10030    2    1    2    0    0  0.00000000000E+00  0.00000000000E+00 -0.27160364957E+03  0.23853816368E+04  0.23698685640E+04 0.  0.
        3    1    3    3  502    0  0.18449429931E+03  0.55016772110E+03  0.90408563703E+03  0.10742874462E+04  0.10100000352E+00 0. -1.
       -3    1    3    3    0  502 -0.18449429931E+03 -0.55016772110E+03 -0.11756892866E+04  0.13110941906E+04  0.10100000352E+00 0.  1.
</event>
<event>
 5   0  0.2048028E-05  0.2176069E+04  0.7818609E-02  0.8528455E-01
        2   -1    0    0  501    0  0.00000000000E+00  0.00000000000E+00  0.15537050713E+04  0.15537050713E+04  0.25500000920E-02 0. -1.
       -2   -1    0    0    0  501  0.00000000000E+00  0.00000000000E+00 -0.76193277000E+03  0.76193277000E+03  0.25500000920E-02 0.  1.
    10030    2    1    2    0    0  0.00000000000E+00  0.00000000000E+00  0.79177230131E+03  0.23156378413E+04  0.21760687570E+04 0.  0.
        5    1    3    3  502    0 -0.47657997875E+03  0.57542202896E+03  0.12375365278E+04  0.14455994380E+04  0.46999998093E+01 0. -1.
       -5    1    3    3    0  502  0.47657997875E+03 -0.57542202896E+03 -0.44576422651E+03  0.87003840328E+03  0.46999998093E+01 0.  1.
</event>
<event>
 5   0  0.9176817E-06  0.2392304E+04  0.7818609E-02  0.8442390E-01
       -1   -1    0    0    0  501  0.00000000000E+00  0.00000000000E+00  0.10595855016E+04  0.10595855016E+04  0.50400001928E-02 0.  1.
        1   -1    0    0  501    0  0.00000000000E+00  0.00000000000E+00 -0.13503205038E+04  0.13503205038E+04  0.50400001928E-02 0. -1.
    10030    2    1    2    0    0  0.00000000000E+00  0.00000000000E+00 -0.29073500221E+03  0.24099060054E+04  0.23923043522E+04 0.  0.
        3    1    3    3  502    0 -0.70753561861E+03  0.77307763861E+03 -0.72625949106E+03  0.12750327625E+04  0.10100000352E+00 0. -1.
       -3    1    3    3    0  502  0.70753561861E+03 -0.77307763861E+03  0.43552448885E+03  0.11348732429E+04  0.10100000352E+00 0.  1.
</event>
<event>
 5   0  0.9083687E-06  0.2391026E+04  0.7818609E-02  0.8442871E-01
        1   -1    0    0  501    0  0.00000000000E+00  0.00000000000E+00  0.12935097381E+04  0.12935097382E+04  0.50400001928E-02 0.  1.
       -1   -1    0    0    0  501  0.00000000000E+00  0.00000000000E+00 -0.11049407739E+04  0.11049407739E+04  0.50400001928E-02 0. -1.
    10030    2    1    2    0    0  0.00000000000E+00  0.00000000000E+00  0.18856896424E+03  0.23984505121E+04  0.23910262660E+04 0.  0.
        2    1    3    3  502    0 -0.40829263838E+03 -0.90036259446E+03 -0.58003491055E+03  0.11462094824E+04  0.25500000920E-02 0. -1.
       -2    1    3    3    0  502  0.40829263838E+03  0.90036259446E+03  0.76860387479E+03  0.12522410297E+04  0.25500000920E-02 0.  1.
</event>
<event>
 5   0  0.8528103E-06  0.2328211E+04  0.7818609E-02  0.8466880E-01
        1   -1    0    0  501    0  0.00000000000E+00  0.00000000000E+00  0.11585991867E+04  0.11585991867E+04  0.50400001928E-02 0.  1.
       -1   -1    0    0    0  501  0.00000000000E+00  0.00000000000E+00 -0.11696377202E+04  0.11696377202E+04  0.50400001928E-02 0. -1.
    10030    2    1    2    0    0  0.00000000000E+00  0.00000000000E+00 -0.11038533499E+02  0.23282369070E+04  0.23282107391E+04 0.  0.
        4    1    3    3  502    0  0.92531361416E+03  0.63906512053E+03  0.29536646034E+03  0.11626919074E+04  0.12699999809E+01 0. -1.
       -4    1    3    3    0  502 -0.92531361416E+03 -0.63906512053E+03 -0.30640499383E+03  0.11655449995E+04  0.12699999809E+01 0.  1.
</event>
<event>
 5   0  0.2122194E-05  0.2408410E+04  0.7818609E-02  0.8436362E-01
       -2   -1    0    0    0  501  0.00000000000E+00  0.00000000000E+00  0.13566663786E+04  0.13566663786E+04  0.25500000920E-02 0.  1.
        2   -1    0    0  501    0  0.00000000000E+00  0.00000000000E+00 -0.10688768170E+04  0.10688768170E+04  0.25500000920E-02 0. -1.
    10030    2    1    2    0    0  0.00000000000E+00  0.00000000000E+00  0.28778956163E+03  0.24255431956E+04  0.24084096334E+04 0.  0.
        3    1    3    3  502    0 -0.21025072012E+02 -0.65222903874E+03 -0.87536458069E+03  0.10918369530E+04  0.10100000352E+00 0. -1.
       -3    1    3    3    0  502  0.21025072012E+02  0.65222903874E+03  0.11631541423E+04  0.13337062426E+04  0.10100000352E+00 0.  1.
</event>
<event>
 5   0  0.2122194E-05  0.2405451E+04  0.7818609E-02  0.8437466E-01
       -2   -1    0    0    0  501  0.00000000000E+00  0.00000000000E+00  0.15849325769E+04  0.15849325769E+04  0.25500000920E-02 0.  1.
        2   -1    0    0  501    0  0.00000000000E+00  0.00000000000E+00 -0.91268760241E+03  0.91268760242E+03  0.25500000920E-02 0. -1.
    10030    2    1    2    0    0  0.00000000000E+00  0.00000000000E+00  0.67224497449E+03  0.24976201793E+04  0.24054507383E+04 0.  0.
        3    1    3    3  502    0 -0.11839243728E+04  0.55169820568E+01  0.55599316198E+03  0.13079892064E+04  0.10100000352E+00 0.  1.
       -3    1    3    3    0  502  0.11839243728E+04 -0.55169820568E+01  0.11625181251E+03  0.11896309729E+04  0.10100000352E+00 0. -1.
</event>
<event>
 5   0  0.2080257E-05  0.2411978E+04  0.7818609E-02  0.8435033E-01
       -2   -1    0    0    0  501  0.00000000000E+00  0.00000000000E+00  0.10061990185E+04  0.10061990185E+04  0.25500000920E-02 0. -1.
        2   -1    0    0  501    0  0.00000000000E+00  0.00000000000E+00 -0.14454495022E+04  0.14454495022E+04  0.25500000920E-02 0.  1.
    10030    2    1    2    0    0  0.00000000000E+00  0.00000000000E+00 -0.43925048374E+03  0.24516485207E+04  0.24119783336E+04 0.  0.
        1    1    3    3  502    0  0.80602553418E+03  0.13617861130E+03 -0.11208809681E+04  0.13872980648E+04  0.50400001928E-02 0.  1.
       -1    1    3    3    0  502 -0.80602553418E+03 -0.13617861130E+03  0.68163048432E+03  0.10643504560E+04  0.50400001928E-02 0. -1.
</event>
<event>
 5   0  0.9038897E-06  0.2399056E+04  0.7818609E-02  0.8439857E-01
        1   -1    0    0  501    0  0.00000000000E+00  0.00000000000E+00  0.93113950798E+03  0.93113950799E+03  0.50400001928E-02 0. -1.
       -1   -1    0    0    0  501  0.00000000000E+00  0.00000000000E+00 -0.15452756351E+04  0.15452756351E+04  0.50400001928E-02 0.  1.
    10030    2    1    2    0    0  0.00000000000E+00  0.00000000000E+00 -0.61413612709E+03  0.24764151431E+04  0.23990558097E+04 0.  0.
        1    1    3    3  502    0  0.12584910592E+02 -0.46520020243E+03 -0.14482938520E+04  0.15212247336E+04  0.50400001928E-02 0.  1.
       -1    1    3    3    0  502 -0.12584910592E+02  0.46520020243E+03  0.83415772491E+03  0.95519040948E+03  0.50400001928E-02 0. -1.
</event>
<event>
 5   0  0.2087882E-05  0.2256153E+04  0.7818609E-02  0.8495413E-01
       -2   -1    0    0    0  501  0.00000000000E+00  0.00000000000E+00  0.67813621770E+03  0.67813621771E+03  0.25500000920E-02 0. -1.
        2   -1    0    0  501    0  0.00000000000E+00  0.00000000000E+00 -0.18765493285E+04  0.18765493285E+04  0.25500000920E-02 0.  1.
    10030    2    1    2    0    0  0.00000000000E+00  0.00000000000E+00 -0.11984131108E+04  0.25546855462E+04  0.22561525338E+04 0.  0.
        2    1    3    3  502    0 -0.64302296358E+03  0.65799033111E+01  0.45027359626E+03  0.78502747616E+03  0.25500000920E-02 0. -1.
       -2    1    3    3    0  502  0.64302296358E+03 -0.65799033111E+01 -0.16486867070E+04  0.17696580700E+04  0.25500000920E-02 0.  1.
</event>
<event>
 5   0  0.2122194E-05  0.2473178E+04  0.7818609E-02  0.8412604E-01
        2   -1    0    0  501    0  0.00000000000E+00  0.00000000000E+00  0.95886091913E+03  0.95886091914E+03  0.25500000920E-02 0.  1.
       -2   -1    0    0    0  501  0.00000000000E+00  0.00000000000E+00 -0.15947586968E+04  0.15947586968E+04  0.25500000920E-02 0. -1.
    10030    2    1    2    0    0  0.00000000000E+00  0.00000000000E+00 -0.63589777765E+03  0.25536196159E+04  0.24731775430E+04 0.  0.
        3    1    3    3  502    0 -0.54999865233E+03  0.68923111624E+03 -0.12131039345E+04  0.14997197123E+04  0.10100000352E+00 0. -1.
       -3    1    3    3    0  502  0.54999865233E+03 -0.68923111624E+03  0.57720615689E+03  0.10538999037E+04  0.10100000352E+00 0.  1.
</event>
<event>
 5   0  0.9038897E-06  0.2479591E+04  0.7818609E-02  0.8410293E-01
       -1   -1    0    0    0  501  0.00000000000E+00  0.00000000000E+00  0.11914937922E+04  0.11914937922E+04  0.50400001928E-02 0. -1.
        1   -1    0    0  501    0  0.00000000000E+00  0.00000000000E+00 -0.12900552859E+04  0.12900552859E+04  0.50400001928E-02 0.  1.
    10030    2    1    2    0    0  0.00000000000E+00  0.00000000000E+00 -0.98561493647E+02  0.24815490781E+04  0.24795909862E+04 0.  0.
        1    1    3    3  502    0  0.99397287468E+03  0.37832310849E+03 -0.68695140089E+03  0.12661013692E+04  0.50400001928E-02 0.  1.
       -1    1    3    3    0  502 -0.99397287468E+03 -0.37832310849E+03  0.58838990724E+03  0.12154477089E+04  0.50400001928E-02 0. -1.
</event>
<event>
 5   0  0.2025353E-05  0.2398860E+04  0.7818609E-02  0.8439930E-01
        2   -1    0    0  501    0  0.00000000000E+00  0.00000000000E+00  0.88966644592E+03  0.88966644593E+03  0.25500000920E-02 0.  1.
       -2   -1    0    0    0  501  0.00000000000E+00  0.00000000000E+00 -0.16170472579E+04  0.16170472579E+04  0.25500000920E-02 0. -1.
    10030    2    1    2    0    0  0.00000000000E+00  0.00000000000E+00 -0.72738081197E+03  0.25067137038E+04  0.23988603017E+04 0.  0.
        4    1    3    3  502    0 -0.60587593604E+03  0.82070581980E+03 -0.10229165599E+04  0.14446465290E+04  0.12699999809E+01 0.  1.
       -4    1    3    3    0  502  0.60587593604E+03 -0.82070581980E+03  0.29553574791E+03  0.10620671748E+04  0.12699999809E+01 0. -1.
</event>
<event>
 5   0  0.8898848E-06  0.2391619E+04  0.7818609E-02  0.8442648E-01
        1   -1    0    0  501    0  0.00000000000E+00  0.00000000000E+00  0.18654999858E+04  0.18654999858E+04  0.50400001928E-02 0. -1.
       -1   -1    0    0    0  501  0.00000000000E+00  0.00000000000E+00 -0.76652948314E+03  0.76652948315E+03  0.50400001928E-02 0.  1.
    10030    2    1    2    0    0  0.00000000000E+00  0.00000000000E+00  0.10989705026E+04  0.26320294689E+04  0.23916193175E+04 0.  0.
        5    1    3    3  502    0 -0.31813475919E+03 -0.62263642111E+03 -0.51810768889E+03  0.87025485071E+03  0.46999998093E+01 0.  1.
       -5    1    3    3    0  502  0.31813475919E+03  0.62263642111E+03  0.16170781915E+04  0.17617746182E+04  0.46999998093E+01 0. -1.
</event>
<event>
 5   0  0.2048028E-05  0.2384136E+04  0.7818609E-02  0.8445467E-01
       -2   -1    0    0    0  501  0.00000000000E+00  0.00000000000E+00  0.12009142956E+04  0.12009142956E+04  0.25500000920E-02 0.  1.
        2   -1    0    0  501    0  0.00000000000E+00  0.00000000000E+00 -0.11832866057E+04  0.11832866057E+04  0.25500000920E-02 0. -1.
    10030    2    1    2    0    0  0.00000000000E+00  0.00000000000E+00  0.17627689917E+02  0.23842009013E+04  0.23841357349E+04 0.  0.
        5    1    3    3  502    0  0.39424736276E+03  0.10243146656E+04 -0.45633561582E+03  0.11886613485E+04  0.46999998093E+01 0. -1.
       -5    1    3    3    0  502 -0.39424736276E+03 -0.10243146656E+04  0.47396330574E+03  0.11955395528E+04  0.46999998093E+01 0.  1.
</event>
<event>
 5   0  0.2025353E-05  0.2389925E+04  0.7818609E-02  0.8443285E-01
        2   -1    0    0  501    0  0.00000000000E+00  0.00000000000E+00  0.13479224858E+04  0.13479224858E+04  0.25500000920E-02 0.  1.
       -2   -1    0    0    0  501  0.00000000000E+00  0.00000000000E+00 -0.10593604319E+04  0.10593604319E+04  0.25500000920E-02 0. -1.
    10030    2    1    2    0    0  0.00000000000E+00  0.00000000000E+00  0.28856205390E+03  0.24072829177E+04  0.23899253099E+04 0.  0.
        4    1    3    3  502    0 -0.76373475546E+03 -0.41969089212E+03 -0.67927747935E+03  0.11049211413E+04  0.12699999809E+01 0. -1.
       -4    1    3    3    0  502  0.76373475546E+03  0.41969089212E+03  0.96783953325E+03  0.13023617764E+04  0.12699999809E+01 0.  1.
</event>
<event>
 5   0  0.2122194E-05  0.2389308E+04  0.7818609E-02  0.8443517E-01
       -2   -1    0    0    0  501  0.00000000000E+00  0.00000000000E+00  0.76338029344E+03  0.76338029344E+03  0.25500000920E-02 0. -1.
        2   -1    0    0  501    0  0.00000000000E+00  0.00000000000E+00 -0.18695763760E+04  0.18695763760E+04  0.25500000920E-02 0.  1.
    10030    2    1    2    0    0  0.00000000000E+00  0.00000000000E+00 -0.11061960826E+04  0.26329566694E+04  0.23893076508E+04 0.  0.
        3    1    3    3  502    0  0.10703368934E+04  0.10719441614E+03 -0.11257921429E+04  0.15570869171E+04  0.10100000352E+00 0.  1.
       -3    1    3    3    0  502 -0.10703368934E+04 -0.10719441614E+03  0.19596060357E+02  0.10758697523E+04  0.10100000352E+00 0. -1.
</event>
<event>
 5   0  0.2122194E-05  0.2391240E+04  0.7818609E-02  0.8442791E-01
       -2   -1    0    0    0  501  0.00000000000E+00  0.00000000000E+00  0.88589968433E+03  0.88589968433E+03  0.25500000920E-02 0.  1.
        2   -1    0    0  501    0  0.00000000000E+00  0.00000000000E+00 -0.16136215235E+04  0.16136215235E+04  0.25500000920E-02 0. -1.
    10030    2    1    2    0    0  0.00000000000E+00  0.00000000000E+00 -0.72772183919E+03  0.24995212079E+04  0.23912396771E+04 0.  0.
        3    1    3    3  502    0  0.12648584270E+03 -0.89805199744E+03  0.45052808545E+03  0.10126557285E+04  0.10100000352E+00 0.  1.
       -3    1    3    3    0  502 -0.12648584270E+03  0.89805199744E+03 -0.11782499246E+04  0.14868654793E+04  0.10100000352E+00 0. -1.
</event>
<event>
 5   0  0.2025353E-05  0.2384858E+04  0.7818609E-02  0.8445194E-01
       -2   -1    0    0    0  501  0.00000000000E+00  0.00000000000E+00  0.14731557856E+04  0.14731557856E+04  0.25500000920E-02 0. -1.
        2   -1    0    0  501    0  0.00000000000E+00  0.00000000000E+00 -0.96519769126E+03  0.96519769126E+03  0.25500000920E-02 0.  1.
    10030    2    1    2    0    0  0.00000000000E+00  0.00000000000E+00  0.50795809431E+03  0.24383534768E+04  0.23848577007E+04 0.  0.
        4    1    3    3  502    0 -0.18916879853E+03  0.96039728746E+03 -0.44227886688E+03  0.10741322047E+04  0.12699999809E+01 0.  1.
       -4    1    3    3    0  502  0.18916879853E+03 -0.96039728746E+03  0.95023696119E+03  0.13642212722E+04  0.12699999809E+01 0. -1.
</event>
<event>
 5   0  0.2122194E-05  0.2355655E+04  0.7818609E-02  0.8456295E-01
        2   -1    0    0  501    0  0.00000000000E+00  0.00000000000E+00  0.87334730587E+03  0.87334730587E+03  0.25500000920E-02 0. -1.
       -2   -1    0    0    0  501  0.00000000000E+00  0.00000000000E+00 -0.15884607787E+04  0.15884607787E+04  0.25500000920E-02 0.  1.
    10030    2    1    2    0    0  0.00000000000E+00  0.00000000000E+00 -0.71511347284E+03  0.24618080846E+04  0.23556552732E+04 0.  0.
        3    1    3    3  502    0 -0.29004404865E+03  0.19355371919E+03  0.81816898262E+03  0.88937567242E+03  0.10100000352E+00 0. -1.
       -3    1    3    3    0  502  0.29004404865E+03 -0.19355371919E+03 -0.15332824555E+04  0.15724324122E+04  0.10100000352E+00 0.  1.
</event>
<event>
 5   0  0.8898848E-06  0.2222278E+04  0.7818609E-02  0.8509212E-01
        1   -1    0    0  501    0  0.00000000000E+00  0.00000000000E+00  0.15835817363E+04  0.15835817363E+04  0.50400001928E-02 0.  1.
       -1   -1    0    0    0  501  0.00000000000E+00  0.00000000000E+00 -0.77964387962E+03  0.77964387963E+03  0.50400001928E-02 0. -1.
    10030    2    1    2    0    0  0.00000000000E+00  0.00000000000E+00  0.80393785668E+03  0.23632256159E+04  0.22222779382E+04 0.  0.
        5    1    3    3  502    0  0.10104733250E+04 -0.40206331606E+03  0.64422558065E+03  0.12640252922E+04  0.46999998093E+01 0.  1.
       -5    1    3    3    0  502 -0.10104733250E+04  0.40206331606E+03  0.15971227603E+03  0.10992003237E+04  0.46999998093E+01 0. -1.
</event>
<event>
 5   0  0.2080257E-05  0.2423903E+04  0.7818609E-02  0.8430608E-01
        2   -1    0    0  501    0  0.00000000000E+00  0.00000000000E+00  0.22249984629E+04  0.22249984629E+04  0.25500000920E-02 0. -1.
       -2   -1    0    0    0  501  0.00000000000E+00  0.00000000000E+00 -0.66014734861E+03  0.66014734862E+03  0.25500000920E-02 0.  1.
    10030    2    1    2    0    0  0.00000000000E+00  0.00000000000E+00  0.15648511143E+04  0.28851458115E+04  0.24239033281E+04 0.  0.
        1    1    3    3  502    0 -0.11904529055E+04 -0.20958164606E+03  0.67781377135E+03  0.13858333577E+04  0.50400001928E-02 0.  1.
       -1    1    3    3    0  502  0.11904529055E+04  0.20958164606E+03  0.88703734294E+03  0.14993124539E+04  0.50400001928E-02 0. -1.
</event>
<event>
 5   0  0.9038897E-06  0.2331236E+04  0.7818609E-02  0.8465706E-01
        1   -1    0    0  501    0  0.00000000000E+00  0.00000000000E+00  0.85340535129E+03  0.85340535130E+03  0.50400001928E-02 0.  1.
       -1   -1    0    0    0  501  0.00000000000E+00  0.00000000000E+00 -0.15920514760E+04  0.15920514760E+04  0.50400001928E-02 0. -1.
    10030    2    1    2    0    0  0.00000000000E+00  0.00000000000E+00 -0.73864612470E+03  0.24454568273E+04  0.23312359376E+04 0.  0.
        1    1    3    3  502    0  0.11318320035E+04  0.11969527866E+03 -0.63323383502E+03  0.13024422190E+04  0.50400001928E-02 0. -1.
       -1    1    3    3    0  502 -0.11318320035E+04 -0.11969527866E+03 -0.10541228968E+03  0.11430146083E+04  0.50400001928E-02 0.  1.
</event>
<event>
 5   0  0.2025353E-05  0.2407709E+04  0.7818609E-02  0.8436623E-01
       -2   -1    0    0    0  501  0.00000000000E+00  0.00000000000E+00  0.98284901008E+03  0.98284901009E+03  0.25500000920E-02 0.  1.
        2   -1    0    0  501    0  0.00000000000E+00  0.00000000000E+00 -0.14745562315E+04  0.14745562315E+04  0.25500000920E-02 0. -1.
    10030    2    1    2    0    0  0.00000000000E+00  0.00000000000E+00 -0.49170722144E+03  0.24574052416E+04  0.24077093948E+04 0.  0.
        4    1    3    3  502    0 -0.76314046673E+03  0.28656388014E+03  0.65829907335E+03  0.10477888682E+04  0.12699999809E+01 0.  1.
       -4    1    3    3    0  502  0.76314046673E+03 -0.28656388014E+03 -0.11500062948E+04  0.14096163735E+04  0.12699999809E+01 0. -1.
</event>
<event>
 5   0  0.2025353E-05  0.2320314E+04  0.7818609E-02  0.8469954E-01
        2   -1    0    0  501    0  0.00000000000E+00  0.00000000000E+00  0.15186442143E+04  0.15186442143E+04  0.25500000920E-02 0. -1.
       -2   -1    0    0    0  501  0.00000000000E+00  0.00000000000E+00 -0.88629360380E+03  0.88629360380E+03  0.25500000920E-02 0.  1.
    10030    2    1    2    0    0  0.00000000000E+00  0.00000000000E+00  0.63235061050E+03  0.24049378181E+04  0.23203143352E+04 0.  0.
        4    1    3    3  502    0 -0.27602844220E+03 -0.31574445697E+03  0.14373265634E+04  0.14972626776E+04  0.12699999809E+01 0. -1.
       -4    1    3    3    0  502  0.27602844220E+03  0.31574445697E+03 -0.80497595291E+03  0.90767514049E+03  0.12699999809E+01 0.  1.
</event>
<event>
 5   0  0.7233625E-06  0.2198725E+04  0.7818609E-02  0.8518959E-01
        3   -1    0    0  501    0  0.00000000000E+00  0.00000000000E+00  0.10989791647E+04  0.10989791693E+04  0.10100000352E+00 0.  1.
       -3   -1    0    0    0  501  0.00000000000E+00  0.00000000000E+00 -0.10997457084E+04  0.10997457131E+04  0.10100000352E+00 0. -1.
    10030    2    1    2    0    0  0.00000000000E+00  0.00000000000E+00 -0.76654375814E+00  0.21987248824E+04  0.21987247488E+04 0.  0.
        1    1    3    3  502    0  0.47978170440E+03 -0.40186490275E+03  0.90344848544E+03  0.10990473374E+04  0.50400001928E-02 0.  1.
       -1    1    3    3    0  502 -0.47978170440E+03  0.40186490275E+03 -0.90421502919E+03  0.10996775450E+04  0.50400001928E-02 0. -1.
</event>
<event>
 5   0  0.2025353E-05  0.2383710E+04  0.7818609E-02  0.8445628E-01
       -2   -1    0    0    0  501  0.00000000000E+00  0.00000000000E+00  0.65559783744E+03  0.65559783745E+03  0.25500000920E-02 0.  1.
        2   -1    0    0  501    0  0.00000000000E+00  0.00000000000E+00 -0.21667526686E+04  0.21667526686E+04  0.25500000920E-02 0. -1.
    10030    2    1    2    0    0  0.00000000000E+00  0.00000000000E+00 -0.15111548311E+04  0.28223505060E+04  0.23837100191E+04 0.  0.
        4    1    3    3  502    0  0.29464898358E+03 -0.32811805224E+03 -0.20665975515E+04  0.21131271927E+04  0.12699999809E+01 0. -1.
       -4    1    3    3    0  502 -0.29464898358E+03  0.32811805224E+03  0.55544272034E+03  0.70922331336E+03  0.12699999809E+01 0.  1.
</event>
<event>
 5   0  0.2080257E-05  0.2373417E+04  0.7818609E-02  0.8449524E-01
        2   -1    0    0  501    0  0.00000000000E+00  0.00000000000E+00  0.19908926386E+04  0.19908926386E+04  0.25500000920E-02 0.  1.
       -2   -1    0    0    0  501  0.00000000000E+00  0.00000000000E+00 -0.70735933228E+03  0.70735933228E+03  0.25500000920E-02 0. -1.
    10030    2    1    2    0    0  0.00000000000E+00  0.00000000000E+00  0.12835333063E+04  0.26982519709E+04  0.23734165142E+04 0.  0.
        1    1    3    3  502    0  0.11549425564E+03 -0.11784031898E+04  0.73202740831E+03  0.13920621852E+04  0.50400001928E-02 0. -1.
       -1    1    3    3    0  502 -0.11549425564E+03  0.11784031898E+04  0.55150589802E+03  0.13061897857E+04  0.50400001928E-02 0.  1.
</event>
<event>
 5   0  0.8528103E-06  0.2382238E+04  0.7818609E-02  0.8446183E-01
       -1   -1    0    0    0  501  0.00000000000E+00  0.00000000000E+00  0.13932372099E+04  0.13932372099E+04  0.50400001928E-02 0.  1.
        1   -1    0    0  501    0  0.00000000000E+00  0.00000000000E+00 -0.10183224910E+04  0.10183224910E+04  0.50400001928E-02 0. -1.
    10030    2    1    2    0    0  0.00000000000E+00  0.00000000000E+00  0.37491471889E+03  0.24115597009E+04  0.23822382636E+04 0.  0.
        4    1    3    3  502    0  0.49536025757E+03 -0.95532923586E+03 -0.32944223539E+03  0.11254197142E+04  0.12699999809E+01 0. -1.
       -4    1    3    3    0  502 -0.49536025757E+03  0.95532923586E+03  0.70435695429E+03  0.12861399868E+04  0.12699999809E+01 0.  1.
</event>
<event>
 5   0  0.7233625E-06  0.2397914E+04  0.7818609E-02  0.8440285E-01
       -3   -1    0    0    0  501  0.00000000000E+00  0.00000000000E+00  0.10529028865E+04  0.10529028914E+04  0.10100000352E+00 0.  1.
        3   -1    0    0  501    0  0.00000000000E+00  0.00000000000E+00 -0.13652708636E+04  0.13652708673E+04  0.10100000352E+00 0. -1.
    10030    2    1    2    0    0  0.00000000000E+00  0.00000000000E+00 -0.31236797705E+03  0.24181737587E+04  0.23979137962E+04 0.  0.
        5    1    3    3  502    0 -0.45580634340E+03  0.30177934237E+03 -0.12322729536E+04  0.13480908413E+04  0.46999998093E+01 0. -1.
       -5    1    3    3    0  502  0.45580634340E+03 -0.30177934237E+03  0.91990497656E+03  0.10700829174E+04  0.46999998093E+01 0.  1.
</event>
<event>
 5   0  0.8898848E-06  0.2398553E+04  0.7818609E-02  0.8440045E-01
        1   -1    0    0  501    0  0.00000000000E+00  0.00000000000E+00  0.14719405316E+04  0.14719405316E+04  0.50400001928E-02 0.  1.
       -1   -1    0    0    0  501  0.00000000000E+00  0.00000000000E+00 -0.97712145270E+03  0.97712145271E+03  0.50400001928E-02 0. -1.
    10030    2    1    2    0    0  0.00000000000E+00  0.00000000000E+00  0.49481907893E+03  0.24490619844E+04  0.23985534562E+04 0.  0.
        5    1    3    3  502    0  0.25631320109E+03 -0.93527961088E+03  0.96781504674E+03  0.13700848376E+04  0.46999998093E+01 0.  1.
       -5    1    3    3    0  502 -0.25631320109E+03  0.93527961088E+03 -0.47299596781E+03  0.10789771467E+04  0.46999998093E+01 0. -1.
</event>
<event>
 5   0  0.2025353E-05  0.2291091E+04  0.7818609E-02  0.8481442E-01
        2   -1    0    0  501    0  0.00000000000E+00  0.00000000000E+00  0.90345405159E+03  0.90345405159E+03  0.25500000920E-02 0.  1.
       -2   -1    0    0    0  501  0.00000000000E+00  0.00000000000E+00 -0.14525084883E+04  0.14525084883E+04  0.25500000920E-02 0. -1.
    10030    2    1    2    0    0  0.00000000000E+00  0.00000000000E+00 -0.54905443675E+03  0.23559625399E+04  0.22910911625E+04 0.  0.
        4    1    3    3  502    0  0.17701357865E+03 -0.14324646932E+03  0.87994531087E+03  0.90893273734E+03  0.12699999809E+01 0.  1.
       -4    1    3    3    0  502 -0.17701357865E+03  0.14324646932E+03 -0.14289997476E+04  0.14470298026E+04  0.12699999809E+01 0. -1.
</event>
<event>
 5   0  0.2080257E-05  0.2394830E+04  0.7818609E-02  0.8441442E-01
       -2   -1    0    0    0  501  0.00000000000E+00  0.00000000000E+00  0.12314593742E+04  0.12314593742E+04  0.25500000920E-02 0. -1.
        2   -1    0    0  501    0  0.00000000000E+00  0.00000000000E+00 -0.11643116210E+04  0.11643116210E+04  0.25500000920E-02 0.  1.
    10030    2    1    2    0    0  0.00000000000E+00  0.00000000000E+00  0.67147753191E+02  0.23957709951E+04  0.23948298145E+04 0.  0.
        1    1    3    3  502    0 -0.46328481851E+03 -0.91520735800E+03  0.65152622265E+03  0.12152052296E+04  0.50400001928E-02 0. -1.
       -1    1    3    3    0  502  0.46328481851E+03  0.91520735800E+03 -0.58437846946E+03  0.11805657656E+04  0.50400001928E-02 0.  1.
</event>
<event>
 5   0  0.2087882E-05  0.2400701E+04  0.7818609E-02  0.8439241E-01
       -2   -1    0    0    0  501  0.00000000000E+00  0.00000000000E+00  0.50822966859E+03  0.50822966860E+03  0.25500000920E-02 0. -1.
        2   -1    0    0  501    0  0.00000000000E+00  0.00000000000E+00 -0.28350200820E+04  0.28350200820E+04  0.25500000920E-02 0.  1.
    10030    2    1    2    0    0  0.00000000000E+00  0.00000000000E+00 -0.23267904134E+04  0.33432497506E+04  0.24007009949E+04 0.  0.
        2    1    3    3  502    0  0.53357250548E+03 -0.86602728393E+03 -0.27589635980E+03  0.10539552535E+04  0.25500000920E-02 0.  1.
       -2    1    3    3    0  502 -0.53357250548E+03  0.86602728393E+03 -0.20508940536E+04  0.22892944970E+04  0.25500000920E-02 0. -1.
</event>
<event>
 5   0  0.2048028E-05  0.2397339E+04  0.7818609E-02  0.8440501E-01
        2   -1    0    0  501    0  0.00000000000E+00  0.00000000000E+00  0.30940339126E+04  0.30940339126E+04  0.25500000920E-02 0.  1.
       -2   -1    0    0    0  501  0.00000000000E+00  0.00000000000E+00 -0.46438027696E+03  0.46438027697E+03  0.25500000920E-02 0. -1.
    10030    2    1    2    0    0  0.00000000000E+00  0.00000000000E+00  0.26296536357E+04  0.35584141896E+04  0.23973387957E+04 0.  0.
        5    1    3    3  502    0 -0.85104744689E+03  0.69047179346E+03  0.20355290454E+04  0.23118031142E+04  0.46999998093E+01 0.  1.
       -5    1    3    3    0  502  0.85104744689E+03 -0.69047179346E+03  0.59412459028E+03  0.12466110754E+04  0.46999998093E+01 0. -1.
</event>
<event>
 5   0  0.2087882E-05  0.2404626E+04  0.7818609E-02  0.8437774E-01
        2   -1    0    0  501    0  0.00000000000E+00  0.00000000000E+00  0.18443484938E+04  0.18443484938E+04  0.25500000920E-02 0.  1.
       -2   -1    0    0    0  501  0.00000000000E+00  0.00000000000E+00 -0.78377636933E+03  0.78377636934E+03  0.25500000920E-02 0. -1.
    10030    2    1    2    0    0  0.00000000000E+00  0.00000000000E+00  0.10605721245E+04  0.26281248632E+04  0.24046261799E+04 0.  0.
        2    1    3    3  502    0 -0.19584350377E+03  0.76521680558E+03 -0.46041041573E+03  0.91426975693E+03  0.25500000920E-02 0. -1.
       -2    1    3    3    0  502  0.19584350377E+03 -0.76521680558E+03  0.15209825402E+04  0.17138551063E+04  0.25500000920E-02 0.  1.
</event>
<event>
 5   0  0.9176817E-06  0.2423614E+04  0.7818609E-02  0.8430715E-01
       -1   -1    0    0    0  501  0.00000000000E+00  0.00000000000E+00  0.11264518417E+04  0.11264518417E+04  0.50400001928E-02 0. -1.
        1   -1    0    0  501    0  0.00000000000E+00  0.00000000000E+00 -0.13036299573E+04  0.13036299573E+04  0.50400001928E-02 0.  1.
    10030    2    1    2    0    0  0.00000000000E+00  0.00000000000E+00 -0.17717811563E+03  0.24300817990E+04  0.24236141329E+04 0.  0.
        3    1    3    3  502    0 -0.17003318330E+03 -0.11990484098E+04 -0.45486159652E+02  0.12118982521E+04  0.10100000352E+00 0. -1.
       -3    1    3    3    0  502  0.17003318330E+03  0.11990484098E+04 -0.13169195597E+03  0.12181835469E+04  0.10100000352E+00 0.  1.
</event>
<event>
 5   0  0.2080257E-05  0.2406205E+04  0.7818609E-02  0.8437184E-01
       -2   -1    0    0    0  501  0.00000000000E+00  0.00000000000E+00  0.85786780412E+03  0.85786780412E+03  0.25500000920E-02 0. -1.
        2   -1    0    0  501    0  0.00000000000E+00  0.00000000000E+00 -0.16872714139E+04  0.16872714139E+04  0.25500000920E-02 0.  1.
    10030    2    1    2    0    0  0.00000000000E+00  0.00000000000E+00 -0.82940360981E+03  0.25451392181E+04  0.24062051640E+04 0.  0.
        1    1    3    3  502    0  0.12702027277E+03  0.77936584692E+03  0.54540361303E+03  0.95969285408E+03  0.50400001928E-02 0. -1.
       -1    1    3    3    0  502 -0.12702027277E+03 -0.77936584692E+03 -0.13748072228E+04  0.15854463640E+04  0.50400001928E-02 0.  1.
</event>
<event>
 5   0  0.9083687E-06  0.2463788E+04  0.7818609E-02  0.8416001E-01
        1   -1    0    0  501    0  0.00000000000E+00  0.00000000000E+00  0.95732873140E+03  0.95732873141E+03  0.50400001928E-02 0.  1.
       -1   -1    0    0    0  501  0.00000000000E+00  0.00000000000E+00 -0.15852054912E+04  0.15852054913E+04  0.50400001928E-02 0. -1.
    10030    2    1    2    0    0  0.00000000000E+00  0.00000000000E+00 -0.62787675985E+03  0.25425342227E+04  0.24637879470E+04 0.  0.
        2    1    3    3  502    0  0.31145372224E+02 -0.72900866050E+02  0.95469369825E+03  0.95797945070E+03  0.25500000920E-02 0.  1.
       -2    1    3    3    0  502 -0.31145372224E+02  0.72900866050E+02 -0.15825704581E+04  0.15845547720E+04  0.25500000920E-02 0. -1.
</event>
<event>
 5   0  0.8528103E-06  0.2373640E+04  0.7818609E-02  0.8449439E-01
       -1   -1    0    0    0  501  0.00000000000E+00  0.00000000000E+00  0.85447603086E+03  0.85447603088E+03  0.50400001928E-02 0. -1.
        1   -1    0    0  501    0  0.00000000000E+00  0.00000000000E+00 -0.16484270304E+04  0.16484270304E+04  0.50400001928E-02 0.  1.
    10030    2    1    2    0    0  0.00000000000E+00  0.00000000000E+00 -0.79395099957E+03  0.25029030613E+04  0.23736397251E+04 0.  0.
        4    1    3    3  502    0  0.15795763108E+03 -0.11123142350E+04 -0.80036069673E+03  0.13794101741E+04  0.12699999809E+01 0.  1.
       -4    1    3    3    0  502 -0.15795763108E+03  0.11123142350E+04  0.64096971598E+01  0.11234928872E+04  0.12699999809E+01 0. -1.
</event>
<event>
 5   0  0.2122194E-05  0.2401589E+04  0.7818609E-02  0.8438909E-01
       -2   -1    0    0    0  501  0.00000000000E+00  0.00000000000E+00  0.10964445308E+04  0.10964445308E+04  0.25500000920E-02 0.  1.
        2   -1    0    0  501    0  0.00000000000E+00  0.00000000000E+00 -0.13150753792E+04  0.13150753792E+04  0.25500000920E-02 0. -1.
    10030    2    1    2    0    0  0.00000000000E+00  0.00000000000E+00 -0.21863084842E+03  0.24115199100E+04  0.24015888133E+04 0.  0.
        3    1    3    3  502    0  0.33683456812E+03  0.10481109787E+04 -0.59079071963E+03  0.12494109951E+04  0.10100000352E+00 0. -1.
       -3    1    3    3    0  502 -0.33683456812E+03 -0.10481109787E+04  0.37215987121E+03  0.11621089149E+04  0.10100000352E+00 0.  1.
</event>
<event>
 5   0  0.2048028E-05  0.2401249E+04  0.7818609E-02  0.8439036E-01
       -2   -1    0    0    0  501  0.00000000000E+00  0.00000000000E+00  0.61895299910E+03  0.61895299910E+03  0.25500000920E-02 0. -1.
        2   -1    0    0  501    0  0.00000000000E+00  0.00000000000E+00 -0.23289315383E+04  0.23289315383E+04  0.25500000920E-02 0.  1.
    10030    2    1    2    0    0  0.00000000000E+00  0.00000000000E+00 -0.17099785392E+04  0.29478845374E+04  0.24012489753E+04 0.  0.
        5    1    3    3  502    0 -0.46123446905E+03  0.51703771059E+03 -0.20587162913E+04  0.21721878574E+04  0.46999998093E+01 0.  1.
       -5    1    3    3    0  502  0.46123446905E+03 -0.51703771059E+03  0.34873775213E+03  0.77569668001E+03  0.46999998093E+01 0. -1.
</event>
<event>
 5   0  0.7233625E-06  0.2393860E+04  0.7818609E-02  0.8441806E-01
       -3   -1    0    0    0  501  0.00000000000E+00  0.00000000000E+00  0.11483848051E+04  0.11483848095E+04  0.10100000352E+00 0. -1.
        3   -1    0    0  501    0  0.00000000000E+00  0.00000000000E+00 -0.12475275457E+04  0.12475275498E+04  0.10100000352E+00 0.  1.
    10030    2    1    2    0    0  0.00000000000E+00  0.00000000000E+00 -0.99142740649E+02  0.23959123593E+04  0.23938602195E+04 0.  0.
        3    1    3    3  502    0  0.11171065142E+04 -0.18327041982E+03  0.33951202017E+03  0.11818559273E+04  0.10100000352E+00 0. -1.
       -3    1    3    3    0  502 -0.11171065142E+04  0.18327041982E+03 -0.43865476081E+03  0.12140564321E+04  0.10100000352E+00 0.  1.
</event>
<event>
 5   0  0.2048028E-05  0.2417506E+04  0.7818609E-02  0.8432978E-01
       -2   -1    0    0    0  501  0.00000000000E+00  0.00000000000E+00  0.91799972123E+03  0.91799972124E+03  0.25500000920E-02 0. -1.
        2   -1    0    0  501    0  0.00000000000E+00  0.00000000000E+00 -0.15915956090E+04  0.15915956090E+04  0.25500000920E-02 0.  1.
    10030    2    1    2    0    0  0.00000000000E+00  0.00000000000E+00 -0.67359588777E+03  0.25095953302E+04  0.24175064222E+04 0.  0.
        5    1    3    3  502    0  0.26934687001E+03 -0.10133859879E+04 -0.96100439819E+03  0.14223397767E+04  0.46999998093E+01 0.  1.
       -5    1    3    3    0  502 -0.26934687001E+03  0.10133859879E+04  0.28740851042E+03  0.10872555536E+04  0.46999998093E+01 0. -1.
</event>
<event>
 5   0  0.2080257E-05  0.2397197E+04  0.7818609E-02  0.8440554E-01
        2   -1    0    0  501    0  0.00000000000E+00  0.00000000000E+00  0.10247798835E+04  0.10247798835E+04  0.25500000920E-02 0.  1.
       -2   -1    0    0    0  501  0.00000000000E+00  0.00000000000E+00 -0.14018996075E+04  0.14018996075E+04  0.25500000920E-02 0. -1.
    10030    2    1    2    0    0  0.00000000000E+00  0.00000000000E+00 -0.37711972406E+03  0.24266794910E+04  0.23971971270E+04 0.  0.
        1    1    3    3  502    0 -0.10454190504E+04 -0.58582374290E+03 -0.16486109191E+03  0.12096568225E+04  0.50400001928E-02 0. -1.
       -1    1    3    3    0  502  0.10454190504E+04  0.58582374290E+03 -0.21225863215E+03  0.12170226685E+04  0.50400001928E-02 0.  1.
</event>
<event>
 5   0  0.8528103E-06  0.2401380E+04  0.7818609E-02  0.8438987E-01
        1   -1    0    0  501    0  0.00000000000E+00  0.00000000000E+00  0.18052059219E+04  0.18052059219E+04  0.50400001928E-02 0.  1.
       -1   -1    0    0    0  501  0.00000000000E+00  0.00000000000E+00 -0.79861056613E+03  0.79861056615E+03  0.50400001928E-02 0. -1.
    10030    2    1    2    0    0  0.00000000000E+00  0.00000000000E+00  0.10065953558E+04  0.26038164881E+04  0.24013800393E+04 0.  0.
        4    1    3    3  502    0 -0.45749583295E+03 -0.11073602359E+04  0.58802433935E+03  0.13346622666E+04  0.12699999809E+01 0.  1.
       -4    1    3    3    0  502  0.45749583295E+03  0.11073602359E+04  0.41857101644E+03  0.12691542215E+04  0.12699999809E+01 0. -1.
</event>
<event>
 5   0  0.8898848E-06  0.2341220E+04  0.7818609E-02  0.8461844E-01
       -1   -1    0    0    0  501  0.00000000000E+00  0.00000000000E+00  0.11394072960E+04  0.11394072960E+04  0.50400001928E-02 0. -1.
        1   -1    0    0  501    0  0.00000000000E+00  0.00000000000E+00 -0.12026676273E+04  0.12026676273E+04  0.50400001928E-02 0.  1.
    10030    2    1    2    0    0  0.00000000000E+00  0.00000000000E+00 -0.63260331312E+02  0.23420749233E+04  0.23412204247E+04 0.  0.
        5    1    3    3  502    0 -0.29540936169E+03 -0.13733685394E+03 -0.11563972725E+04  0.12014178475E+04  0.46999998093E+01 0.  1.
       -5    1    3    3    0  502  0.29540936169E+03  0.13733685394E+03  0.10931369412E+04  0.11406570758E+04  0.46999998093E+01 0. -1.
</event>
<event>
 5   0  0.2048028E-05  0.2407978E+04  0.7818609E-02  0.8436523E-01
       -2   -1    0    0    0  501  0.00000000000E+00  0.00000000000E+00  0.68735088764E+03  0.68735088765E+03  0.25500000920E-02 0.  1.
        2   -1    0    0  501    0  0.00000000000E+00  0.00000000000E+00 -0.21089505730E+04  0.21089505730E+04  0.25500000920E-02 0. -1.
    10030    2    1    2    0    0  0.00000000000E+00  0.00000000000E+00 -0.14215996853E+04  0.27963014606E+04  0.24079776148E+04 0.  0.
        5    1    3    3  502    0  0.54718880424E+03  0.77378485908E+03 -0.15731193652E+04  0.18365416474E+04  0.46999998093E+01 0. -1.
       -5    1    3    3    0  502 -0.54718880424E+03 -0.77378485908E+03  0.15151967985E+03  0.95975981319E+03  0.46999998093E+01 0.  1.
</event>
<event>
 5   0  0.2087882E-05  0.2440377E+04  0.7818609E-02  0.8424540E-01
       -2   -1    0    0    0  501  0.00000000000E+00  0.00000000000E+00  0.78494798673E+03  0.78494798673E+03  0.25500000920E-02 0. -1.
        2   -1    0    0  501    0  0.00000000000E+00  0.00000000000E+00 -0.18967628407E+04  0.18967628407E+04  0.25500000920E-02 0.  1.
    10030    2    1    2    0    0  0.00000000000E+00  0.00000000000E+00 -0.11118148540E+04  0.26817108275E+04  0.24403771620E+04 0.  0.
        2    1    3    3  502    0 -0.17407619619E+02  0.90523731528E+03  0.34297178387E+03  0.96818761959E+03  0.25500000920E-02 0. -1.
       -2    1    3    3    0  502  0.17407619619E+02 -0.90523731528E+03 -0.14547866379E+04  0.17135232079E+04  0.25500000920E-02 0.  1.
</event>
<event>
 5   0  0.2122194E-05  0.2399806E+04  0.7818609E-02  0.8439576E-01
       -2   -1    0    0    0  501  0.00000000000E+00  0.00000000000E+00  0.17547242448E+04  0.17547242448E+04  0.25500000920E-02 0.  1.
        2   -1    0    0  501    0  0.00000000000E+00  0.00000000000E+00 -0.82050905973E+03  0.82050905973E+03  0.25500000920E-02 0. -1.
    10030    2    1    2    0    0  0.00000000000E+00  0.00000000000E+00  0.93421518504E+03  0.25752333045E+04  0.23998059423E+04 0.  0.
        3    1    3    3  502    0  0.97890446665E+03 -0.57005178380E+03  0.42514687476E+02  0.11335874470E+04  0.10100000352E+00 0. -1.
       -3    1    3    3    0  502 -0.97890446665E+03  0.57005178380E+03  0.89170049756E+03  0.14416458575E+04  0.10100000352E+00 0.  1.
</event>
<event>
 5   0  0.9038897E-06  0.2470842E+04  0.7818609E-02  0.8413447E-01
        1   -1    0    0  501    0  0.00000000000E+00  0.00000000000E+00  0.10706570857E+04  0.10706570857E+04  0.50400001928E-02 0.  1.
       -1   -1    0    0    0  501  0.00000000000E+00  0.00000000000E+00 -0.14255403560E+04  0.14255403560E+04  0.50400001928E-02 0. -1.
    10030    2    1    2    0    0  0.00000000000E+00  0.00000000000E+00 -0.35488327033E+03  0.24961974418E+04  0.24708418672E+04 0.  0.
        1    1    3    3  502    0 -0.13641971263E+03  0.24805716150E+02 -0.14176545792E+04  0.14244192387E+04  0.50400001928E-02 0. -1.
       -1    1    3    3    0  502  0.13641971263E+03 -0.24805716150E+02  0.10627713089E+04  0.10717782031E+04  0.50400001928E-02 0.  1.
</event>
<event>
 5   0  0.2122194E-05  0.2343458E+04  0.7818609E-02  0.8460981E-01
       -2   -1    0    0    0  501  0.00000000000E+00  0.00000000000E+00  0.87873809646E+03  0.87873809646E+03  0.25500000920E-02 0. -1.
        2   -1    0    0  501    0  0.00000000000E+00  0.00000000000E+00 -0.15624090149E+04  0.15624090149E+04  0.25500000920E-02 0.  1.
    10030    2    1    2    0    0  0.00000000000E+00  0.00000000000E+00 -0.68367091848E+03  0.24411471114E+04  0.23434575513E+04 0.  0.
        3    1    3    3  502    0 -0.35664391736E+03  0.11071320664E+04 -0.48919636947E+03  0.12618436489E+04  0.10100000352E+00 0.  1.
       -3    1    3    3    0  502  0.35664391736E+03 -0.11071320664E+04 -0.19447454901E+03  0.11793034625E+04  0.10100000352E+00 0. -1.
</event>
<event>
 5   0  0.2048028E-05  0.2392025E+04  0.7818609E-02  0.8442495E-01
        2   -1    0    0  501    0  0.00000000000E+00  0.00000000000E+00  0.14661446680E+04  0.14661446680E+04  0.25500000920E-02 0. -1.
       -2   -1    0    0    0  501  0.00000000000E+00  0.00000000000E+00 -0.97565165453E+03  0.97565165453E+03  0.25500000920E-02 0.  1.
    10030    2    1    2    0    0  0.00000000000E+00  0.00000000000E+00  0.49049301347E+03  0.24417963225E+04  0.23920254774E+04 0.  0.
        5    1    3    3  502    0 -0.94109811228E+02  0.11644241913E+04  0.50686806039E+03  0.12734510884E+04  0.46999998093E+01 0. -1.
       -5    1    3    3    0  502  0.94109811228E+02 -0.11644241913E+04 -0.16375046922E+02  0.11683452341E+04  0.46999998093E+01 0.  1.
</event>
<event>
 5   0  0.9038897E-06  0.2335229E+04  0.7818609E-02  0.8464159E-01
       -1   -1    0    0    0  501  0.00000000000E+00  0.00000000000E+00  0.10645651018E+04  0.10645651018E+04  0.50400001928E-02 0. -1.
        1   -1    0    0  501    0  0.00000000000E+00  0.00000000000E+00 -0.12806390099E+04  0.12806390099E+04  0.50400001928E-02 0.  1.
    10030    2    1    2    0    0  0.00000000000E+00  0.00000000000E+00 -0.21607390814E+03  0.23452041117E+04  0.23352289806E+04 0.  0.
        1    1    3    3  502    0  0.89972400271E+03 -0.40096745581E+03  0.52157438831E+03  0.11145932102E+04  0.50400001928E-02 0. -1.
       -1    1    3    3    0  502 -0.89972400271E+03  0.40096745581E+03 -0.73764829645E+03  0.12306109015E+04  0.50400001928E-02 0.  1.
</event>
<event>
 5   0  0.9083687E-06  0.2385344E+04  0.7818609E-02  0.8445011E-01
       -1   -1    0    0    0  501  0.00000000000E+00  0.00000000000E+00  0.13494854511E+04  0.13494854511E+04  0.50400001928E-02 0.  1.
        1   -1    0    0  501    0  0.00000000000E+00  0.00000000000E+00 -0.10540806489E+04  0.10540806490E+04  0.50400001928E-02 0. -1.
    10030    2    1    2    0    0  0.00000000000E+00  0.00000000000E+00  0.29540480214E+03  0.24035661000E+04  0.23853440004E+04 0.  0.
        2    1    3    3  502    0  0.11645723348E+04  0.25651335091E+03  0.12659776349E+03  0.11991892327E+04  0.25500000920E-02 0. -1.
       -2    1    3    3    0  502 -0.11645723348E+04 -0.25651335091E+03  0.16880703864E+03  0.12043768673E+04  0.25500000920E-02 0.  1.
</event>
<event>
 5   0  0.2025353E-05  0.2414640E+04  0.7818609E-02  0.8434043E-01
       -2   -1    0    0    0  501  0.00000000000E+00  0.00000000000E+00  0.93955524871E+03  0.93955524872E+03  0.25500000920E-02 0.  1.
        2   -1    0    0  501    0  0.00000000000E+00  0.00000000000E+00 -0.15513956530E+04  0.15513956530E+04  0.25500000920E-02 0. -1.
    10030    2    1    2    0    0  0.00000000000E+00  0.00000000000E+00 -0.61184040432E+03  0.24909509018E+04  0.24146402868E+04 0.  0.
        4    1    3    3  502    0  0.11095394643E+04 -0.19463116975E+03 -0.75399861578E+03  0.13555348172E+04  0.12699999809E+01 0.  1.
       -4    1    3    3    0  502 -0.11095394643E+04  0.19463116975E+03  0.14215821146E+03  0.11354160846E+04  0.12699999809E+01 0. -1.
</event>
<event>
 5   0  0.2025353E-05  0.2155430E+04  0.7818609E-02  0.8537212E-01
        2   -1    0    0  501    0  0.00000000000E+00  0.00000000000E+00  0.14190293809E+04  0.14190293809E+04  0.25500000920E-02 0. -1.
       -2   -1    0    0    0  501  0.00000000000E+00  0.00000000000E+00 -0.81849570133E+03  0.81849570133E+03  0.25500000920E-02 0.  1.
    10030    2    1    2    0    0  0.00000000000E+00  0.00000000000E+00  0.60053367952E+03  0.22375250822E+04  0.21554298395E+04 0.  0.
        4    1    3    3  502    0  0.77667263277E+03 -0.48286042625E+03  0.89215275855E+03  0.12776199463E+04  0.12699999809E+01 0. -1.
       -4    1    3    3    0  502 -0.77667263277E+03  0.48286042625E+03 -0.29161907903E+03  0.95990513588E+03  0.12699999809E+01 0.  1.
</event>
<event>
 5   0  0.2087882E-05  0.2408458E+04  0.7818609E-02  0.8436344E-01
       -2   -1    0    0    0  501  0.00000000000E+00  0.00000000000E+00  0.13055742748E+04  0.13055742748E+04  0.25500000920E-02 0. -1.
        2   -1    0    0  501    0  0.00000000000E+00  0.00000000000E+00 -0.11107503876E+04  0.11107503876E+04  0.25500000920E-02 0.  1.
    10030    2    1    2    0    0  0.00000000000E+00  0.00000000000E+00  0.19482388723E+03  0.24163246625E+04  0.24084577072E+04 0.  0.
        2    1    3    3  502    0 -0.67345933293E+02  0.96146181334E+03  0.82172777998E+03  0.12665626071E+04  0.25500000920E-02 0. -1.
       -2    1    3    3    0  502  0.67345933293E+02 -0.96146181334E+03 -0.62690389275E+03  0.11497620554E+04  0.25500000920E-02 0.  1.
</event>
<event>
 5   0  0.2080257E-05  0.2415019E+04  0.7818609E-02  0.8433902E-01
        2   -1    0    0  501    0  0.00000000000E+00  0.00000000000E+00  0.24210249151E+04  0.24210249151E+04  0.25500000920E-02 0.  1.
       -2   -1    0    0    0  501  0.00000000000E+00  0.00000000000E+00 -0.60225715865E+03  0.60225715865E+03  0.25500000920E-02 0. -1.
    10030    2    1    2    0    0  0.00000000000E+00  0.00000000000E+00  0.18187677565E+04  0.30232820738E+04  0.24150193261E+04 0.  0.
        1    1    3    3  502    0 -0.32510706005E+03  0.12879830158E+03 -0.53748150147E+03  0.64122536400E+03  0.50400001928E-02 0. -1.
       -1    1    3    3    0  502  0.32510706005E+03 -0.12879830158E+03  0.23562492580E+04  0.23820567098E+04  0.50400001928E-02 0.  1.
</event>
<event>
 5   0  0.2025353E-05  0.2408333E+04  0.7818609E-02  0.8436391E-01
       -2   -1    0    0    0  501  0.00000000000E+00  0.00000000000E+00  0.18928127177E+04  0.18928127177E+04  0.25500000920E-02 0. -1.
        2   -1    0    0  501    0  0.00000000000E+00  0.00000000000E+00 -0.76606444861E+03  0.76606444862E+03  0.25500000920E-02 0.  1.
    10030    2    1    2    0    0  0.00000000000E+00  0.00000000000E+00  0.11267482691E+04  0.26588771663E+04  0.24083326439E+04 0.  0.
        4    1    3    3  502    0  0.45452046940E+03 -0.10529054347E+04  0.15800296943E+03  0.11576550708E+04  0.12699999809E+01 0.  1.
       -4    1    3    3    0  502 -0.45452046940E+03  0.10529054347E+04  0.96874529964E+03  0.15012220955E+04  0.12699999809E+01 0. -1.
</event>
<event>
 5   0  0.2122194E-05  0.2389693E+04  0.7818609E-02  0.8443372E-01
       -2   -1    0    0    0  501  0.00000000000E+00  0.00000000000E+00  0.13460841483E+04  0.13460841483E+04  0.25500000920E-02 0. -1.
        2   -1    0    0  501    0  0.00000000000E+00  0.00000000000E+00 -0.10606009429E+04  0.10606009429E+04  0.25500000920E-02 0.  1.
    10030    2    1    2    0    0  0.00000000000E+00  0.00000000000E+00  0.28548320535E+03  0.24066850912E+04  0.23896929651E+04 0.  0.
        3    1    3    3  502    0 -0.10780256338E+04  0.36180748142E+02 -0.37492675298E+03  0.11419362478E+04  0.10100000352E+00 0.  1.
       -3    1    3    3    0  502  0.10780256338E+04 -0.36180748142E+02  0.66040995833E+03  0.12647488434E+04  0.10100000352E+00 0. -1.
</event>
<event>
 5   0  0.9038897E-06  0.2395989E+04  0.7818609E-02  0.8441007E-01
        1   -1    0    0  501    0  0.00000000000E+00  0.00000000000E+00  0.56323282092E+03  0.56323282094E+03  0.50400001928E-02 0. -1.
       -1   -1    0    0    0  501  0.00000000000E+00  0.00000000000E+00 -0.25481297305E+04  0.25481297305E+04  0.50400001928E-02 0.  1.
    10030    2    1    2    0    0  0.00000000000E+00  0.00000000000E+00 -0.19848969096E+04  0.31113625515E+04  0.23959885611E+04 0.  0.
        1    1    3    3  502    0 -0.31336269618E+02 -0.12316493463E+03 -0.25393511810E+04  0.25425294459E+04  0.50400001928E-02 0.  1.
       -1    1    3    3    0  502  0.31336269618E+02  0.12316493463E+03  0.55445427138E+03  0.56883310557E+03  0.50400001928E-02 0. -1.
</event>
<event>
 5   0  0.9176817E-06  0.2414258E+04  0.7818609E-02  0.8434185E-01
        1   -1    0    0  501    0  0.00000000000E+00  0.00000000000E+00  0.98470666550E+03  0.98470666552E+03  0.50400001928E-02 0.  1.
       -1   -1    0    0    0  501  0.00000000000E+00  0.00000000000E+00 -0.14797912588E+04  0.14797912588E+04  0.50400001928E-02 0. -1.
    10030    2    1    2    0    0  0.00000000000E+00  0.00000000000E+00 -0.49508459329E+03  0.24644979243E+04  0.24142579118E+04 0.  0.
        3    1    3    3  502    0 -0.92204263842E+02  0.11951636317E+04 -0.10230516917E+03  0.12030727703E+04  0.10100000352E+00 0.  1.
       -3    1    3    3    0  502  0.92204263842E+02 -0.11951636317E+04 -0.39277942412E+03  0.12614251540E+04  0.10100000352E+00 0. -1.
</event>
<event>
 5   0  0.8528103E-06  0.2368618E+04  0.7818609E-02  0.8451347E-01
       -1   -1    0    0    0  501  0.00000000000E+00  0.00000000000E+00  0.82654902487E+03  0.82654902488E+03  0.50400001928E-02 0.  1.
        1   -1    0    0  501    0  0.00000000000E+00  0.00000000000E+00 -0.16969204384E+04  0.16969204384E+04  0.50400001928E-02 0. -1.
    10030    2    1    2    0    0  0.00000000000E+00  0.00000000000E+00 -0.87037141356E+03  0.25234694633E+04  0.23686181066E+04 0.  0.
        4    1    3    3  502    0  0.68597456503E+02 -0.59621654703E+03  0.65254545933E+03  0.88656470231E+03  0.12699999809E+01 0.  1.
       -4    1    3    3    0  502 -0.68597456503E+02  0.59621654703E+03 -0.15229168729E+04  0.16369047610E+04  0.12699999809E+01 0. -1.
</event>
<event>
 5   0  0.9038897E-06  0.2415155E+04  0.7818609E-02  0.8433851E-01
       -1   -1    0    0    0  501  0.00000000000E+00  0.00000000000E+00  0.11260085822E+04  0.11260085822E+04  0.50400001928E-02 0. -1.
        1   -1    0    0  501    0  0.00000000000E+00  0.00000000000E+00 -0.12950555775E+04  0.12950555775E+04  0.50400001928E-02 0.  1.
    10030    2    1    2    0    0  0.00000000000E+00  0.00000000000E+00 -0.16904699528E+03  0.24210641597E+04  0.24151552287E+04 0.  0.
        1    1    3    3  502    0  0.24940950111E+03 -0.10834671555E+03  0.10949177004E+04  0.11281794541E+04  0.50400001928E-02 0. -1.
       -1    1    3    3    0  502 -0.24940950111E+03  0.10834671555E+03 -0.12639646957E+04  0.12928847056E+04  0.50400001928E-02 0.  1.
</event>
<event>
 5   0  0.2080257E-05  0.2341117E+04  0.7818609E-02  0.8461884E-01
       -2   -1    0    0    0  501  0.00000000000E+00  0.00000000000E+00  0.84979044348E+03  0.84979044348E+03  0.25500000920E-02 0. -1.
        2   -1    0    0  501    0  0.00000000000E+00  0.00000000000E+00 -0.16124053844E+04  0.16124053844E+04  0.25500000920E-02 0.  1.
    10030    2    1    2    0    0  0.00000000000E+00  0.00000000000E+00 -0.76261494088E+03  0.24621958278E+04  0.23411165598E+04 0.  0.
        1    1    3    3  502    0 -0.10714780330E+03 -0.11245378197E+04 -0.70399956637E+03  0.13310452093E+04  0.50400001928E-02 0.  1.
       -1    1    3    3    0  502  0.10714780330E+03  0.11245378197E+04 -0.58615374503E+02  0.11311506185E+04  0.50400001928E-02 0. -1.
</event>
<event>
 5   0  0.2025353E-05  0.2406958E+04  0.7818609E-02  0.8436903E-01
       -2   -1    0    0    0  501  0.00000000000E+00  0.00000000000E+00  0.12201799919E+04  0.12201799919E+04  0.25500000920E-02 0. -1.
        2   -1    0    0  501    0  0.00000000000E+00  0.00000000000E+00 -0.11870065661E+04  0.11870065661E+04  0.25500000920E-02 0.  1.
    10030    2    1    2    0    0  0.00000000000E+00  0.00000000000E+00  0.33173425783E+02  0.24071865580E+04  0.24069579658E+04 0.  0.
        4    1    3    3  502    0 -0.41825930623E+03 -0.33016314541E+03 -0.10625947740E+04  0.11887210844E+04  0.12699999809E+01 0.  1.
       -4    1    3    3    0  502  0.41825930623E+03  0.33016314541E+03  0.10957681998E+04  0.12184654736E+04  0.12699999809E+01 0. -1.
</event>
<event>
 5   0  0.2087882E-05  0.2402319E+04  0.7818609E-02  0.8438636E-01
       -2   -1    0    0    0  501  0.00000000000E+00  0.00000000000E+00  0.87977562952E+03  0.87977562952E+03  0.25500000920E-02 0. -1.
        2   -1    0    0  501    0  0.00000000000E+00  0.00000000000E+00 -0.16399460018E+04  0.16399460018E+04  0.25500000920E-02 0.  1.
    10030    2    1    2    0    0  0.00000000000E+00  0.00000000000E+00 -0.76017037226E+03  0.25197216313E+04  0.24023193177E+04 0.  0.
        2    1    3    3  502    0 -0.61045682304E+03 -0.67724686277E+03 -0.12002613879E+04  0.15072983266E+04  0.25500000920E-02 0.  1.
       -2    1    3    3    0  502  0.61045682304E+03  0.67724686277E+03  0.44009101564E+03  0.10124233047E+04  0.25500000920E-02 0. -1.
</event>
<event>
 5   0  0.8898848E-06  0.2365178E+04  0.7818609E-02  0.8452657E-01
       -1   -1    0    0    0  501  0.00000000000E+00  0.00000000000E+00  0.11080662981E+04  0.11080662981E+04  0.50400001928E-02 0.  1.
        1   -1    0    0  501    0  0.00000000000E+00  0.00000000000E+00 -0.12621240402E+04  0.12621240403E+04  0.50400001928E-02 0. -1.
    10030    2    1    2    0    0  0.00000000000E+00  0.00000000000E+00 -0.15405774216E+03  0.23701903383E+04  0.23651783130E+04 0.  0.
        5    1    3    3  502    0 -0.33748973180E+03 -0.42393979429E+03  0.97632688889E+03  0.11166291024E+04  0.46999998093E+01 0.  1.
       -5    1    3    3    0  502  0.33748973180E+03  0.42393979429E+03 -0.11303846311E+04  0.12535612360E+04  0.46999998093E+01 0. -1.
</event>
<event>
 5   0  0.9176817E-06  0.2399607E+04  0.7818609E-02  0.8439651E-01
        1   -1    0    0  501    0  0.00000000000E+00  0.00000000000E+00  0.20780103458E+04  0.20780103458E+04  0.50400001928E-02 0.  1.
       -1   -1    0    0    0  501  0.00000000000E+00  0.00000000000E+00 -0.69274344811E+03  0.69274344813E+03  0.50400001928E-02 0. -1.
    10030    2    1    2    0    0  0.00000000000E+00  0.00000000000E+00  0.13852668977E+04  0.27707537940E+04  0.23996066779E+04 0.  0.
        3    1    3    3  502    0 -0.16525307317E+03 -0.10944007411E+04  0.15784984370E+03  0.11180063254E+04  0.10100000352E+00 0. -1.
       -3    1    3    3    0  502  0.16525307317E+03  0.10944007411E+04  0.12274170540E+04  0.16527474686E+04  0.10100000352E+00 0.  1.
</event>
<event>
 5   0  0.2080257E-05  0.2349612E+04  0.7818609E-02  0.8458613E-01
        2   -1    0    0  501    0  0.00000000000E+00  0.00000000000E+00  0.20984094709E+04  0.20984094709E+04  0.25500000920E-02 0. -1.
       -2   -1    0    0    0  501  0.00000000000E+00  0.00000000000E+00 -0.65772136771E+03  0.65772136772E+03  0.25500000920E-02 0.  1.
    10030    2    1    2    0    0  0.00000000000E+00  0.00000000000E+00  0.14406881032E+04  0.27561308387E+04  0.23496116677E+04 0.  0.
        1    1    3    3  502    0 -0.94083462386E+03  0.61503881549E+03  0.11211073466E+04  0.15875529020E+04  0.50400001928E-02 0.  1.
       -1    1    3    3    0  502  0.94083462386E+03 -0.61503881549E+03  0.31958075663E+03  0.11685779367E+04  0.50400001928E-02 0. -1.
</event>
<event>
 5   0  0.8528103E-06  0.2395160E+04  0.7818609E-02  0.8441318E-01
       -1   -1    0    0    0  501  0.00000000000E+00  0.00000000000E+00  0.61270514125E+03  0.61270514127E+03  0.50400001928E-02 0. -1.
        1   -1    0    0  501    0  0.00000000000E+00  0.00000000000E+00 -0.23407635909E+04  0.23407635909E+04  0.50400001928E-02 0.  1.
    10030    2    1    2    0    0  0.00000000000E+00  0.00000000000E+00 -0.17280584497E+04  0.29534687322E+04  0.23951600253E+04 0.  0.
        4    1    3    3  502    0  0.19668426875E+03  0.93160976853E+03 -0.17597163508E+04  0.20007960192E+04  0.12699999809E+01 0.  1.
       -4    1    3    3    0  502 -0.19668426875E+03 -0.93160976853E+03  0.31657901149E+02  0.95267271295E+03  0.12699999809E+01 0. -1.
</event>
<event>
 5   0  0.9176817E-06  0.2401148E+04  0.7818609E-02  0.8439074E-01
        1   -1    0    0  501    0  0.00000000000E+00  0.00000000000E+00  0.14387801397E+04  0.14387801397E+04  0.50400001928E-02 0. -1.
       -1   -1    0    0    0  501  0.00000000000E+00  0.00000000000E+00 -0.10018053520E+04  0.10018053520E+04  0.50400001928E-02 0.  1.
    10030    2    1    2    0    0  0.00000000000E+00  0.00000000000E+00  0.43697478773E+03  0.24405854917E+04  0.24011477624E+04 0.  0.
        3    1    3    3  502    0 -0.24808309728E+01 -0.16809523932E+03 -0.98978252679E+03  0.10039579795E+04  0.10100000352E+00 0.  1.
       -3    1    3    3    0  502  0.24808309728E+01  0.16809523932E+03  0.14267573145E+04  0.14366275122E+04  0.10100000352E+00 0. -1.
</event>
<event>
 5   0  0.9038897E-06  0.2335858E+04  0.7818609E-02  0.8463915E-01
       -1   -1    0    0    0  501  0.00000000000E+00  0.00000000000E+00  0.14158323563E+04  0.14158323563E+04  0.50400001928E-02 0. -1.
        1   -1    0    0  501    0  0.00000000000E+00  0.00000000000E+00 -0.96343210689E+03  0.96343210691E+03  0.50400001928E-02 0.  1.
    10030    2    1    2    0    0  0.00000000000E+00  0.00000000000E+00  0.45240024938E+03  0.23792644632E+04  0.23358581721E+04 0.  0.
        1    1    3    3  502    0  0.10954773681E+04  0.32304630281E+03 -0.22527591434E+02  0.11423384219E+04  0.50400001928E-02 0.  1.
       -1    1    3    3    0  502 -0.10954773681E+04 -0.32304630281E+03  0.47492784082E+03  0.12369260413E+04  0.50400001928E-02 0. -1.
</event>
<event>
 5   0  0.8898848E-06  0.2409331E+04  0.7818609E-02  0.8436019E-01
        1   -1    0    0  501    0  0.00000000000E+00  0.00000000000E+00  0.89799371317E+03  0.89799371318E+03  0.50400001928E-02 0. -1.
       -1   -1    0    0    0  501  0.00000000000E+00  0.00000000000E+00 -0.16160677316E+04  0.16160677316E+04  0.50400001928E-02 0.  1.
    10030    2    1    2    0    0  0.00000000000E+00  0.00000000000E+00 -0.71807401842E+03  0.25140614448E+04  0.24093307478E+04 0.  0.
        5    1    3    3  502    0  0.75583303542E+03 -0.91985870567E+03 -0.16727436495E+03  0.12022588819E+04  0.46999998093E+01 0. -1.
       -5    1    3    3    0  502 -0.75583303542E+03  0.91985870567E+03 -0.55079965347E+03  0.13118025629E+04  0.46999998093E+01 0.  1.
</event>
<event>
 5   0  0.9176817E-06  0.2345553E+04  0.7818609E-02  0.8460174E-01
       -1   -1    0    0    0  501  0.00000000000E+00  0.00000000000E+00  0.65977475615E+03  0.65977475617E+03  0.50400001928E-02 0.  1.
        1   -1    0    0  501    0  0.00000000000E+00  0.00000000000E+00 -0.20846571795E+04  0.20846571795E+04  0.50400001928E-02 0. -1.
    10030    2    1    2    0    0  0.00000000000E+00  0.00000000000E+00 -0.14248824233E+04  0.27444319356E+04  0.23455525424E+04 0.  0.
        3    1    3    3  502    0  0.10498542721E+04  0.41863162336E+03 -0.10786482478E+04  0.15623471065E+04  0.10100000352E+00 0. -1.
       -3    1    3    3    0  502 -0.10498542721E+04 -0.41863162336E+03 -0.34623417553E+03  0.11820848291E+04  0.10100000352E+00 0.  1.
</event>
<event>
 5   0  0.2025353E-05  0.2388023E+04  0.7818609E-02  0.8444001E-01
        2   -1    0    0  501    0  0.00000000000E+00  0.00000000000E+00  0.18867990177E+04  0.18867990177E+04  0.25500000920E-02 0. -1.
       -2   -1    0    0    0  501  0.00000000000E+00  0.00000000000E+00 -0.75559913104E+03  0.75559913104E+03  0.25500000920E-02 0.  1.
    10030    2    1    2    0    0  0.00000000000E+00  0.00000000000E+00  0.11311998866E+04  0.26423981487E+04  0.23880231977E+04 0.  0.
        4    1    3    3  502    0  0.39016485220E+03  0.99557529935E+03 -0.22277666734E+02  0.10695310636E+04  0.12699999809E+01 0.  1.
       -4    1    3    3    0  502 -0.39016485220E+03 -0.99557529935E+03  0.11534775534E+04  0.15728670852E+04  0.12699999809E+01 0. -1.
</event>
<event>
 5   0  0.2080257E-05  0.2393417E+04  0.7818609E-02  0.8441972E-01
       -2   -1    0    0    0  501  0.00000000000E+00  0.00000000000E+00  0.78162304542E+03  0.78162304542E+03  0.25500000920E-02 0. -1.
        2   -1    0    0  501    0  0.00000000000E+00  0.00000000000E+00 -0.18322280995E+04  0.18322280995E+04  0.25500000920E-02 0.  1.
    10030    2    1    2    0    0  0.00000000000E+00  0.00000000000E+00 -0.10506050540E+04  0.26138511449E+04  0.23934173953E+04 0.  0.
        1    1    3    3  502    0  0.30361111827E+03  0.59381630302E+02 -0.17878031095E+04  0.18143720256E+04  0.50400001928E-02 0.  1.
       -1    1    3    3    0  502 -0.30361111827E+03 -0.59381630302E+02  0.73719805543E+03  0.79947911924E+03  0.50400001928E-02 0. -1.
</event>
<event>
 5   0  0.8528103E-06  0.2379019E+04  0.7818609E-02  0.8447401E-01
        1   -1    0    0  501    0  0.00000000000E+00  0.00000000000E+00  0.14118137324E+04  0.14118137324E+04  0.50400001928E-02 0.  1.
       -1   -1    0    0    0  501  0.00000000000E+00  0.00000000000E+00 -0.10022092027E+04  0.10022092027E+04  0.50400001928E-02 0. -1.
    10030    2    1    2    0    0  0.00000000000E+00  0.00000000000E+00  0.40960452972E+03  0.24140229351E+04  0.23790188861E+04 0.  0.
        4    1    3    3  502    0  0.82680579070E+03  0.29262585416E+03  0.10201759186E+04  0.13453617446E+04  0.12699999809E+01 0.  1.
       -4    1    3    3    0  502 -0.82680579070E+03 -0.29262585416E+03 -0.61057138892E+03  0.10686611904E+04  0.12699999809E+01 0. -1.
</event>
<event>
 5   0  0.2048028E-05  0.2411398E+04  0.7818609E-02  0.8435249E-01
        2   -1    0    0  501    0  0.00000000000E+00  0.00000000000E+00  0.86230065951E+03  0.86230065952E+03  0.25500000920E-02 0.  1.
       -2   -1    0    0    0  501  0.00000000000E+00  0.00000000000E+00 -0.16858500408E+04  0.16858500408E+04  0.25500000920E-02 0. -1.
    10030    2    1    2    0    0  0.00000000000E+00  0.00000000000E+00 -0.82354938127E+03  0.25481507003E+04  0.24113976047E+04 0.  0.
        5    1    3    3  502    0  0.45656841895E+02  0.28047116077E+03  0.82639990144E+03  0.87390360243E+03  0.46999998093E+01 0.  1.
       -5    1    3    3    0  502 -0.45656841895E+02 -0.28047116077E+03 -0.16499492827E+04  0.16742470979E+04  0.46999998093E+01 0. -1.
</event>
<event>
 5   0  0.8528103E-06  0.2409740E+04  0.7818609E-02  0.8435866E-01
       -1   -1    0    0    0  501  0.00000000000E+00  0.00000000000E+00  0.17492709159E+04  0.17492709159E+04  0.50400001928E-02 0.  1.
        1   -1    0    0  501    0  0.00000000000E+00  0.00000000000E+00 -0.82989544757E+03  0.82989544759E+03  0.50400001928E-02 0. -1.
    10030    2    1    2    0    0  0.00000000000E+00  0.00000000000E+00  0.91937546833E+03  0.25791663635E+04  0.24097402098E+04 0.  0.
        4    1    3    3  502    0 -0.11295314682E+04 -0.30885788117E+03  0.76331576281E+03  0.13978151147E+04  0.12699999809E+01 0.  1.
       -4    1    3    3    0  502  0.11295314682E+04  0.30885788117E+03  0.15605970552E+03  0.11813512488E+04  0.12699999809E+01 0. -1.
</event>
<event>
 5   0  0.9038897E-06  0.2400854E+04  0.7818609E-02  0.8439184E-01
        1   -1    0    0  501    0  0.00000000000E+00  0.00000000000E+00  0.18740629954E+04  0.18740629954E+04  0.50400001928E-02 0. -1.
       -1   -1    0    0    0  501  0.00000000000E+00  0.00000000000E+00 -0.76893081869E+03  0.76893081871E+03  0.50400001928E-02 0.  1.
    10030    2    1    2    0    0  0.00000000000E+00  0.00000000000E+00  0.11051321768E+04  0.26429938142E+04  0.24008538426E+04 0.  0.
        1    1    3    3  502    0  0.88560501897E+03 -0.64513026116E+03  0.10924743912E+04  0.15472522739E+04  0.50400001928E-02 0. -1.
       -1    1    3    3    0  502 -0.88560501897E+03  0.64513026116E+03  0.12657785503E+02  0.10957415403E+04  0.50400001928E-02 0.  1.
</event>
<event>
 5   0  0.9038897E-06  0.2404780E+04  0.7818609E-02  0.8437716E-01
       -1   -1    0    0    0  501  0.00000000000E+00  0.00000000000E+00  0.10401807152E+04  0.10401807152E+04  0.50400001928E-02 0. -1.
        1   -1    0    0  501    0  0.00000000000E+00  0.00000000000E+00 -0.13898950546E+04  0.13898950546E+04  0.50400001928E-02 0.  1.
    10030    2    1    2    0    0  0.00000000000E+00  0.00000000000E+00 -0.34971433936E+03  0.24300757698E+04  0.24047802660E+04 0.  0.
        1    1    3    3  502    0 -0.29735391828E+03  0.15129503507E+03 -0.13421846775E+04  0.13830290123E+04  0.50400001928E-02 0.  1.
       -1    1    3    3    0  502  0.29735391828E+03 -0.15129503507E+03  0.99247033811E+03  0.10470467575E+04  0.50400001928E-02 0. -1.
</event>
<event>
 5   0  0.9176817E-06  0.2396291E+04  0.7818609E-02  0.8440893E-01
        1   -1    0    0  501    0  0.00000000000E+00  0.00000000000E+00  0.12623922886E+04  0.12623922886E+04  0.50400001928E-02 0.  1.
       -1   -1    0    0    0  501  0.00000000000E+00  0.00000000000E+00 -0.11371684345E+04  0.11371684346E+04  0.50400001928E-02 0. -1.
    10030    2    1    2    0    0  0.00000000000E+00  0.00000000000E+00  0.12522385407E+03  0.23995607232E+04  0.23962910196E+04 0.  0.
        3    1    3    3  502    0 -0.71637539885E+03  0.91066817540E+03  0.36805668130E+03  0.12157203497E+04  0.10100000352E+00 0.  1.
       -3    1    3    3    0  502  0.71637539885E+03 -0.91066817540E+03 -0.24283282723E+03  0.11838403735E+04  0.10100000352E+00 0. -1.
</event>
<event>
 5   0  0.2048028E-05  0.2460269E+04  0.7818609E-02  0.8417278E-01
        2   -1    0    0  501    0  0.00000000000E+00  0.00000000000E+00  0.13158987299E+04  0.13158987299E+04  0.25500000920E-02 0.  1.
       -2   -1    0    0    0  501  0.00000000000E+00  0.00000000000E+00 -0.11499600846E+04  0.11499600846E+04  0.25500000920E-02 0. -1.
    10030    2    1    2    0    0  0.00000000000E+00  0.00000000000E+00  0.16593864533E+03  0.24658588145E+04  0.24602691030E+04 0.  0.
        5    1    3    3  502    0  0.15101859359E+03  0.12207622464E+04  0.71032308766E+02  0.12321261123E+04  0.46999998093E+01 0. -1.
       -5    1    3    3    0  502 -0.15101859359E+03 -0.12207622464E+04  0.94906336560E+02  0.12337327022E+04  0.46999998093E+01 0.  1.
</event>
<event>
 5   0  0.2080257E-05  0.2406851E+04  0.7818609E-02  0.8436943E-01
        2   -1    0    0  501    0  0.00000000000E+00  0.00000000000E+00  0.17470774948E+04  0.17470774948E+04  0.25500000920E-02 0.  1.
       -2   -1    0    0    0  501  0.00000000000E+00  0.00000000000E+00 -0.82894606572E+03  0.82894606573E+03  0.25500000920E-02 0. -1.
    10030    2    1    2    0    0  0.00000000000E+00  0.00000000000E+00  0.91813142909E+03  0.25760235605E+04  0.24068510680E+04 0.  0.
        1    1    3    3  502    0 -0.26908391601E+03  0.34519777101E+03  0.16588700730E+04  0.17156391153E+04  0.50400001928E-02 0.  1.
       -1    1    3    3    0  502  0.26908391601E+03 -0.34519777101E+03 -0.74073864390E+03  0.86038444521E+03  0.50400001928E-02 0. -1.
</event>
<event>
 5   0  0.8528103E-06  0.2411713E+04  0.7818609E-02  0.8435131E-01
        1   -1    0    0  501    0  0.00000000000E+00  0.00000000000E+00  0.11702694234E+04  0.11702694234E+04  0.50400001928E-02 0. -1.
       -1   -1    0    0    0  501  0.00000000000E+00  0.00000000000E+00 -0.12425256776E+04  0.12425256776E+04  0.50400001928E-02 0.  1.
    10030    2    1    2    0    0  0.00000000000E+00  0.00000000000E+00 -0.72256254145E+02  0.24127951010E+04  0.24117129251E+04 0.  0.
        4    1    3    3  502    0  0.45763903876E+03  0.11125143175E+04  0.47375480002E+02  0.12038968583E+04  0.12699999809E+01 0. -1.
       -4    1    3    3    0  502 -0.45763903876E+03 -0.11125143175E+04 -0.11963173415E+03  0.12088982427E+04  0.12699999809E+01 0.  1.
</event>
<event>
 5   0  0.9176817E-06  0.2387836E+04  0.7818609E-02  0.8444072E-01
        1   -1    0    0  501    0  0.00000000000E+00  0.00000000000E+00  0.12270567272E+04  0.12270567272E+04  0.50400001928E-02 0. -1.
       -1   -1    0    0    0  501  0.00000000000E+00  0.00000000000E+00 -0.11616742379E+04  0.11616742379E+04  0.50400001928E-02 0.  1.
    10030    2    1    2    0    0  0.00000000000E+00  0.00000000000E+00  0.65382489302E+02  0.23887309652E+04  0.23878359982E+04 0.  0.
        3    1    3    3  502    0  0.83294900380E+03 -0.36900966007E+03 -0.73926371237E+03  0.11732361309E+04  0.10100000352E+00 0.  1.
       -3    1    3    3    0  502 -0.83294900380E+03  0.36900966007E+03  0.80464620167E+03  0.12154948343E+04  0.10100000352E+00 0. -1.
</event>
<event>
 5   0  0.2048028E-05  0.2401125E+04  0.7818609E-02  0.8439082E-01
       -2   -1    0    0    0  501  0.00000000000E+00  0.00000000000E+00  0.10402557954E+04  0.10402557954E+04  0.25500000920E-02 0. -1.
        2   -1    0    0  501    0  0.00000000000E+00  0.00000000000E+00 -0.13855729715E+04  0.13855729715E+04  0.25500000920E-02 0.  1.
    10030    2    1    2    0    0  0.00000000000E+00  0.00000000000E+00 -0.34531717614E+03  0.24258287669E+04  0.24011249976E+04 0.  0.
        5    1    3    3  502    0 -0.19295628567E+03  0.21020925856E+03  0.10054902604E+04  0.10452046758E+04  0.46999998093E+01 0. -1.
       -5    1    3    3    0  502  0.19295628567E+03 -0.21020925856E+03 -0.13508074365E+04  0.13806240912E+04  0.46999998093E+01 0.  1.
</event>
<event>
 5   0  0.9176817E-06  0.2403749E+04  0.7818609E-02  0.8438101E-01
        1   -1    0    0  501    0  0.00000000000E+00  0.00000000000E+00  0.94064549167E+03  0.94064549168E+03  0.50400001928E-02 0. -1.
       -1   -1    0    0    0  501  0.00000000000E+00  0.00000000000E+00 -0.15356504044E+04  0.15356504044E+04  0.50400001928E-02 0.  1.
    10030    2    1    2    0    0  0.00000000000E+00  0.00000000000E+00 -0.59500491271E+03  0.24762958961E+04  0.24037492629E+04 0.  0.
        3    1    3    3  502    0 -0.58134159397E+03  0.17079786964E+03 -0.13667945329E+04  0.14950776791E+04  0.10100000352E+00 0.  1.
       -3    1    3    3    0  502  0.58134159397E+03 -0.17079786964E+03  0.77178962023E+03  0.98121821694E+03  0.10100000352E+00 0. -1.
</event>
<event>
 5   0  0.9176817E-06  0.2398105E+04  0.7818609E-02  0.8440214E-01
        1   -1    0    0  501    0  0.00000000000E+00  0.00000000000E+00  0.19821355540E+04  0.19821355540E+04  0.50400001928E-02 0. -1.
       -1   -1    0    0    0  501  0.00000000000E+00  0.00000000000E+00 -0.72534208620E+03  0.72534208621E+03  0.50400001928E-02 0.  1.
    10030    2    1    2    0    0  0.00000000000E+00  0.00000000000E+00  0.12567934678E+04  0.27074776402E+04  0.23981045331E+04 0.  0.
        3    1    3    3  502    0  0.79798235856E+03  0.62161624491E+03  0.13553089084E+04  0.16911667120E+04  0.10100000352E+00 0. -1.
       -3    1    3    3    0  502 -0.79798235856E+03 -0.62161624491E+03 -0.98515440593E+02  0.10163109282E+04  0.10100000352E+00 0.  1.
</event>
<event>
 5   0  0.2025353E-05  0.2435079E+04  0.7818609E-02  0.8426486E-01
        2   -1    0    0  501    0  0.00000000000E+00  0.00000000000E+00  0.12478924065E+04  0.12478924065E+04  0.25500000920E-02 0. -1.
       -2   -1    0    0    0  501  0.00000000000E+00  0.00000000000E+00 -0.11879250013E+04  0.11879250013E+04  0.25500000920E-02 0.  1.
    10030    2    1    2    0    0  0.00000000000E+00  0.00000000000E+00  0.59967405278E+02  0.24358174078E+04  0.24350791269E+04 0.  0.
        4    1    3    3  502    0  0.10645270053E+04 -0.29375834919E+03  0.54286643352E+03  0.12305353673E+04  0.12699999809E+01 0.  1.
       -4    1    3    3    0  502 -0.10645270053E+04  0.29375834919E+03 -0.48289902824E+03  0.12052820405E+04  0.12699999809E+01 0. -1.
</event>
<event>
 5   0  0.2087882E-05  0.2411341E+04  0.7818609E-02  0.8435270E-01
        2   -1    0    0  501    0  0.00000000000E+00  0.00000000000E+00  0.17831004654E+04  0.17831004654E+04  0.25500000920E-02 0. -1.
       -2   -1    0    0    0  501  0.00000000000E+00  0.00000000000E+00 -0.81523232821E+03  0.81523232822E+03  0.25500000920E-02 0.  1.
    10030    2    1    2    0    0  0.00000000000E+00  0.00000000000E+00  0.96786813722E+03  0.25983327937E+04  0.24113408253E+04 0.  0.
        2    1    3    3  502    0 -0.18412540170E+03  0.10076687816E+04 -0.20125579409E+03  0.10439360285E+04  0.25500000920E-02 0.  1.
       -2    1    3    3    0  502  0.18412540170E+03 -0.10076687816E+04  0.11691239313E+04  0.15543967652E+04  0.25500000920E-02 0. -1.
</event>
<event>
 5   0  0.9083687E-06  0.2404703E+04  0.7818609E-02  0.8437745E-01
        1   -1    0    0  501    0  0.00000000000E+00  0.00000000000E+00  0.21752843764E+04  0.21752843764E+04  0.50400001928E-02 0.  1.
       -1   -1    0    0    0  501  0.00000000000E+00  0.00000000000E+00 -0.66457954384E+03  0.66457954386E+03  0.50400001928E-02 0. -1.
    10030    2    1    2    0    0  0.00000000000E+00  0.00000000000E+00  0.15107048326E+04  0.28398639203E+04  0.24047033070E+04 0.  0.
        2    1    3    3  502    0 -0.91135015563E+03 -0.48563305264E+03  0.28076247215E+02  0.10330473579E+04  0.25500000920E-02 0. -1.
       -2    1    3    3    0  502  0.91135015563E+03  0.48563305264E+03  0.14826285853E+04  0.18068165624E+04  0.25500000920E-02 0.  1.
</event>
<event>
 5   0  0.2087882E-05  0.2389811E+04  0.7818609E-02  0.8443328E-01
        2   -1    0    0  501    0  0.00000000000E+00  0.00000000000E+00  0.13750916346E+04  0.13750916346E+04  0.25500000920E-02 0. -1.
       -2   -1    0    0    0  501  0.00000000000E+00  0.00000000000E+00 -0.10383297927E+04  0.10383297927E+04  0.25500000920E-02 0.  1.
    10030    2    1    2    0    0  0.00000000000E+00  0.00000000000E+00  0.33676184192E+03  0.24134214273E+04  0.23898105463E+04 0.  0.
        2    1    3    3  502    0 -0.11818259929E+04  0.17628780352E+03  0.16542893033E+03  0.12062988014E+04  0.25500000920E-02 0. -1.
       -2    1    3    3    0  502  0.11818259929E+04 -0.17628780352E+03  0.17133291158E+03  0.12071226259E+04  0.25500000920E-02 0.  1.
</event>
<event>
 5   0  0.9083687E-06  0.2398252E+04  0.7818609E-02  0.8440158E-01
       -1   -1    0    0    0  501  0.00000000000E+00  0.00000000000E+00  0.10329737376E+04  0.10329737377E+04  0.50400001928E-02 0. -1.
        1   -1    0    0  501    0  0.00000000000E+00  0.00000000000E+00 -0.13920037321E+04  0.13920037321E+04  0.50400001928E-02 0.  1.
    10030    2    1    2    0    0  0.00000000000E+00  0.00000000000E+00 -0.35902999443E+03  0.24249774697E+04  0.23982521118E+04 0.  0.
        2    1    3    3  502    0 -0.93162317413E+03 -0.73388689171E+03 -0.35866611655E+03  0.12390129505E+04  0.25500000920E-02 0. -1.
       -2    1    3    3    0  502  0.93162317413E+03  0.73388689171E+03 -0.36387787968E+00  0.11859645192E+04  0.25500000920E-02 0.  1.
</event>
<event>
 5   0  0.7233625E-06  0.2372967E+04  0.7818609E-02  0.8449694E-01
       -3   -1    0    0    0  501  0.00000000000E+00  0.00000000000E+00  0.73913179025E+03  0.73913179716E+03  0.10100000352E+00 0. -1.
        3   -1    0    0  501    0  0.00000000000E+00  0.00000000000E+00 -0.19045894836E+04  0.19045894863E+04  0.10100000352E+00 0.  1.
    10030    2    1    2    0    0  0.00000000000E+00  0.00000000000E+00 -0.11654576933E+04  0.26437212834E+04  0.23729666221E+04 0.  0.
        1    1    3    3  502    0 -0.66575940441E+03 -0.91549913122E+03 -0.97877270905E+03  0.14964525585E+04  0.50400001928E-02 0.  1.
       -1    1    3    3    0  502  0.66575940441E+03  0.91549913122E+03 -0.18668498429E+03  0.11472687249E+04  0.50400001928E-02 0. -1.
</event>
<event>
 5   0  0.9038897E-06  0.2398763E+04  0.7818609E-02  0.8439967E-01
       -1   -1    0    0    0  501  0.00000000000E+00  0.00000000000E+00  0.85148481661E+03  0.85148481662E+03  0.50400001928E-02 0.  1.
        1   -1    0    0  501    0  0.00000000000E+00  0.00000000000E+00 -0.16894201978E+04  0.16894201978E+04  0.50400001928E-02 0. -1.
    10030    2    1    2    0    0  0.00000000000E+00  0.00000000000E+00 -0.83793538115E+03  0.25409050144E+04  0.23987627205E+04 0.  0.
        1    1    3    3  502    0 -0.77146872224E+03  0.84417981200E+03 -0.80193265147E+03  0.13967460477E+04  0.50400001928E-02 0. -1.
       -1    1    3    3    0  502  0.77146872224E+03 -0.84417981200E+03 -0.36002729685E+02  0.11441589666E+04  0.50400001928E-02 0.  1.
</event>
<event>
 5   0  0.2087882E-05  0.2406901E+04  0.7818609E-02  0.8436925E-01
       -2   -1    0    0    0  501  0.00000000000E+00  0.00000000000E+00  0.14016958705E+04  0.14016958705E+04  0.25500000920E-02 0. -1.
        2   -1    0    0  501    0  0.00000000000E+00  0.00000000000E+00 -0.10332430954E+04  0.10332430954E+04  0.25500000920E-02 0.  1.
    10030    2    1    2    0    0  0.00000000000E+00  0.00000000000E+00  0.36845277510E+03  0.24349389658E+04  0.24069005629E+04 0.  0.
        2    1    3    3  502    0  0.32763878674E+03  0.11565073524E+04  0.24352792360E+03  0.12264429380E+04  0.25500000920E-02 0. -1.
       -2    1    3    3    0  502 -0.32763878674E+03 -0.11565073524E+04  0.12492485150E+03  0.12084960278E+04  0.25500000920E-02 0.  1.
</event>
<event>
 5   0  0.2025353E-05  0.2383160E+04  0.7818609E-02  0.8445835E-01
       -2   -1    0    0    0  501  0.00000000000E+00  0.00000000000E+00  0.82243661086E+03  0.82243661087E+03  0.25500000920E-02 0.  1.
        2   -1    0    0  501    0  0.00000000000E+00  0.00000000000E+00 -0.17264107260E+04  0.17264107260E+04  0.25500000920E-02 0. -1.
    10030    2    1    2    0    0  0.00000000000E+00  0.00000000000E+00 -0.90397411511E+03  0.25488473368E+04  0.23831604112E+04 0.  0.
        4    1    3    3  502    0 -0.88887685736E+03 -0.70232799706E+03 -0.56848815086E+02  0.11342839520E+04  0.12699999809E+01 0.  1.
       -4    1    3    3    0  502  0.88887685736E+03  0.70232799706E+03 -0.84712530003E+03  0.14145633849E+04  0.12699999809E+01 0. -1.
</event>
<event>
 5   0  0.2080257E-05  0.2411191E+04  0.7818609E-02  0.8435326E-01
        2   -1    0    0  501    0  0.00000000000E+00  0.00000000000E+00  0.14691754057E+04  0.14691754057E+04  0.25500000920E-02 0. -1.
       -2   -1    0    0    0  501  0.00000000000E+00  0.00000000000E+00 -0.98930344466E+03  0.98930344466E+03  0.25500000920E-02 0.  1.
    10030    2    1    2    0    0  0.00000000000E+00  0.00000000000E+00  0.47987196104E+03  0.24584788504E+04  0.24111908176E+04 0.  0.
        1    1    3    3  502    0  0.42171039866E+03 -0.39677439216E+03  0.13181198634E+04  0.14396907838E+04  0.50400001928E-02 0. -1.
       -1    1    3    3    0  502 -0.42171039866E+03  0.39677439216E+03 -0.83824790240E+03  0.10187880665E+04  0.50400001928E-02 0.  1.
</event>
<event>
 5   0  0.2080257E-05  0.2387041E+04  0.7818609E-02  0.8444371E-01
        2   -1    0    0  501    0  0.00000000000E+00  0.00000000000E+00  0.19039598944E+04  0.19039598944E+04  0.25500000920E-02 0.  1.
       -2   -1    0    0    0  501  0.00000000000E+00  0.00000000000E+00 -0.74817305172E+03  0.74817305172E+03  0.25500000920E-02 0. -1.
    10030    2    1    2    0    0  0.00000000000E+00  0.00000000000E+00  0.11557868427E+04  0.26521329461E+04  0.23870412519E+04 0.  0.
        1    1    3    3  502    0  0.47547861932E+03 -0.24968902532E+03 -0.60634004637E+03  0.80998319652E+03  0.50400001928E-02 0. -1.
       -1    1    3    3    0  502 -0.47547861932E+03  0.24968902532E+03  0.17621268891E+04  0.18421497496E+04  0.50400001928E-02 0.  1.
</event>
<event>
 5   0  0.9083687E-06  0.2314063E+04  0.7818609E-02  0.8472397E-01
        1   -1    0    0  501    0  0.00000000000E+00  0.00000000000E+00  0.15879083013E+04  0.15879083013E+04  0.50400001928E-02 0. -1.
       -1   -1    0    0    0  501  0.00000000000E+00  0.00000000000E+00 -0.84307231444E+03  0.84307231446E+03  0.50400001928E-02 0.  1.
    10030    2    1    2    0    0  0.00000000000E+00  0.00000000000E+00  0.74483598689E+03  0.24309806158E+04  0.23140626843E+04 0.  0.
        2    1    3    3  502    0  0.57075907285E+03 -0.62363047699E+03  0.12022932426E+04  0.14697584605E+04  0.25500000920E-02 0. -1.
       -2    1    3    3    0  502 -0.57075907285E+03  0.62363047699E+03 -0.45745725567E+03  0.96122215530E+03  0.25500000920E-02 0.  1.
</event>
<event>
 5   0  0.2048028E-05  0.2408457E+04  0.7818609E-02  0.8436344E-01
        2   -1    0    0  501    0  0.00000000000E+00  0.00000000000E+00  0.19536633395E+04  0.19536633395E+04  0.25500000920E-02 0. -1.
       -2   -1    0    0    0  501  0.00000000000E+00  0.00000000000E+00 -0.74228042816E+03  0.74228042817E+03  0.25500000920E-02 0.  1.
    10030    2    1    2    0    0  0.00000000000E+00  0.00000000000E+00  0.12113829114E+04  0.26959437677E+04  0.24084568173E+04 0.  0.
        5    1    3    3  502    0 -0.34373232473E+03 -0.33644512932E+03  0.18414613373E+04  0.19032470105E+04  0.46999998093E+01 0. -1.
       -5    1    3    3    0  502  0.34373232473E+03  0.33644512932E+03 -0.63007842593E+03  0.79269675723E+03  0.46999998093E+01 0.  1.
</event>
<event>
 5   0  0.2080257E-05  0.2401364E+04  0.7818609E-02  0.8438993E-01
        2   -1    0    0  501    0  0.00000000000E+00  0.00000000000E+00  0.19476397832E+04  0.19476397832E+04  0.25500000920E-02 0. -1.
       -2   -1    0    0    0  501  0.00000000000E+00  0.00000000000E+00 -0.74019686808E+03  0.74019686808E+03  0.25500000920E-02 0.  1.
    10030    2    1    2    0    0  0.00000000000E+00  0.00000000000E+00  0.12074429151E+04  0.26878366513E+04  0.24013636690E+04 0.  0.
        1    1    3    3  502    0  0.12279340889E+03  0.11019588194E+04  0.88060695534E+02  0.11122707166E+04  0.50400001928E-02 0.  1.
       -1    1    3    3    0  502 -0.12279340889E+03 -0.11019588194E+04  0.11193822196E+04  0.15755659346E+04  0.50400001928E-02 0. -1.
</event>
<event>
 5   0  0.2048028E-05  0.2398614E+04  0.7818609E-02  0.8440023E-01
       -2   -1    0    0    0  501  0.00000000000E+00  0.00000000000E+00  0.57939890639E+03  0.57939890640E+03  0.25500000920E-02 0.  1.
        2   -1    0    0  501    0  0.00000000000E+00  0.00000000000E+00 -0.24824644629E+04  0.24824644629E+04  0.25500000920E-02 0. -1.
    10030    2    1    2    0    0  0.00000000000E+00  0.00000000000E+00 -0.19030655565E+04  0.30618633693E+04  0.23986139289E+04 0.  0.
        5    1    3    3  502    0  0.11439616327E+04 -0.17084328656E+03 -0.13561683885E+04  0.17824282408E+04  0.46999998093E+01 0. -1.
       -5    1    3    3    0  502 -0.11439616327E+04  0.17084328656E+03 -0.54689716792E+03  0.12794351284E+04  0.46999998093E+01 0.  1.
</event>
<event>
 5   0  0.2025353E-05  0.2420779E+04  0.7818609E-02  0.8431765E-01
       -2   -1    0    0    0  501  0.00000000000E+00  0.00000000000E+00  0.97642757370E+03  0.97642757371E+03  0.25500000920E-02 0. -1.
        2   -1    0    0  501    0  0.00000000000E+00  0.00000000000E+00 -0.15004113434E+04  0.15004113434E+04  0.25500000920E-02 0.  1.
    10030    2    1    2    0    0  0.00000000000E+00  0.00000000000E+00 -0.52398376968E+03  0.24768389171E+04  0.24207792197E+04 0.  0.
        4    1    3    3  502    0  0.12079438052E+03  0.29271026614E+03 -0.14572795648E+04  0.14912866677E+04  0.12699999809E+01 0.  1.
       -4    1    3    3    0  502 -0.12079438052E+03 -0.29271026614E+03  0.93329579512E+03  0.98555224943E+03  0.12699999809E+01 0. -1.
</event>
<event>
 5   0  0.9038897E-06  0.2405392E+04  0.7818609E-02  0.8437488E-01
       -1   -1    0    0    0  501  0.00000000000E+00  0.00000000000E+00  0.10273953009E+04  0.10273953009E+04  0.50400001928E-02 0. -1.
        1   -1    0    0  501    0  0.00000000000E+00  0.00000000000E+00 -0.14079077764E+04  0.14079077764E+04  0.50400001928E-02 0.  1.
    10030    2    1    2    0    0  0.00000000000E+00  0.00000000000E+00 -0.38051247546E+03  0.24353030773E+04  0.24053921374E+04 0.  0.
        1    1    3    3  502    0 -0.27203896568E+03 -0.18868717624E+03 -0.13608647674E+04  0.14005573764E+04  0.50400001928E-02 0.  1.
       -1    1    3    3    0  502  0.27203896568E+03  0.18868717624E+03  0.98035229195E+03  0.10347457010E+04  0.50400001928E-02 0. -1.
</event>
<event>
 5   0  0.2122194E-05  0.2400241E+04  0.7818609E-02  0.8439413E-01
        2   -1    0    0  501    0  0.00000000000E+00  0.00000000000E+00  0.10346300174E+04  0.10346300174E+04  0.25500000920E-02 0.  1.
       -2   -1    0    0    0  501  0.00000000000E+00  0.00000000000E+00 -0.13920819530E+04  0.13920819530E+04  0.25500000920E-02 0. -1.
    10030    2    1    2    0    0  0.00000000000E+00  0.00000000000E+00 -0.35745193559E+03  0.24267119704E+04  0.24002414672E+04 0.  0.
        3    1    3    3  502    0 -0.44198187432E+02  0.22572981024E+03  0.10121358715E+04  0.10379433797E+04  0.10100000352E+00 0.  1.
       -3    1    3    3    0  502  0.44198187432E+02 -0.22572981024E+03 -0.13695878071E+04  0.13887685907E+04  0.10100000352E+00 0. -1.
</event>
<event>
 5   0  0.2080257E-05  0.2364843E+04  0.7818609E-02  0.8452784E-01
        2   -1    0    0  501    0  0.00000000000E+00  0.00000000000E+00  0.10415407242E+04  0.10415407242E+04  0.25500000920E-02 0.  1.
       -2   -1    0    0    0  501  0.00000000000E+00  0.00000000000E+00 -0.13423584217E+04  0.13423584217E+04  0.25500000920E-02 0. -1.
    10030    2    1    2    0    0  0.00000000000E+00  0.00000000000E+00 -0.30081769747E+03  0.23838991459E+04  0.23648433036E+04 0.  0.
        1    1    3    3  502    0  0.74551930225E+03 -0.57677446798E+03 -0.87006138990E+03  0.12827605541E+04  0.50400001928E-02 0. -1.
       -1    1    3    3    0  502 -0.74551930225E+03  0.57677446798E+03  0.56924369243E+03  0.11011385918E+04  0.50400001928E-02 0.  1.
</event>
<event>
 5   0  0.8528103E-06  0.2402029E+04  0.7818609E-02  0.8438744E-01
        1   -1    0    0  501    0  0.00000000000E+00  0.00000000000E+00  0.16973464334E+04  0.16973464334E+04  0.50400001928E-02 0. -1.
       -1   -1    0    0    0  501  0.00000000000E+00  0.00000000000E+00 -0.84981818171E+03  0.84981818173E+03  0.50400001928E-02 0.  1.
    10030    2    1    2    0    0  0.00000000000E+00  0.00000000000E+00  0.84752825168E+03  0.25471646151E+04  0.24020290255E+04 0.  0.
        4    1    3    3  502    0 -0.82628999360E+03 -0.48265905638E+03 -0.34584177650E+03  0.10175082631E+04  0.12699999809E+01 0.  1.
       -4    1    3    3    0  502  0.82628999360E+03  0.48265905638E+03  0.11933700282E+04  0.15296563520E+04  0.12699999809E+01 0. -1.
</event>
<event>
 5   0  0.2122194E-05  0.2341729E+04  0.7818609E-02  0.8461647E-01
       -2   -1    0    0    0  501  0.00000000000E+00  0.00000000000E+00  0.63890810406E+03  0.63890810406E+03  0.25500000920E-02 0. -1.
        2   -1    0    0  501    0  0.00000000000E+00  0.00000000000E+00 -0.21457285408E+04  0.21457285408E+04  0.25500000920E-02 0.  1.
    10030    2    1    2    0    0  0.00000000000E+00  0.00000000000E+00 -0.15068204367E+04  0.27846366448E+04  0.23417287237E+04 0.  0.
        3    1    3    3  502    0  0.11646412394E+04  0.82058283677E+02 -0.85843577415E+03  0.14491496703E+04  0.10100000352E+00 0.  1.
       -3    1    3    3    0  502 -0.11646412394E+04 -0.82058283677E+02 -0.64838466257E+03  0.13354869746E+04  0.10100000352E+00 0. -1.
</event>
<event>
 5   0  0.2080257E-05  0.2409022E+04  0.7818609E-02  0.8436134E-01
       -2   -1    0    0    0  501  0.00000000000E+00  0.00000000000E+00  0.10573464940E+04  0.10573464940E+04  0.25500000920E-02 0. -1.
        2   -1    0    0  501    0  0.00000000000E+00  0.00000000000E+00 -0.13721577197E+04  0.13721577197E+04  0.25500000920E-02 0.  1.
    10030    2    1    2    0    0  0.00000000000E+00  0.00000000000E+00 -0.31481122563E+03  0.24295042137E+04  0.24090215061E+04 0.  0.
        1    1    3    3  502    0  0.78402162700E+03  0.25458953778E+03 -0.10431328943E+04  0.13295232151E+04  0.50400001928E-02 0.  1.
       -1    1    3    3    0  502 -0.78402162700E+03 -0.25458953778E+03  0.72832166862E+03  0.10999809986E+04  0.50400001928E-02 0. -1.
</event>
<event>
 5   0  0.9083687E-06  0.2437449E+04  0.7818609E-02  0.8425615E-01
        1   -1    0    0  501    0  0.00000000000E+00  0.00000000000E+00  0.13049062628E+04  0.13049062628E+04  0.50400001928E-02 0.  1.
       -1   -1    0    0    0  501  0.00000000000E+00  0.00000000000E+00 -0.11382349365E+04  0.11382349365E+04  0.50400001928E-02 0. -1.
    10030    2    1    2    0    0  0.00000000000E+00  0.00000000000E+00  0.16667132625E+03  0.24431411993E+04  0.24374494023E+04 0.  0.
        2    1    3    3  502    0  0.95288813328E+03  0.13136530410E+03  0.83343955553E+03  0.12727427589E+04  0.25500000920E-02 0.  1.
       -2    1    3    3    0  502 -0.95288813328E+03 -0.13136530410E+03 -0.66676822927E+03  0.11703984404E+04  0.25500000920E-02 0. -1.
</event>
<event>
 5   0  0.2048028E-05  0.2390656E+04  0.7818609E-02  0.8443010E-01
        2   -1    0    0  501    0  0.00000000000E+00  0.00000000000E+00  0.16139764272E+04  0.16139764272E+04  0.25500000920E-02 0.  1.
       -2   -1    0    0    0  501  0.00000000000E+00  0.00000000000E+00 -0.88527250642E+03  0.88527250643E+03  0.25500000920E-02 0. -1.
    10030    2    1    2    0    0  0.00000000000E+00  0.00000000000E+00  0.72870392080E+03  0.24992489337E+04  0.23906559410E+04 0.  0.
        5    1    3    3  502    0  0.99687465532E+02 -0.11831975720E+04  0.22065737842E+03  0.12077275578E+04  0.46999998093E+01 0.  1.
       -5    1    3    3    0  502 -0.99687465532E+02  0.11831975720E+04  0.50804654238E+03  0.12915213759E+04  0.46999998093E+01 0. -1.
</event>
<event>
 5   0  0.9038897E-06  0.2396744E+04  0.7818609E-02  0.8440724E-01
       -1   -1    0    0    0  501  0.00000000000E+00  0.00000000000E+00  0.73824340023E+03  0.73824340025E+03  0.50400001928E-02 0.  1.
        1   -1    0    0  501    0  0.00000000000E+00  0.00000000000E+00 -0.19452864984E+04  0.19452864984E+04  0.50400001928E-02 0. -1.
    10030    2    1    2    0    0  0.00000000000E+00  0.00000000000E+00 -0.12070430982E+04  0.26835298986E+04  0.23967435566E+04 0.  0.
        1    1    3    3  502    0  0.66260903258E+03 -0.74785280223E+03 -0.13443251655E+04  0.16749760280E+04  0.50400001928E-02 0.  1.
       -1    1    3    3    0  502 -0.66260903258E+03  0.74785280223E+03  0.13728206736E+03  0.10085538706E+04  0.50400001928E-02 0. -1.
</event>
<event>
 5   0  0.2080257E-05  0.2365218E+04  0.7818609E-02  0.8452641E-01
       -2   -1    0    0    0  501  0.00000000000E+00  0.00000000000E+00  0.78549630692E+03  0.78549630693E+03  0.25500000920E-02 0. -1.
        2   -1    0    0  501    0  0.00000000000E+00  0.00000000000E+00 -0.17804845353E+04  0.17804845353E+04  0.25500000920E-02 0.  1.
    10030    2    1    2    0    0  0.00000000000E+00  0.00000000000E+00 -0.99498822834E+03  0.25659808422E+04  0.23652179832E+04 0.  0.
        1    1    3    3  502    0 -0.10296985293E+04 -0.58087330424E+03 -0.52951502846E+03  0.12954068945E+04  0.50400001928E-02 0.  1.
       -1    1    3    3    0  502  0.10296985293E+04  0.58087330424E+03 -0.46547319988E+03  0.12705739477E+04  0.50400001928E-02 0. -1.
</event>
<event>
 5   0  0.2087882E-05  0.2400234E+04  0.7818609E-02  0.8439416E-01
        2   -1    0    0  501    0  0.00000000000E+00  0.00000000000E+00  0.12784304285E+04  0.12784304285E+04  0.25500000920E-02 0. -1.
       -2   -1    0    0    0  501  0.00000000000E+00  0.00000000000E+00 -0.11266007659E+04  0.11266007659E+04  0.25500000920E-02 0.  1.
    10030    2    1    2    0    0  0.00000000000E+00  0.00000000000E+00  0.15182966258E+03  0.24050311943E+04  0.24002339051E+04 0.  0.
        2    1    3    3  502    0  0.10501151848E+03  0.64454791308E+02  0.12720758466E+04  0.12780292636E+04  0.25500000920E-02 0. -1.
       -2    1    3    3    0  502 -0.10501151848E+03 -0.64454791308E+02 -0.11202461840E+04  0.11270019307E+04  0.25500000920E-02 0.  1.
</event>
<event>
 5   0  0.8898848E-06  0.2395313E+04  0.7818609E-02  0.8441261E-01
       -1   -1    0    0    0  501  0.00000000000E+00  0.00000000000E+00  0.79872658279E+03  0.79872658281E+03  0.50400001928E-02 0. -1.
        1   -1    0    0  501    0  0.00000000000E+00  0.00000000000E+00 -0.17958343492E+04  0.17958343492E+04  0.50400001928E-02 0.  1.
    10030    2    1    2    0    0  0.00000000000E+00  0.00000000000E+00 -0.99710776640E+03  0.25945609320E+04  0.23953126168E+04 0.  0.
        5    1    3    3  502    0  0.34373622139E+03 -0.66589982008E+03 -0.15104930587E+04  0.16861757116E+04  0.46999998093E+01 0.  1.
       -5    1    3    3    0  502 -0.34373622139E+03  0.66589982008E+03  0.51338529226E+03  0.90838522037E+03  0.46999998093E+01 0. -1.
</event>
<event>
 5   0  0.9176817E-06  0.2360365E+04  0.7818609E-02  0.8454493E-01
        1   -1    0    0  501    0  0.00000000000E+00  0.00000000000E+00  0.25528653156E+04  0.25528653156E+04  0.50400001928E-02 0.  1.
       -1   -1    0    0    0  501  0.00000000000E+00  0.00000000000E+00 -0.54559506736E+03  0.54559506738E+03  0.50400001928E-02 0. -1.
    10030    2    1    2    0    0  0.00000000000E+00  0.00000000000E+00  0.20072702482E+04  0.30984603830E+04  0.23603649920E+04 0.  0.
        3    1    3    3  502    0  0.11218203891E+04 -0.10608162861E+03  0.14641985932E+04  0.18475962297E+04  0.10100000352E+00 0.  1.
       -3    1    3    3    0  502 -0.11218203891E+04  0.10608162861E+03  0.54307165502E+03  0.12508641533E+04  0.10100000352E+00 0. -1.
</event>
<event>
 5   0  0.2080257E-05  0.2436286E+04  0.7818609E-02  0.8426042E-01
       -2   -1    0    0    0  501  0.00000000000E+00  0.00000000000E+00  0.96171399413E+03  0.96171399413E+03  0.25500000920E-02 0.  1.
        2   -1    0    0  501    0  0.00000000000E+00  0.00000000000E+00 -0.15429451917E+04  0.15429451917E+04  0.25500000920E-02 0. -1.
    10030    2    1    2    0    0  0.00000000000E+00  0.00000000000E+00 -0.58123119756E+03  0.25046591858E+04  0.24362856836E+04 0.  0.
        1    1    3    3  502    0  0.41203929666E+03  0.10105143333E+04 -0.84706016826E+03  0.13814581168E+04  0.50400001928E-02 0. -1.
       -1    1    3    3    0  502 -0.41203929666E+03 -0.10105143333E+04  0.26582897069E+03  0.11232010690E+04  0.50400001928E-02 0.  1.
</event>
<event>
 5   0  0.2048028E-05  0.2400129E+04  0.7818609E-02  0.8439455E-01
        2   -1    0    0  501    0  0.00000000000E+00  0.00000000000E+00  0.25643022272E+04  0.25643022272E+04  0.25500000920E-02 0. -1.
       -2   -1    0    0    0  501  0.00000000000E+00  0.00000000000E+00 -0.56161678267E+03  0.56161678267E+03  0.25500000920E-02 0.  1.
    10030    2    1    2    0    0  0.00000000000E+00  0.00000000000E+00  0.20026854446E+04  0.31259190099E+04  0.24001293021E+04 0.  0.
        5    1    3    3  502    0  0.23179838636E+02  0.59803975211E+03 -0.35336472863E+03  0.69503782017E+03  0.46999998093E+01 0.  1.
       -5    1    3    3    0  502 -0.23179838636E+02 -0.59803975211E+03  0.23560501732E+04  0.24308811897E+04  0.46999998093E+01 0. -1.
</event>
<event>
 5   0  0.8898848E-06  0.2459567E+04  0.7818609E-02  0.8417533E-01
       -1   -1    0    0    0  501  0.00000000000E+00  0.00000000000E+00  0.85388500103E+03  0.85388500105E+03  0.50400001928E-02 0.  1.
        1   -1    0    0  501    0  0.00000000000E+00  0.00000000000E+00 -0.17711606919E+04  0.17711606919E+04  0.50400001928E-02 0. -1.
    10030    2    1    2    0    0  0.00000000000E+00  0.00000000000E+00 -0.91727569086E+03  0.26250456929E+04  0.24595670751E+04 0.  0.
        5    1    3    3  502    0 -0.86325434050E+02 -0.97051489666E+03  0.34217339871E+03  0.10326935509E+04  0.46999998093E+01 0.  1.
       -5    1    3    3    0  502  0.86325434050E+02  0.97051489666E+03 -0.12594490896E+04  0.15923521421E+04  0.46999998093E+01 0. -1.
</event>
<event>
 5   0  0.2080257E-05  0.2416636E+04  0.7818609E-02  0.8433301E-01
        2   -1    0    0  501    0  0.00000000000E+00  0.00000000000E+00  0.14392402425E+04  0.14392402425E+04  0.25500000920E-02 0. -1.
       -2   -1    0    0    0  501  0.00000000000E+00  0.00000000000E+00 -0.10144469429E+04  0.10144469429E+04  0.25500000920E-02 0.  1.
    10030    2    1    2    0    0  0.00000000000E+00  0.00000000000E+00  0.42479329956E+03  0.24536871854E+04  0.24166363931E+04 0.  0.
        1    1    3    3  502    0 -0.58426045242E+03  0.41940715947E+03  0.11982465839E+04  0.13975183425E+04  0.50400001928E-02 0.  1.
       -1    1    3    3    0  502  0.58426045242E+03 -0.41940715947E+03 -0.77345328437E+03  0.10561688429E+04  0.50400001928E-02 0. -1.
</event>
<event>
 5   0  0.9038897E-06  0.2383508E+04  0.7818609E-02  0.8445704E-01
        1   -1    0    0  501    0  0.00000000000E+00  0.00000000000E+00  0.16674725864E+04  0.16674725864E+04  0.50400001928E-02 0.  1.
       -1   -1    0    0    0  501  0.00000000000E+00  0.00000000000E+00 -0.85175446726E+03  0.85175446727E+03  0.50400001928E-02 0. -1.
    10030    2    1    2    0    0  0.00000000000E+00  0.00000000000E+00  0.81571811910E+03  0.25192270536E+04  0.23835076878E+04 0.  0.
        1    1    3    3  502    0  0.51961362973E+03 -0.16171884813E+03  0.15284787115E+04  0.16224667891E+04  0.50400001928E-02 0.  1.
       -1    1    3    3    0  502 -0.51961362973E+03  0.16171884813E+03 -0.71276059240E+03  0.89676026459E+03  0.50400001928E-02 0. -1.
</event>
<event>
 5   0  0.2122194E-05  0.2413512E+04  0.7818609E-02  0.8434462E-01
        2   -1    0    0  501    0  0.00000000000E+00  0.00000000000E+00  0.74049111761E+03  0.74049111761E+03  0.25500000920E-02 0. -1.
       -2   -1    0    0    0  501  0.00000000000E+00  0.00000000000E+00 -0.19666144068E+04  0.19666144068E+04  0.25500000920E-02 0.  1.
    10030    2    1    2    0    0  0.00000000000E+00  0.00000000000E+00 -0.12261232892E+04  0.27071055244E+04  0.24135123783E+04 0.  0.
        3    1    3    3  502    0  0.71412546378E+03 -0.38250109361E+03  0.39015501975E+03  0.89916806786E+03  0.10100000352E+00 0. -1.
       -3    1    3    3    0  502 -0.71412546378E+03  0.38250109361E+03 -0.16162783089E+04  0.18079374565E+04  0.10100000352E+00 0.  1.
</event>
<event>
 5   0  0.2025353E-05  0.2421095E+04  0.7818609E-02  0.8431648E-01
       -2   -1    0    0    0  501  0.00000000000E+00  0.00000000000E+00  0.16662242592E+04  0.16662242592E+04  0.25500000920E-02 0. -1.
        2   -1    0    0  501    0  0.00000000000E+00  0.00000000000E+00 -0.87948881054E+03  0.87948881054E+03  0.25500000920E-02 0.  1.
    10030    2    1    2    0    0  0.00000000000E+00  0.00000000000E+00  0.78673544868E+03  0.25457130698E+04  0.24210952826E+04 0.  0.
        4    1    3    3  502    0  0.64603548983E+03 -0.75963689567E+01 -0.68304575583E+03  0.94019821123E+03  0.12699999809E+01 0.  1.
       -4    1    3    3    0  502 -0.64603548983E+03  0.75963689567E+01  0.14697812045E+04  0.16055148585E+04  0.12699999809E+01 0. -1.
</event>
<event>
 5   0  0.2087882E-05  0.2421381E+04  0.7818609E-02  0.8431542E-01
       -2   -1    0    0    0  501  0.00000000000E+00  0.00000000000E+00  0.15057651535E+04  0.15057651535E+04  0.25500000920E-02 0.  1.
        2   -1    0    0  501    0  0.00000000000E+00  0.00000000000E+00 -0.97343978725E+03  0.97343978725E+03  0.25500000920E-02 0. -1.
    10030    2    1    2    0    0  0.00000000000E+00  0.00000000000E+00  0.53232536622E+03  0.24792049407E+04  0.24213811849E+04 0.  0.
        2    1    3    3  502    0  0.66118263949E+03  0.10041527139E+04  0.12033048673E+03  0.12082899411E+04  0.25500000920E-02 0.  1.
       -2    1    3    3    0  502 -0.66118263949E+03 -0.10041527139E+04  0.41199487949E+03  0.12709149997E+04  0.25500000920E-02 0. -1.
</event>
<event>
 5   0  0.2087882E-05  0.2423088E+04  0.7818609E-02  0.8430910E-01
        2   -1    0    0  501    0  0.00000000000E+00  0.00000000000E+00  0.21869536345E+04  0.21869536345E+04  0.25500000920E-02 0. -1.
       -2   -1    0    0    0  501  0.00000000000E+00  0.00000000000E+00 -0.67117971439E+03  0.67117971440E+03  0.25500000920E-02 0.  1.
    10030    2    1    2    0    0  0.00000000000E+00  0.00000000000E+00  0.15157739201E+04  0.28581333489E+04  0.24230880428E+04 0.  0.
        2    1    3    3  502    0 -0.45313757542E+03  0.77717227170E+03  0.17150677852E+04  0.19366950999E+04  0.25500000920E-02 0. -1.
       -2    1    3    3    0  502  0.45313757542E+03 -0.77717227170E+03 -0.19929386504E+03  0.92143824905E+03  0.25500000920E-02 0.  1.
</event>
<event>
 5   0  0.2080257E-05  0.2408853E+04  0.7818609E-02  0.8436197E-01
        2   -1    0    0  501    0  0.00000000000E+00  0.00000000000E+00  0.18313781987E+04  0.18313781987E+04  0.25500000920E-02 0.  1.
       -2   -1    0    0    0  501  0.00000000000E+00  0.00000000000E+00 -0.79210476258E+03  0.79210476259E+03  0.25500000920E-02 0. -1.
    10030    2    1    2    0    0  0.00000000000E+00  0.00000000000E+00  0.10392734361E+04  0.26234829613E+04  0.24088531655E+04 0.  0.
        1    1    3    3  502    0 -0.73462050421E+03 -0.14357693977E+03 -0.50802735098E+03  0.90463993512E+03  0.50400001928E-02 0. -1.
       -1    1    3    3    0  502  0.73462050421E+03  0.14357693977E+03  0.15473007871E+04  0.17188430262E+04  0.50400001928E-02 0.  1.
</event>
<event>
 5   0  0.8898848E-06  0.2420446E+04  0.7818609E-02  0.8431888E-01
       -1   -1    0    0    0  501  0.00000000000E+00  0.00000000000E+00  0.48855086084E+03  0.48855086087E+03  0.50400001928E-02 0.  1.
        1   -1    0    0  501    0  0.00000000000E+00  0.00000000000E+00 -0.29979259256E+04  0.29979259256E+04  0.50400001928E-02 0. -1.
    10030    2    1    2    0    0  0.00000000000E+00  0.00000000000E+00 -0.25093750648E+04  0.34864767865E+04  0.24204456546E+04 0.  0.
        5    1    3    3  502    0  0.20458917829E+03 -0.91189859536E+03 -0.14714815312E+03  0.94609219902E+03  0.46999998093E+01 0. -1.
       -5    1    3    3    0  502 -0.20458917829E+03  0.91189859536E+03 -0.23622269117E+04  0.25403845875E+04  0.46999998093E+01 0.  1.
</event>
<event>
 5   0  0.9038897E-06  0.2384207E+04  0.7818609E-02  0.8445440E-01
        1   -1    0    0  501    0  0.00000000000E+00  0.00000000000E+00  0.17697573695E+04  0.17697573695E+04  0.50400001928E-02 0.  1.
       -1   -1    0    0    0  501  0.00000000000E+00  0.00000000000E+00 -0.80299751402E+03  0.80299751404E+03  0.50400001928E-02 0. -1.
    10030    2    1    2    0    0  0.00000000000E+00  0.00000000000E+00  0.96675985549E+03  0.25727548836E+04  0.23842070113E+04 0.  0.
        1    1    3    3  502    0  0.44029866442E+03 -0.72925178221E+03 -0.41649921873E+03  0.94823134043E+03  0.50400001928E-02 0. -1.
       -1    1    3    3    0  502 -0.44029866442E+03  0.72925178221E+03  0.13832590742E+04  0.16245235431E+04  0.50400001928E-02 0.  1.
</event>
<event>
 5   0  0.2080257E-05  0.2405273E+04  0.7818609E-02  0.8437532E-01
       -2   -1    0    0    0  501  0.00000000000E+00  0.00000000000E+00  0.57966792688E+03  0.57966792689E+03  0.25500000920E-02 0. -1.
        2   -1    0    0  501    0  0.00000000000E+00  0.00000000000E+00 -0.24951095390E+04  0.24951095390E+04  0.25500000920E-02 0.  1.
    10030    2    1    2    0    0  0.00000000000E+00  0.00000000000E+00 -0.19154416121E+04  0.30747774659E+04  0.24052733515E+04 0.  0.
        1    1    3    3  502    0  0.10927348515E+04  0.49577785455E+03 -0.10605451448E+04  0.16014434554E+04  0.50400001928E-02 0.  1.
       -1    1    3    3    0  502 -0.10927348515E+04 -0.49577785455E+03 -0.85489646729E+03  0.14733340105E+04  0.50400001928E-02 0. -1.
</event>
<event>
 5   0  0.9083687E-06  0.2378555E+04  0.7818609E-02  0.8447576E-01
        1   -1    0    0  501    0  0.00000000000E+00  0.00000000000E+00  0.13577343818E+04  0.13577343818E+04  0.50400001928E-02 0.  1.
       -1   -1    0    0    0  501  0.00000000000E+00  0.00000000000E+00 -0.10417213778E+04  0.10417213778E+04  0.50400001928E-02 0. -1.
    10030    2    1    2    0    0  0.00000000000E+00  0.00000000000E+00  0.31601300394E+03  0.23994557596E+04  0.23785549655E+04 0.  0.
        2    1    3    3  502    0 -0.29976332629E+03  0.64419423486E+03  0.11200831226E+04  0.13264352474E+04  0.25500000920E-02 0.  1.
       -2    1    3    3    0  502  0.29976332629E+03 -0.64419423486E+03 -0.80407011862E+03  0.10730205122E+04  0.25500000920E-02 0. -1.
</event>
<event>
 5   0  0.9176817E-06  0.2376224E+04  0.7818609E-02  0.8448459E-01
       -1   -1    0    0    0  501  0.00000000000E+00  0.00000000000E+00  0.11494654622E+04  0.11494654623E+04  0.50400001928E-02 0.  1.
        1   -1    0    0  501    0  0.00000000000E+00  0.00000000000E+00 -0.12280574440E+04  0.12280574440E+04  0.50400001928E-02 0. -1.
    10030    2    1    2    0    0  0.00000000000E+00  0.00000000000E+00 -0.78591981772E+02  0.23775229063E+04  0.23762235733E+04 0.  0.
        3    1    3    3  502    0 -0.67708551649E+03  0.88089688549E+03 -0.46046022604E+03  0.12026835617E+04  0.10100000352E+00 0. -1.
       -3    1    3    3    0  502  0.67708551649E+03 -0.88089688549E+03  0.38186824426E+03  0.11748393446E+04  0.10100000352E+00 0.  1.
</event>
<event>
 5   0  0.8528103E-06  0.2379785E+04  0.7818609E-02  0.8447111E-01
       -1   -1    0    0    0  501  0.00000000000E+00  0.00000000000E+00  0.17623307999E+04  0.17623307999E+04  0.50400001928E-02 0.  1.
        1   -1    0    0  501    0  0.00000000000E+00  0.00000000000E+00 -0.80339274124E+03  0.80339274126E+03  0.50400001928E-02 0. -1.
    10030    2    1    2    0    0  0.00000000000E+00  0.00000000000E+00  0.95893805869E+03  0.25657235412E+04  0.23797846729E+04 0.  0.
        4    1    3    3  502    0  0.93780141608E+03 -0.33601382159E+03 -0.22211734964E+03  0.10206441663E+04  0.12699999809E+01 0. -1.
       -4    1    3    3    0  502 -0.93780141608E+03  0.33601382159E+03  0.11810554083E+04  0.15450793749E+04  0.12699999809E+01 0.  1.
</event>
<event>
 5   0  0.2080257E-05  0.2321808E+04  0.7818609E-02  0.8469372E-01
        2   -1    0    0  501    0  0.00000000000E+00  0.00000000000E+00  0.12644515928E+04  0.12644515928E+04  0.25500000920E-02 0. -1.
       -2   -1    0    0    0  501  0.00000000000E+00  0.00000000000E+00 -0.10658356715E+04  0.10658356715E+04  0.25500000920E-02 0.  1.
    10030    2    1    2    0    0  0.00000000000E+00  0.00000000000E+00  0.19861592128E+03  0.23302872643E+04  0.23218075825E+04 0.  0.
        1    1    3    3  502    0  0.89052278090E+03 -0.73836442022E+03  0.19705344146E+03  0.11734747118E+04  0.50400001928E-02 0.  1.
       -1    1    3    3    0  502 -0.89052278090E+03  0.73836442022E+03  0.15624798260E+01  0.11568125525E+04  0.50400001928E-02 0. -1.
</event>
<event>
 5   0  0.9083687E-06  0.2412775E+04  0.7818609E-02  0.8434736E-01
        1   -1    0    0  501    0  0.00000000000E+00  0.00000000000E+00  0.11047220980E+04  0.11047220980E+04  0.50400001928E-02 0. -1.
       -1   -1    0    0    0  501  0.00000000000E+00  0.00000000000E+00 -0.13174086165E+04  0.13174086165E+04  0.50400001928E-02 0.  1.
    10030    2    1    2    0    0  0.00000000000E+00  0.00000000000E+00 -0.21268651843E+03  0.24221307145E+04  0.24127746772E+04 0.  0.
        2    1    3    3  502    0  0.34293196216E+03 -0.75252224480E+02  0.10523008815E+04  0.11093251882E+04  0.25500000920E-02 0. -1.
       -2    1    3    3    0  502 -0.34293196216E+03  0.75252224480E+02 -0.12649873999E+04  0.13128055263E+04  0.25500000920E-02 0.  1.
</event>
<event>
 5   0  0.9176817E-06  0.2354000E+04  0.7818609E-02  0.8456929E-01
        1   -1    0    0  501    0  0.00000000000E+00  0.00000000000E+00  0.16035843866E+04  0.16035843866E+04  0.50400001928E-02 0.  1.
       -1   -1    0    0    0  501  0.00000000000E+00  0.00000000000E+00 -0.86389559205E+03  0.86389559207E+03  0.50400001928E-02 0. -1.
    10030    2    1    2    0    0  0.00000000000E+00  0.00000000000E+00  0.73968879450E+03  0.24674799786E+04  0.23540004104E+04 0.  0.
        3    1    3    3  502    0 -0.41541445282E+03  0.83282843427E+03 -0.38541563699E+03  0.10073319175E+04  0.10100000352E+00 0. -1.
       -3    1    3    3    0  502  0.41541445282E+03 -0.83282843427E+03  0.11251044315E+04  0.14601480611E+04  0.10100000352E+00 0.  1.
</event>
<event>
 5   0  0.8898848E-06  0.2407350E+04  0.7818609E-02  0.8436757E-01
        1   -1    0    0  501    0  0.00000000000E+00  0.00000000000E+00  0.14483218146E+04  0.14483218146E+04  0.50400001928E-02 0.  1.
       -1   -1    0    0    0  501  0.00000000000E+00  0.00000000000E+00 -0.10003529127E+04  0.10003529127E+04  0.50400001928E-02 0. -1.
    10030    2    1    2    0    0  0.00000000000E+00  0.00000000000E+00  0.44796890192E+03  0.24486747274E+04  0.24073495349E+04 0.  0.
        5    1    3    3  502    0  0.75097885121E+03  0.65882619119E+03  0.90691874991E+03  0.13492756924E+04  0.46999998093E+01 0.  1.
       -5    1    3    3    0  502 -0.75097885121E+03 -0.65882619119E+03 -0.45894984798E+03  0.10993990350E+04  0.46999998093E+01 0. -1.
</event>
<event>
 5   0  0.2080257E-05  0.2387818E+04  0.7818609E-02  0.8444078E-01
       -2   -1    0    0    0  501  0.00000000000E+00  0.00000000000E+00  0.88752261769E+03  0.88752261769E+03  0.25500000920E-02 0. -1.
        2   -1    0    0  501    0  0.00000000000E+00  0.00000000000E+00 -0.16060651783E+04  0.16060651783E+04  0.25500000920E-02 0.  1.
    10030    2    1    2    0    0  0.00000000000E+00  0.00000000000E+00 -0.71854256061E+03  0.24935877960E+04  0.23878183945E+04 0.  0.
        1    1    3    3  502    0  0.11444915451E+04 -0.23642619334E+03 -0.61434656368E+03  0.13202953995E+04  0.50400001928E-02 0.  1.
       -1    1    3    3    0  502 -0.11444915451E+04  0.23642619334E+03 -0.10419599693E+03  0.11732923964E+04  0.50400001928E-02 0. -1.
</event>
<event>
 5   0  0.8898848E-06  0.2403883E+04  0.7818609E-02  0.8438051E-01
        1   -1    0    0  501    0  0.00000000000E+00  0.00000000000E+00  0.24255045289E+04  0.24255045290E+04  0.50400001928E-02 0. -1.
       -1   -1    0    0    0  501  0.00000000000E+00  0.00000000000E+00 -0.59561359597E+03  0.59561359599E+03  0.50400001928E-02 0.  1.
    10030    2    1    2    0    0  0.00000000000E+00  0.00000000000E+00  0.18298909330E+04  0.30211181249E+04  0.24038830875E+04 0.  0.
        5    1    3    3  502    0  0.62669382850E+03 -0.14310984818E+03  0.21912997924E+04  0.22836467445E+04  0.46999998093E+01 0. -1.
       -5    1    3    3    0  502 -0.62669382850E+03  0.14310984818E+03 -0.36140885944E+03  0.73747138046E+03  0.46999998093E+01 0.  1.
</event>
<event>
 5   0  0.2087882E-05  0.2395882E+04  0.7818609E-02  0.8441047E-01
        2   -1    0    0  501    0  0.00000000000E+00  0.00000000000E+00  0.79326289367E+03  0.79326289368E+03  0.25500000920E-02 0.  1.
       -2   -1    0    0    0  501  0.00000000000E+00  0.00000000000E+00 -0.18090630184E+04  0.18090630184E+04  0.25500000920E-02 0. -1.
    10030    2    1    2    0    0  0.00000000000E+00  0.00000000000E+00 -0.10158001247E+04  0.26023259121E+04  0.23958819377E+04 0.  0.
        2    1    3    3  502    0 -0.22324019985E+03  0.34534844418E+03  0.71419898883E+03  0.82412494828E+03  0.25500000920E-02 0.  1.
       -2    1    3    3    0  502  0.22324019985E+03 -0.34534844418E+03 -0.17299991136E+04  0.17782009638E+04  0.25500000920E-02 0. -1.
</event>
<event>
 5   0  0.9083687E-06  0.2250783E+04  0.7818609E-02  0.8497584E-01
        1   -1    0    0  501    0  0.00000000000E+00  0.00000000000E+00  0.20322375409E+04  0.20322375409E+04  0.50400001928E-02 0. -1.
       -1   -1    0    0    0  501  0.00000000000E+00  0.00000000000E+00 -0.62320743970E+03  0.62320743973E+03  0.50400001928E-02 0.  1.
    10030    2    1    2    0    0  0.00000000000E+00  0.00000000000E+00  0.14090301012E+04  0.26554449806E+04  0.22507825793E+04 0.  0.
        2    1    3    3  502    0 -0.35814026063E+03  0.10233079140E+04  0.10605725138E+04  0.15166534179E+04  0.25500000920E-02 0. -1.
       -2    1    3    3    0  502  0.35814026063E+03 -0.10233079140E+04  0.34845758734E+03  0.11387915627E+04  0.25500000920E-02 0.  1.
</event>
<event>
 5   0  0.2048028E-05  0.2380534E+04  0.7818609E-02  0.8446827E-01
       -2   -1    0    0    0  501  0.00000000000E+00  0.00000000000E+00  0.77787015179E+03  0.77787015180E+03  0.25500000920E-02 0.  1.
        2   -1    0    0  501    0  0.00000000000E+00  0.00000000000E+00 -0.18213014794E+04  0.18213014794E+04  0.25500000920E-02 0. -1.
    10030    2    1    2    0    0  0.00000000000E+00  0.00000000000E+00 -0.10434313276E+04  0.25991716311E+04  0.23805344427E+04 0.  0.
        5    1    3    3  502    0 -0.38350732323E+03 -0.94468839097E+03  0.14885770108E+03  0.10303857182E+04  0.46999998093E+01 0.  1.
       -5    1    3    3    0  502  0.38350732323E+03  0.94468839097E+03 -0.11922890286E+04  0.15687859130E+04  0.46999998093E+01 0. -1.
</event>
<event>
 5   0  0.2025353E-05  0.2396335E+04  0.7818609E-02  0.8440877E-01
        2   -1    0    0  501    0  0.00000000000E+00  0.00000000000E+00  0.94988948097E+03  0.94988948097E+03  0.25500000920E-02 0.  1.
       -2   -1    0    0    0  501  0.00000000000E+00  0.00000000000E+00 -0.15113389686E+04  0.15113389686E+04  0.25500000920E-02 0. -1.
    10030    2    1    2    0    0  0.00000000000E+00  0.00000000000E+00 -0.56144948761E+03  0.24612284496E+04  0.23963346915E+04 0.  0.
        4    1    3    3  502    0 -0.99914884321E+03 -0.35898515141E+03 -0.85113327859E+03  0.13607344416E+04  0.12699999809E+01 0. -1.
       -4    1    3    3    0  502  0.99914884321E+03  0.35898515141E+03  0.28968379098E+03  0.11004940079E+04  0.12699999809E+01 0.  1.
</event>
<event>
 5   0  0.2025353E-05  0.2409082E+04  0.7818609E-02  0.8436111E-01
       -2   -1    0    0    0  501  0.00000000000E+00  0.00000000000E+00  0.49550843801E+03  0.49550843801E+03  0.25500000920E-02 0. -1.
        2   -1    0    0  501    0  0.00000000000E+00  0.00000000000E+00 -0.29281426704E+04  0.29281426704E+04  0.25500000920E-02 0.  1.
    10030    2    1    2    0    0  0.00000000000E+00  0.00000000000E+00 -0.24326342324E+04  0.34236511084E+04  0.24090823156E+04 0.  0.
        4    1    3    3  502    0  0.56437467638E+03  0.90020724588E+03 -0.40985628159E+03  0.11388044807E+04  0.12699999809E+01 0. -1.
       -4    1    3    3    0  502 -0.56437467638E+03 -0.90020724588E+03 -0.20227779508E+04  0.22848466276E+04  0.12699999809E+01 0.  1.
</event>
<event>
 5   0  0.8898848E-06  0.2393119E+04  0.7818609E-02  0.8442084E-01
        1   -1    0    0  501    0  0.00000000000E+00  0.00000000000E+00  0.12648610582E+04  0.12648610582E+04  0.50400001928E-02 0. -1.
       -1   -1    0    0    0  501  0.00000000000E+00  0.00000000000E+00 -0.11319459799E+04  0.11319459799E+04  0.50400001928E-02 0.  1.
    10030    2    1    2    0    0  0.00000000000E+00  0.00000000000E+00  0.13291507830E+03  0.23968070380E+04  0.23931187934E+04 0.  0.
        5    1    3    3  502    0 -0.99191491478E+03 -0.48391616811E+03 -0.39649098777E+03  0.11727306806E+04  0.46999998093E+01 0.  1.
       -5    1    3    3    0  502  0.99191491478E+03  0.48391616811E+03  0.52940606607E+03  0.12240763574E+04  0.46999998093E+01 0. -1.
</event>
<event>
 5   0  0.8898848E-06  0.2324733E+04  0.7818609E-02  0.8468233E-01
        1   -1    0    0  501    0  0.00000000000E+00  0.00000000000E+00  0.11813746061E+04  0.11813746061E+04  0.50400001928E-02 0.  1.
       -1   -1    0    0    0  501  0.00000000000E+00  0.00000000000E+00 -0.11436640610E+04  0.11436640610E+04  0.50400001928E-02 0. -1.
    10030    2    1    2    0    0  0.00000000000E+00  0.00000000000E+00  0.37710545160E+02  0.23250386671E+04  0.23247328273E+04 0.  0.
        5    1    3    3  502    0 -0.30916011391E+03  0.10865723749E+04  0.29248601707E+03  0.11669574380E+04  0.46999998093E+01 0. -1.
       -5    1    3    3    0  502  0.30916011391E+03 -0.10865723749E+04 -0.25477547191E+03  0.11580812291E+04  0.46999998093E+01 0.  1.
</event>
<event>
 5   0  0.8898848E-06  0.2413711E+04  0.7818609E-02  0.8434388E-01
        1   -1    0    0  501    0  0.00000000000E+00  0.00000000000E+00  0.13525943606E+04  0.13525943606E+04  0.50400001928E-02 0.  1.
       -1   -1    0    0    0  501  0.00000000000E+00  0.00000000000E+00 -0.10768195840E+04  0.10768195840E+04  0.50400001928E-02 0. -1.
    10030    2    1    2    0    0  0.00000000000E+00  0.00000000000E+00  0.27577477655E+03  0.24294139446E+04  0.24137109162E+04 0.  0.
        5    1    3    3  502    0 -0.14860594053E+03  0.11972553153E+04  0.16929925603E+03  0.12182726886E+04  0.46999998093E+01 0.  1.
       -5    1    3    3    0  502  0.14860594053E+03 -0.11972553153E+04  0.10647552053E+03  0.12111412560E+04  0.46999998093E+01 0. -1.
</event>
<event>
 5   0  0.2025353E-05  0.2402471E+04  0.7818609E-02  0.8438579E-01
       -2   -1    0    0    0  501  0.00000000000E+00  0.00000000000E+00  0.13468390385E+04  0.13468390385E+04  0.25500000920E-02 0. -1.
        2   -1    0    0  501    0  0.00000000000E+00  0.00000000000E+00 -0.10713731515E+04  0.10713731515E+04  0.25500000920E-02 0.  1.
    10030    2    1    2    0    0  0.00000000000E+00  0.00000000000E+00  0.27546588702E+03  0.24182121900E+04  0.24024713819E+04 0.  0.
        4    1    3    3  502    0  0.76231449516E+03 -0.82026181813E+03  0.57533737705E+03  0.12589549437E+04  0.12699999809E+01 0.  1.
       -4    1    3    3    0  502 -0.76231449516E+03  0.82026181813E+03 -0.29987149003E+03  0.11592572464E+04  0.12699999809E+01 0. -1.
</event>
<event>
 5   0  0.2048028E-05  0.2405810E+04  0.7818609E-02  0.8437332E-01
       -2   -1    0    0    0  501  0.00000000000E+00  0.00000000000E+00  0.61332808490E+03  0.61332808490E+03  0.25500000920E-02 0.  1.
        2   -1    0    0  501    0  0.00000000000E+00  0.00000000000E+00 -0.23592274115E+04  0.23592274115E+04  0.25500000920E-02 0. -1.
    10030    2    1    2    0    0  0.00000000000E+00  0.00000000000E+00 -0.17458993266E+04  0.29725554965E+04  0.24058099926E+04 0.  0.
        5    1    3    3  502    0 -0.62794147175E+03 -0.10253066515E+04 -0.82681593801E+03  0.14591815880E+04  0.46999998093E+01 0. -1.
       -5    1    3    3    0  502  0.62794147175E+03  0.10253066515E+04 -0.91908338864E+03  0.15133739084E+04  0.46999998093E+01 0.  1.
</event>
<event>
 5   0  0.9176817E-06  0.2449536E+04  0.7818609E-02  0.8421187E-01
       -1   -1    0    0    0  501  0.00000000000E+00  0.00000000000E+00  0.69218989126E+03  0.69218989128E+03  0.50400001928E-02 0. -1.
        1   -1    0    0  501    0  0.00000000000E+00  0.00000000000E+00 -0.21671177089E+04  0.21671177089E+04  0.50400001928E-02 0.  1.
    10030    2    1    2    0    0  0.00000000000E+00  0.00000000000E+00 -0.14749278177E+04  0.28593076002E+04  0.24495362592E+04 0.  0.
        3    1    3    3  502    0  0.11094244005E+04 -0.43281075014E+03 -0.40338915741E+03  0.12573267150E+04  0.10100000352E+00 0. -1.
       -3    1    3    3    0  502 -0.11094244005E+04  0.43281075014E+03 -0.10715386602E+04  0.16019808852E+04  0.10100000352E+00 0.  1.
</event>
<event>
 5   0  0.2025353E-05  0.2400291E+04  0.7818609E-02  0.8439395E-01
       -2   -1    0    0    0  501  0.00000000000E+00  0.00000000000E+00  0.13736717299E+04  0.13736717299E+04  0.25500000920E-02 0.  1.
        2   -1    0    0  501    0  0.00000000000E+00  0.00000000000E+00 -0.10485394956E+04  0.10485394956E+04  0.25500000920E-02 0. -1.
    10030    2    1    2    0    0  0.00000000000E+00  0.00000000000E+00  0.32513223424E+03  0.24222112255E+04  0.24002908680E+04 0.  0.
        4    1    3    3  502    0 -0.81484773723E+03 -0.29165903965E+03 -0.67647488288E+03  0.10984815476E+04  0.12699999809E+01 0. -1.
       -4    1    3    3    0  502  0.81484773723E+03  0.29165903965E+03  0.10016071171E+04  0.13237296779E+04  0.12699999809E+01 0.  1.
</event>
<event>
 5   0  0.2080257E-05  0.2527252E+04  0.7818609E-02  0.8393341E-01
       -2   -1    0    0    0  501  0.00000000000E+00  0.00000000000E+00  0.17295349989E+04  0.17295349989E+04  0.25500000920E-02 0. -1.
        2   -1    0    0  501    0  0.00000000000E+00  0.00000000000E+00 -0.92322565143E+03  0.92322565143E+03  0.25500000920E-02 0.  1.
    10030    2    1    2    0    0  0.00000000000E+00  0.00000000000E+00  0.80630934744E+03  0.26527606503E+04  0.25272523230E+04 0.  0.
        1    1    3    3  502    0 -0.80478087640E+03  0.17236361618E+03 -0.60330072128E+03  0.10204671653E+04  0.50400001928E-02 0.  1.
       -1    1    3    3    0  502  0.80478087640E+03 -0.17236361618E+03  0.14096100687E+04  0.16322934850E+04  0.50400001928E-02 0. -1.
</event>
<event>
 5   0  0.9038897E-06  0.2402121E+04  0.7818609E-02  0.8438710E-01
        1   -1    0    0  501    0  0.00000000000E+00  0.00000000000E+00  0.11474380256E+04  0.11474380256E+04  0.50400001928E-02 0.  1.
       -1   -1    0    0    0  501  0.00000000000E+00  0.00000000000E+00 -0.12571891141E+04  0.12571891141E+04  0.50400001928E-02 0. -1.
    10030    2    1    2    0    0  0.00000000000E+00  0.00000000000E+00 -0.10975108847E+03  0.24046271397E+04  0.24021212250E+04 0.  0.
        1    1    3    3  502    0 -0.53748404627E+03 -0.10141803278E+04  0.29918221348E+03  0.11861537987E+04  0.50400001928E-02 0.  1.
       -1    1    3    3    0  502  0.53748404627E+03  0.10141803278E+04 -0.40893330195E+03  0.12184733410E+04  0.50400001928E-02 0. -1.
</event>
<event>
 5   0  0.2122194E-05  0.2408339E+04  0.7818609E-02  0.8436388E-01
       -2   -1    0    0    0  501  0.00000000000E+00  0.00000000000E+00  0.84508272666E+03  0.84508272666E+03  0.25500000920E-02 0.  1.
        2   -1    0    0  501    0  0.00000000000E+00  0.00000000000E+00 -0.17158375699E+04  0.17158375699E+04  0.25500000920E-02 0. -1.
    10030    2    1    2    0    0  0.00000000000E+00  0.00000000000E+00 -0.87075484328E+03  0.25609202966E+04  0.24083394214E+04 0.  0.
        3    1    3    3  502    0 -0.11238491222E+04 -0.42218457301E+03 -0.33592091069E+03  0.12466433057E+04  0.10100000352E+00 0. -1.
       -3    1    3    3    0  502  0.11238491222E+04  0.42218457301E+03 -0.53483393259E+03  0.13142769909E+04  0.10100000352E+00 0.  1.
</event>
<event>
 5   0  0.9176817E-06  0.2402936E+04  0.7818609E-02  0.8438405E-01
        1   -1    0    0  501    0  0.00000000000E+00  0.00000000000E+00  0.16890499779E+04  0.16890499779E+04  0.50400001928E-02 0.  1.
       -1   -1    0    0    0  501  0.00000000000E+00  0.00000000000E+00 -0.85463727896E+03  0.85463727897E+03  0.50400001928E-02 0. -1.
    10030    2    1    2    0    0  0.00000000000E+00  0.00000000000E+00  0.83441269892E+03  0.25436872569E+04  0.24029357687E+04 0.  0.
        3    1    3    3  502    0 -0.44642670197E+03 -0.11034051951E+04  0.59026064191E+03  0.13286111020E+04  0.10100000352E+00 0. -1.
       -3    1    3    3    0  502  0.44642670197E+03  0.11034051951E+04  0.24415205701E+03  0.12150761548E+04  0.10100000352E+00 0.  1.
</event>
<event>
 5   0  0.8898848E-06  0.2365804E+04  0.7818609E-02  0.8452418E-01
        1   -1    0    0  501    0  0.00000000000E+00  0.00000000000E+00  0.50090813190E+03  0.50090813193E+03  0.50400001928E-02 0.  1.
       -1   -1    0    0    0  501  0.00000000000E+00  0.00000000000E+00 -0.27934414994E+04  0.27934414994E+04  0.50400001928E-02 0. -1.
    10030    2    1    2    0    0  0.00000000000E+00  0.00000000000E+00 -0.22925333675E+04  0.32943496313E+04  0.23658043563E+04 0.  0.
        5    1    3    3  502    0  0.20718114993E+03  0.57144785185E+03  0.26678685624E+03  0.66383280495E+03  0.46999998093E+01 0.  1.
       -5    1    3    3    0  502 -0.20718114993E+03 -0.57144785185E+03 -0.25593202238E+04  0.26305168264E+04  0.46999998093E+01 0. -1.
</event>
<event>
 5   0  0.9038897E-06  0.2396509E+04  0.7818609E-02  0.8440812E-01
       -1   -1    0    0    0  501  0.00000000000E+00  0.00000000000E+00  0.65909145475E+03  0.65909145476E+03  0.50400001928E-02 0.  1.
        1   -1    0    0  501    0  0.00000000000E+00  0.00000000000E+00 -0.21784736366E+04  0.21784736366E+04  0.50400001928E-02 0. -1.
    10030    2    1    2    0    0  0.00000000000E+00  0.00000000000E+00 -0.15193821819E+04  0.28375650914E+04  0.23965085924E+04 0.  0.
        1    1    3    3  502    0  0.17105713879E+03  0.75012337483E+03  0.32799614868E+03  0.83637736446E+03  0.50400001928E-02 0.  1.
       -1    1    3    3    0  502 -0.17105713879E+03 -0.75012337483E+03 -0.18473783306E+04  0.20011877269E+04  0.50400001928E-02 0. -1.
</event>
<event>
 5   0  0.9038897E-06  0.2584125E+04  0.7818609E-02  0.8373614E-01
        1   -1    0    0  501    0  0.00000000000E+00  0.00000000000E+00  0.12527834215E+04  0.12527834216E+04  0.50400001928E-02 0. -1.
       -1   -1    0    0    0  501  0.00000000000E+00  0.00000000000E+00 -0.13325732302E+04  0.13325732302E+04  0.50400001928E-02 0.  1.
    10030    2    1    2    0    0  0.00000000000E+00  0.00000000000E+00 -0.79789808674E+02  0.25853566518E+04  0.25841251137E+04 0.  0.
        1    1    3    3  502    0  0.75273177166E+03  0.63948437278E+03 -0.87328665012E+03  0.13183986333E+04  0.50400001928E-02 0.  1.
       -1    1    3    3    0  502 -0.75273177166E+03 -0.63948437278E+03  0.79349684144E+03  0.12669580184E+04  0.50400001928E-02 0. -1.
</event>
<event>
 5   0  0.2122194E-05  0.2394179E+04  0.7818609E-02  0.8441686E-01
        2   -1    0    0  501    0  0.00000000000E+00  0.00000000000E+00  0.15158982811E+04  0.15158982811E+04  0.25500000920E-02 0. -1.
       -2   -1    0    0    0  501  0.00000000000E+00  0.00000000000E+00 -0.94532948266E+03  0.94532948266E+03  0.25500000920E-02 0.  1.
    10030    2    1    2    0    0  0.00000000000E+00  0.00000000000E+00  0.57056879847E+03  0.24612277638E+04  0.23941790558E+04 0.  0.
        3    1    3    3  502    0 -0.51439919537E+03 -0.10748167601E+04  0.40332929945E+03  0.12579793854E+04  0.10100000352E+00 0. -1.
       -3    1    3    3    0  502  0.51439919537E+03  0.10748167601E+04  0.16723949903E+03  0.12032483784E+04  0.10100000352E+00 0.  1.
</event>
<event>
 5   0  0.9038897E-06  0.2097911E+04  0.7818609E-02  0.8562164E-01
       -1   -1    0    0    0  501  0.00000000000E+00  0.00000000000E+00  0.11841862831E+04  0.11841862831E+04  0.50400001928E-02 0. -1.
        1   -1    0    0  501    0  0.00000000000E+00  0.00000000000E+00 -0.92916759542E+03  0.92916759543E+03  0.50400001928E-02 0.  1.
    10030    2    1    2    0    0  0.00000000000E+00  0.00000000000E+00  0.25501868766E+03  0.21133538785E+04  0.20979108858E+04 0.  0.
        1    1    3    3  502    0 -0.15569479503E+03  0.10366034113E+04  0.16678376378E+03  0.10614161886E+04  0.50400001928E-02 0.  1.
       -1    1    3    3    0  502  0.15569479503E+03 -0.10366034113E+04  0.88234923878E+02  0.10519376899E+04  0.50400001928E-02 0. -1.
</event>
<event>
 5   0  0.9083687E-06  0.2411991E+04  0.7818609E-02  0.8435028E-01
        1   -1    0    0  501    0  0.00000000000E+00  0.00000000000E+00  0.15807879257E+04  0.15807879257E+04  0.50400001928E-02 0.  1.
       -1   -1    0    0    0  501  0.00000000000E+00  0.00000000000E+00 -0.92006357288E+03  0.92006357289E+03  0.50400001928E-02 0. -1.
    10030    2    1    2    0    0  0.00000000000E+00  0.00000000000E+00  0.66072435284E+03  0.25008514986E+04  0.24119911998E+04 0.  0.
        2    1    3    3  502    0 -0.30287207145E+03 -0.11653713496E+04  0.26001334939E+03  0.12318396065E+04  0.25500000920E-02 0. -1.
       -2    1    3    3    0  502  0.30287207145E+03  0.11653713496E+04  0.40071100346E+03  0.12690118922E+04  0.25500000920E-02 0.  1.
</event>
<event>
 5   0  0.8898848E-06  0.2287611E+04  0.7818609E-02  0.8482822E-01
       -1   -1    0    0    0  501  0.00000000000E+00  0.00000000000E+00  0.92765708632E+03  0.92765708634E+03  0.50400001928E-02 0. -1.
        1   -1    0    0  501    0  0.00000000000E+00  0.00000000000E+00 -0.14103179698E+04  0.14103179698E+04  0.50400001928E-02 0.  1.
    10030    2    1    2    0    0  0.00000000000E+00  0.00000000000E+00 -0.48266088350E+03  0.23379750562E+04  0.22876113819E+04 0.  0.
        5    1    3    3  502    0  0.80984658896E+03  0.35881974961E+03 -0.98091003681E+03  0.13216692857E+04  0.46999998093E+01 0.  1.
       -5    1    3    3    0  502 -0.80984658896E+03 -0.35881974961E+03  0.49824915332E+03  0.10163057705E+04  0.46999998093E+01 0. -1.
</event>
<event>
 5   0  0.2025353E-05  0.2396382E+04  0.7818609E-02  0.8440859E-01
        2   -1    0    0  501    0  0.00000000000E+00  0.00000000000E+00  0.13127405518E+04  0.13127405518E+04  0.25500000920E-02 0. -1.
       -2   -1    0    0    0  501  0.00000000000E+00  0.00000000000E+00 -0.10936371626E+04  0.10936371626E+04  0.25500000920E-02 0.  1.
    10030    2    1    2    0    0  0.00000000000E+00  0.00000000000E+00  0.21910338922E+03  0.24063777145E+04  0.23963821501E+04 0.  0.
        4    1    3    3  502    0  0.70795823053E+03  0.81159143913E+03  0.63688469038E+03  0.12512031178E+04  0.12699999809E+01 0. -1.
       -4    1    3    3    0  502 -0.70795823053E+03 -0.81159143913E+03 -0.41778130115E+03  0.11551745967E+04  0.12699999809E+01 0.  1.
</event>
<event>
 5   0  0.2122194E-05  0.2374799E+04  0.7818609E-02  0.8448999E-01
       -2   -1    0    0    0  501  0.00000000000E+00  0.00000000000E+00  0.13061138422E+04  0.13061138422E+04  0.25500000920E-02 0.  1.
        2   -1    0    0  501    0  0.00000000000E+00  0.00000000000E+00 -0.10794751408E+04  0.10794751408E+04  0.25500000920E-02 0. -1.
    10030    2    1    2    0    0  0.00000000000E+00  0.00000000000E+00  0.22663870137E+03  0.23855889830E+04  0.23747988746E+04 0.  0.
        3    1    3    3  502    0  0.41601725023E+02  0.11857544130E+04  0.16014856257E+03  0.11972434187E+04  0.10100000352E+00 0. -1.
       -3    1    3    3    0  502 -0.41601725023E+02 -0.11857544130E+04  0.66490138801E+02  0.11883455643E+04  0.10100000352E+00 0.  1.
</event>
<event>
 5   0  0.8528103E-06  0.2357526E+04  0.7818609E-02  0.8455579E-01
        1   -1    0    0  501    0  0.00000000000E+00  0.00000000000E+00  0.96974484135E+03  0.96974484137E+03  0.50400001928E-02 0. -1.
       -1   -1    0    0    0  501  0.00000000000E+00  0.00000000000E+00 -0.14328324034E+04  0.14328324034E+04  0.50400001928E-02 0.  1.
    10030    2    1    2    0    0  0.00000000000E+00  0.00000000000E+00 -0.46308756200E+03  0.24025772447E+04  0.23575256789E+04 0.  0.
        4    1    3    3  502    0 -0.82088911130E+03 -0.78460217962E+02  0.62684987816E+03  0.10358365322E+04  0.12699999809E+01 0. -1.
       -4    1    3    3    0  502  0.82088911130E+03  0.78460217962E+02 -0.10899374402E+04  0.13667407125E+04  0.12699999809E+01 0.  1.
</event>
<event>
 5   0  0.9083687E-06  0.2380362E+04  0.7818609E-02  0.8446892E-01
       -1   -1    0    0    0  501  0.00000000000E+00  0.00000000000E+00  0.21529708910E+04  0.21529708910E+04  0.50400001928E-02 0. -1.
        1   -1    0    0  501    0  0.00000000000E+00  0.00000000000E+00 -0.65794260587E+03  0.65794260589E+03  0.50400001928E-02 0.  1.
    10030    2    1    2    0    0  0.00000000000E+00  0.00000000000E+00  0.14950282851E+04  0.28109134969E+04  0.23803623912E+04 0.  0.
        2    1    3    3  502    0 -0.89463122477E+03 -0.35145169847E+03 -0.81329751510E+02  0.96462316642E+03  0.25500000920E-02 0.  1.
       -2    1    3    3    0  502  0.89463122477E+03  0.35145169847E+03  0.15763580366E+04  0.18462903305E+04  0.25500000920E-02 0. -1.
</event>
<event>
 5   0  0.8528103E-06  0.2408288E+04  0.7818609E-02  0.8436407E-01
        1   -1    0    0  501    0  0.00000000000E+00  0.00000000000E+00  0.18327202189E+04  0.18327202189E+04  0.50400001928E-02 0. -1.
       -1   -1    0    0    0  501  0.00000000000E+00  0.00000000000E+00 -0.79115305875E+03  0.79115305877E+03  0.50400001928E-02 0.  1.
    10030    2    1    2    0    0  0.00000000000E+00  0.00000000000E+00  0.10415671601E+04  0.26238732777E+04  0.24082875302E+04 0.  0.
        4    1    3    3  502    0 -0.40955625573E+03 -0.38366884595E+03 -0.63996123391E+03  0.85116984425E+03  0.12699999809E+01 0.  1.
       -4    1    3    3    0  502  0.40955625573E+03  0.38366884595E+03  0.16815283940E+04  0.17727034334E+04  0.12699999809E+01 0. -1.
</event>
<event>
 5   0  0.9038897E-06  0.2401588E+04  0.7818609E-02  0.8438909E-01
       -1   -1    0    0    0  501  0.00000000000E+00  0.00000000000E+00  0.18733011765E+04  0.18733011765E+04  0.50400001928E-02 0. -1.
        1   -1    0    0  501    0  0.00000000000E+00  0.00000000000E+00 -0.76971395400E+03  0.76971395402E+03  0.50400001928E-02 0.  1.
    10030    2    1    2    0    0  0.00000000000E+00  0.00000000000E+00  0.11035872225E+04  0.26430151305E+04  0.24015878544E+04 0.  0.
        1    1    3    3  502    0  0.10810291028E+03 -0.11076401508E+04  0.10480733936E+04  0.15287284851E+04  0.50400001928E-02 0. -1.
       -1    1    3    3    0  502 -0.10810291028E+03  0.11076401508E+04  0.55513828880E+02  0.11142866454E+04  0.50400001928E-02 0.  1.
</event>
<event>
 5   0  0.7233625E-06  0.2396881E+04  0.7818609E-02  0.8440672E-01
       -3   -1    0    0    0  501  0.00000000000E+00  0.00000000000E+00  0.17577950898E+04  0.17577950927E+04  0.10100000352E+00 0.  1.
        3   -1    0    0  501    0  0.00000000000E+00  0.00000000000E+00 -0.81707999939E+03  0.81708000564E+03  0.10100000352E+00 0. -1.
    10030    2    1    2    0    0  0.00000000000E+00  0.00000000000E+00  0.94071509041E+03  0.25748750983E+04  0.23968806584E+04 0.  0.
        1    1    3    3  502    0  0.36879327772E+03  0.99581276067E+03  0.10671359865E+04  0.15054669541E+04  0.50400001928E-02 0.  1.
       -1    1    3    3    0  502 -0.36879327772E+03 -0.99581276067E+03 -0.12642089614E+03  0.10694081443E+04  0.50400001928E-02 0. -1.
</event>
<event>
 5   0  0.8528103E-06  0.2392923E+04  0.7818609E-02  0.8442158E-01
        1   -1    0    0  501    0  0.00000000000E+00  0.00000000000E+00  0.22427616157E+04  0.22427616157E+04  0.50400001928E-02 0. -1.
       -1   -1    0    0    0  501  0.00000000000E+00  0.00000000000E+00 -0.63828469908E+03  0.63828469910E+03  0.50400001928E-02 0.  1.
    10030    2    1    2    0    0  0.00000000000E+00  0.00000000000E+00  0.16044769166E+04  0.28810463148E+04  0.23929232524E+04 0.  0.
        4    1    3    3  502    0  0.18260062706E+02  0.63638142295E+03 -0.41742029040E+03  0.76128579200E+03  0.12699999809E+01 0.  1.
       -4    1    3    3    0  502 -0.18260062706E+02 -0.63638142295E+03  0.20218972070E+04  0.21197605228E+04  0.12699999809E+01 0. -1.
</event>
<event>
 5   0  0.2025353E-05  0.2402871E+04  0.7818609E-02  0.8438429E-01
        2   -1    0    0  501    0  0.00000000000E+00  0.00000000000E+00  0.98181488354E+03  0.98181488354E+03  0.25500000920E-02 0.  1.
       -2   -1    0    0    0  501  0.00000000000E+00  0.00000000000E+00 -0.14701826656E+04  0.14701826656E+04  0.25500000920E-02 0. -1.
    10030    2    1    2    0    0  0.00000000000E+00  0.00000000000E+00 -0.48836778209E+03  0.24519975492E+04  0.24028709684E+04 0.  0.
        4    1    3    3  502    0  0.86903152485E+03  0.43425063532E+03 -0.96549932309E+03  0.13696641783E+04  0.12699999809E+01 0. -1.
       -4    1    3    3    0  502 -0.86903152485E+03 -0.43425063532E+03  0.47713154100E+03  0.10823333709E+04  0.12699999809E+01 0.  1.
</event>
<event>
 5   0  0.2025353E-05  0.2407294E+04  0.7818609E-02  0.8436778E-01
       -2   -1    0    0    0  501  0.00000000000E+00  0.00000000000E+00  0.65166127807E+03  0.65166127807E+03  0.25500000920E-02 0. -1.
        2   -1    0    0  501    0  0.00000000000E+00  0.00000000000E+00 -0.22231880052E+04  0.22231880052E+04  0.25500000920E-02 0.  1.
    10030    2    1    2    0    0  0.00000000000E+00  0.00000000000E+00 -0.15715267271E+04  0.28748492833E+04  0.24072935316E+04 0.  0.
        4    1    3    3  502    0  0.16094468323E+03 -0.96754361769E+03 -0.16189180943E+04  0.18928658833E+04  0.12699999809E+01 0.  1.
       -4    1    3    3    0  502 -0.16094468323E+03  0.96754361769E+03  0.47391367195E+02  0.98198339995E+03  0.12699999809E+01 0. -1.
</event>
<event>
 5   0  0.9038897E-06  0.2391431E+04  0.7818609E-02  0.8442719E-01
       -1   -1    0    0    0  501  0.00000000000E+00  0.00000000000E+00  0.10005977887E+04  0.10005977887E+04  0.50400001928E-02 0. -1.
        1   -1    0    0  501    0  0.00000000000E+00  0.00000000000E+00 -0.14288811298E+04  0.14288811299E+04  0.50400001928E-02 0.  1.
    10030    2    1    2    0    0  0.00000000000E+00  0.00000000000E+00 -0.42828334117E+03  0.24294789185E+04  0.23914307841E+04 0.  0.
        1    1    3    3  502    0  0.13688429439E+03  0.11773184001E+04 -0.37451194760E+03  0.12430105085E+04  0.50400001928E-02 0. -1.
       -1    1    3    3    0  502 -0.13688429439E+03 -0.11773184001E+04 -0.53771393571E+02  0.11864684101E+04  0.50400001928E-02 0.  1.
</event>
<event>
 5   0  0.8528103E-06  0.2378027E+04  0.7818609E-02  0.8447776E-01
        1   -1    0    0  501    0  0.00000000000E+00  0.00000000000E+00  0.16239517934E+04  0.16239517934E+04  0.50400001928E-02 0. -1.
       -1   -1    0    0    0  501  0.00000000000E+00  0.00000000000E+00 -0.87056326512E+03  0.87056326513E+03  0.50400001928E-02 0.  1.
    10030    2    1    2    0    0  0.00000000000E+00  0.00000000000E+00  0.75338852832E+03  0.24945150586E+04  0.23780267246E+04 0.  0.
        4    1    3    3  502    0  0.98791549808E+03  0.48590515289E+02 -0.31548748065E+03  0.10382061611E+04  0.12699999809E+01 0.  1.
       -4    1    3    3    0  502 -0.98791549808E+03 -0.48590515289E+02  0.10688760090E+04  0.14563088975E+04  0.12699999809E+01 0. -1.
</event>
<event>
 5   0  0.2025353E-05  0.2373567E+04  0.7818609E-02  0.8449467E-01
        2   -1    0    0  501    0  0.00000000000E+00  0.00000000000E+00  0.17411013831E+04  0.17411013831E+04  0.25500000920E-02 0. -1.
       -2   -1    0    0    0  501  0.00000000000E+00  0.00000000000E+00 -0.80894457301E+03  0.80894457301E+03  0.25500000920E-02 0.  1.
    10030    2    1    2    0    0  0.00000000000E+00  0.00000000000E+00  0.93215681009E+03  0.25500459561E+04  0.23735665273E+04 0.  0.
        4    1    3    3  502    0 -0.96290619750E+03  0.27175908284E+03  0.11518243861E+04  0.15256940629E+04  0.12699999809E+01 0. -1.
       -4    1    3    3    0  502  0.96290619750E+03 -0.27175908284E+03 -0.21966757599E+03  0.10243518932E+04  0.12699999809E+01 0.  1.
</event>
<event>
 5   0  0.2025353E-05  0.2389934E+04  0.7818609E-02  0.8443282E-01
       -2   -1    0    0    0  501  0.00000000000E+00  0.00000000000E+00  0.20514125308E+04  0.20514125308E+04  0.25500000920E-02 0.  1.
        2   -1    0    0  501    0  0.00000000000E+00  0.00000000000E+00 -0.69607956463E+03  0.69607956464E+03  0.25500000920E-02 0. -1.
    10030    2    1    2    0    0  0.00000000000E+00  0.00000000000E+00  0.13553329661E+04  0.27474920954E+04  0.23899341759E+04 0.  0.
        4    1    3    3  502    0 -0.49319022506E+03 -0.10878583869E+04  0.71867164409E+03  0.13939738207E+04  0.12699999809E+01 0. -1.
       -4    1    3    3    0  502  0.49319022506E+03  0.10878583869E+04  0.63666132204E+03  0.13535182747E+04  0.12699999809E+01 0.  1.
</event>
<event>
 5   0  0.2048028E-05  0.2408918E+04  0.7818609E-02  0.8436172E-01
       -2   -1    0    0    0  501  0.00000000000E+00  0.00000000000E+00  0.18832637239E+04  0.18832637239E+04  0.25500000920E-02 0.  1.
        2   -1    0    0  501    0  0.00000000000E+00  0.00000000000E+00 -0.77032300109E+03  0.77032300109E+03  0.25500000920E-02 0. -1.
    10030    2    1    2    0    0  0.00000000000E+00  0.00000000000E+00  0.11129407228E+04  0.26535867250E+04  0.24089179012E+04 0.  0.
        5    1    3    3  502    0 -0.57339635394E+02  0.15765814400E+03  0.18703206279E+04  0.18778352604E+04  0.46999998093E+01 0.  1.
       -5    1    3    3    0  502  0.57339635394E+02 -0.15765814400E+03 -0.75737990509E+03  0.77575146457E+03  0.46999998093E+01 0. -1.
</event>
<event>
 5   0  0.2080257E-05  0.2376567E+04  0.7818609E-02  0.8448329E-01
        2   -1    0    0  501    0  0.00000000000E+00  0.00000000000E+00  0.10079957090E+04  0.10079957090E+04  0.25500000920E-02 0.  1.
       -2   -1    0    0    0  501  0.00000000000E+00  0.00000000000E+00 -0.14008170041E+04  0.14008170041E+04  0.25500000920E-02 0. -1.
    10030    2    1    2    0    0  0.00000000000E+00  0.00000000000E+00 -0.39282129518E+03  0.24088127131E+04  0.23765668761E+04 0.  0.
        1    1    3    3  502    0 -0.79180025774E+03 -0.84015875277E+03 -0.48165970971E+03  0.12509238402E+04  0.50400001928E-02 0.  1.
       -1    1    3    3    0  502  0.79180025774E+03  0.84015875277E+03  0.88838414531E+02  0.11578888729E+04  0.50400001928E-02 0. -1.
</event>
<event>
 5   0  0.8898848E-06  0.2574756E+04  0.7818609E-02  0.8376827E-01
        1   -1    0    0  501    0  0.00000000000E+00  0.00000000000E+00  0.13598313904E+04  0.13598313904E+04  0.50400001928E-02 0.  1.
       -1   -1    0    0    0  501  0.00000000000E+00  0.00000000000E+00 -0.12187851395E+04  0.12187851396E+04  0.50400001928E-02 0. -1.
    10030    2    1    2    0    0  0.00000000000E+00  0.00000000000E+00  0.14104625087E+03  0.25786165300E+04  0.25747561368E+04 0.  0.
        5    1    3    3  502    0 -0.12476203266E+04  0.28191817280E+03 -0.75592384040E+02  0.12813159774E+04  0.46999998093E+01 0.  1.
       -5    1    3    3    0  502  0.12476203266E+04 -0.28191817280E+03  0.21663863491E+03  0.12973005525E+04  0.46999998093E+01 0. -1.
</event>
<event>
 5   0  0.2048028E-05  0.2401043E+04  0.7818609E-02  0.8439113E-01
       -2   -1    0    0    0  501  0.00000000000E+00  0.00000000000E+00  0.10848534824E+04  0.10848534824E+04  0.25500000920E-02 0. -1.
        2   -1    0    0  501    0  0.00000000000E+00  0.00000000000E+00 -0.13285224103E+04  0.13285224103E+04  0.25500000920E-02 0.  1.
    10030    2    1    2    0    0  0.00000000000E+00  0.00000000000E+00 -0.24366892797E+03  0.24133758927E+04  0.24010432426E+04 0.  0.
        5    1    3    3  502    0 -0.37907361729E+03 -0.10330189862E+01  0.10231090479E+04  0.10910875714E+04  0.46999998093E+01 0. -1.
       -5    1    3    3    0  502  0.37907361729E+03  0.10330189862E+01 -0.12667779759E+04  0.13222883213E+04  0.46999998093E+01 0.  1.
</event>
<event>
 5   0  0.9083687E-06  0.2410477E+04  0.7818609E-02  0.8435592E-01
        1   -1    0    0  501    0  0.00000000000E+00  0.00000000000E+00  0.13179169639E+04  0.13179169639E+04  0.50400001928E-02 0.  1.
       -1   -1    0    0    0  501  0.00000000000E+00  0.00000000000E+00 -0.11021936723E+04  0.11021936723E+04  0.50400001928E-02 0. -1.
    10030    2    1    2    0    0  0.00000000000E+00  0.00000000000E+00  0.21572329161E+03  0.24201106363E+04  0.24104769140E+04 0.  0.
        2    1    3    3  502    0  0.80906804880E+03  0.77195190266E+03 -0.34348914606E+03  0.11698229101E+04  0.25500000920E-02 0. -1.
       -2    1    3    3    0  502 -0.80906804880E+03 -0.77195190266E+03  0.55921243767E+03  0.12502877261E+04  0.25500000920E-02 0.  1.
</event>
<event>
 5   0  0.2048028E-05  0.2385095E+04  0.7818609E-02  0.8445105E-01
       -2   -1    0    0    0  501  0.00000000000E+00  0.00000000000E+00  0.11300122952E+04  0.11300122952E+04  0.25500000920E-02 0. -1.
        2   -1    0    0  501    0  0.00000000000E+00  0.00000000000E+00 -0.12585431519E+04  0.12585431519E+04  0.25500000920E-02 0.  1.
    10030    2    1    2    0    0  0.00000000000E+00  0.00000000000E+00 -0.12853085675E+03  0.23885554471E+04  0.23850947451E+04 0.  0.
        5    1    3    3  502    0  0.16001890138E+03 -0.87506380955E+03  0.73111895128E+03  0.11514771950E+04  0.46999998093E+01 0. -1.
       -5    1    3    3    0  502 -0.16001890138E+03  0.87506380955E+03 -0.85964980804E+03  0.12370782522E+04  0.46999998093E+01 0.  1.
</event>
<event>
 5   0  0.9176817E-06  0.2409307E+04  0.7818609E-02  0.8436027E-01
        1   -1    0    0  501    0  0.00000000000E+00  0.00000000000E+00  0.74350434242E+03  0.74350434243E+03  0.50400001928E-02 0.  1.
       -1   -1    0    0    0  501  0.00000000000E+00  0.00000000000E+00 -0.19518246973E+04  0.19518246973E+04  0.50400001928E-02 0. -1.
    10030    2    1    2    0    0  0.00000000000E+00  0.00000000000E+00 -0.12083203549E+04  0.26953290398E+04  0.24093070690E+04 0.  0.
        3    1    3    3  502    0  0.79798267611E+03  0.50328708585E+02 -0.16121723358E+04  0.17995579960E+04  0.10100000352E+00 0. -1.
       -3    1    3    3    0  502 -0.79798267611E+03 -0.50328708585E+02  0.40385198088E+03  0.89577104382E+03  0.10100000352E+00 0.  1.
</event>
<event>
 5   0  0.8528103E-06  0.2443351E+04  0.7818609E-02  0.8423450E-01
        1   -1    0    0  501    0  0.00000000000E+00  0.00000000000E+00  0.12890464327E+04  0.12890464327E+04  0.50400001928E-02 0. -1.
       -1   -1    0    0    0  501  0.00000000000E+00  0.00000000000E+00 -0.11578252546E+04  0.11578252546E+04  0.50400001928E-02 0.  1.
    10030    2    1    2    0    0  0.00000000000E+00  0.00000000000E+00  0.13122117811E+03  0.24468716874E+04  0.24433505800E+04 0.  0.
        4    1    3    3  502    0 -0.54432029338E+03  0.19425679010E+03  0.11434834750E+04  0.12812401620E+04  0.12699999809E+01 0. -1.
       -4    1    3    3    0  502  0.54432029338E+03 -0.19425679010E+03 -0.10122622969E+04  0.11656315253E+04  0.12699999809E+01 0.  1.
</event>
<event>
 5   0  0.9176817E-06  0.2299072E+04  0.7818609E-02  0.8478287E-01
        1   -1    0    0  501    0  0.00000000000E+00  0.00000000000E+00  0.14668129912E+04  0.14668129912E+04  0.50400001928E-02 0.  1.
       -1   -1    0    0    0  501  0.00000000000E+00  0.00000000000E+00 -0.90088726409E+03  0.90088726411E+03  0.50400001928E-02 0. -1.
    10030    2    1    2    0    0  0.00000000000E+00  0.00000000000E+00  0.56592572714E+03  0.23677002553E+04  0.22990721108E+04 0.  0.
        3    1    3    3  502    0 -0.84549714780E+03  0.33946689806E+03  0.10048357638E+04  0.13563915822E+04  0.10100000352E+00 0.  1.
       -3    1    3    3    0  502  0.84549714780E+03 -0.33946689806E+03 -0.43891003670E+03  0.10113086731E+04  0.10100000352E+00 0. -1.
</event>
<event>
 5   0  0.9176817E-06  0.2406687E+04  0.7818609E-02  0.8437004E-01
        1   -1    0    0  501    0  0.00000000000E+00  0.00000000000E+00  0.87110301451E+03  0.87110301453E+03  0.50400001928E-02 0.  1.
       -1   -1    0    0    0  501  0.00000000000E+00  0.00000000000E+00 -0.16623017803E+04  0.16623017803E+04  0.50400001928E-02 0. -1.
    10030    2    1    2    0    0  0.00000000000E+00  0.00000000000E+00 -0.79119876579E+03  0.25334047948E+04  0.24066874262E+04 0.  0.
        3    1    3    3  502    0 -0.11721864452E+04  0.11635814798E+03 -0.13673296548E+03  0.11858567345E+04  0.10100000352E+00 0.  1.
       -3    1    3    3    0  502  0.11721864452E+04 -0.11635814798E+03 -0.65446580031E+03  0.13475480603E+04  0.10100000352E+00 0. -1.
</event>
<event>
 5   0  0.2087882E-05  0.2393916E+04  0.7818609E-02  0.8441785E-01
       -2   -1    0    0    0  501  0.00000000000E+00  0.00000000000E+00  0.89067715224E+03  0.89067715224E+03  0.25500000920E-02 0.  1.
        2   -1    0    0  501    0  0.00000000000E+00  0.00000000000E+00 -0.16085604673E+04  0.16085604673E+04  0.25500000920E-02 0. -1.
    10030    2    1    2    0    0  0.00000000000E+00  0.00000000000E+00 -0.71788331507E+03  0.24992376196E+04  0.23939156679E+04 0.  0.
        2    1    3    3  502    0 -0.99484011898E+03 -0.29772659911E+03 -0.98041297452E+03  0.14281308031E+04  0.25500000920E-02 0. -1.
       -2    1    3    3    0  502  0.99484011898E+03  0.29772659911E+03  0.26252965945E+03  0.10711068165E+04  0.25500000920E-02 0.  1.
</event>
<event>
 5   0  0.8898848E-06  0.2400645E+04  0.7818609E-02  0.8439262E-01
       -1   -1    0    0    0  501  0.00000000000E+00  0.00000000000E+00  0.12620355846E+04  0.12620355846E+04  0.50400001928E-02 0. -1.
        1   -1    0    0  501    0  0.00000000000E+00  0.00000000000E+00 -0.11416273670E+04  0.11416273670E+04  0.50400001928E-02 0.  1.
    10030    2    1    2    0    0  0.00000000000E+00  0.00000000000E+00  0.12040821761E+03  0.24036629516E+04  0.24006452145E+04 0.  0.
        5    1    3    3  502    0 -0.10167334765E+04  0.55301899621E+03  0.37868460146E+03  0.12177853217E+04  0.46999998093E+01 0. -1.
       -5    1    3    3    0  502  0.10167334765E+04 -0.55301899621E+03 -0.25827638385E+03  0.11858776298E+04  0.46999998093E+01 0.  1.
</event>
<event>
 5   0  0.9083687E-06  0.2395413E+04  0.7818609E-02  0.8441223E-01
       -1   -1    0    0    0  501  0.00000000000E+00  0.00000000000E+00  0.11015988671E+04  0.11015988672E+04  0.50400001928E-02 0.  1.
        1   -1    0    0  501    0  0.00000000000E+00  0.00000000000E+00 -0.13021993374E+04  0.13021993374E+04  0.50400001928E-02 0. -1.
    10030    2    1    2    0    0  0.00000000000E+00  0.00000000000E+00 -0.20060047025E+03  0.24037982046E+04  0.23954133797E+04 0.  0.
        2    1    3    3  502    0 -0.14301773690E+03 -0.11103375539E+04 -0.52746354766E+03  0.12375465045E+04  0.25500000920E-02 0. -1.
       -2    1    3    3    0  502  0.14301773690E+03  0.11103375539E+04  0.32686307741E+03  0.11662517001E+04  0.25500000920E-02 0.  1.
</event>
<event>
 5   0  0.9176817E-06  0.2409486E+04  0.7818609E-02  0.8435961E-01
        1   -1    0    0  501    0  0.00000000000E+00  0.00000000000E+00  0.10631860764E+04  0.10631860764E+04  0.50400001928E-02 0. -1.
       -1   -1    0    0    0  501  0.00000000000E+00  0.00000000000E+00 -0.13651472864E+04  0.13651472864E+04  0.50400001928E-02 0.  1.
    10030    2    1    2    0    0  0.00000000000E+00  0.00000000000E+00 -0.30196120996E+03  0.24283333628E+04  0.24094859096E+04 0.  0.
        3    1    3    3  502    0  0.91574234062E+03  0.42148485399E+03  0.51385522662E+03  0.11314949053E+04  0.10100000352E+00 0. -1.
       -3    1    3    3    0  502 -0.91574234062E+03 -0.42148485399E+03 -0.81581643658E+03  0.12968384575E+04  0.10100000352E+00 0.  1.
</event>
<event>
 5   0  0.2080257E-05  0.2432689E+04  0.7818609E-02  0.8427366E-01
       -2   -1    0    0    0  501  0.00000000000E+00  0.00000000000E+00  0.15654201214E+04  0.15654201214E+04  0.25500000920E-02 0.  1.
        2   -1    0    0  501    0  0.00000000000E+00  0.00000000000E+00 -0.94511010429E+03  0.94511010429E+03  0.25500000920E-02 0. -1.
    10030    2    1    2    0    0  0.00000000000E+00  0.00000000000E+00  0.62031001709E+03  0.25105302257E+04  0.24326893547E+04 0.  0.
        1    1    3    3  502    0  0.11620428424E+04  0.35936272022E+03  0.31329234482E+03  0.12560402961E+04  0.50400001928E-02 0.  1.
       -1    1    3    3    0  502 -0.11620428424E+04 -0.35936272022E+03  0.30701767227E+03  0.12544899295E+04  0.50400001928E-02 0. -1.
</event>
<event>
 5   0  0.2087882E-05  0.2463101E+04  0.7818609E-02  0.8416250E-01
       -2   -1    0    0    0  501  0.00000000000E+00  0.00000000000E+00  0.78454596227E+03  0.78454596227E+03  0.25500000920E-02 0.  1.
        2   -1    0    0  501    0  0.00000000000E+00  0.00000000000E+00 -0.19332415713E+04  0.19332415713E+04  0.25500000920E-02 0. -1.
    10030    2    1    2    0    0  0.00000000000E+00  0.00000000000E+00 -0.11486956090E+04  0.27177875336E+04  0.24631011907E+04 0.  0.
        2    1    3    3  502    0  0.18849232762E+03 -0.98512516203E+03 -0.13628863886E+04  0.16921761878E+04  0.25500000920E-02 0. -1.
       -2    1    3    3    0  502 -0.18849232762E+03  0.98512516203E+03  0.21419077957E+03  0.10256113457E+04  0.25500000920E-02 0.  1.
</event>
<event>
 5   0  0.9176817E-06  0.2389527E+04  0.7818609E-02  0.8443435E-01
        1   -1    0    0  501    0  0.00000000000E+00  0.00000000000E+00  0.88327974240E+03  0.88327974242E+03  0.50400001928E-02 0. -1.
       -1   -1    0    0    0  501  0.00000000000E+00  0.00000000000E+00 -0.16160905312E+04  0.16160905312E+04  0.50400001928E-02 0.  1.
    10030    2    1    2    0    0  0.00000000000E+00  0.00000000000E+00 -0.73281078876E+03  0.24993702736E+04  0.23895271734E+04 0.  0.
        3    1    3    3  502    0  0.81987726153E+03 -0.77018370778E+03  0.54690619345E+02  0.11262205564E+04  0.10100000352E+00 0. -1.
       -3    1    3    3    0  502 -0.81987726153E+03  0.77018370778E+03 -0.78750140810E+03  0.13731497171E+04  0.10100000352E+00 0.  1.
</event>
<event>
 5   0  0.2080257E-05  0.2397667E+04  0.7818609E-02  0.8440377E-01
       -2   -1    0    0    0  501  0.00000000000E+00  0.00000000000E+00  0.10702269946E+04  0.10702269946E+04  0.25500000920E-02 0.  1.
        2   -1    0    0  501    0  0.00000000000E+00  0.00000000000E+00 -0.13428945222E+04  0.13428945223E+04  0.25500000920E-02 0. -1.
    10030    2    1    2    0    0  0.00000000000E+00  0.00000000000E+00 -0.27266752769E+03  0.24131215168E+04  0.23976671734E+04 0.  0.
        1    1    3    3  502    0  0.91426489613E+02  0.14863953937E+03 -0.13300433244E+04  0.13414424179E+04  0.50400001928E-02 0. -1.
       -1    1    3    3    0  502 -0.91426489613E+02 -0.14863953937E+03  0.10573757967E+04  0.10716790990E+04  0.50400001928E-02 0.  1.
</event>
<event>
 5   0  0.9038897E-06  0.2576827E+04  0.7818609E-02  0.8376115E-01
       -1   -1    0    0    0  501  0.00000000000E+00  0.00000000000E+00  0.83927275361E+03  0.83927275362E+03  0.50400001928E-02 0. -1.
        1   -1    0    0  501    0  0.00000000000E+00  0.00000000000E+00 -0.19779137724E+04  0.19779137724E+04  0.50400001928E-02 0.  1.
    10030    2    1    2    0    0  0.00000000000E+00  0.00000000000E+00 -0.11386410188E+04  0.28171865260E+04  0.25768268379E+04 0.  0.
        1    1    3    3  502    0 -0.88895478232E+03  0.87715919947E+03 -0.91566739135E+03  0.15485785863E+04  0.50400001928E-02 0.  1.
       -1    1    3    3    0  502  0.88895478232E+03 -0.87715919947E+03 -0.22297362742E+03  0.12686079397E+04  0.50400001928E-02 0. -1.
</event>
<event>
 5   0  0.9176817E-06  0.2401105E+04  0.7818609E-02  0.8439090E-01
       -1   -1    0    0    0  501  0.00000000000E+00  0.00000000000E+00  0.77298395193E+03  0.77298395195E+03  0.50400001928E-02 0. -1.
        1   -1    0    0  501    0  0.00000000000E+00  0.00000000000E+00 -0.18646264653E+04  0.18646264653E+04  0.50400001928E-02 0.  1.
    10030    2    1    2    0    0  0.00000000000E+00  0.00000000000E+00 -0.10916425134E+04  0.26376104173E+04  0.24011050240E+04 0.  0.
        3    1    3    3  502    0  0.86380589694E+03  0.65673603362E+03 -0.11100940806E+04  0.15523439449E+04  0.10100000352E+00 0.  1.
       -3    1    3    3    0  502 -0.86380589694E+03 -0.65673603362E+03  0.18451567189E+02  0.10852664723E+04  0.10100000352E+00 0. -1.
</event>
<event>
 5   0  0.2025353E-05  0.2410917E+04  0.7818609E-02  0.8435428E-01
       -2   -1    0    0    0  501  0.00000000000E+00  0.00000000000E+00  0.90621523256E+03  0.90621523256E+03  0.25500000920E-02 0. -1.
        2   -1    0    0  501    0  0.00000000000E+00  0.00000000000E+00 -0.16035158172E+04  0.16035158172E+04  0.25500000920E-02 0.  1.
    10030    2    1    2    0    0  0.00000000000E+00  0.00000000000E+00 -0.69730058463E+03  0.25097310497E+04  0.24109172190E+04 0.  0.
        4    1    3    3  502    0 -0.57245734766E+03 -0.96517116121E+03  0.10969816933E+03  0.11275185527E+04  0.12699999809E+01 0.  1.
       -4    1    3    3    0  502  0.57245734766E+03  0.96517116121E+03 -0.80699875396E+03  0.13822124971E+04  0.12699999809E+01 0. -1.
</event>
<event>
 5   0  0.2048028E-05  0.2395512E+04  0.7818609E-02  0.8441186E-01
       -2   -1    0    0    0  501  0.00000000000E+00  0.00000000000E+00  0.12489812791E+04  0.12489812791E+04  0.25500000920E-02 0. -1.
        2   -1    0    0  501    0  0.00000000000E+00  0.00000000000E+00 -0.11486311838E+04  0.11486311838E+04  0.25500000920E-02 0.  1.
    10030    2    1    2    0    0  0.00000000000E+00  0.00000000000E+00  0.10035009531E+03  0.23976124629E+04  0.23955115071E+04 0.  0.
        5    1    3    3  502    0  0.34069926257E+03 -0.74266186498E+03 -0.82636362438E+03  0.11621194271E+04  0.46999998093E+01 0.  1.
       -5    1    3    3    0  502 -0.34069926257E+03  0.74266186498E+03  0.92671371969E+03  0.12354930358E+04  0.46999998093E+01 0. -1.
</event>
<event>
 5   0  0.7233625E-06  0.2385927E+04  0.7818609E-02  0.8444791E-01
        3   -1    0    0  501    0  0.00000000000E+00  0.00000000000E+00  0.96760025297E+03  0.96760025824E+03  0.10100000352E+00 0. -1.
       -3   -1    0    0    0  501  0.00000000000E+00  0.00000000000E+00 -0.14708158642E+04  0.14708158677E+04  0.10100000352E+00 0.  1.
    10030    2    1    2    0    0  0.00000000000E+00  0.00000000000E+00 -0.50321561124E+03  0.24384161259E+04  0.23859269167E+04 0.  0.
        5    1    3    3  502    0  0.36009453824E+03 -0.94011370080E+03 -0.90573369706E+03  0.13541999361E+04  0.46999998093E+01 0.  1.
       -5    1    3    3    0  502 -0.36009453824E+03  0.94011370080E+03  0.40251808582E+03  0.10842161898E+04  0.46999998093E+01 0. -1.
</event>
<event>
 5   0  0.2080257E-05  0.2420664E+04  0.7818609E-02  0.8431808E-01
        2   -1    0    0  501    0  0.00000000000E+00  0.00000000000E+00  0.17179630190E+04  0.17179630190E+04  0.25500000920E-02 0. -1.
       -2   -1    0    0    0  501  0.00000000000E+00  0.00000000000E+00 -0.85269802845E+03  0.85269802845E+03  0.25500000920E-02 0.  1.
    10030    2    1    2    0    0  0.00000000000E+00  0.00000000000E+00  0.86526499051E+03  0.25706610474E+04  0.24206641066E+04 0.  0.
        1    1    3    3  502    0 -0.10397312414E+03  0.99632529825E+03  0.11540103543E+04  0.15281408339E+04  0.50400001928E-02 0. -1.
       -1    1    3    3    0  502  0.10397312414E+03 -0.99632529825E+03 -0.28874536375E+03  0.10425202135E+04  0.50400001928E-02 0.  1.
</event>
<event>
 5   0  0.2048028E-05  0.2395984E+04  0.7818609E-02  0.8441009E-01
        2   -1    0    0  501    0  0.00000000000E+00  0.00000000000E+00  0.15206298090E+04  0.15206298090E+04  0.25500000920E-02 0.  1.
       -2   -1    0    0    0  501  0.00000000000E+00  0.00000000000E+00 -0.94380915357E+03  0.94380915358E+03  0.25500000920E-02 0. -1.
    10030    2    1    2    0    0  0.00000000000E+00  0.00000000000E+00  0.57682065546E+03  0.24644389626E+04  0.23959835834E+04 0.  0.
        5    1    3    3  502    0  0.79828863307E+03  0.12841764311E+03 -0.62081748714E+03  0.10194078061E+04  0.46999998093E+01 0. -1.
       -5    1    3    3    0  502 -0.79828863307E+03 -0.12841764311E+03  0.11976381426E+04  0.14450311565E+04  0.46999998093E+01 0.  1.
</event>
<event>
 5   0  0.2025353E-05  0.2268957E+04  0.7818609E-02  0.8490262E-01
        2   -1    0    0  501    0  0.00000000000E+00  0.00000000000E+00  0.19610248218E+04  0.19610248218E+04  0.25500000920E-02 0. -1.
       -2   -1    0    0    0  501  0.00000000000E+00  0.00000000000E+00 -0.65631078225E+03  0.65631078225E+03  0.25500000920E-02 0.  1.
    10030    2    1    2    0    0  0.00000000000E+00  0.00000000000E+00  0.13047140396E+04  0.26173356041E+04  0.22689572361E+04 0.  0.
        4    1    3    3  502    0  0.30121277225E+03  0.80690682820E+03  0.15041144839E+04  0.17332598643E+04  0.12699999809E+01 0. -1.
       -4    1    3    3    0  502 -0.30121277225E+03 -0.80690682820E+03 -0.19940044433E+03  0.88407573978E+03  0.12699999809E+01 0.  1.
</event>
<event>
 5   0  0.9176817E-06  0.2401498E+04  0.7818609E-02  0.8438943E-01
       -1   -1    0    0    0  501  0.00000000000E+00  0.00000000000E+00  0.93503252376E+03  0.93503252377E+03  0.50400001928E-02 0. -1.
        1   -1    0    0  501    0  0.00000000000E+00  0.00000000000E+00 -0.15419761914E+04  0.15419761914E+04  0.50400001928E-02 0.  1.
    10030    2    1    2    0    0  0.00000000000E+00  0.00000000000E+00 -0.60694366765E+03  0.24770087152E+04  0.24014977742E+04 0.  0.
        3    1    3    3  502    0 -0.15077482467E+03 -0.65623039992E+03 -0.13289290253E+04  0.14897730532E+04  0.10100000352E+00 0.  1.
       -3    1    3    3    0  502  0.15077482467E+03  0.65623039992E+03  0.72198535763E+03  0.98723566202E+03  0.10100000352E+00 0. -1.
</event>
<event>
 5   0  0.9176817E-06  0.2361835E+04  0.7818609E-02  0.8453932E-01
        1   -1    0    0  501    0  0.00000000000E+00  0.00000000000E+00  0.11566804334E+04  0.11566804334E+04  0.50400001928E-02 0. -1.
       -1   -1    0    0    0  501  0.00000000000E+00  0.00000000000E+00 -0.12056619929E+04  0.12056619929E+04  0.50400001928E-02 0.  1.
    10030    2    1    2    0    0  0.00000000000E+00  0.00000000000E+00 -0.48981559485E+02  0.23623424264E+04  0.23618345722E+04 0.  0.
        3    1    3    3  502    0 -0.75497635123E+03 -0.80472677164E+03  0.39630285351E+03  0.11724463441E+04  0.10100000352E+00 0.  1.
       -3    1    3    3    0  502  0.75497635123E+03  0.80472677164E+03 -0.44528441299E+03  0.11898960823E+04  0.10100000352E+00 0. -1.
</event>
<event>
 5   0  0.2122194E-05  0.2394456E+04  0.7818609E-02  0.8441582E-01
       -2   -1    0    0    0  501  0.00000000000E+00  0.00000000000E+00  0.89386732306E+03  0.89386732307E+03  0.25500000920E-02 0.  1.
        2   -1    0    0  501    0  0.00000000000E+00  0.00000000000E+00 -0.16035427742E+04  0.16035427742E+04  0.25500000920E-02 0. -1.
    10030    2    1    2    0    0  0.00000000000E+00  0.00000000000E+00 -0.70967545110E+03  0.24974100972E+04  0.23944556684E+04 0.  0.
        3    1    3    3  502    0  0.66919997728E+03 -0.29236450274E+03 -0.13443384276E+04  0.15298860841E+04  0.10100000352E+00 0. -1.
       -3    1    3    3    0  502 -0.66919997728E+03  0.29236450274E+03  0.63466297653E+03  0.96752401315E+03  0.10100000352E+00 0.  1.
</event>
<event>
 5   0  0.2025353E-05  0.2400091E+04  0.7818609E-02  0.8439470E-01
       -2   -1    0    0    0  501  0.00000000000E+00  0.00000000000E+00  0.13832127311E+04  0.13832127311E+04  0.25500000920E-02 0.  1.
        2   -1    0    0  501    0  0.00000000000E+00  0.00000000000E+00 -0.10411332432E+04  0.10411332432E+04  0.25500000920E-02 0. -1.
    10030    2    1    2    0    0  0.00000000000E+00  0.00000000000E+00  0.34207948786E+03  0.24243459743E+04  0.24000906290E+04 0.  0.
        4    1    3    3  502    0 -0.60664146315E+03  0.41076125312E+02  0.12160997547E+04  0.13596327957E+04  0.12699999809E+01 0.  1.
       -4    1    3    3    0  502  0.60664146315E+03 -0.41076125312E+02 -0.87402026688E+03  0.10647131786E+04  0.12699999809E+01 0. -1.
</event>
<event>
 5   0  0.9083687E-06  0.2407599E+04  0.7818609E-02  0.8436664E-01
        1   -1    0    0  501    0  0.00000000000E+00  0.00000000000E+00  0.92359039611E+03  0.92359039612E+03  0.50400001928E-02 0.  1.
       -1   -1    0    0    0  501  0.00000000000E+00  0.00000000000E+00 -0.15690216098E+04  0.15690216098E+04  0.50400001928E-02 0. -1.
    10030    2    1    2    0    0  0.00000000000E+00  0.00000000000E+00 -0.64543121369E+03  0.24926120059E+04  0.24075990448E+04 0.  0.
        2    1    3    3  502    0 -0.41251337006E+03  0.11368660019E+03  0.84220001196E+03  0.94466543479E+03  0.25500000920E-02 0.  1.
       -2    1    3    3    0  502  0.41251337006E+03 -0.11368660019E+03 -0.14876312257E+04  0.15479465711E+04  0.25500000920E-02 0. -1.
</event>
<event>
 5   0  0.9038897E-06  0.2254873E+04  0.7818609E-02  0.8495930E-01
        1   -1    0    0  501    0  0.00000000000E+00  0.00000000000E+00  0.20398067405E+04  0.20398067405E+04  0.50400001928E-02 0. -1.
       -1   -1    0    0    0  501  0.00000000000E+00  0.00000000000E+00 -0.62315340244E+03  0.62315340246E+03  0.50400001928E-02 0.  1.
    10030    2    1    2    0    0  0.00000000000E+00  0.00000000000E+00  0.14166533381E+04  0.26629601430E+04  0.22548725114E+04 0.  0.
        1    1    3    3  502    0  0.75353315591E+03 -0.83848050607E+03  0.68962631739E+03  0.13215317755E+04  0.50400001928E-02 0. -1.
       -1    1    3    3    0  502 -0.75353315591E+03  0.83848050607E+03  0.72702702069E+03  0.13414283674E+04  0.50400001928E-02 0.  1.
</event>
<event>
 5   0  0.9083687E-06  0.2389056E+04  0.7818609E-02  0.8443612E-01
        1   -1    0    0  501    0  0.00000000000E+00  0.00000000000E+00  0.11910750984E+04  0.11910750984E+04  0.50400001928E-02 0. -1.
       -1   -1    0    0    0  501  0.00000000000E+00  0.00000000000E+00 -0.11979904160E+04  0.11979904160E+04  0.50400001928E-02 0.  1.
    10030    2    1    2    0    0  0.00000000000E+00  0.00000000000E+00 -0.69153175956E+01  0.23890655144E+04  0.23890555059E+04 0.  0.
        2    1    3    3  502    0  0.88842029172E+03  0.10504670536E+03 -0.79502343454E+03  0.11968239998E+04  0.25500000920E-02 0.  1.
       -2    1    3    3    0  502 -0.88842029172E+03 -0.10504670536E+03  0.78810811694E+03  0.11922415146E+04  0.25500000920E-02 0. -1.
</event>
<event>
 5   0  0.2025353E-05  0.2395302E+04  0.7818609E-02  0.8441264E-01
       -2   -1    0    0    0  501  0.00000000000E+00  0.00000000000E+00  0.62928474404E+03  0.62928474405E+03  0.25500000920E-02 0.  1.
        2   -1    0    0  501    0  0.00000000000E+00  0.00000000000E+00 -0.22793624091E+04  0.22793624091E+04  0.25500000920E-02 0. -1.
    10030    2    1    2    0    0  0.00000000000E+00  0.00000000000E+00 -0.16500776651E+04  0.29086471532E+04  0.23953020605E+04 0.  0.
        4    1    3    3  502    0 -0.57286994165E+03  0.20652566261E+02  0.45187374946E+03  0.72993013151E+03  0.12699999809E+01 0.  1.
       -4    1    3    3    0  502  0.57286994165E+03 -0.20652566261E+02 -0.21019514145E+04  0.21787170217E+04  0.12699999809E+01 0. -1.
</event>
<event>
 5   0  0.2025353E-05  0.2395717E+04  0.7818609E-02  0.8441109E-01
       -2   -1    0    0    0  501  0.00000000000E+00  0.00000000000E+00  0.13796830432E+04  0.13796830432E+04  0.25500000920E-02 0. -1.
        2   -1    0    0  501    0  0.00000000000E+00  0.00000000000E+00 -0.10399959292E+04  0.10399959292E+04  0.25500000920E-02 0.  1.
    10030    2    1    2    0    0  0.00000000000E+00  0.00000000000E+00  0.33968711395E+03  0.24196789724E+04  0.23957168018E+04 0.  0.
        4    1    3    3  502    0  0.69549676941E+03 -0.74243318680E+03 -0.46889021420E+03  0.11201707187E+04  0.12699999809E+01 0.  1.
       -4    1    3    3    0  502 -0.69549676941E+03  0.74243318680E+03  0.80857732815E+03  0.12995082538E+04  0.12699999809E+01 0. -1.
</event>
<event>
 5   0  0.2048028E-05  0.2388384E+04  0.7818609E-02  0.8443865E-01
        2   -1    0    0  501    0  0.00000000000E+00  0.00000000000E+00  0.12579065519E+04  0.12579065519E+04  0.25500000920E-02 0.  1.
       -2   -1    0    0    0  501  0.00000000000E+00  0.00000000000E+00 -0.11337043814E+04  0.11337043814E+04  0.25500000920E-02 0. -1.
    10030    2    1    2    0    0  0.00000000000E+00  0.00000000000E+00  0.12420217050E+03  0.23916109333E+04  0.23883836956E+04 0.  0.
        5    1    3    3  502    0 -0.82209009040E+03 -0.45180368656E+03  0.80209448379E+03  0.12342351230E+04  0.46999998093E+01 0.  1.
       -5    1    3    3    0  502  0.82209009040E+03  0.45180368656E+03 -0.67789231329E+03  0.11573758103E+04  0.46999998093E+01 0. -1.
</event>
<event>
 5   0  0.9176817E-06  0.2393645E+04  0.7818609E-02  0.8441887E-01
        1   -1    0    0  501    0  0.00000000000E+00  0.00000000000E+00  0.17455609288E+04  0.17455609288E+04  0.50400001928E-02 0. -1.
       -1   -1    0    0    0  501  0.00000000000E+00  0.00000000000E+00 -0.82058641027E+03  0.82058641029E+03  0.50400001928E-02 0.  1.
    10030    2    1    2    0    0  0.00000000000E+00  0.00000000000E+00  0.92497451851E+03  0.25661473391E+04  0.23936445655E+04 0.  0.
        3    1    3    3  502    0  0.11182661796E+04  0.48492698097E+02  0.82637503893E+01  0.11193476180E+04  0.10100000352E+00 0.  1.
       -3    1    3    3    0  502 -0.11182661796E+04 -0.48492698097E+02  0.91671076812E+03  0.14467997210E+04  0.10100000352E+00 0. -1.
</event>
<event>
 5   0  0.9083687E-06  0.2397480E+04  0.7818609E-02  0.8440448E-01
        1   -1    0    0  501    0  0.00000000000E+00  0.00000000000E+00  0.11981641389E+04  0.11981641389E+04  0.50400001928E-02 0. -1.
       -1   -1    0    0    0  501  0.00000000000E+00  0.00000000000E+00 -0.11993161089E+04  0.11993161090E+04  0.50400001928E-02 0.  1.
    10030    2    1    2    0    0  0.00000000000E+00  0.00000000000E+00 -0.11519700899E+01  0.23974802478E+04  0.23974799711E+04 0.  0.
        2    1    3    3  502    0 -0.82590003338E+03  0.84167562220E+03 -0.21609592728E+03  0.11988436795E+04  0.25500000920E-02 0.  1.
       -2    1    3    3    0  502  0.82590003338E+03 -0.84167562220E+03  0.21494395719E+03  0.11986365683E+04  0.25500000920E-02 0. -1.
</event>
<event>
 5   0  0.2080257E-05  0.2395414E+04  0.7818609E-02  0.8441223E-01
       -2   -1    0    0    0  501  0.00000000000E+00  0.00000000000E+00  0.10250295223E+04  0.10250295223E+04  0.25500000920E-02 0.  1.
        2   -1    0    0  501    0  0.00000000000E+00  0.00000000000E+00 -0.13994736549E+04  0.13994736549E+04  0.25500000920E-02 0. -1.
    10030    2    1    2    0    0  0.00000000000E+00  0.00000000000E+00 -0.37444413257E+03  0.24245031773E+04  0.23954137948E+04 0.  0.
        1    1    3    3  502    0  0.79096386092E+03 -0.77831663982E+03  0.26891823629E+03  0.11418045537E+04  0.50400001928E-02 0.  1.
       -1    1    3    3    0  502 -0.79096386092E+03  0.77831663982E+03 -0.64336236886E+03  0.12826986235E+04  0.50400001928E-02 0. -1.
</event>
<event>
 5   0  0.8528103E-06  0.2384907E+04  0.7818609E-02  0.8445176E-01
        1   -1    0    0  501    0  0.00000000000E+00  0.00000000000E+00  0.12812658354E+04  0.12812658354E+04  0.50400001928E-02 0. -1.
       -1   -1    0    0    0  501  0.00000000000E+00  0.00000000000E+00 -0.11097973799E+04  0.11097973799E+04  0.50400001928E-02 0.  1.
    10030    2    1    2    0    0  0.00000000000E+00  0.00000000000E+00  0.17146845548E+03  0.23910632153E+04  0.23849070985E+04 0.  0.
        4    1    3    3  502    0 -0.57978472867E+03 -0.49463094629E+03 -0.83376659347E+03  0.11295921609E+04  0.12699999809E+01 0.  1.
       -4    1    3    3    0  502  0.57978472867E+03  0.49463094629E+03  0.10052350489E+04  0.12614710544E+04  0.12699999809E+01 0. -1.
</event>
<event>
 5   0  0.2025353E-05  0.2403871E+04  0.7818609E-02  0.8438056E-01
        2   -1    0    0  501    0  0.00000000000E+00  0.00000000000E+00  0.19361686384E+04  0.19361686384E+04  0.25500000920E-02 0. -1.
       -2   -1    0    0    0  501  0.00000000000E+00  0.00000000000E+00 -0.74613792609E+03  0.74613792609E+03  0.25500000920E-02 0.  1.
    10030    2    1    2    0    0  0.00000000000E+00  0.00000000000E+00  0.11900307123E+04  0.26823065645E+04  0.24038709220E+04 0.  0.
        4    1    3    3  502    0  0.10232824785E+04  0.70009221012E+01  0.12985103726E+04  0.16532655093E+04  0.12699999809E+01 0. -1.
       -4    1    3    3    0  502 -0.10232824785E+04 -0.70009221012E+01 -0.10847966029E+03  0.10290410552E+04  0.12699999809E+01 0.  1.
</event>
<event>
 5   0  0.7233625E-06  0.2404952E+04  0.7818609E-02  0.8437652E-01
       -3   -1    0    0    0  501  0.00000000000E+00  0.00000000000E+00  0.14241857971E+04  0.14241858007E+04  0.10100000352E+00 0. -1.
        3   -1    0    0  501    0  0.00000000000E+00  0.00000000000E+00 -0.10152804654E+04  0.10152804704E+04  0.10100000352E+00 0.  1.
    10030    2    1    2    0    0  0.00000000000E+00  0.00000000000E+00  0.40890533168E+03  0.24394662711E+04  0.24049515832E+04 0.  0.
        3    1    3    3  502    0 -0.27009850003E+03 -0.11112179648E+04  0.58152609553E+03  0.12829384923E+04  0.10100000352E+00 0. -1.
       -3    1    3    3    0  502  0.27009850003E+03  0.11112179648E+04 -0.17262076385E+03  0.11565277789E+04  0.10100000352E+00 0.  1.
</event>
<event>
 5   0  0.2087882E-05  0.2417397E+04  0.7818609E-02  0.8433019E-01
       -2   -1    0    0    0  501  0.00000000000E+00  0.00000000000E+00  0.58287588935E+03  0.58287588936E+03  0.25500000920E-02 0.  1.
        2   -1    0    0  501    0  0.00000000000E+00  0.00000000000E+00 -0.25064557535E+04  0.25064557535E+04  0.25500000920E-02 0. -1.
    10030    2    1    2    0    0  0.00000000000E+00  0.00000000000E+00 -0.19235798641E+04  0.30893316429E+04  0.24173974654E+04 0.  0.
        2    1    3    3  502    0  0.24808967152E+03 -0.76076120538E+03  0.19590608458E+03  0.82382357984E+03  0.25500000920E-02 0.  1.
       -2    1    3    3    0  502 -0.24808967152E+03  0.76076120538E+03 -0.21194859487E+04  0.22655080630E+04  0.25500000920E-02 0. -1.
</event>
<event>
 5   0  0.8528103E-06  0.2393522E+04  0.7818609E-02  0.8441933E-01
        1   -1    0    0  501    0  0.00000000000E+00  0.00000000000E+00  0.15247760958E+04  0.15247760958E+04  0.50400001928E-02 0. -1.
       -1   -1    0    0    0  501  0.00000000000E+00  0.00000000000E+00 -0.93931001261E+03  0.93931001262E+03  0.50400001928E-02 0.  1.
    10030    2    1    2    0    0  0.00000000000E+00  0.00000000000E+00  0.58546608316E+03  0.24640861084E+04  0.23935224701E+04 0.  0.
        4    1    3    3  502    0 -0.49789056347E+03  0.10608706757E+04  0.42897183386E+02  0.11726821330E+04  0.12699999809E+01 0. -1.
       -4    1    3    3    0  502  0.49789056347E+03 -0.10608706757E+04  0.54256889977E+03  0.12914039754E+04  0.12699999809E+01 0.  1.
</event>
<event>
 5   0  0.2025353E-05  0.2411977E+04  0.7818609E-02  0.8435033E-01
       -2   -1    0    0    0  501  0.00000000000E+00  0.00000000000E+00  0.69185012916E+03  0.69185012916E+03  0.25500000920E-02 0.  1.
        2   -1    0    0  501    0  0.00000000000E+00  0.00000000000E+00 -0.21022009066E+04  0.21022009066E+04  0.25500000920E-02 0. -1.
    10030    2    1    2    0    0  0.00000000000E+00  0.00000000000E+00 -0.14103507775E+04  0.27940510358E+04  0.24119767568E+04 0.  0.
        4    1    3    3  502    0  0.74271349745E+03  0.45234822771E+03 -0.16730965219E+04  0.18856022494E+04  0.12699999809E+01 0. -1.
       -4    1    3    3    0  502 -0.74271349745E+03 -0.45234822771E+03  0.26274574443E+03  0.90844878640E+03  0.12699999809E+01 0.  1.
</event>
<event>
 5   0  0.9176817E-06  0.2396258E+04  0.7818609E-02  0.8440906E-01
        1   -1    0    0  501    0  0.00000000000E+00  0.00000000000E+00  0.19558560223E+04  0.19558560223E+04  0.50400001928E-02 0. -1.
       -1   -1    0    0    0  501  0.00000000000E+00  0.00000000000E+00 -0.73395659105E+03  0.73395659106E+03  0.50400001928E-02 0.  1.
    10030    2    1    2    0    0  0.00000000000E+00  0.00000000000E+00  0.12218994313E+04  0.26898126134E+04  0.23962582655E+04 0.  0.
        3    1    3    3  502    0 -0.12179405713E+03  0.11450800324E+04  0.98234690294E+03  0.15136206661E+04  0.10100000352E+00 0. -1.
       -3    1    3    3    0  502  0.12179405713E+03 -0.11450800324E+04  0.23955252836E+03  0.11761919473E+04  0.10100000352E+00 0.  1.
</event>
<event>
 5   0  0.2048028E-05  0.2396034E+04  0.7818609E-02  0.8440990E-01
        2   -1    0    0  501    0  0.00000000000E+00  0.00000000000E+00  0.96600170434E+03  0.96600170434E+03  0.25500000920E-02 0. -1.
       -2   -1    0    0    0  501  0.00000000000E+00  0.00000000000E+00 -0.14857579188E+04  0.14857579188E+04  0.25500000920E-02 0.  1.
    10030    2    1    2    0    0  0.00000000000E+00  0.00000000000E+00 -0.51975621450E+03  0.24517596232E+04  0.23960339579E+04 0.  0.
        5    1    3    3  502    0 -0.87025198159E+03 -0.57801806674E+01 -0.11023432378E+04  0.14044766377E+04  0.46999998093E+01 0.  1.
       -5    1    3    3    0  502  0.87025198159E+03  0.57801806674E+01  0.58258702329E+03  0.10472829855E+04  0.46999998093E+01 0. -1.
</event>
<event>
 5   0  0.2048028E-05  0.2403217E+04  0.7818609E-02  0.8438300E-01
       -2   -1    0    0    0  501  0.00000000000E+00  0.00000000000E+00  0.94194066382E+03  0.94194066382E+03  0.25500000920E-02 0. -1.
        2   -1    0    0  501    0  0.00000000000E+00  0.00000000000E+00 -0.15328600012E+04  0.15328600012E+04  0.25500000920E-02 0.  1.
    10030    2    1    2    0    0  0.00000000000E+00  0.00000000000E+00 -0.59091933736E+03  0.24748006650E+04  0.24032171496E+04 0.  0.
        5    1    3    3  502    0 -0.77869953978E+03 -0.79604538969E+03 -0.76032570735E+03  0.13483984971E+04  0.46999998093E+01 0. -1.
       -5    1    3    3    0  502  0.77869953978E+03  0.79604538969E+03  0.16940636999E+03  0.11264021679E+04  0.46999998093E+01 0.  1.
</event>
<event>
 5   0  0.2080257E-05  0.2417726E+04  0.7818609E-02  0.8432897E-01
        2   -1    0    0  501    0  0.00000000000E+00  0.00000000000E+00  0.18006983830E+04  0.18006983830E+04  0.25500000920E-02 0.  1.
       -2   -1    0    0    0  501  0.00000000000E+00  0.00000000000E+00 -0.81154632487E+03  0.81154632488E+03  0.25500000920E-02 0. -1.
    10030    2    1    2    0    0  0.00000000000E+00  0.00000000000E+00  0.98915205814E+03  0.26122447079E+04  0.24177263327E+04 0.  0.
        1    1    3    3  502    0  0.76029623021E+03  0.36879665736E+03 -0.43943275499E+03  0.95245077475E+03  0.50400001928E-02 0. -1.
       -1    1    3    3    0  502 -0.76029623021E+03 -0.36879665736E+03  0.14285848131E+04  0.16597939331E+04  0.50400001928E-02 0.  1.
</event>
<event>
 5   0  0.9083687E-06  0.2400323E+04  0.7818609E-02  0.8439383E-01
        1   -1    0    0  501    0  0.00000000000E+00  0.00000000000E+00  0.18875565253E+04  0.18875565253E+04  0.50400001928E-02 0.  1.
       -1   -1    0    0    0  501  0.00000000000E+00  0.00000000000E+00 -0.76309649137E+03  0.76309649139E+03  0.50400001928E-02 0. -1.
    10030    2    1    2    0    0  0.00000000000E+00  0.00000000000E+00  0.11244600340E+04  0.26506530167E+04  0.24003231131E+04 0.  0.
        2    1    3    3  502    0 -0.15521162005E+03  0.11831226875E+04  0.42030480442E+03  0.12651189941E+04  0.25500000920E-02 0. -1.
       -2    1    3    3    0  502  0.15521162005E+03 -0.11831226875E+04  0.70415522954E+03  0.13855340226E+04  0.25500000920E-02 0.  1.
</event>
<event>
 5   0  0.9176817E-06  0.2308136E+04  0.7818609E-02  0.8474720E-01
        1   -1    0    0  501    0  0.00000000000E+00  0.00000000000E+00  0.29000268067E+04  0.29000268067E+04  0.50400001928E-02 0.  1.
       -1   -1    0    0    0  501  0.00000000000E+00  0.00000000000E+00 -0.45926213511E+03  0.45926213514E+03  0.50400001928E-02 0. -1.
    10030    2    1    2    0    0  0.00000000000E+00  0.00000000000E+00  0.24407646716E+04  0.33592889419E+04  0.23081356140E+04 0.  0.
        3    1    3    3  502    0  0.57252905657E+03 -0.60349089989E+03  0.56160111994E+02  0.83375341394E+03  0.10100000352E+00 0. -1.
       -3    1    3    3    0  502 -0.57252905657E+03  0.60349089989E+03  0.23846045596E+04  0.25255355279E+04  0.10100000352E+00 0.  1.
</event>
<event>
 5   0  0.9038897E-06  0.2222726E+04  0.7818609E-02  0.8509028E-01
        1   -1    0    0  501    0  0.00000000000E+00  0.00000000000E+00  0.16029005325E+04  0.16029005326E+04  0.50400001928E-02 0. -1.
       -1   -1    0    0    0  501  0.00000000000E+00  0.00000000000E+00 -0.77055761332E+03  0.77055761334E+03  0.50400001928E-02 0.  1.
    10030    2    1    2    0    0  0.00000000000E+00  0.00000000000E+00  0.83234291922E+03  0.23734581459E+04  0.22227255420E+04 0.  0.
        1    1    3    3  502    0 -0.37374895206E+03 -0.50679020816E+03  0.13940250700E+04  0.15296504470E+04  0.50400001928E-02 0. -1.
       -1    1    3    3    0  502  0.37374895206E+03  0.50679020816E+03 -0.56168215074E+03  0.84380769891E+03  0.50400001928E-02 0.  1.
</event>
<event>
 5   0  0.2025353E-05  0.2687622E+04  0.7818609E-02  0.8339032E-01
        2   -1    0    0  501    0  0.00000000000E+00  0.00000000000E+00  0.12459342678E+04  0.12459342679E+04  0.25500000920E-02 0.  1.
       -2   -1    0    0    0  501  0.00000000000E+00  0.00000000000E+00 -0.14493766060E+04  0.14493766060E+04  0.25500000920E-02 0. -1.
    10030    2    1    2    0    0  0.00000000000E+00  0.00000000000E+00 -0.20344233814E+03  0.26953108738E+04  0.26876219827E+04 0.  0.
        4    1    3    3  502    0 -0.25821717930E+02 -0.54030907964E+03  0.11319304520E+04  0.12545392874E+04  0.12699999809E+01 0.  1.
       -4    1    3    3    0  502  0.25821717930E+02  0.54030907964E+03 -0.13353727901E+04  0.14407715864E+04  0.12699999809E+01 0. -1.
</event>
<event>
 5   0  0.8898848E-06  0.2408494E+04  0.7818609E-02  0.8436331E-01
       -1   -1    0    0    0  501  0.00000000000E+00  0.00000000000E+00  0.26569338601E+04  0.26569338601E+04  0.50400001928E-02 0.  1.
        1   -1    0    0  501    0  0.00000000000E+00  0.00000000000E+00 -0.54582099246E+03  0.54582099248E+03  0.50400001928E-02 0. -1.
    10030    2    1    2    0    0  0.00000000000E+00  0.00000000000E+00  0.21111128677E+04  0.32027548526E+04  0.24084935345E+04 0.  0.
        5    1    3    3  502    0  0.55403411807E+03 -0.96745886617E+03  0.45016875716E+03  0.12023329246E+04  0.46999998093E+01 0.  1.
       -5    1    3    3    0  502 -0.55403411807E+03  0.96745886617E+03  0.16609441105E+04  0.20004219280E+04  0.46999998093E+01 0. -1.
</event>
<event>
 5   0  0.8528103E-06  0.2369879E+04  0.7818609E-02  0.8450867E-01
       -1   -1    0    0    0  501  0.00000000000E+00  0.00000000000E+00  0.11834725810E+04  0.11834725810E+04  0.50400001928E-02 0. -1.
        1   -1    0    0  501    0  0.00000000000E+00  0.00000000000E+00 -0.11864080525E+04  0.11864080525E+04  0.50400001928E-02 0.  1.
    10030    2    1    2    0    0  0.00000000000E+00  0.00000000000E+00 -0.29354714941E+01  0.23698806335E+04  0.23698788155E+04 0.  0.
        4    1    3    3  502    0 -0.90724702501E+03 -0.64432147615E+03 -0.40869336430E+03  0.11854447300E+04  0.12699999809E+01 0.  1.
       -4    1    3    3    0  502  0.90724702501E+03  0.64432147615E+03  0.40575789280E+03  0.11844359035E+04  0.12699999809E+01 0. -1.
</event>
<event>
 5   0  0.9083687E-06  0.2368247E+04  0.7818609E-02  0.8451488E-01
       -1   -1    0    0    0  501  0.00000000000E+00  0.00000000000E+00  0.85346872082E+03  0.85346872084E+03  0.50400001928E-02 0. -1.
        1   -1    0    0  501    0  0.00000000000E+00  0.00000000000E+00 -0.16428816186E+04  0.16428816186E+04  0.50400001928E-02 0.  1.
    10030    2    1    2    0    0  0.00000000000E+00  0.00000000000E+00 -0.78941289773E+03  0.24963503394E+04  0.23682466708E+04 0.  0.
        2    1    3    3  502    0  0.10419817632E+04 -0.50903244828E+03 -0.14236627585E+03  0.11683784424E+04  0.25500000920E-02 0.  1.
       -2    1    3    3    0  502 -0.10419817632E+04  0.50903244828E+03 -0.64704662187E+03  0.13279718970E+04  0.25500000920E-02 0. -1.
</event>
<event>
 5   0  0.2122194E-05  0.2384597E+04  0.7818609E-02  0.8445293E-01
       -2   -1    0    0    0  501  0.00000000000E+00  0.00000000000E+00  0.12452195111E+04  0.12452195111E+04  0.25500000920E-02 0. -1.
        2   -1    0    0  501    0  0.00000000000E+00  0.00000000000E+00 -0.11416267893E+04  0.11416267893E+04  0.25500000920E-02 0.  1.
    10030    2    1    2    0    0  0.00000000000E+00  0.00000000000E+00  0.10359272189E+03  0.23868463004E+04  0.23845972007E+04 0.  0.
        3    1    3    3  502    0 -0.77565591826E+03  0.13182186725E+03 -0.84490395460E+03  0.11545050069E+04  0.10100000352E+00 0. -1.
       -3    1    3    3    0  502  0.77565591826E+03 -0.13182186725E+03  0.94849667649E+03  0.12323412935E+04  0.10100000352E+00 0.  1.
</event>
<event>
 5   0  0.2025353E-05  0.2235285E+04  0.7818609E-02  0.8503884E-01
        2   -1    0    0  501    0  0.00000000000E+00  0.00000000000E+00  0.11021921228E+04  0.11021921228E+04  0.25500000920E-02 0. -1.
       -2   -1    0    0    0  501  0.00000000000E+00  0.00000000000E+00 -0.11333097083E+04  0.11333097083E+04  0.25500000920E-02 0.  1.
    10030    2    1    2    0    0  0.00000000000E+00  0.00000000000E+00 -0.31117585485E+02  0.22355018311E+04  0.22352852463E+04 0.  0.
        4    1    3    3  502    0 -0.84824383509E+03  0.35630206684E+02  0.71137909632E+03  0.11076321352E+04  0.12699999809E+01 0. -1.
       -4    1    3    3    0  502  0.84824383509E+03 -0.35630206684E+02 -0.74249668181E+03  0.11278696958E+04  0.12699999809E+01 0.  1.
</event>
<event>
 5   0  0.2080257E-05  0.2403154E+04  0.7818609E-02  0.8438324E-01
        2   -1    0    0  501    0  0.00000000000E+00  0.00000000000E+00  0.17244097927E+04  0.17244097927E+04  0.25500000920E-02 0.  1.
       -2   -1    0    0    0  501  0.00000000000E+00  0.00000000000E+00 -0.83726467801E+03  0.83726467802E+03  0.25500000920E-02 0. -1.
    10030    2    1    2    0    0  0.00000000000E+00  0.00000000000E+00  0.88714511464E+03  0.25616744707E+04  0.24031541023E+04 0.  0.
        1    1    3    3  502    0 -0.36131047725E+02 -0.28833792473E+03  0.16863886800E+04  0.17112425285E+04  0.50400001928E-02 0.  1.
       -1    1    3    3    0  502  0.36131047725E+02  0.28833792473E+03 -0.79924356534E+03  0.85043194214E+03  0.50400001928E-02 0. -1.
</event>
<event>
 5   0  0.2122194E-05  0.2455559E+04  0.7818609E-02  0.8418991E-01
       -2   -1    0    0    0  501  0.00000000000E+00  0.00000000000E+00  0.65674420584E+03  0.65674420585E+03  0.25500000920E-02 0.  1.
        2   -1    0    0  501    0  0.00000000000E+00  0.00000000000E+00 -0.22953265009E+04  0.22953265009E+04  0.25500000920E-02 0. -1.
    10030    2    1    2    0    0  0.00000000000E+00  0.00000000000E+00 -0.16385822950E+04  0.29520707067E+04  0.24555589017E+04 0.  0.
        3    1    3    3  502    0 -0.19289531419E+03  0.11642954705E+04 -0.41222677142E+03  0.12500893833E+04  0.10100000352E+00 0.  1.
       -3    1    3    3    0  502  0.19289531419E+03 -0.11642954705E+04 -0.12263555236E+04  0.17019813234E+04  0.10100000352E+00 0. -1.
</event>
<event>
 5   0  0.8898848E-06  0.2429866E+04  0.7818609E-02  0.8428406E-01
        1   -1    0    0  501    0  0.00000000000E+00  0.00000000000E+00  0.85529765061E+03  0.85529765062E+03  0.50400001928E-02 0. -1.
       -1   -1    0    0    0  501  0.00000000000E+00  0.00000000000E+00 -0.17257882821E+04  0.17257882821E+04  0.50400001928E-02 0.  1.
    10030    2    1    2    0    0  0.00000000000E+00  0.00000000000E+00 -0.87049063149E+03  0.25810859327E+04  0.24298663857E+04 0.  0.
        5    1    3    3  502    0 -0.14400036164E+03 -0.85927987064E+03 -0.13346647259E+04  0.15938789229E+04  0.46999998093E+01 0.  1.
       -5    1    3    3    0  502  0.14400036164E+03  0.85927987064E+03  0.46417409446E+03  0.98720700980E+03  0.46999998093E+01 0. -1.
</event>
<event>
 5   0  0.8528103E-06  0.2410314E+04  0.7818609E-02  0.8435652E-01
        1   -1    0    0  501    0  0.00000000000E+00  0.00000000000E+00  0.15476703303E+04  0.15476703303E+04  0.50400001928E-02 0.  1.
       -1   -1    0    0    0  501  0.00000000000E+00  0.00000000000E+00 -0.93844528032E+03  0.93844528033E+03  0.50400001928E-02 0. -1.
    10030    2    1    2    0    0  0.00000000000E+00  0.00000000000E+00  0.60922504994E+03  0.24861156106E+04  0.24103144334E+04 0.  0.
        4    1    3    3  502    0 -0.61576251497E+03  0.46231992211E+03 -0.65163502851E+03  0.10087284117E+04  0.12699999809E+01 0. -1.
       -4    1    3    3    0  502  0.61576251497E+03 -0.46231992211E+03  0.12608600784E+04  0.14773871989E+04  0.12699999809E+01 0.  1.
</event>
<event>
 5   0  0.8898848E-06  0.2393827E+04  0.7818609E-02  0.8441818E-01
       -1   -1    0    0    0  501  0.00000000000E+00  0.00000000000E+00  0.15018277994E+04  0.15018277994E+04  0.50400001928E-02 0. -1.
        1   -1    0    0  501    0  0.00000000000E+00  0.00000000000E+00 -0.95390557236E+03  0.95390557237E+03  0.50400001928E-02 0.  1.
    10030    2    1    2    0    0  0.00000000000E+00  0.00000000000E+00  0.54792222706E+03  0.24557333718E+04  0.23938269834E+04 0.  0.
        5    1    3    3  502    0  0.23458412556E+03  0.71047061751E+03 -0.68442661992E+03  0.10140316062E+04  0.46999998093E+01 0.  1.
       -5    1    3    3    0  502 -0.23458412556E+03 -0.71047061751E+03  0.12323488470E+04  0.14417017656E+04  0.46999998093E+01 0. -1.
</event>
<event>
 5   0  0.9038897E-06  0.2402969E+04  0.7818609E-02  0.8438393E-01
        1   -1    0    0  501    0  0.00000000000E+00  0.00000000000E+00  0.11092533966E+04  0.11092533966E+04  0.50400001928E-02 0.  1.
       -1   -1    0    0    0  501  0.00000000000E+00  0.00000000000E+00 -0.13013838814E+04  0.13013838815E+04  0.50400001928E-02 0. -1.
    10030    2    1    2    0    0  0.00000000000E+00  0.00000000000E+00 -0.19213048481E+03  0.24106372781E+04  0.24029685731E+04 0.  0.
        1    1    3    3  502    0  0.91424829032E+02  0.18732603914E+03 -0.12831059787E+04  0.12999271122E+04  0.50400001928E-02 0. -1.
       -1    1    3    3    0  502 -0.91424829032E+02 -0.18732603914E+03  0.10909754939E+04  0.11107101659E+04  0.50400001928E-02 0.  1.
</event>
<event>
 5   0  0.2025353E-05  0.2396796E+04  0.7818609E-02  0.8440704E-01
        2   -1    0    0  501    0  0.00000000000E+00  0.00000000000E+00  0.16406884579E+04  0.16406884579E+04  0.25500000920E-02 0.  1.
       -2   -1    0    0    0  501  0.00000000000E+00  0.00000000000E+00 -0.87533882812E+03  0.87533882812E+03  0.25500000920E-02 0. -1.
    10030    2    1    2    0    0  0.00000000000E+00  0.00000000000E+00  0.76534962983E+03  0.25160272861E+04  0.23967964553E+04 0.  0.
        4    1    3    3  502    0  0.51057714323E+03  0.10307316872E+04  0.73564533251E+03  0.13653836451E+04  0.12699999809E+01 0.  1.
       -4    1    3    3    0  502 -0.51057714323E+03 -0.10307316872E+04  0.29704297320E+02  0.11506436409E+04  0.12699999809E+01 0. -1.
</event>
<event>
 5   0  0.2080257E-05  0.2408980E+04  0.7818609E-02  0.8436149E-01
       -2   -1    0    0    0  501  0.00000000000E+00  0.00000000000E+00  0.11609966760E+04  0.11609966760E+04  0.25500000920E-02 0. -1.
        2   -1    0    0  501    0  0.00000000000E+00  0.00000000000E+00 -0.12496130274E+04  0.12496130274E+04  0.25500000920E-02 0.  1.
    10030    2    1    2    0    0  0.00000000000E+00  0.00000000000E+00 -0.88616351471E+02  0.24106097034E+04  0.24089803412E+04 0.  0.
        1    1    3    3  502    0 -0.40839401677E+03 -0.79709547342E+03  0.76162448622E+03  0.11756779851E+04  0.50400001928E-02 0. -1.
       -1    1    3    3    0  502  0.40839401677E+03  0.79709547342E+03 -0.85024083769E+03  0.12349317183E+04  0.50400001928E-02 0.  1.
</event>
<event>
 5   0  0.2087882E-05  0.2350538E+04  0.7818609E-02  0.8458257E-01
        2   -1    0    0  501    0  0.00000000000E+00  0.00000000000E+00  0.14854708997E+04  0.14854708997E+04  0.25500000920E-02 0. -1.
       -2   -1    0    0    0  501  0.00000000000E+00  0.00000000000E+00 -0.92984445778E+03  0.92984445778E+03  0.25500000920E-02 0.  1.
    10030    2    1    2    0    0  0.00000000000E+00  0.00000000000E+00  0.55562644191E+03  0.24153153575E+04  0.23505377115E+04 0.  0.
        2    1    3    3  502    0  0.10124441175E+04  0.55567208768E+03  0.53998012798E+02  0.11561705521E+04  0.25500000920E-02 0.  1.
       -2    1    3    3    0  502 -0.10124441175E+04 -0.55567208768E+03  0.50162842911E+03  0.12591448054E+04  0.25500000920E-02 0. -1.
</event>
<event>
 5   0  0.9176817E-06  0.2393122E+04  0.7818609E-02  0.8442083E-01
        1   -1    0    0  501    0  0.00000000000E+00  0.00000000000E+00  0.15864884480E+04  0.15864884481E+04  0.50400001928E-02 0. -1.
       -1   -1    0    0    0  501  0.00000000000E+00  0.00000000000E+00 -0.90246985072E+03  0.90246985074E+03  0.50400001928E-02 0.  1.
    10030    2    1    2    0    0  0.00000000000E+00  0.00000000000E+00  0.68401859732E+03  0.24889582988E+04  0.23931218046E+04 0.  0.
        3    1    3    3  502    0  0.18795573485E+03  0.10301168959E+04 -0.26022153993E+03  0.10789733257E+04  0.10100000352E+00 0.  1.
       -3    1    3    3    0  502 -0.18795573485E+03 -0.10301168959E+04  0.94424013725E+03  0.14099849731E+04  0.10100000352E+00 0. -1.
</event>
<event>
 5   0  0.2122194E-05  0.2403275E+04  0.7818609E-02  0.8438278E-01
       -2   -1    0    0    0  501  0.00000000000E+00  0.00000000000E+00  0.12878248314E+04  0.12878248314E+04  0.25500000920E-02 0.  1.
        2   -1    0    0  501    0  0.00000000000E+00  0.00000000000E+00 -0.11212182143E+04  0.11212182143E+04  0.25500000920E-02 0. -1.
    10030    2    1    2    0    0  0.00000000000E+00  0.00000000000E+00  0.16660661704E+03  0.24090430457E+04  0.24032749803E+04 0.  0.
        3    1    3    3  502    0 -0.10395348955E+03 -0.13306094998E+03  0.12758734406E+04  0.12869982871E+04  0.10100000352E+00 0.  1.
       -3    1    3    3    0  502  0.10395348955E+03  0.13306094998E+03 -0.11092668235E+04  0.11220447586E+04  0.10100000352E+00 0. -1.
</event>
<event>
 5   0  0.2048028E-05  0.2423525E+04  0.7818609E-02  0.8430748E-01
       -2   -1    0    0    0  501  0.00000000000E+00  0.00000000000E+00  0.18154197967E+04  0.18154197967E+04  0.25500000920E-02 0.  1.
        2   -1    0    0  501    0  0.00000000000E+00  0.00000000000E+00 -0.80883148400E+03  0.80883148400E+03  0.25500000920E-02 0. -1.
    10030    2    1    2    0    0  0.00000000000E+00  0.00000000000E+00  0.10065883127E+04  0.26242512807E+04  0.24235252739E+04 0.  0.
        5    1    3    3  502    0 -0.39602454012E+03  0.64919208353E+03 -0.51827483513E+03  0.92028076826E+03  0.46999998093E+01 0. -1.
       -5    1    3    3    0  502  0.39602454012E+03 -0.64919208353E+03  0.15248631479E+04  0.17039705125E+04  0.46999998093E+01 0.  1.
</event>
<event>
 5   0  0.2080257E-05  0.2408142E+04  0.7818609E-02  0.8436462E-01
        2   -1    0    0  501    0  0.00000000000E+00  0.00000000000E+00  0.32096279845E+04  0.32096279845E+04  0.25500000920E-02 0.  1.
       -2   -1    0    0    0  501  0.00000000000E+00  0.00000000000E+00 -0.45169923573E+03  0.45169923573E+03  0.25500000920E-02 0. -1.
    10030    2    1    2    0    0  0.00000000000E+00  0.00000000000E+00  0.27579287488E+04  0.36613272203E+04  0.24081416134E+04 0.  0.
        1    1    3    3  502    0 -0.53656388449E+03  0.46316312269E+03 -0.10087757291E+03  0.71595891300E+03  0.50400001928E-02 0. -1.
       -1    1    3    3    0  502  0.53656388449E+03 -0.46316312269E+03  0.28588063217E+04  0.29453683073E+04  0.50400001928E-02 0.  1.
</event>
<event>
 5   0  0.9176817E-06  0.2396118E+04  0.7818609E-02  0.8440958E-01
        1   -1    0    0  501    0  0.00000000000E+00  0.00000000000E+00  0.89203805598E+03  0.89203805599E+03  0.50400001928E-02 0. -1.
       -1   -1    0    0    0  501  0.00000000000E+00  0.00000000000E+00 -0.16090626968E+04  0.16090626968E+04  0.50400001928E-02 0.  1.
    10030    2    1    2    0    0  0.00000000000E+00  0.00000000000E+00 -0.71702464078E+03  0.25011007528E+04  0.23961178268E+04 0.  0.
        3    1    3    3  502    0 -0.33696620380E+03  0.13546139460E+03  0.83319624609E+03  0.90890703960E+03  0.10100000352E+00 0. -1.
       -3    1    3    3    0  502  0.33696620380E+03 -0.13546139460E+03 -0.15502208869E+04  0.15921937132E+04  0.10100000352E+00 0.  1.
</event>
<event>
 5   0  0.8528103E-06  0.2458982E+04  0.7818609E-02  0.8417746E-01
       -1   -1    0    0    0  501  0.00000000000E+00  0.00000000000E+00  0.14391502678E+04  0.14391502678E+04  0.50400001928E-02 0. -1.
        1   -1    0    0  501    0  0.00000000000E+00  0.00000000000E+00 -0.10503751254E+04  0.10503751255E+04  0.50400001928E-02 0.  1.
    10030    2    1    2    0    0  0.00000000000E+00  0.00000000000E+00  0.38877514232E+03  0.24895253932E+04  0.24589816128E+04 0.  0.
        4    1    3    3  502    0 -0.10471749728E+04 -0.30974963888E+03  0.76631669920E+03  0.13340776435E+04  0.12699999809E+01 0. -1.
       -4    1    3    3    0  502  0.10471749728E+04  0.30974963888E+03 -0.37754155688E+03  0.11554477498E+04  0.12699999809E+01 0.  1.
</event>
<event>
 5   0  0.9176817E-06  0.2406384E+04  0.7818609E-02  0.8437117E-01
        1   -1    0    0  501    0  0.00000000000E+00  0.00000000000E+00  0.16060518757E+04  0.16060518757E+04  0.50400001928E-02 0. -1.
       -1   -1    0    0    0  501  0.00000000000E+00  0.00000000000E+00 -0.90138498103E+03  0.90138498104E+03  0.50400001928E-02 0.  1.
    10030    2    1    2    0    0  0.00000000000E+00  0.00000000000E+00  0.70466689467E+03  0.25074368568E+04  0.24063840421E+04 0.  0.
        3    1    3    3  502    0  0.97906983745E+03  0.62582370732E+03  0.27074553835E+02  0.11623106732E+04  0.10100000352E+00 0.  1.
       -3    1    3    3    0  502 -0.97906983745E+03 -0.62582370732E+03  0.67759234084E+03  0.13451261836E+04  0.10100000352E+00 0. -1.
</event>
<event>
 5   0  0.2025353E-05  0.2424273E+04  0.7818609E-02  0.8430472E-01
        2   -1    0    0  501    0  0.00000000000E+00  0.00000000000E+00  0.16235127484E+04  0.16235127484E+04  0.25500000920E-02 0.  1.
       -2   -1    0    0    0  501  0.00000000000E+00  0.00000000000E+00 -0.90499765724E+03  0.90499765724E+03  0.25500000920E-02 0. -1.
    10030    2    1    2    0    0  0.00000000000E+00  0.00000000000E+00  0.71851509117E+03  0.25285104057E+04  0.24242732798E+04 0.  0.
        4    1    3    3  502    0  0.70010660019E+03 -0.25498060937E+02  0.13909680775E+04  0.15574316063E+04  0.12699999809E+01 0.  1.
       -4    1    3    3    0  502 -0.70010660019E+03  0.25498060937E+02 -0.67245298636E+03  0.97107879933E+03  0.12699999809E+01 0. -1.
</event>
<event>
 5   0  0.2048028E-05  0.2237367E+04  0.7818609E-02  0.8503034E-01
        2   -1    0    0  501    0  0.00000000000E+00  0.00000000000E+00  0.13314041861E+04  0.13314041861E+04  0.25500000920E-02 0.  1.
       -2   -1    0    0    0  501  0.00000000000E+00  0.00000000000E+00 -0.93994921213E+03  0.93994921214E+03  0.25500000920E-02 0. -1.
    10030    2    1    2    0    0  0.00000000000E+00  0.00000000000E+00  0.39145497396E+03  0.22713533982E+04  0.22373665911E+04 0.  0.
        5    1    3    3  502    0 -0.16929509221E+03 -0.75813147572E+03 -0.62148895702E+03  0.99483404466E+03  0.46999998093E+01 0. -1.
       -5    1    3    3    0  502  0.16929509221E+03  0.75813147572E+03  0.10129439310E+04  0.12765193536E+04  0.46999998093E+01 0.  1.
</event>
<event>
 5   0  0.2087882E-05  0.2394017E+04  0.7818609E-02  0.8441747E-01
        2   -1    0    0  501    0  0.00000000000E+00  0.00000000000E+00  0.22224210542E+04  0.22224210542E+04  0.25500000920E-02 0.  1.
       -2   -1    0    0    0  501  0.00000000000E+00  0.00000000000E+00 -0.64471570956E+03  0.64471570956E+03  0.25500000920E-02 0. -1.
    10030    2    1    2    0    0  0.00000000000E+00  0.00000000000E+00  0.15777053446E+04  0.28671367637E+04  0.23940173490E+04 0.  0.
        2    1    3    3  502    0  0.38424252517E+03 -0.96116970299E+03  0.68940880807E+02  0.10374210144E+04  0.25500000920E-02 0. -1.
       -2    1    3    3    0  502 -0.38424252517E+03  0.96116970299E+03  0.15087644638E+04  0.18297157493E+04  0.25500000920E-02 0.  1.
</event>
<event>
 5   0  0.2122194E-05  0.2404638E+04  0.7818609E-02  0.8437769E-01
       -2   -1    0    0    0  501  0.00000000000E+00  0.00000000000E+00  0.11560285178E+04  0.11560285178E+04  0.25500000920E-02 0. -1.
        2   -1    0    0  501    0  0.00000000000E+00  0.00000000000E+00 -0.12504626142E+04  0.12504626142E+04  0.25500000920E-02 0.  1.
    10030    2    1    2    0    0  0.00000000000E+00  0.00000000000E+00 -0.94434096370E+02  0.24064911320E+04  0.24046375547E+04 0.  0.
        3    1    3    3  502    0 -0.36824087728E+03 -0.54165881403E+03  0.96181349809E+03  0.11636497883E+04  0.10100000352E+00 0. -1.
       -3    1    3    3    0  502  0.36824087728E+03  0.54165881403E+03 -0.10562475945E+04  0.12428413437E+04  0.10100000352E+00 0.  1.
</event>
<event>
 5   0  0.2087882E-05  0.2425650E+04  0.7818609E-02  0.8429963E-01
       -2   -1    0    0    0  501  0.00000000000E+00  0.00000000000E+00  0.67722459819E+03  0.67722459820E+03  0.25500000920E-02 0. -1.
        2   -1    0    0  501    0  0.00000000000E+00  0.00000000000E+00 -0.21720184941E+04  0.21720184941E+04  0.25500000920E-02 0.  1.
    10030    2    1    2    0    0  0.00000000000E+00  0.00000000000E+00 -0.14947938959E+04  0.28492430923E+04  0.24256498939E+04 0.  0.
        2    1    3    3  502    0  0.45426008756E+03 -0.14199675714E+03  0.56295046772E+03  0.73717605448E+03  0.25500000920E-02 0. -1.
       -2    1    3    3    0  502 -0.45426008756E+03  0.14199675714E+03 -0.20577443636E+04  0.21120670378E+04  0.25500000920E-02 0.  1.
</event>
<event>
 5   0  0.2122194E-05  0.2379871E+04  0.7818609E-02  0.8447078E-01
        2   -1    0    0  501    0  0.00000000000E+00  0.00000000000E+00  0.24324862952E+04  0.24324862952E+04  0.25500000920E-02 0.  1.
       -2   -1    0    0    0  501  0.00000000000E+00  0.00000000000E+00 -0.58209838902E+03  0.58209838903E+03  0.25500000920E-02 0. -1.
    10030    2    1    2    0    0  0.00000000000E+00  0.00000000000E+00  0.18503879062E+04  0.30145846842E+04  0.23798708820E+04 0.  0.
        3    1    3    3  502    0 -0.50524349678E+03  0.54725995044E+03 -0.25030308579E+03  0.78575828940E+03  0.10100000352E+00 0. -1.
       -3    1    3    3    0  502  0.50524349678E+03 -0.54725995044E+03  0.21006909920E+04  0.22288263948E+04  0.10100000352E+00 0.  1.
</event>
<event>
 5   0  0.2122194E-05  0.2403067E+04  0.7818609E-02  0.8438356E-01
       -2   -1    0    0    0  501  0.00000000000E+00  0.00000000000E+00  0.13857136481E+04  0.13857136481E+04  0.25500000920E-02 0.  1.
        2   -1    0    0  501    0  0.00000000000E+00  0.00000000000E+00 -0.10418335724E+04  0.10418335724E+04  0.25500000920E-02 0. -1.
    10030    2    1    2    0    0  0.00000000000E+00  0.00000000000E+00  0.34388007570E+03  0.24275472206E+04  0.24030672071E+04 0.  0.
        3    1    3    3  502    0  0.47703318601E+03  0.75398475924E+03  0.98489225191E+03  0.13289343234E+04  0.10100000352E+00 0.  1.
       -3    1    3    3    0  502 -0.47703318601E+03 -0.75398475924E+03 -0.64101217621E+03  0.10986128972E+04  0.10100000352E+00 0. -1.
</event>
<event>
 5   0  0.2025353E-05  0.2408002E+04  0.7818609E-02  0.8436514E-01
       -2   -1    0    0    0  501  0.00000000000E+00  0.00000000000E+00  0.84594700583E+03  0.84594700583E+03  0.25500000920E-02 0.  1.
        2   -1    0    0  501    0  0.00000000000E+00  0.00000000000E+00 -0.17136036767E+04  0.17136036767E+04  0.25500000920E-02 0. -1.
    10030    2    1    2    0    0  0.00000000000E+00  0.00000000000E+00 -0.86765667086E+03  0.25595506825E+04  0.24080015776E+04 0.  0.
        4    1    3    3  502    0  0.10543500252E+04  0.40256389722E+03 -0.87963400671E+03  0.14308980626E+04  0.12699999809E+01 0. -1.
       -4    1    3    3    0  502 -0.10543500252E+04 -0.40256389722E+03  0.11977335844E+02  0.11286526199E+04  0.12699999809E+01 0.  1.
</event>
<event>
 5   0  0.9176817E-06  0.2400108E+04  0.7818609E-02  0.8439463E-01
       -1   -1    0    0    0  501  0.00000000000E+00  0.00000000000E+00  0.57159530916E+03  0.57159530918E+03  0.50400001928E-02 0. -1.
        1   -1    0    0  501    0  0.00000000000E+00  0.00000000000E+00 -0.25194906702E+04  0.25194906703E+04  0.50400001928E-02 0.  1.
    10030    2    1    2    0    0  0.00000000000E+00  0.00000000000E+00 -0.19478953611E+04  0.30910859794E+04  0.24001075381E+04 0.  0.
        3    1    3    3  502    0  0.52613695803E+03 -0.90055781930E+03 -0.17383808316E+04  0.20272622944E+04  0.10100000352E+00 0.  1.
       -3    1    3    3    0  502 -0.52613695803E+03  0.90055781930E+03 -0.20951452949E+03  0.10638236850E+04  0.10100000352E+00 0. -1.
</event>
<event>
 5   0  0.9083687E-06  0.2403666E+04  0.7818609E-02  0.8438132E-01
       -1   -1    0    0    0  501  0.00000000000E+00  0.00000000000E+00  0.74202878439E+03  0.74202878441E+03  0.50400001928E-02 0.  1.
        1   -1    0    0  501    0  0.00000000000E+00  0.00000000000E+00 -0.19465593924E+04  0.19465593924E+04  0.50400001928E-02 0. -1.
    10030    2    1    2    0    0  0.00000000000E+00  0.00000000000E+00 -0.12045306080E+04  0.26885881768E+04  0.24036664492E+04 0.  0.
        2    1    3    3  502    0  0.72160830773E+03 -0.95086225599E+03 -0.75864259952E+03  0.14143536239E+04  0.25500000920E-02 0.  1.
       -2    1    3    3    0  502 -0.72160830773E+03  0.95086225599E+03 -0.44588800846E+03  0.12742345529E+04  0.25500000920E-02 0. -1.
</event>
<event>
 5   0  0.9083687E-06  0.2385457E+04  0.7818609E-02  0.8444968E-01
       -1   -1    0    0    0  501  0.00000000000E+00  0.00000000000E+00  0.74776277348E+03  0.74776277349E+03  0.50400001928E-02 0.  1.
        1   -1    0    0  501    0  0.00000000000E+00  0.00000000000E+00 -0.19024774462E+04  0.19024774463E+04  0.50400001928E-02 0. -1.
    10030    2    1    2    0    0  0.00000000000E+00  0.00000000000E+00 -0.11547146728E+04  0.26502402197E+04  0.23854574502E+04 0.  0.
        2    1    3    3  502    0  0.51299536629E+03 -0.11273935569E+03 -0.17670743208E+04  0.18434820486E+04  0.25500000920E-02 0. -1.
       -2    1    3    3    0  502 -0.51299536629E+03  0.11273935569E+03  0.61235964805E+03  0.80675817115E+03  0.25500000920E-02 0.  1.
</event>
<event>
 5   0  0.9176817E-06  0.2471343E+04  0.7818609E-02  0.8413266E-01
       -1   -1    0    0    0  501  0.00000000000E+00  0.00000000000E+00  0.90229875589E+03  0.90229875590E+03  0.50400001928E-02 0. -1.
        1   -1    0    0  501    0  0.00000000000E+00  0.00000000000E+00 -0.16922155534E+04  0.16922155534E+04  0.50400001928E-02 0.  1.
    10030    2    1    2    0    0  0.00000000000E+00  0.00000000000E+00 -0.78991679750E+03  0.25945143093E+04  0.24713429455E+04 0.  0.
        3    1    3    3  502    0  0.20143776791E+03 -0.12140098424E+04 -0.27764422511E+03  0.12615400896E+04  0.10100000352E+00 0. -1.
       -3    1    3    3    0  502 -0.20143776791E+03  0.12140098424E+04 -0.51227257239E+03  0.13329742197E+04  0.10100000352E+00 0.  1.
</event>
<event>
 5   0  0.2080257E-05  0.2369828E+04  0.7818609E-02  0.8450887E-01
       -2   -1    0    0    0  501  0.00000000000E+00  0.00000000000E+00  0.18010412749E+04  0.18010412749E+04  0.25500000920E-02 0. -1.
        2   -1    0    0  501    0  0.00000000000E+00  0.00000000000E+00 -0.77956084060E+03  0.77956084060E+03  0.25500000920E-02 0.  1.
    10030    2    1    2    0    0  0.00000000000E+00  0.00000000000E+00  0.10214804343E+04  0.25806021155E+04  0.23698280530E+04 0.  0.
        1    1    3    3  502    0  0.89145496564E+03  0.37245353727E+03 -0.23628232509E+03  0.99460692254E+03  0.50400001928E-02 0.  1.
       -1    1    3    3    0  502 -0.89145496564E+03 -0.37245353727E+03  0.12577627594E+04  0.15859951930E+04  0.50400001928E-02 0. -1.
</event>
<event>
 5   0  0.9176817E-06  0.2410899E+04  0.7818609E-02  0.8435435E-01
       -1   -1    0    0    0  501  0.00000000000E+00  0.00000000000E+00  0.55102285357E+03  0.55102285359E+03  0.50400001928E-02 0. -1.
        1   -1    0    0  501    0  0.00000000000E+00  0.00000000000E+00 -0.26371100577E+04  0.26371100577E+04  0.50400001928E-02 0.  1.
    10030    2    1    2    0    0  0.00000000000E+00  0.00000000000E+00 -0.20860872041E+04  0.31881329113E+04  0.24108985124E+04 0.  0.
        3    1    3    3  502    0 -0.90327623832E+03  0.58298059755E+03 -0.17641169679E+04  0.20658855308E+04  0.10100000352E+00 0.  1.
       -3    1    3    3    0  502  0.90327623832E+03 -0.58298059755E+03 -0.32197023628E+03  0.11222473805E+04  0.10100000352E+00 0. -1.
</event>
<event>
 5   0  0.2122194E-05  0.2390054E+04  0.7818609E-02  0.8443236E-01
       -2   -1    0    0    0  501  0.00000000000E+00  0.00000000000E+00  0.10706612546E+04  0.10706612546E+04  0.25500000920E-02 0. -1.
        2   -1    0    0  501    0  0.00000000000E+00  0.00000000000E+00 -0.13338392061E+04  0.13338392061E+04  0.25500000920E-02 0.  1.
    10030    2    1    2    0    0  0.00000000000E+00  0.00000000000E+00 -0.26317795149E+03  0.24045004607E+04  0.23900543574E+04 0.  0.
        3    1    3    3  502    0 -0.11223382114E+04 -0.30500245073E+03 -0.40787662992E+03  0.12324905318E+04  0.10100000352E+00 0. -1.
       -3    1    3    3    0  502  0.11223382114E+04  0.30500245073E+03  0.14469867843E+03  0.11720099289E+04  0.10100000352E+00 0.  1.
</event>
<event>
 5   0  0.9038897E-06  0.2388587E+04  0.7818609E-02  0.8443789E-01
        1   -1    0    0  501    0  0.00000000000E+00  0.00000000000E+00  0.16008706885E+04  0.16008706885E+04  0.50400001928E-02 0.  1.
       -1   -1    0    0    0  501  0.00000000000E+00  0.00000000000E+00 -0.89097601324E+03  0.89097601325E+03  0.50400001928E-02 0. -1.
    10030    2    1    2    0    0  0.00000000000E+00  0.00000000000E+00  0.70989467526E+03  0.24918467018E+04  0.23885873514E+04 0.  0.
        1    1    3    3  502    0  0.11786573716E+04  0.19119184102E+03  0.33048444456E+03  0.12389541912E+04  0.50400001928E-02 0. -1.
       -1    1    3    3    0  502 -0.11786573716E+04 -0.19119184102E+03  0.37941023071E+03  0.12528925105E+04  0.50400001928E-02 0.  1.
</event>
<event>
 5   0  0.2025353E-05  0.2201449E+04  0.7818609E-02  0.8517825E-01
        2   -1    0    0  501    0  0.00000000000E+00  0.00000000000E+00  0.77596890221E+03  0.77596890222E+03  0.25500000920E-02 0.  1.
       -2   -1    0    0    0  501  0.00000000000E+00  0.00000000000E+00 -0.15613955056E+04  0.15613955056E+04  0.25500000920E-02 0. -1.
    10030    2    1    2    0    0  0.00000000000E+00  0.00000000000E+00 -0.78542660334E+03  0.23373644078E+04  0.22014489377E+04 0.  0.
        4    1    3    3  502    0  0.71618608113E+03 -0.84812962067E+02 -0.12756034692E+04  0.14653605580E+04  0.12699999809E+01 0. -1.
       -4    1    3    3    0  502 -0.71618608113E+03  0.84812962067E+02  0.49017686586E+03  0.87200384980E+03  0.12699999809E+01 0.  1.
</event>
<event>
 5   0  0.2025353E-05  0.2411300E+04  0.7818609E-02  0.8435285E-01
       -2   -1    0    0    0  501  0.00000000000E+00  0.00000000000E+00  0.15873778633E+04  0.15873778633E+04  0.25500000920E-02 0.  1.
        2   -1    0    0  501    0  0.00000000000E+00  0.00000000000E+00 -0.91571906916E+03  0.91571906916E+03  0.25500000920E-02 0. -1.
    10030    2    1    2    0    0  0.00000000000E+00  0.00000000000E+00  0.67165879415E+03  0.25030969325E+04  0.24113002131E+04 0.  0.
        4    1    3    3  502    0  0.80883547013E+03 -0.39872490151E+03  0.11665406222E+04  0.14744541366E+04  0.12699999809E+01 0.  1.
       -4    1    3    3    0  502 -0.80883547013E+03  0.39872490151E+03 -0.49488182806E+03  0.10286427959E+04  0.12699999809E+01 0. -1.
</event>
<event>
 5   0  0.8898848E-06  0.2386170E+04  0.7818609E-02  0.8444699E-01
        1   -1    0    0  501    0  0.00000000000E+00  0.00000000000E+00  0.12680006755E+04  0.12680006755E+04  0.50400001928E-02 0.  1.
       -1   -1    0    0    0  501  0.00000000000E+00  0.00000000000E+00 -0.11225956658E+04  0.11225956658E+04  0.50400001928E-02 0. -1.
    10030    2    1    2    0    0  0.00000000000E+00  0.00000000000E+00  0.14540500969E+03  0.23905963412E+04  0.23861702056E+04 0.  0.
        5    1    3    3  502    0  0.29746853169E+03 -0.43582767311E+03 -0.99932751348E+03  0.11300932958E+04  0.46999998093E+01 0. -1.
       -5    1    3    3    0  502 -0.29746853169E+03  0.43582767311E+03  0.11447325232E+04  0.12605030455E+04  0.46999998093E+01 0.  1.
</event>
<event>
 5   0  0.9176817E-06  0.2379840E+04  0.7818609E-02  0.8447090E-01
       -1   -1    0    0    0  501  0.00000000000E+00  0.00000000000E+00  0.13148350610E+04  0.13148350610E+04  0.50400001928E-02 0.  1.
        1   -1    0    0  501    0  0.00000000000E+00  0.00000000000E+00 -0.10768719908E+04  0.10768719908E+04  0.50400001928E-02 0. -1.
    10030    2    1    2    0    0  0.00000000000E+00  0.00000000000E+00  0.23796307014E+03  0.23917070518E+04  0.23798395322E+04 0.  0.
        3    1    3    3  502    0 -0.34872857715E+03  0.17457754126E+03 -0.10108220249E+04  0.10834436371E+04  0.10100000352E+00 0. -1.
       -3    1    3    3    0  502  0.34872857715E+03 -0.17457754126E+03  0.12487850951E+04  0.13082634147E+04  0.10100000352E+00 0.  1.
</event>
<event>
 5   0  0.9083687E-06  0.2345995E+04  0.7818609E-02  0.8460004E-01
       -1   -1    0    0    0  501  0.00000000000E+00  0.00000000000E+00  0.11347224011E+04  0.11347224011E+04  0.50400001928E-02 0.  1.
        1   -1    0    0  501    0  0.00000000000E+00  0.00000000000E+00 -0.12125635094E+04  0.12125635095E+04  0.50400001928E-02 0. -1.
    10030    2    1    2    0    0  0.00000000000E+00  0.00000000000E+00 -0.77841108311E+02  0.23472859106E+04  0.23459948653E+04 0.  0.
        2    1    3    3  502    0 -0.85660558334E+03  0.59808750371E+03  0.49470322936E+03  0.11559468295E+04  0.25500000920E-02 0.  1.
       -2    1    3    3    0  502  0.85660558334E+03 -0.59808750371E+03 -0.57254433768E+03  0.11913390811E+04  0.25500000920E-02 0. -1.
</event>
<event>
 5   0  0.2025353E-05  0.2402777E+04  0.7818609E-02  0.8438465E-01
        2   -1    0    0  501    0  0.00000000000E+00  0.00000000000E+00  0.12068802287E+04  0.12068802287E+04  0.25500000920E-02 0.  1.
       -2   -1    0    0    0  501  0.00000000000E+00  0.00000000000E+00 -0.11959220355E+04  0.11959220355E+04  0.25500000920E-02 0. -1.
    10030    2    1    2    0    0  0.00000000000E+00  0.00000000000E+00  0.10958193280E+02  0.24028022642E+04  0.24027772762E+04 0.  0.
        4    1    3    3  502    0 -0.10786006646E+04 -0.32978476846E+03  0.41924137197E+03  0.12032881317E+04  0.12699999809E+01 0. -1.
       -4    1    3    3    0  502  0.10786006646E+04  0.32978476846E+03 -0.40828317869E+03  0.11995141325E+04  0.12699999809E+01 0.  1.
</event>
<event>
 5   0  0.9176817E-06  0.2400965E+04  0.7818609E-02  0.8439142E-01
       -1   -1    0    0    0  501  0.00000000000E+00  0.00000000000E+00  0.12249200041E+04  0.12249200041E+04  0.50400001928E-02 0.  1.
        1   -1    0    0  501    0  0.00000000000E+00  0.00000000000E+00 -0.11765328491E+04  0.11765328491E+04  0.50400001928E-02 0. -1.
    10030    2    1    2    0    0  0.00000000000E+00  0.00000000000E+00  0.48387154963E+02  0.24014528532E+04  0.24009653245E+04 0.  0.
        3    1    3    3  502    0  0.36574121595E+03 -0.11000070632E+03 -0.11141464002E+04  0.11777898810E+04  0.10100000352E+00 0. -1.
       -3    1    3    3    0  502 -0.36574121595E+03  0.11000070632E+03  0.11625335552E+04  0.12236629722E+04  0.10100000352E+00 0.  1.
</event>
<event>
 5   0  0.2087882E-05  0.2392312E+04  0.7818609E-02  0.8442388E-01
       -2   -1    0    0    0  501  0.00000000000E+00  0.00000000000E+00  0.88146816438E+03  0.88146816439E+03  0.25500000920E-02 0.  1.
        2   -1    0    0  501    0  0.00000000000E+00  0.00000000000E+00 -0.16231882732E+04  0.16231882732E+04  0.25500000920E-02 0. -1.
    10030    2    1    2    0    0  0.00000000000E+00  0.00000000000E+00 -0.74172010877E+03  0.25046564375E+04  0.23923116750E+04 0.  0.
        2    1    3    3  502    0 -0.39601653008E+03  0.11234106554E+04 -0.25661080194E+03  0.12184948488E+04  0.25500000920E-02 0.  1.
       -2    1    3    3    0  502  0.39601653008E+03 -0.11234106554E+04 -0.48510930683E+03  0.12861615888E+04  0.25500000920E-02 0. -1.
</event>
<event>
 5   0  0.2025353E-05  0.2476896E+04  0.7818609E-02  0.8411263E-01
        2   -1    0    0  501    0  0.00000000000E+00  0.00000000000E+00  0.90697159845E+03  0.90697159846E+03  0.25500000920E-02 0.  1.
       -2   -1    0    0    0  501  0.00000000000E+00  0.00000000000E+00 -0.16910711369E+04  0.16910711369E+04  0.25500000920E-02 0. -1.
    10030    2    1    2    0    0  0.00000000000E+00  0.00000000000E+00 -0.78409953844E+03  0.25980427354E+04  0.24768960351E+04 0.  0.
        4    1    3    3  502    0 -0.22861755300E+03 -0.86832959337E+02 -0.16654921193E+04  0.16833512886E+04  0.12699999809E+01 0. -1.
       -4    1    3    3    0  502  0.22861755300E+03  0.86832959337E+02  0.88139258085E+03  0.91469144680E+03  0.12699999809E+01 0.  1.
</event>
<event>
 5   0  0.8898848E-06  0.2375810E+04  0.7818609E-02  0.8448616E-01
        1   -1    0    0  501    0  0.00000000000E+00  0.00000000000E+00  0.26073025798E+04  0.26073025798E+04  0.50400001928E-02 0.  1.
       -1   -1    0    0    0  501  0.00000000000E+00  0.00000000000E+00 -0.54121753871E+03  0.54121753873E+03  0.50400001928E-02 0. -1.
    10030    2    1    2    0    0  0.00000000000E+00  0.00000000000E+00  0.20660850411E+04  0.31485201185E+04  0.23758096598E+04 0.  0.
        5    1    3    3  502    0  0.10070731920E+04 -0.41425658743E+02  0.18661367346E+04  0.21209433990E+04  0.46999998093E+01 0.  1.
       -5    1    3    3    0  502 -0.10070731920E+04  0.41425658743E+02  0.19994830645E+03  0.10275767196E+04  0.46999998093E+01 0. -1.
</event>
<event>
 5   0  0.7233625E-06  0.2439695E+04  0.7818609E-02  0.8424790E-01
        4   -1    0    0  501    0  0.00000000000E+00  0.00000000000E+00  0.19567890414E+04  0.19567894535E+04  0.12699999809E+01 0.  1.
       -4   -1    0    0    0  501  0.00000000000E+00  0.00000000000E+00 -0.76044273948E+03  0.76044379998E+03  0.12699999809E+01 0. -1.
    10030    2    1    2    0    0  0.00000000000E+00  0.00000000000E+00  0.11963463019E+04  0.27172332535E+04  0.24396950793E+04 0.  0.
        5    1    3    3  502    0 -0.20245678468E+03 -0.74688772487E+03  0.16484050711E+04  0.18210138362E+04  0.46999998093E+01 0.  1.
       -5    1    3    3    0  502  0.20245678468E+03  0.74688772487E+03 -0.45205876915E+03  0.89621941732E+03  0.46999998093E+01 0. -1.
</event>
<event>
 5   0  0.2087882E-05  0.2398713E+04  0.7818609E-02  0.8439986E-01
        2   -1    0    0  501    0  0.00000000000E+00  0.00000000000E+00  0.19109977901E+04  0.19109977901E+04  0.25500000920E-02 0. -1.
       -2   -1    0    0    0  501  0.00000000000E+00  0.00000000000E+00 -0.75272500755E+03  0.75272500755E+03  0.25500000920E-02 0.  1.
    10030    2    1    2    0    0  0.00000000000E+00  0.00000000000E+00  0.11582727825E+04  0.26637227976E+04  0.23987128431E+04 0.  0.
        2    1    3    3  502    0 -0.86051077224E+03  0.25890669296E+03  0.14612129867E+04  0.17154168174E+04  0.25500000920E-02 0. -1.
       -2    1    3    3    0  502  0.86051077224E+03 -0.25890669296E+03 -0.30294020422E+03  0.94830598023E+03  0.25500000920E-02 0.  1.
</event>
<event>
 5   0  0.2122194E-05  0.2333436E+04  0.7818609E-02  0.8464853E-01
       -2   -1    0    0    0  501  0.00000000000E+00  0.00000000000E+00  0.90989889520E+03  0.90989889521E+03  0.25500000920E-02 0. -1.
        2   -1    0    0  501    0  0.00000000000E+00  0.00000000000E+00 -0.14960249433E+04  0.14960249433E+04  0.25500000920E-02 0.  1.
    10030    2    1    2    0    0  0.00000000000E+00  0.00000000000E+00 -0.58612604814E+03  0.24059238386E+04  0.23334364728E+04 0.  0.
        3    1    3    3  502    0  0.59411111230E+03  0.26515229445E+02  0.74189188843E+03  0.95082840485E+03  0.10100000352E+00 0. -1.
       -3    1    3    3    0  502 -0.59411111230E+03 -0.26515229445E+02 -0.13280179366E+04  0.14550954337E+04  0.10100000352E+00 0.  1.
</event>
<event>
 5   0  0.2048028E-05  0.2403334E+04  0.7818609E-02  0.8438257E-01
        2   -1    0    0  501    0  0.00000000000E+00  0.00000000000E+00  0.91814211759E+03  0.91814211759E+03  0.25500000920E-02 0.  1.
       -2   -1    0    0    0  501  0.00000000000E+00  0.00000000000E+00 -0.15727448741E+04  0.15727448741E+04  0.25500000920E-02 0. -1.
    10030    2    1    2    0    0  0.00000000000E+00  0.00000000000E+00 -0.65460275654E+03  0.24908869917E+04  0.24033337755E+04 0.  0.
        5    1    3    3  502    0  0.98518515515E+03  0.11159321401E+03  0.37635620448E+03  0.10605229455E+04  0.46999998093E+01 0.  1.
       -5    1    3    3    0  502 -0.98518515515E+03 -0.11159321401E+03 -0.10309589610E+04  0.14303640462E+04  0.46999998093E+01 0. -1.
</event>
<event>
 5   0  0.9083687E-06  0.2434291E+04  0.7818609E-02  0.8426776E-01
        1   -1    0    0  501    0  0.00000000000E+00  0.00000000000E+00  0.97021715468E+03  0.97021715470E+03  0.50400001928E-02 0. -1.
       -1   -1    0    0    0  501  0.00000000000E+00  0.00000000000E+00 -0.15269197389E+04  0.15269197389E+04  0.50400001928E-02 0.  1.
    10030    2    1    2    0    0  0.00000000000E+00  0.00000000000E+00 -0.55670258424E+03  0.24971368936E+04  0.24342914571E+04 0.  0.
        2    1    3    3  502    0 -0.13526107927E+03 -0.53939578259E+03  0.83228203255E+03  0.10009679073E+04  0.25500000920E-02 0. -1.
       -2    1    3    3    0  502  0.13526107927E+03  0.53939578259E+03 -0.13889846168E+04  0.14961689863E+04  0.25500000920E-02 0.  1.
</event>
<event>
 5   0  0.2087882E-05  0.2381536E+04  0.7818609E-02  0.8446449E-01
        2   -1    0    0  501    0  0.00000000000E+00  0.00000000000E+00  0.22294539888E+04  0.22294539888E+04  0.25500000920E-02 0. -1.
       -2   -1    0    0    0  501  0.00000000000E+00  0.00000000000E+00 -0.63599792315E+03  0.63599792315E+03  0.25500000920E-02 0.  1.
    10030    2    1    2    0    0  0.00000000000E+00  0.00000000000E+00  0.15934560656E+04  0.28654519119E+04  0.23815357286E+04 0.  0.
        2    1    3    3  502    0  0.10342067715E+04 -0.58073333200E+03  0.92345398745E+03  0.15031972978E+04  0.25500000920E-02 0.  1.
       -2    1    3    3    0  502 -0.10342067715E+04  0.58073333200E+03  0.67000207817E+03  0.13622546142E+04  0.25500000920E-02 0. -1.
</event>
<event>
 5   0  0.9083687E-06  0.2395987E+04  0.7818609E-02  0.8441007E-01
        1   -1    0    0  501    0  0.00000000000E+00  0.00000000000E+00  0.10427153495E+04  0.10427153495E+04  0.50400001928E-02 0.  1.
       -1   -1    0    0    0  501  0.00000000000E+00  0.00000000000E+00 -0.13763954973E+04  0.13763954973E+04  0.50400001928E-02 0. -1.
    10030    2    1    2    0    0  0.00000000000E+00  0.00000000000E+00 -0.33368014780E+03  0.24191108469E+04  0.23959872388E+04 0.  0.
        2    1    3    3  502    0 -0.11716865851E+04  0.20512638985E+03 -0.23120158761E+02  0.11897314114E+04  0.25500000920E-02 0.  1.
       -2    1    3    3    0  502  0.11716865851E+04 -0.20512638985E+03 -0.31055998904E+03  0.12293794355E+04  0.25500000920E-02 0. -1.
</event>
<event>
 5   0  0.2048028E-05  0.2398450E+04  0.7818609E-02  0.8440084E-01
       -2   -1    0    0    0  501  0.00000000000E+00  0.00000000000E+00  0.12224497846E+04  0.12224497846E+04  0.25500000920E-02 0. -1.
        2   -1    0    0  501    0  0.00000000000E+00  0.00000000000E+00 -0.11764418507E+04  0.11764418507E+04  0.25500000920E-02 0.  1.
    10030    2    1    2    0    0  0.00000000000E+00  0.00000000000E+00  0.46007933950E+02  0.23988916353E+04  0.23984504055E+04 0.  0.
        5    1    3    3  502    0 -0.89442688536E+03 -0.79714786576E+03  0.74732180273E+02  0.12004379042E+04  0.46999998093E+01 0. -1.
       -5    1    3    3    0  502  0.89442688536E+03  0.79714786576E+03 -0.28724246323E+02  0.11984537310E+04  0.46999998093E+01 0.  1.
</event>
<event>
 5   0  0.9038897E-06  0.2386522E+04  0.7818609E-02  0.8444567E-01
       -1   -1    0    0    0  501  0.00000000000E+00  0.00000000000E+00  0.96070076181E+03  0.96070076183E+03  0.50400001928E-02 0. -1.
        1   -1    0    0  501    0  0.00000000000E+00  0.00000000000E+00 -0.14821182481E+04  0.14821182481E+04  0.50400001928E-02 0.  1.
    10030    2    1    2    0    0  0.00000000000E+00  0.00000000000E+00 -0.52141748630E+03  0.24428190099E+04  0.23865222648E+04 0.  0.
        1    1    3    3  502    0  0.34799442177E+03 -0.10245352934E+04  0.25424876800E+03  0.11114922946E+04  0.50400001928E-02 0. -1.
       -1    1    3    3    0  502 -0.34799442177E+03  0.10245352934E+04 -0.77566625430E+03  0.13313267153E+04  0.50400001928E-02 0.  1.
</event>
<event>
 5   0  0.9083687E-06  0.2354817E+04  0.7818609E-02  0.8456616E-01
       -1   -1    0    0    0  501  0.00000000000E+00  0.00000000000E+00  0.50215185989E+03  0.50215185992E+03  0.50400001928E-02 0. -1.
        1   -1    0    0  501    0  0.00000000000E+00  0.00000000000E+00 -0.27606995909E+04  0.27606995909E+04  0.50400001928E-02 0.  1.
    10030    2    1    2    0    0  0.00000000000E+00  0.00000000000E+00 -0.22585477310E+04  0.32628514508E+04  0.23548167098E+04 0.  0.
        2    1    3    3  502    0 -0.49351980206E+03  0.50206728906E+03 -0.24369357176E+04  0.25365900436E+04  0.25500000920E-02 0.  1.
       -2    1    3    3    0  502  0.49351980206E+03 -0.50206728906E+03  0.17838798661E+03  0.72626140717E+03  0.25500000920E-02 0. -1.
</event>
<event>
 5   0  0.9038897E-06  0.2384542E+04  0.7818609E-02  0.8445314E-01
       -1   -1    0    0    0  501  0.00000000000E+00  0.00000000000E+00  0.71705545169E+03  0.71705545171E+03  0.50400001928E-02 0.  1.
        1   -1    0    0  501    0  0.00000000000E+00  0.00000000000E+00 -0.19824272062E+04  0.19824272062E+04  0.50400001928E-02 0. -1.
    10030    2    1    2    0    0  0.00000000000E+00  0.00000000000E+00 -0.12653717545E+04  0.26994826580E+04  0.23845420825E+04 0.  0.
        1    1    3    3  502    0  0.44042535571E+03 -0.10682517872E+04 -0.96539653828E+03  0.15056981275E+04  0.50400001928E-02 0. -1.
       -1    1    3    3    0  502 -0.44042535571E+03  0.10682517872E+04 -0.29997521626E+03  0.11937845305E+04  0.50400001928E-02 0.  1.
</event>
<event>
 5   0  0.2048028E-05  0.2446948E+04  0.7818609E-02  0.8422133E-01
       -2   -1    0    0    0  501  0.00000000000E+00  0.00000000000E+00  0.74592627393E+03  0.74592627393E+03  0.25500000920E-02 0. -1.
        2   -1    0    0  501    0  0.00000000000E+00  0.00000000000E+00 -0.20067518552E+04  0.20067518552E+04  0.25500000920E-02 0.  1.
    10030    2    1    2    0    0  0.00000000000E+00  0.00000000000E+00 -0.12608255813E+04  0.27526781291E+04  0.24469482496E+04 0.  0.
        5    1    3    3  502    0 -0.35028785834E+03  0.11385176396E+04 -0.94447723608E+03  0.15201918757E+04  0.46999998093E+01 0.  1.
       -5    1    3    3    0  502  0.35028785834E+03 -0.11385176396E+04 -0.31634834519E+03  0.12324862534E+04  0.46999998093E+01 0. -1.
</event>
<event>
 5   0  0.8898848E-06  0.2402776E+04  0.7818609E-02  0.8438465E-01
        1   -1    0    0  501    0  0.00000000000E+00  0.00000000000E+00  0.12629122457E+04  0.12629122457E+04  0.50400001928E-02 0.  1.
       -1   -1    0    0    0  501  0.00000000000E+00  0.00000000000E+00 -0.11428608329E+04  0.11428608329E+04  0.50400001928E-02 0. -1.
    10030    2    1    2    0    0  0.00000000000E+00  0.00000000000E+00  0.12005141277E+03  0.24057730786E+04  0.24027758455E+04 0.  0.
        5    1    3    3  502    0 -0.81455206569E+03 -0.81694661512E+03 -0.27567451356E+03  0.11861346328E+04  0.46999998093E+01 0. -1.
       -5    1    3    3    0  502  0.81455206569E+03  0.81694661512E+03  0.39572592633E+03  0.12196384458E+04  0.46999998093E+01 0.  1.
</event>
<event>
 5   0  0.9176817E-06  0.2399588E+04  0.7818609E-02  0.8439658E-01
        1   -1    0    0  501    0  0.00000000000E+00  0.00000000000E+00  0.14773789541E+04  0.14773789541E+04  0.50400001928E-02 0. -1.
       -1   -1    0    0    0  501  0.00000000000E+00  0.00000000000E+00 -0.97436413418E+03  0.97436413419E+03  0.50400001928E-02 0.  1.
    10030    2    1    2    0    0  0.00000000000E+00  0.00000000000E+00  0.50301481991E+03  0.24517430883E+04  0.23995875191E+04 0.  0.
        3    1    3    3  502    0 -0.64474008188E+02  0.11204904104E+04 -0.18179675063E+03  0.11369721748E+04  0.10100000352E+00 0.  1.
       -3    1    3    3    0  502  0.64474008188E+02 -0.11204904104E+04  0.68481157055E+03  0.13147709135E+04  0.10100000352E+00 0. -1.
</event>
<event>
 5   0  0.2080257E-05  0.2402045E+04  0.7818609E-02  0.8438738E-01
        2   -1    0    0  501    0  0.00000000000E+00  0.00000000000E+00  0.16837688808E+04  0.16837688808E+04  0.25500000920E-02 0.  1.
       -2   -1    0    0    0  501  0.00000000000E+00  0.00000000000E+00 -0.85668255259E+03  0.85668255260E+03  0.25500000920E-02 0. -1.
    10030    2    1    2    0    0  0.00000000000E+00  0.00000000000E+00  0.82708632824E+03  0.25404514334E+04  0.24020453142E+04 0.  0.
        1    1    3    3  502    0 -0.94529156223E+03 -0.14945074944E+03 -0.35390126057E+03  0.10203713865E+04  0.50400001928E-02 0. -1.
       -1    1    3    3    0  502  0.94529156223E+03  0.14945074944E+03  0.11809875888E+04  0.15200800469E+04  0.50400001928E-02 0.  1.
</event>
<event>
 5   0  0.9038897E-06  0.2410541E+04  0.7818609E-02  0.8435568E-01
        1   -1    0    0  501    0  0.00000000000E+00  0.00000000000E+00  0.12134617841E+04  0.12134617841E+04  0.50400001928E-02 0.  1.
       -1   -1    0    0    0  501  0.00000000000E+00  0.00000000000E+00 -0.11971345916E+04  0.11971345916E+04  0.50400001928E-02 0. -1.
    10030    2    1    2    0    0  0.00000000000E+00  0.00000000000E+00  0.16327192574E+02  0.24105963757E+04  0.24105410823E+04 0.  0.
        1    1    3    3  502    0  0.77684581332E+03 -0.15043473017E+03  0.91733628147E+03  0.12114560987E+04  0.50400001928E-02 0.  1.
       -1    1    3    3    0  502 -0.77684581332E+03  0.15043473017E+03 -0.90100908890E+03  0.11991402770E+04  0.50400001928E-02 0. -1.
</event>
<event>
 5   0  0.2122194E-05  0.2312535E+04  0.7818609E-02  0.8472995E-01
        2   -1    0    0  501    0  0.00000000000E+00  0.00000000000E+00  0.21194372145E+04  0.21194372145E+04  0.25500000920E-02 0. -1.
       -2   -1    0    0    0  501  0.00000000000E+00  0.00000000000E+00 -0.63080619616E+03  0.63080619616E+03  0.25500000920E-02 0.  1.
    10030    2    1    2    0    0  0.00000000000E+00  0.00000000000E+00  0.14886310183E+04  0.27502434107E+04  0.23125346504E+04 0.  0.
        3    1    3    3  502    0 -0.47428535317E+03  0.78701868262E+03 -0.90391586525E+02  0.92331774170E+03  0.10100000352E+00 0.  1.
       -3    1    3    3    0  502  0.47428535317E+03 -0.78701868262E+03  0.15790226049E+04  0.18269256690E+04  0.10100000352E+00 0. -1.
</event>
<event>
 5   0  0.9038897E-06  0.2391090E+04  0.7818609E-02  0.8442847E-01
        1   -1    0    0  501    0  0.00000000000E+00  0.00000000000E+00  0.35283999374E+04  0.35283999375E+04  0.50400001928E-02 0. -1.
       -1   -1    0    0    0  501  0.00000000000E+00  0.00000000000E+00 -0.40509224027E+03  0.40509224030E+03  0.50400001928E-02 0.  1.
    10030    2    1    2    0    0  0.00000000000E+00  0.00000000000E+00  0.31233076972E+04  0.39334921778E+04  0.23910896556E+04 0.  0.
        1    1    3    3  502    0  0.34764664188E+03 -0.25082129775E+03 -0.27431113887E+03  0.50893625529E+03  0.50400001928E-02 0.  1.
       -1    1    3    3    0  502 -0.34764664188E+03  0.25082129775E+03  0.33976188360E+04  0.34245559225E+04  0.50400001928E-02 0. -1.
</event>
<event>
 5   0  0.8528103E-06  0.2319172E+04  0.7818609E-02  0.8470400E-01
        1   -1    0    0  501    0  0.00000000000E+00  0.00000000000E+00  0.12775629713E+04  0.12775629713E+04  0.50400001928E-02 0. -1.
       -1   -1    0    0    0  501  0.00000000000E+00  0.00000000000E+00 -0.10525034003E+04  0.10525034004E+04  0.50400001928E-02 0.  1.
    10030    2    1    2    0    0  0.00000000000E+00  0.00000000000E+00  0.22505957094E+03  0.23300663716E+04  0.23191717241E+04 0.  0.
        4    1    3    3  502    0  0.14144416132E+03 -0.92115438817E+03 -0.58071588632E+03  0.10980730445E+04  0.12699999809E+01 0.  1.
       -4    1    3    3    0  502 -0.14144416132E+03  0.92115438817E+03  0.80577545727E+03  0.12319933271E+04  0.12699999809E+01 0. -1.
</event>
<event>
 5   0  0.2080257E-05  0.2393488E+04  0.7818609E-02  0.8441946E-01
        2   -1    0    0  501    0  0.00000000000E+00  0.00000000000E+00  0.18998030930E+04  0.18998030930E+04  0.25500000920E-02 0. -1.
       -2   -1    0    0    0  501  0.00000000000E+00  0.00000000000E+00 -0.75386544093E+03  0.75386544093E+03  0.25500000920E-02 0.  1.
    10030    2    1    2    0    0  0.00000000000E+00  0.00000000000E+00  0.11459376521E+04  0.26536685339E+04  0.23934877450E+04 0.  0.
        1    1    3    3  502    0 -0.87306925029E+03 -0.48498708617E+03  0.13039850637E+04  0.16425101023E+04  0.50400001928E-02 0.  1.
       -1    1    3    3    0  502  0.87306925029E+03  0.48498708617E+03 -0.15804741168E+03  0.10111584317E+04  0.50400001928E-02 0. -1.
</event>
<event>
 5   0  0.9038897E-06  0.2417885E+04  0.7818609E-02  0.8432838E-01
       -1   -1    0    0    0  501  0.00000000000E+00  0.00000000000E+00  0.14587401711E+04  0.14587401711E+04  0.50400001928E-02 0. -1.
        1   -1    0    0  501    0  0.00000000000E+00  0.00000000000E+00 -0.10019206556E+04  0.10019206556E+04  0.50400001928E-02 0.  1.
    10030    2    1    2    0    0  0.00000000000E+00  0.00000000000E+00  0.45681951552E+03  0.24606608267E+04  0.24178849506E+04 0.  0.
        1    1    3    3  502    0 -0.93678862533E+03  0.13986280297E+03 -0.53615181047E+03  0.10883902315E+04  0.50400001928E-02 0.  1.
       -1    1    3    3    0  502  0.93678862533E+03 -0.13986280297E+03  0.99297132599E+03  0.13722705952E+04  0.50400001928E-02 0. -1.
</event>
<event>
 5   0  0.9038897E-06  0.2383336E+04  0.7818609E-02  0.8445769E-01
       -1   -1    0    0    0  501  0.00000000000E+00  0.00000000000E+00  0.11413557790E+04  0.11413557790E+04  0.50400001928E-02 0.  1.
        1   -1    0    0  501    0  0.00000000000E+00  0.00000000000E+00 -0.12441981238E+04  0.12441981238E+04  0.50400001928E-02 0. -1.
    10030    2    1    2    0    0  0.00000000000E+00  0.00000000000E+00 -0.10284234481E+03  0.23855539028E+04  0.23833360811E+04 0.  0.
        1    1    3    3  502    0  0.10132415076E+04 -0.31513397196E+03 -0.59424025943E+03  0.12161781362E+04  0.50400001928E-02 0. -1.
       -1    1    3    3    0  502 -0.10132415076E+04  0.31513397196E+03  0.49139791462E+03  0.11693757666E+04  0.50400001928E-02 0.  1.
</event>
<event>
 5   0  0.2122194E-05  0.2393378E+04  0.7818609E-02  0.8441987E-01
       -2   -1    0    0    0  501  0.00000000000E+00  0.00000000000E+00  0.12877943215E+04  0.12877943215E+04  0.25500000920E-02 0. -1.
        2   -1    0    0  501    0  0.00000000000E+00  0.00000000000E+00 -0.11120285026E+04  0.11120285026E+04  0.25500000920E-02 0.  1.
    10030    2    1    2    0    0  0.00000000000E+00  0.00000000000E+00  0.17576581887E+03  0.23998228241E+04  0.23933775223E+04 0.  0.
        3    1    3    3  502    0  0.30494051760E+03  0.27207642397E+03  0.12156560894E+04  0.12825108334E+04  0.10100000352E+00 0. -1.
       -3    1    3    3    0  502 -0.30494051760E+03 -0.27207642397E+03 -0.10398902705E+04  0.11173119908E+04  0.10100000352E+00 0.  1.
</event>
<event>
 5   0  0.2048028E-05  0.2395983E+04  0.7818609E-02  0.8441009E-01
        2   -1    0    0  501    0  0.00000000000E+00  0.00000000000E+00  0.29133524203E+04  0.29133524203E+04  0.25500000920E-02 0.  1.
       -2   -1    0    0    0  501  0.00000000000E+00  0.00000000000E+00 -0.49262263834E+03  0.49262263834E+03  0.25500000920E-02 0. -1.
    10030    2    1    2    0    0  0.00000000000E+00  0.00000000000E+00  0.24207297820E+04  0.34059750586E+04  0.23959827676E+04 0.  0.
        5    1    3    3  502    0 -0.83215164305E+03 -0.63716881951E+03  0.38550563907E+03  0.11167350399E+04  0.46999998093E+01 0.  1.
       -5    1    3    3    0  502  0.83215164305E+03  0.63716881951E+03  0.20352241429E+04  0.22892400187E+04  0.46999998093E+01 0. -1.
</event>
<event>
 5   0  0.2087882E-05  0.2384813E+04  0.7818609E-02  0.8445211E-01
        2   -1    0    0  501    0  0.00000000000E+00  0.00000000000E+00  0.12274548014E+04  0.12274548014E+04  0.25500000920E-02 0.  1.
       -2   -1    0    0    0  501  0.00000000000E+00  0.00000000000E+00 -0.11583586387E+04  0.11583586387E+04  0.25500000920E-02 0. -1.
    10030    2    1    2    0    0  0.00000000000E+00  0.00000000000E+00  0.69096162699E+02  0.23858134400E+04  0.23848126742E+04 0.  0.
        2    1    3    3  502    0 -0.11087746058E+04  0.10381305434E+03 -0.39186381376E+03  0.11805572944E+04  0.25500000920E-02 0. -1.
       -2    1    3    3    0  502  0.11087746058E+04 -0.10381305434E+03  0.46095997646E+03  0.12052561457E+04  0.25500000920E-02 0.  1.
</event>
<event>
 5   0  0.2087882E-05  0.2405129E+04  0.7818609E-02  0.8437586E-01
       -2   -1    0    0    0  501  0.00000000000E+00  0.00000000000E+00  0.70453054118E+03  0.70453054119E+03  0.25500000920E-02 0. -1.
        2   -1    0    0  501    0  0.00000000000E+00  0.00000000000E+00 -0.20526603985E+04  0.20526603985E+04  0.25500000920E-02 0.  1.
    10030    2    1    2    0    0  0.00000000000E+00  0.00000000000E+00 -0.13481298573E+04  0.27571909397E+04  0.24051294696E+04 0.  0.
        2    1    3    3  502    0 -0.59704320204E+03  0.81833777207E+03  0.68895650067E+02  0.10153245318E+04  0.25500000920E-02 0. -1.
       -2    1    3    3    0  502  0.59704320204E+03 -0.81833777207E+03 -0.14170255074E+04  0.17418664079E+04  0.25500000920E-02 0.  1.
</event>
<event>
 5   0  0.2122194E-05  0.2416188E+04  0.7818609E-02  0.8433468E-01
        2   -1    0    0  501    0  0.00000000000E+00  0.00000000000E+00  0.18661568015E+04  0.18661568015E+04  0.25500000920E-02 0.  1.
       -2   -1    0    0    0  501  0.00000000000E+00  0.00000000000E+00 -0.78208364605E+03  0.78208364606E+03  0.25500000920E-02 0. -1.
    10030    2    1    2    0    0  0.00000000000E+00  0.00000000000E+00  0.10840731554E+04  0.26482404475E+04  0.24161876710E+04 0.  0.
        3    1    3    3  502    0  0.93557853185E+03 -0.66365576130E+03  0.95758576661E+03  0.14942277836E+04  0.10100000352E+00 0.  1.
       -3    1    3    3    0  502 -0.93557853185E+03  0.66365576130E+03  0.12648738883E+03  0.11540126639E+04  0.10100000352E+00 0. -1.
</event>
<event>
 5   0  0.9083687E-06  0.2413191E+04  0.7818609E-02  0.8434582E-01
        1   -1    0    0  501    0  0.00000000000E+00  0.00000000000E+00  0.20096289029E+04  0.20096289029E+04  0.50400001928E-02 0. -1.
       -1   -1    0    0    0  501  0.00000000000E+00  0.00000000000E+00 -0.72444843186E+03  0.72444843188E+03  0.50400001928E-02 0.  1.
    10030    2    1    2    0    0  0.00000000000E+00  0.00000000000E+00  0.12851804710E+04  0.27340773348E+04  0.24131908398E+04 0.  0.
        2    1    3    3  502    0  0.49294175687E+03 -0.10452672470E+04  0.10355491014E+04  0.15517529232E+04  0.25500000920E-02 0. -1.
       -2    1    3    3    0  502 -0.49294175687E+03  0.10452672470E+04  0.24963136962E+03  0.11823244115E+04  0.25500000920E-02 0.  1.
</event>
<event>
 5   0  0.2080257E-05  0.2399075E+04  0.7818609E-02  0.8439850E-01
        2   -1    0    0  501    0  0.00000000000E+00  0.00000000000E+00  0.16214707483E+04  0.16214707483E+04  0.25500000920E-02 0. -1.
       -2   -1    0    0    0  501  0.00000000000E+00  0.00000000000E+00 -0.88739854107E+03  0.88739854107E+03  0.25500000920E-02 0.  1.
    10030    2    1    2    0    0  0.00000000000E+00  0.00000000000E+00  0.73407220723E+03  0.25088692894E+04  0.23990754690E+04 0.  0.
        1    1    3    3  502    0 -0.81331223778E+03  0.25329593360E+03 -0.51615885943E+03  0.99601987645E+03  0.50400001928E-02 0.  1.
       -1    1    3    3    0  502  0.81331223778E+03 -0.25329593360E+03  0.12502310667E+04  0.15128494129E+04  0.50400001928E-02 0. -1.
</event>
<event>
 5   0  0.9176817E-06  0.2405153E+04  0.7818609E-02  0.8437577E-01
       -1   -1    0    0    0  501  0.00000000000E+00  0.00000000000E+00  0.10153141019E+04  0.10153141019E+04  0.50400001928E-02 0. -1.
        1   -1    0    0  501    0  0.00000000000E+00  0.00000000000E+00 -0.14243768734E+04  0.14243768734E+04  0.50400001928E-02 0.  1.
    10030    2    1    2    0    0  0.00000000000E+00  0.00000000000E+00 -0.40906277152E+03  0.24396909754E+04  0.24051527403E+04 0.  0.
        3    1    3    3  502    0  0.10586276638E+04 -0.40256541412E+03  0.20554929097E+03  0.11510872966E+04  0.10100000352E+00 0. -1.
       -3    1    3    3    0  502 -0.10586276638E+04  0.40256541412E+03 -0.61461206249E+03  0.12886036787E+04  0.10100000352E+00 0.  1.
</event>
<event>
 5   0  0.9176817E-06  0.2428547E+04  0.7818609E-02  0.8428893E-01
        1   -1    0    0  501    0  0.00000000000E+00  0.00000000000E+00  0.78410687619E+03  0.78410687620E+03  0.50400001928E-02 0.  1.
       -1   -1    0    0    0  501  0.00000000000E+00  0.00000000000E+00 -0.18804320785E+04  0.18804320785E+04  0.50400001928E-02 0. -1.
    10030    2    1    2    0    0  0.00000000000E+00  0.00000000000E+00 -0.10963252023E+04  0.26645389547E+04  0.24285466625E+04 0.  0.
        3    1    3    3  502    0  0.36958971765E+03 -0.78613768358E+03 -0.14790493234E+04  0.17152830461E+04  0.10100000352E+00 0. -1.
       -3    1    3    3    0  502 -0.36958971765E+03  0.78613768358E+03  0.38272412111E+03  0.94925590860E+03  0.10100000352E+00 0.  1.
</event>
<event>
 5   0  0.8528103E-06  0.2401431E+04  0.7818609E-02  0.8438968E-01
        1   -1    0    0  501    0  0.00000000000E+00  0.00000000000E+00  0.12521091790E+04  0.12521091790E+04  0.50400001928E-02 0.  1.
       -1   -1    0    0    0  501  0.00000000000E+00  0.00000000000E+00 -0.11514317305E+04  0.11514317305E+04  0.50400001928E-02 0. -1.
    10030    2    1    2    0    0  0.00000000000E+00  0.00000000000E+00  0.10067744850E+03  0.24035409096E+04  0.24014314388E+04 0.  0.
        4    1    3    3  502    0  0.65522445391E+02  0.84141091253E+03 -0.80449061918E+03  0.11659641006E+04  0.12699999809E+01 0. -1.
       -4    1    3    3    0  502 -0.65522445391E+02 -0.84141091253E+03  0.90516806768E+03  0.12375768090E+04  0.12699999809E+01 0.  1.
</event>
<event>
 5   0  0.2025353E-05  0.2389949E+04  0.7818609E-02  0.8443276E-01
        2   -1    0    0  501    0  0.00000000000E+00  0.00000000000E+00  0.19017101953E+04  0.19017101953E+04  0.25500000920E-02 0. -1.
       -2   -1    0    0    0  501  0.00000000000E+00  0.00000000000E+00 -0.75088385033E+03  0.75088385033E+03  0.25500000920E-02 0.  1.
    10030    2    1    2    0    0  0.00000000000E+00  0.00000000000E+00  0.11508263450E+04  0.26525940456E+04  0.23899485130E+04 0.  0.
        4    1    3    3  502    0  0.36111218105E+03 -0.80272504402E+03  0.14724345491E+04  0.17154692122E+04  0.12699999809E+01 0. -1.
       -4    1    3    3    0  502 -0.36111218105E+03  0.80272504402E+03 -0.32160820414E+03  0.93712483345E+03  0.12699999809E+01 0.  1.
</event>
<event>
 5   0  0.9176817E-06  0.2384029E+04  0.7818609E-02  0.8445507E-01
       -1   -1    0    0    0  501  0.00000000000E+00  0.00000000000E+00  0.13411346979E+04  0.13411346979E+04  0.50400001928E-02 0.  1.
        1   -1    0    0  501    0  0.00000000000E+00  0.00000000000E+00 -0.10594747952E+04  0.10594747952E+04  0.50400001928E-02 0. -1.
    10030    2    1    2    0    0  0.00000000000E+00  0.00000000000E+00  0.28165990274E+03  0.24006094931E+04  0.23840288668E+04 0.  0.
        3    1    3    3  502    0  0.10084228552E+02 -0.39737359424E+03 -0.99077003162E+03  0.10675358218E+04  0.10100000352E+00 0. -1.
       -3    1    3    3    0  502 -0.10084228552E+02  0.39737359424E+03  0.12724299344E+04  0.13330736713E+04  0.10100000352E+00 0.  1.
</event>
<event>
 5   0  0.2048028E-05  0.2383431E+04  0.7818609E-02  0.8445733E-01
       -2   -1    0    0    0  501  0.00000000000E+00  0.00000000000E+00  0.99661325948E+03  0.99661325949E+03  0.25500000920E-02 0. -1.
        2   -1    0    0  501    0  0.00000000000E+00  0.00000000000E+00 -0.14250124497E+04  0.14250124497E+04  0.25500000920E-02 0.  1.
    10030    2    1    2    0    0  0.00000000000E+00  0.00000000000E+00 -0.42839919020E+03  0.24216257092E+04  0.23834313938E+04 0.  0.
        5    1    3    3  502    0 -0.36829312204E+03 -0.18685259167E+03  0.92157381130E+03  0.10098881594E+04  0.46999998093E+01 0. -1.
       -5    1    3    3    0  502  0.36829312204E+03  0.18685259167E+03 -0.13499730015E+04  0.14117375498E+04  0.46999998093E+01 0.  1.
</event>
<event>
 5   0  0.9176817E-06  0.2369059E+04  0.7818609E-02  0.8451179E-01
       -1   -1    0    0    0  501  0.00000000000E+00  0.00000000000E+00  0.90377901037E+03  0.90377901039E+03  0.50400001928E-02 0.  1.
        1   -1    0    0  501    0  0.00000000000E+00  0.00000000000E+00 -0.15524927939E+04  0.15524927939E+04  0.50400001928E-02 0. -1.
    10030    2    1    2    0    0  0.00000000000E+00  0.00000000000E+00 -0.64871378353E+03  0.24562718043E+04  0.23690592233E+04 0.  0.
        3    1    3    3  502    0  0.15521387165E+03 -0.99167309621E+03 -0.97648148102E+03  0.14003652983E+04  0.10100000352E+00 0. -1.
       -3    1    3    3    0  502 -0.15521387165E+03  0.99167309621E+03  0.32776769749E+03  0.10559065060E+04  0.10100000352E+00 0.  1.
</event>
<event>
 5   0  0.2080257E-05  0.2413195E+04  0.7818609E-02  0.8434580E-01
       -2   -1    0    0    0  501  0.00000000000E+00  0.00000000000E+00  0.80017190606E+03  0.80017190607E+03  0.25500000920E-02 0. -1.
        2   -1    0    0  501    0  0.00000000000E+00  0.00000000000E+00 -0.18194565903E+04  0.18194565903E+04  0.25500000920E-02 0.  1.
    10030    2    1    2    0    0  0.00000000000E+00  0.00000000000E+00 -0.10192846843E+04  0.26196284964E+04  0.24131954317E+04 0.  0.
        1    1    3    3  502    0  0.53295939894E+03 -0.70882810916E+03 -0.13977967103E+04  0.16553907855E+04  0.50400001928E-02 0.  1.
       -1    1    3    3    0  502 -0.53295939894E+03  0.70882810916E+03  0.37851202605E+03  0.96423771091E+03  0.50400001928E-02 0. -1.
</event>
<event>
 5   0  0.9176817E-06  0.2376214E+04  0.7818609E-02  0.8448463E-01
        1   -1    0    0  501    0  0.00000000000E+00  0.00000000000E+00  0.14594122225E+04  0.14594122225E+04  0.50400001928E-02 0. -1.
       -1   -1    0    0    0  501  0.00000000000E+00  0.00000000000E+00 -0.96723720647E+03  0.96723720648E+03  0.50400001928E-02 0.  1.
    10030    2    1    2    0    0  0.00000000000E+00  0.00000000000E+00  0.49217501607E+03  0.24266494290E+04  0.23762136278E+04 0.  0.
        3    1    3    3  502    0  0.14384395862E+03  0.78173756015E+03 -0.65571460707E+03  0.10304204741E+04  0.10100000352E+00 0.  1.
       -3    1    3    3    0  502 -0.14384395862E+03 -0.78173756015E+03  0.11478896231E+04  0.13962289549E+04  0.10100000352E+00 0. -1.
</event>
<event>
 5   0  0.2048028E-05  0.2387560E+04  0.7818609E-02  0.8444176E-01
        2   -1    0    0  501    0  0.00000000000E+00  0.00000000000E+00  0.10632160257E+04  0.10632160257E+04  0.25500000920E-02 0.  1.
       -2   -1    0    0    0  501  0.00000000000E+00  0.00000000000E+00 -0.13403772363E+04  0.13403772363E+04  0.25500000920E-02 0. -1.
    10030    2    1    2    0    0  0.00000000000E+00  0.00000000000E+00 -0.27716121061E+03  0.24035932621E+04  0.23875598909E+04 0.  0.
        5    1    3    3  502    0  0.63838933838E+03 -0.68107735653E+03  0.61051383638E+03  0.11154176560E+04  0.46999998093E+01 0.  1.
       -5    1    3    3    0  502 -0.63838933838E+03  0.68107735653E+03 -0.88767504699E+03  0.12881756060E+04  0.46999998093E+01 0. -1.
</event>
<event>
 5   0  0.2122194E-05  0.2396895E+04  0.7818609E-02  0.8440667E-01
        2   -1    0    0  501    0  0.00000000000E+00  0.00000000000E+00  0.12125136734E+04  0.12125136734E+04  0.25500000920E-02 0.  1.
       -2   -1    0    0    0  501  0.00000000000E+00  0.00000000000E+00 -0.11845449794E+04  0.11845449794E+04  0.25500000920E-02 0. -1.
    10030    2    1    2    0    0  0.00000000000E+00  0.00000000000E+00  0.27968694024E+02  0.23970586528E+04  0.23968954790E+04 0.  0.
        3    1    3    3  502    0  0.85326146220E+03  0.13434834205E+03 -0.81683834610E+03  0.11888353518E+04  0.10100000352E+00 0. -1.
       -3    1    3    3    0  502 -0.85326146220E+03 -0.13434834205E+03  0.84480704012E+03  0.12082233010E+04  0.10100000352E+00 0.  1.
</event>
<event>
 5   0  0.2122194E-05  0.2391165E+04  0.7818609E-02  0.8442819E-01
       -2   -1    0    0    0  501  0.00000000000E+00  0.00000000000E+00  0.80404091441E+03  0.80404091441E+03  0.25500000920E-02 0.  1.
        2   -1    0    0  501    0  0.00000000000E+00  0.00000000000E+00 -0.17777919771E+04  0.17777919771E+04  0.25500000920E-02 0. -1.
    10030    2    1    2    0    0  0.00000000000E+00  0.00000000000E+00 -0.97375106266E+03  0.25818328915E+04  0.23911649771E+04 0.  0.
        3    1    3    3  502    0  0.42125750630E+03  0.10695658626E+03  0.71572239929E+03  0.83735067982E+03  0.10100000352E+00 0.  1.
       -3    1    3    3    0  502 -0.42125750630E+03 -0.10695658626E+03 -0.16894734619E+04  0.17444822117E+04  0.10100000352E+00 0. -1.
</event>
<event>
 5   0  0.9038897E-06  0.2387746E+04  0.7818609E-02  0.8444106E-01
        1   -1    0    0  501    0  0.00000000000E+00  0.00000000000E+00  0.17986616594E+04  0.17986616594E+04  0.50400001928E-02 0. -1.
       -1   -1    0    0    0  501  0.00000000000E+00  0.00000000000E+00 -0.79244052947E+03  0.79244052948E+03  0.50400001928E-02 0.  1.
    10030    2    1    2    0    0  0.00000000000E+00  0.00000000000E+00  0.10062211299E+04  0.25911021889E+04  0.23877457132E+04 0.  0.
        1    1    3    3  502    0 -0.55893027319E+03 -0.28785286222E+02 -0.64126489156E+03  0.85114763947E+03  0.50400001928E-02 0.  1.
       -1    1    3    3    0  502  0.55893027319E+03  0.28785286222E+02  0.16474860215E+04  0.17399545494E+04  0.50400001928E-02 0. -1.
</event>
<event>
 5   0  0.8528103E-06  0.2402888E+04  0.7818609E-02  0.8438423E-01
       -1   -1    0    0    0  501  0.00000000000E+00  0.00000000000E+00  0.82850719799E+03  0.82850719800E+03  0.50400001928E-02 0.  1.
        1   -1    0    0  501    0  0.00000000000E+00  0.00000000000E+00 -0.17422505990E+04  0.17422505990E+04  0.50400001928E-02 0. -1.
    10030    2    1    2    0    0  0.00000000000E+00  0.00000000000E+00 -0.91374340100E+03  0.25707577970E+04  0.24028875646E+04 0.  0.
        4    1    3    3  502    0 -0.63757646252E+03 -0.82705485738E+03 -0.10924651664E+04  0.15112925710E+04  0.12699999809E+01 0. -1.
       -4    1    3    3    0  502  0.63757646252E+03  0.82705485738E+03  0.17872176536E+03  0.10594652260E+04  0.12699999809E+01 0.  1.
</event>
<event>
 5   0  0.9038897E-06  0.2397747E+04  0.7818609E-02  0.8440347E-01
       -1   -1    0    0    0  501  0.00000000000E+00  0.00000000000E+00  0.24951804511E+04  0.24951804511E+04  0.50400001928E-02 0. -1.
        1   -1    0    0  501    0  0.00000000000E+00  0.00000000000E+00 -0.57602977011E+03  0.57602977013E+03  0.50400001928E-02 0.  1.
    10030    2    1    2    0    0  0.00000000000E+00  0.00000000000E+00  0.19191506809E+04  0.30712102212E+04  0.23977474610E+04 0.  0.
        1    1    3    3  502    0 -0.10673218623E+04  0.45344823075E+03  0.56999832760E+03  0.12921645983E+04  0.50400001928E-02 0. -1.
       -1    1    3    3    0  502  0.10673218623E+04 -0.45344823075E+03  0.13491523533E+04  0.17790456229E+04  0.50400001928E-02 0.  1.
</event>
<event>
 5   0  0.8898848E-06  0.2362017E+04  0.7818609E-02  0.8453862E-01
       -1   -1    0    0    0  501  0.00000000000E+00  0.00000000000E+00  0.80022381451E+03  0.80022381453E+03  0.50400001928E-02 0.  1.
        1   -1    0    0  501    0  0.00000000000E+00  0.00000000000E+00 -0.17429885148E+04  0.17429885148E+04  0.50400001928E-02 0. -1.
    10030    2    1    2    0    0  0.00000000000E+00  0.00000000000E+00 -0.94276470033E+03  0.25432123294E+04  0.23620168653E+04 0.  0.
        5    1    3    3  502    0 -0.10358259293E+04  0.50722626355E+03 -0.74492868117E+03  0.13730093475E+04  0.46999998093E+01 0. -1.
       -5    1    3    3    0  502  0.10358259293E+04 -0.50722626355E+03 -0.19783601915E+03  0.11702029819E+04  0.46999998093E+01 0.  1.
</event>
<event>
 5   0  0.9176817E-06  0.2386079E+04  0.7818609E-02  0.8444734E-01
       -1   -1    0    0    0  501  0.00000000000E+00  0.00000000000E+00  0.73469122822E+03  0.73469122824E+03  0.50400001928E-02 0.  1.
        1   -1    0    0  501    0  0.00000000000E+00  0.00000000000E+00 -0.19373345938E+04  0.19373345938E+04  0.50400001928E-02 0. -1.
    10030    2    1    2    0    0  0.00000000000E+00  0.00000000000E+00 -0.12026433656E+04  0.26720258221E+04  0.23860785672E+04 0.  0.
        3    1    3    3  502    0 -0.17190818049E+03  0.85152206510E+03  0.31441734972E+03  0.92385092405E+03  0.10100000352E+00 0.  1.
       -3    1    3    3    0  502  0.17190818049E+03 -0.85152206510E+03 -0.15170607153E+04  0.17481748980E+04  0.10100000352E+00 0. -1.
</event>
<event>
 5   0  0.8528103E-06  0.2407101E+04  0.7818609E-02  0.8436850E-01
       -1   -1    0    0    0  501  0.00000000000E+00  0.00000000000E+00  0.66524749680E+03  0.66524749682E+03  0.50400001928E-02 0. -1.
        1   -1    0    0  501    0  0.00000000000E+00  0.00000000000E+00 -0.21774352212E+04  0.21774352212E+04  0.50400001928E-02 0.  1.
    10030    2    1    2    0    0  0.00000000000E+00  0.00000000000E+00 -0.15121877244E+04  0.28426827180E+04  0.24071006048E+04 0.  0.
        4    1    3    3  502    0 -0.11832496991E+04  0.21981257049E+03 -0.74240795497E+03  0.14140610316E+04  0.12699999809E+01 0. -1.
       -4    1    3    3    0  502  0.11832496991E+04 -0.21981257049E+03 -0.76977976942E+03  0.14286216864E+04  0.12699999809E+01 0.  1.
</event>
<event>
 5   0  0.9083687E-06  0.2418939E+04  0.7818609E-02  0.8432447E-01
       -1   -1    0    0    0  501  0.00000000000E+00  0.00000000000E+00  0.13420214723E+04  0.13420214723E+04  0.50400001928E-02 0.  1.
        1   -1    0    0  501    0  0.00000000000E+00  0.00000000000E+00 -0.10900099681E+04  0.10900099681E+04  0.50400001928E-02 0. -1.
    10030    2    1    2    0    0  0.00000000000E+00  0.00000000000E+00  0.25201150419E+03  0.24320314404E+04  0.24189392569E+04 0.  0.
        2    1    3    3  502    0 -0.39130410719E+03 -0.45018593839E+03  0.11838555690E+04  0.13256320348E+04  0.25500000920E-02 0.  1.
       -2    1    3    3    0  502  0.39130410719E+03  0.45018593839E+03 -0.93184406483E+03  0.11063994055E+04  0.25500000920E-02 0. -1.
</event>
<event>
 5   0  0.2087882E-05  0.2389483E+04  0.7818609E-02  0.8443452E-01
        2   -1    0    0  501    0  0.00000000000E+00  0.00000000000E+00  0.24514821060E+04  0.24514821060E+04  0.25500000920E-02 0. -1.
       -2   -1    0    0    0  501  0.00000000000E+00  0.00000000000E+00 -0.58226288874E+03  0.58226288874E+03  0.25500000920E-02 0.  1.
    10030    2    1    2    0    0  0.00000000000E+00  0.00000000000E+00  0.18692192172E+04  0.30337449947E+04  0.23894828333E+04 0.  0.
        2    1    3    3  502    0  0.25305365445E+03  0.25491371434E+03 -0.51208786184E+03  0.62550070506E+03  0.25500000920E-02 0.  1.
       -2    1    3    3    0  502 -0.25305365445E+03 -0.25491371434E+03  0.23813070791E+04  0.24082442896E+04  0.25500000920E-02 0. -1.
</event>
<event>
 5   0  0.8898848E-06  0.2395216E+04  0.7818609E-02  0.8441297E-01
       -1   -1    0    0    0  501  0.00000000000E+00  0.00000000000E+00  0.16412139538E+04  0.16412139538E+04  0.50400001928E-02 0.  1.
        1   -1    0    0  501    0  0.00000000000E+00  0.00000000000E+00 -0.87390516124E+03  0.87390516125E+03  0.50400001928E-02 0. -1.
    10030    2    1    2    0    0  0.00000000000E+00  0.00000000000E+00  0.76730879253E+03  0.25151191150E+04  0.23952163534E+04 0.  0.
        5    1    3    3  502    0 -0.45337484150E+03  0.99924145752E+03  0.88747608817E+03  0.14112647287E+04  0.46999998093E+01 0.  1.
       -5    1    3    3    0  502  0.45337484150E+03 -0.99924145752E+03 -0.12016729564E+03  0.11038543864E+04  0.46999998093E+01 0. -1.
</event>
<event>
 5   0  0.9176817E-06  0.2414714E+04  0.7818609E-02  0.8434015E-01
        1   -1    0    0  501    0  0.00000000000E+00  0.00000000000E+00  0.10093286962E+04  0.10093286962E+04  0.50400001928E-02 0.  1.
       -1   -1    0    0    0  501  0.00000000000E+00  0.00000000000E+00 -0.14442385963E+04  0.14442385964E+04  0.50400001928E-02 0. -1.
    10030    2    1    2    0    0  0.00000000000E+00  0.00000000000E+00 -0.43490990013E+03  0.24535672926E+04  0.24147144423E+04 0.  0.
        3    1    3    3  502    0 -0.11038326473E+03  0.21708181842E+03 -0.14190227597E+04  0.14397689341E+04  0.10100000352E+00 0. -1.
       -3    1    3    3    0  502  0.11038326473E+03 -0.21708181842E+03  0.98411285956E+03  0.10137983584E+04  0.10100000352E+00 0.  1.
</event>
<event>
 5   0  0.2087882E-05  0.2393271E+04  0.7818609E-02  0.8442027E-01
        2   -1    0    0  501    0  0.00000000000E+00  0.00000000000E+00  0.20884915634E+04  0.20884915634E+04  0.25500000920E-02 0. -1.
       -2   -1    0    0    0  501  0.00000000000E+00  0.00000000000E+00 -0.68563185215E+03  0.68563185215E+03  0.25500000920E-02 0.  1.
    10030    2    1    2    0    0  0.00000000000E+00  0.00000000000E+00  0.14028597112E+04  0.27741234155E+04  0.23932708487E+04 0.  0.
        2    1    3    3  502    0 -0.83429861756E+03  0.85711337842E+03  0.74222764621E+03  0.14076929372E+04  0.25500000920E-02 0. -1.
       -2    1    3    3    0  502  0.83429861756E+03 -0.85711337842E+03  0.66063206504E+03  0.13664304783E+04  0.25500000920E-02 0.  1.
</event>
<event>
 5   0  0.9083687E-06  0.2329622E+04  0.7818609E-02  0.8466332E-01
       -1   -1    0    0    0  501  0.00000000000E+00  0.00000000000E+00  0.85056639998E+03  0.85056639999E+03  0.50400001928E-02 0. -1.
        1   -1    0    0  501    0  0.00000000000E+00  0.00000000000E+00 -0.15951545881E+04  0.15951545881E+04  0.50400001928E-02 0.  1.
    10030    2    1    2    0    0  0.00000000000E+00  0.00000000000E+00 -0.74458818813E+03  0.24457209881E+04  0.23296221972E+04 0.  0.
        2    1    3    3  502    0 -0.72254570987E+03 -0.63105216578E+03 -0.10658898914E+04  0.14340224543E+04  0.25500000920E-02 0.  1.
       -2    1    3    3    0  502  0.72254570987E+03  0.63105216578E+03  0.32130170328E+03  0.10116985338E+04  0.25500000920E-02 0. -1.
</event>
<event>
 5   0  0.8898848E-06  0.2395517E+04  0.7818609E-02  0.8441184E-01
        1   -1    0    0  501    0  0.00000000000E+00  0.00000000000E+00  0.17074934699E+04  0.17074934699E+04  0.50400001928E-02 0.  1.
       -1   -1    0    0    0  501  0.00000000000E+00  0.00000000000E+00 -0.84019349174E+03  0.84019349175E+03  0.50400001928E-02 0. -1.
    10030    2    1    2    0    0  0.00000000000E+00  0.00000000000E+00  0.86729997821E+03  0.25476869617E+04  0.23955165628E+04 0.  0.
        5    1    3    3  502    0 -0.54315349940E+03  0.50087332140E+03 -0.56894990338E+03  0.93253197831E+03  0.46999998093E+01 0. -1.
       -5    1    3    3    0  502  0.54315349940E+03 -0.50087332140E+03  0.14362498816E+04  0.16151549834E+04  0.46999998093E+01 0.  1.
</event>
<event>
 5   0  0.2080257E-05  0.2398046E+04  0.7818609E-02  0.8440235E-01
       -2   -1    0    0    0  501  0.00000000000E+00  0.00000000000E+00  0.51770196944E+03  0.51770196945E+03  0.25500000920E-02 0.  1.
        2   -1    0    0  501    0  0.00000000000E+00  0.00000000000E+00 -0.27769960122E+04  0.27769960122E+04  0.25500000920E-02 0. -1.
    10030    2    1    2    0    0  0.00000000000E+00  0.00000000000E+00 -0.22592940428E+04  0.32946979816E+04  0.23980461252E+04 0.  0.
        1    1    3    3  502    0 -0.65699445608E+03  0.79145186825E+03 -0.28313763341E+03  0.10668667651E+04  0.50400001928E-02 0.  1.
       -1    1    3    3    0  502  0.65699445608E+03 -0.79145186825E+03 -0.19761564093E+04  0.22278312165E+04  0.50400001928E-02 0. -1.
</event>
<event>
 5   0  0.2087882E-05  0.2397990E+04  0.7818609E-02  0.8440257E-01
        2   -1    0    0  501    0  0.00000000000E+00  0.00000000000E+00  0.20016790788E+04  0.20016790788E+04  0.25500000920E-02 0.  1.
       -2   -1    0    0    0  501  0.00000000000E+00  0.00000000000E+00 -0.71819140495E+03  0.71819140495E+03  0.25500000920E-02 0. -1.
    10030    2    1    2    0    0  0.00000000000E+00  0.00000000000E+00  0.12834876739E+04  0.27198704838E+04  0.23979897497E+04 0.  0.
        2    1    3    3  502    0 -0.11812090031E+04 -0.17525616981E+03  0.76400553693E+03  0.14176296747E+04  0.25500000920E-02 0.  1.
       -2    1    3    3    0  502  0.11812090031E+04  0.17525616981E+03  0.51948213693E+03  0.13022408090E+04  0.25500000920E-02 0. -1.
</event>
<event>
 5   0  0.2025353E-05  0.2402796E+04  0.7818609E-02  0.8438458E-01
        2   -1    0    0  501    0  0.00000000000E+00  0.00000000000E+00  0.13682262175E+04  0.13682262175E+04  0.25500000920E-02 0. -1.
       -2   -1    0    0    0  501  0.00000000000E+00  0.00000000000E+00 -0.10549110946E+04  0.10549110946E+04  0.25500000920E-02 0.  1.
    10030    2    1    2    0    0  0.00000000000E+00  0.00000000000E+00  0.31331512292E+03  0.24231373122E+04  0.24027958855E+04 0.  0.
        4    1    3    3  502    0  0.23906359380E+03  0.11716263544E+04  0.39503147009E+02  0.11964204226E+04  0.12699999809E+01 0.  1.
       -4    1    3    3    0  502 -0.23906359380E+03 -0.11716263544E+04  0.27381197591E+03  0.12267168896E+04  0.12699999809E+01 0. -1.
</event>
<event>
 5   0  0.2048028E-05  0.2401802E+04  0.7818609E-02  0.8438829E-01
       -2   -1    0    0    0  501  0.00000000000E+00  0.00000000000E+00  0.12679635424E+04  0.12679635425E+04  0.25500000920E-02 0.  1.
        2   -1    0    0  501    0  0.00000000000E+00  0.00000000000E+00 -0.11373856506E+04  0.11373856506E+04  0.25500000920E-02 0. -1.
    10030    2    1    2    0    0  0.00000000000E+00  0.00000000000E+00  0.13057789188E+03  0.24053491930E+04  0.24018022722E+04 0.  0.
        5    1    3    3  502    0  0.39447642505E+03  0.10397453594E+04  0.51923461334E+03  0.12273176997E+04  0.46999998093E+01 0.  1.
       -5    1    3    3    0  502 -0.39447642505E+03 -0.10397453594E+04 -0.38865672146E+03  0.11780314934E+04  0.46999998093E+01 0. -1.
</event>
<event>
 5   0  0.2025353E-05  0.2417947E+04  0.7818609E-02  0.8432815E-01
        2   -1    0    0  501    0  0.00000000000E+00  0.00000000000E+00  0.11789795446E+04  0.11789795446E+04  0.25500000920E-02 0.  1.
       -2   -1    0    0    0  501  0.00000000000E+00  0.00000000000E+00 -0.12397304619E+04  0.12397304619E+04  0.25500000920E-02 0. -1.
    10030    2    1    2    0    0  0.00000000000E+00  0.00000000000E+00 -0.60750917326E+02  0.24187100066E+04  0.24179469436E+04 0.  0.
        4    1    3    3  502    0 -0.14330255917E+03 -0.11126968111E+04  0.42030576288E+03  0.11980352099E+04  0.12699999809E+01 0.  1.
       -4    1    3    3    0  502  0.14330255917E+03  0.11126968111E+04 -0.48105668021E+03  0.12206747967E+04  0.12699999809E+01 0. -1.
</event>
<event>
 5   0  0.2080257E-05  0.2454191E+04  0.7818609E-02  0.8419489E-01
       -2   -1    0    0    0  501  0.00000000000E+00  0.00000000000E+00  0.83185144268E+03  0.83185144269E+03  0.25500000920E-02 0.  1.
        2   -1    0    0  501    0  0.00000000000E+00  0.00000000000E+00 -0.18101353628E+04  0.18101353628E+04  0.25500000920E-02 0. -1.
    10030    2    1    2    0    0  0.00000000000E+00  0.00000000000E+00 -0.97828392015E+03  0.26419868055E+04  0.24541912827E+04 0.  0.
        1    1    3    3  502    0  0.10140022755E+04 -0.39440983784E+03 -0.11000176657E+04  0.15471905506E+04  0.50400001928E-02 0. -1.
       -1    1    3    3    0  502 -0.10140022755E+04  0.39440983784E+03  0.12173374559E+03  0.10947962549E+04  0.50400001928E-02 0.  1.
</event>
<event>
 5   0  0.9083687E-06  0.2380634E+04  0.7818609E-02  0.8446790E-01
        1   -1    0    0  501    0  0.00000000000E+00  0.00000000000E+00  0.11114363958E+04  0.11114363958E+04  0.50400001928E-02 0.  1.
       -1   -1    0    0    0  501  0.00000000000E+00  0.00000000000E+00 -0.12747956585E+04  0.12747956585E+04  0.50400001928E-02 0. -1.
    10030    2    1    2    0    0  0.00000000000E+00  0.00000000000E+00 -0.16335926271E+03  0.23862320543E+04  0.23806337745E+04 0.  0.
        2    1    3    3  502    0 -0.92725612922E+03  0.52486518915E+03 -0.61355622812E+03  0.12295278122E+04  0.25500000920E-02 0. -1.
       -2    1    3    3    0  502  0.92725612922E+03 -0.52486518915E+03  0.45019696542E+03  0.11567042421E+04  0.25500000920E-02 0.  1.
</event>
<event>
 5   0  0.2087882E-05  0.2398803E+04  0.7818609E-02  0.8439952E-01
       -2   -1    0    0    0  501  0.00000000000E+00  0.00000000000E+00  0.83963047261E+03  0.83963047261E+03  0.25500000920E-02 0.  1.
        2   -1    0    0  501    0  0.00000000000E+00  0.00000000000E+00 -0.17133297281E+04  0.17133297281E+04  0.25500000920E-02 0. -1.
    10030    2    1    2    0    0  0.00000000000E+00  0.00000000000E+00 -0.87369925546E+03  0.25529602007E+04  0.23988029092E+04 0.  0.
        2    1    3    3  502    0 -0.86320386405E+03 -0.75672626028E+03 -0.80676116240E+03  0.14030748794E+04  0.25500000920E-02 0. -1.
       -2    1    3    3    0  502  0.86320386405E+03  0.75672626028E+03 -0.66938093064E+02  0.11498853213E+04  0.25500000920E-02 0.  1.
</event>
<event>
 5   0  0.2122194E-05  0.2396724E+04  0.7818609E-02  0.8440731E-01
       -2   -1    0    0    0  501  0.00000000000E+00  0.00000000000E+00  0.83605233293E+03  0.83605233293E+03  0.25500000920E-02 0. -1.
        2   -1    0    0  501    0  0.00000000000E+00  0.00000000000E+00 -0.17176807871E+04  0.17176807871E+04  0.25500000920E-02 0.  1.
    10030    2    1    2    0    0  0.00000000000E+00  0.00000000000E+00 -0.88162845412E+03  0.25537331200E+04  0.23967236213E+04 0.  0.
        3    1    3    3  502    0 -0.65341155520E+03  0.95787662675E+03 -0.11833812966E+03  0.11655377367E+04  0.10100000352E+00 0. -1.
       -3    1    3    3    0  502  0.65341155520E+03 -0.95787662675E+03 -0.76329032446E+03  0.13881953833E+04  0.10100000352E+00 0.  1.
</event>
<event>
 5   0  0.2048028E-05  0.2402777E+04  0.7818609E-02  0.8438465E-01
        2   -1    0    0  501    0  0.00000000000E+00  0.00000000000E+00  0.19717439149E+04  0.19717439149E+04  0.25500000920E-02 0.  1.
       -2   -1    0    0    0  501  0.00000000000E+00  0.00000000000E+00 -0.73200872077E+03  0.73200872077E+03  0.25500000920E-02 0. -1.
    10030    2    1    2    0    0  0.00000000000E+00  0.00000000000E+00  0.12397351941E+04  0.27037526356E+04  0.24027765113E+04 0.  0.
        5    1    3    3  502    0  0.12076949245E+03 -0.84802254691E+02  0.19614963281E+04  0.19670451514E+04  0.46999998093E+01 0.  1.
       -5    1    3    3    0  502 -0.12076949245E+03  0.84802254691E+02 -0.72176113400E+03  0.73670748419E+03  0.46999998093E+01 0. -1.
</event>
<event>
 5   0  0.2080257E-05  0.2393255E+04  0.7818609E-02  0.8442033E-01
        2   -1    0    0  501    0  0.00000000000E+00  0.00000000000E+00  0.12100720797E+04  0.12100720797E+04  0.25500000920E-02 0. -1.
       -2   -1    0    0    0  501  0.00000000000E+00  0.00000000000E+00 -0.11833320763E+04  0.11833320763E+04  0.25500000920E-02 0.  1.
    10030    2    1    2    0    0  0.00000000000E+00  0.00000000000E+00  0.26740003376E+02  0.23934041560E+04  0.23932547767E+04 0.  0.
        1    1    3    3  502    0 -0.10755130111E+04 -0.15220122500E+03 -0.48868091061E+03  0.11910929780E+04  0.50400001928E-02 0.  1.
       -1    1    3    3    0  502  0.10755130111E+04  0.15220122500E+03  0.51542091399E+03  0.12023111779E+04  0.50400001928E-02 0. -1.
</event>
<event>
 5   0  0.9038897E-06  0.2364971E+04  0.7818609E-02  0.8452736E-01
        1   -1    0    0  501    0  0.00000000000E+00  0.00000000000E+00  0.13393232793E+04  0.13393232793E+04  0.50400001928E-02 0. -1.
       -1   -1    0    0    0  501  0.00000000000E+00  0.00000000000E+00 -0.10440134202E+04  0.10440134202E+04  0.50400001928E-02 0.  1.
    10030    2    1    2    0    0  0.00000000000E+00  0.00000000000E+00  0.29530985914E+03  0.23833366995E+04  0.23649705939E+04 0.  0.
        1    1    3    3  502    0 -0.68062512624E+03 -0.41467561081E+03 -0.73266480425E+03  0.10825914003E+04  0.50400001928E-02 0.  1.
       -1    1    3    3    0  502  0.68062512624E+03  0.41467561081E+03  0.10279746634E+04  0.13007452992E+04  0.50400001928E-02 0. -1.
</event>
<event>
 5   0  0.2087882E-05  0.2398986E+04  0.7818609E-02  0.8439883E-01
        2   -1    0    0  501    0  0.00000000000E+00  0.00000000000E+00  0.18496009260E+04  0.18496009260E+04  0.25500000920E-02 0. -1.
       -2   -1    0    0    0  501  0.00000000000E+00  0.00000000000E+00 -0.77788852158E+03  0.77788852158E+03  0.25500000920E-02 0.  1.
    10030    2    1    2    0    0  0.00000000000E+00  0.00000000000E+00  0.10717124044E+04  0.26274894476E+04  0.23989858940E+04 0.  0.
        2    1    3    3  502    0 -0.37196713980E+03 -0.11399041459E+04  0.57121624394E+03  0.13281675392E+04  0.25500000920E-02 0. -1.
       -2    1    3    3    0  502  0.37196713980E+03  0.11399041459E+04  0.50049616050E+03  0.12993219084E+04  0.25500000920E-02 0.  1.
</event>
<event>
 5   0  0.9176817E-06  0.2406216E+04  0.7818609E-02  0.8437180E-01
        1   -1    0    0  501    0  0.00000000000E+00  0.00000000000E+00  0.14046553106E+04  0.14046553106E+04  0.50400001928E-02 0. -1.
       -1   -1    0    0    0  501  0.00000000000E+00  0.00000000000E+00 -0.10304795228E+04  0.10304795228E+04  0.50400001928E-02 0.  1.
    10030    2    1    2    0    0  0.00000000000E+00  0.00000000000E+00  0.37417578783E+03  0.24351348334E+04  0.24062157294E+04 0.  0.
        3    1    3    3  502    0 -0.32817479145E+03 -0.17759993270E+03  0.13446123814E+04  0.13954292875E+04  0.10100000352E+00 0. -1.
       -3    1    3    3    0  502  0.32817479145E+03  0.17759993270E+03 -0.97043659360E+03  0.10397055459E+04  0.10100000352E+00 0.  1.
</event>
<event>
 5   0  0.2048028E-05  0.2441826E+04  0.7818609E-02  0.8424008E-01
       -2   -1    0    0    0  501  0.00000000000E+00  0.00000000000E+00  0.87610873209E+03  0.87610873210E+03  0.25500000920E-02 0.  1.
        2   -1    0    0  501    0  0.00000000000E+00  0.00000000000E+00 -0.17014199030E+04  0.17014199030E+04  0.25500000920E-02 0. -1.
    10030    2    1    2    0    0  0.00000000000E+00  0.00000000000E+00 -0.82531117086E+03  0.25775286351E+04  0.24418262296E+04 0.  0.
        5    1    3    3  502    0  0.10340927439E+04 -0.37655170880E+03  0.14537062043E+03  0.11100872487E+04  0.46999998093E+01 0. -1.
       -5    1    3    3    0  502 -0.10340927439E+04  0.37655170880E+03 -0.97068179129E+03  0.14674413864E+04  0.46999998093E+01 0.  1.
</event>
<event>
 5   0  0.8528103E-06  0.2423722E+04  0.7818609E-02  0.8430676E-01
       -1   -1    0    0    0  501  0.00000000000E+00  0.00000000000E+00  0.94740620582E+03  0.94740620583E+03  0.50400001928E-02 0.  1.
        1   -1    0    0  501    0  0.00000000000E+00  0.00000000000E+00 -0.15501343576E+04  0.15501343576E+04  0.50400001928E-02 0. -1.
    10030    2    1    2    0    0  0.00000000000E+00  0.00000000000E+00 -0.60272815181E+03  0.24975405635E+04  0.24237218572E+04 0.  0.
        4    1    3    3  502    0  0.11257986805E+04  0.53163625482E+01  0.16079820855E+03  0.11372372706E+04  0.12699999809E+01 0.  1.
       -4    1    3    3    0  502 -0.11257986805E+04 -0.53163625482E+01 -0.76352636036E+03  0.13603032929E+04  0.12699999809E+01 0. -1.
</event>
<event>
 5   0  0.2025353E-05  0.2382032E+04  0.7818609E-02  0.8446261E-01
        2   -1    0    0  501    0  0.00000000000E+00  0.00000000000E+00  0.17297655560E+04  0.17297655560E+04  0.25500000920E-02 0. -1.
       -2   -1    0    0    0  501  0.00000000000E+00  0.00000000000E+00 -0.82006463533E+03  0.82006463533E+03  0.25500000920E-02 0.  1.
    10030    2    1    2    0    0  0.00000000000E+00  0.00000000000E+00  0.90970092069E+03  0.25498301914E+04  0.23820323759E+04 0.  0.
        4    1    3    3  502    0  0.11160033705E+04  0.13686021392E+03  0.87536393940E+03  0.14249413603E+04  0.12699999809E+01 0. -1.
       -4    1    3    3    0  502 -0.11160033705E+04 -0.13686021392E+03  0.34336981288E+02  0.11248888310E+04  0.12699999809E+01 0.  1.
</event>
<event>
 5   0  0.9038897E-06  0.2393048E+04  0.7818609E-02  0.8442111E-01
        1   -1    0    0  501    0  0.00000000000E+00  0.00000000000E+00  0.16731942373E+04  0.16731942373E+04  0.50400001928E-02 0.  1.
       -1   -1    0    0    0  501  0.00000000000E+00  0.00000000000E+00 -0.85565038788E+03  0.85565038790E+03  0.50400001928E-02 0. -1.
    10030    2    1    2    0    0  0.00000000000E+00  0.00000000000E+00  0.81754384941E+03  0.25288446252E+04  0.23930476787E+04 0.  0.
        1    1    3    3  502    0 -0.30449631889E+02 -0.24733352871E+03 -0.82792315766E+03  0.86461425476E+03  0.50400001928E-02 0. -1.
       -1    1    3    3    0  502  0.30449631889E+02  0.24733352871E+03  0.16454670071E+04  0.16642303704E+04  0.50400001928E-02 0.  1.
</event>
<event>
 5   0  0.2080257E-05  0.2429320E+04  0.7818609E-02  0.8428607E-01
        2   -1    0    0  501    0  0.00000000000E+00  0.00000000000E+00  0.13991181855E+04  0.13991181855E+04  0.25500000920E-02 0. -1.
       -2   -1    0    0    0  501  0.00000000000E+00  0.00000000000E+00 -0.10545206257E+04  0.10545206257E+04  0.25500000920E-02 0.  1.
    10030    2    1    2    0    0  0.00000000000E+00  0.00000000000E+00  0.34459755979E+03  0.24536388112E+04  0.24293200567E+04 0.  0.
        1    1    3    3  502    0  0.56353119413E+03  0.10665169570E+04  0.31646219891E+03  0.12470662171E+04  0.50400001928E-02 0. -1.
       -1    1    3    3    0  502 -0.56353119413E+03 -0.10665169570E+04  0.28135360881E+02  0.12065725942E+04  0.50400001928E-02 0.  1.
</event>
<event>
 5   0  0.8528103E-06  0.2379151E+04  0.7818609E-02  0.8447351E-01
        1   -1    0    0  501    0  0.00000000000E+00  0.00000000000E+00  0.15880282302E+04  0.15880282302E+04  0.50400001928E-02 0.  1.
       -1   -1    0    0    0  501  0.00000000000E+00  0.00000000000E+00 -0.89109861425E+03  0.89109861426E+03  0.50400001928E-02 0. -1.
    10030    2    1    2    0    0  0.00000000000E+00  0.00000000000E+00  0.69692961594E+03  0.24791268445E+04  0.23791509034E+04 0.  0.
        4    1    3    3  502    0 -0.38137455250E+03 -0.10129131450E+04  0.86281472954E+03  0.13841569488E+04  0.12699999809E+01 0.  1.
       -4    1    3    3    0  502  0.38137455250E+03  0.10129131450E+04 -0.16588511360E+03  0.10949698956E+04  0.12699999809E+01 0. -1.
</event>
<event>
 5   0  0.2122194E-05  0.2511215E+04  0.7818609E-02  0.8399001E-01
        2   -1    0    0  501    0  0.00000000000E+00  0.00000000000E+00  0.24154164739E+04  0.24154164739E+04  0.25500000920E-02 0. -1.
       -2   -1    0    0    0  501  0.00000000000E+00  0.00000000000E+00 -0.65270301418E+03  0.65270301418E+03  0.25500000920E-02 0.  1.
    10030    2    1    2    0    0  0.00000000000E+00  0.00000000000E+00  0.17627134597E+04  0.30681194881E+04  0.25112145372E+04 0.  0.
        3    1    3    3  502    0 -0.10980858426E+04  0.57432968367E+03  0.11284513996E+04  0.16760219792E+04  0.10100000352E+00 0.  1.
       -3    1    3    3    0  502  0.10980858426E+04 -0.57432968367E+03  0.63426206012E+03  0.13920975089E+04  0.10100000352E+00 0. -1.
</event>
<event>
 5   0  0.9176817E-06  0.2422701E+04  0.7818609E-02  0.8431053E-01
       -1   -1    0    0    0  501  0.00000000000E+00  0.00000000000E+00  0.93304354524E+03  0.93304354525E+03  0.50400001928E-02 0. -1.
        1   -1    0    0  501    0  0.00000000000E+00  0.00000000000E+00 -0.15726701674E+04  0.15726701674E+04  0.50400001928E-02 0.  1.
    10030    2    1    2    0    0  0.00000000000E+00  0.00000000000E+00 -0.63962662220E+03  0.25057137127E+04  0.24227007645E+04 0.  0.
        3    1    3    3  502    0  0.14508670108E+03 -0.59381673188E+03  0.76182243839E+03  0.97675068453E+03  0.10100000352E+00 0. -1.
       -3    1    3    3    0  502 -0.14508670108E+03  0.59381673188E+03 -0.14014490606E+04  0.15289630282E+04  0.10100000352E+00 0.  1.
</event>
<event>
 5   0  0.2080257E-05  0.2397790E+04  0.7818609E-02  0.8440331E-01
        2   -1    0    0  501    0  0.00000000000E+00  0.00000000000E+00  0.13985904790E+04  0.13985904790E+04  0.25500000920E-02 0. -1.
       -2   -1    0    0    0  501  0.00000000000E+00  0.00000000000E+00 -0.10277126898E+04  0.10277126898E+04  0.25500000920E-02 0.  1.
    10030    2    1    2    0    0  0.00000000000E+00  0.00000000000E+00  0.37087778921E+03  0.24263031688E+04  0.23977899684E+04 0.  0.
        1    1    3    3  502    0  0.53526042406E+03  0.52724954747E+03  0.11308148985E+04  0.13576590667E+04  0.50400001928E-02 0. -1.
       -1    1    3    3    0  502 -0.53526042406E+03 -0.52724954747E+03 -0.75993710927E+03  0.10686441021E+04  0.50400001928E-02 0.  1.
</event>
<event>
 5   0  0.8528103E-06  0.2379559E+04  0.7818609E-02  0.8447196E-01
       -1   -1    0    0    0  501  0.00000000000E+00  0.00000000000E+00  0.17537106344E+04  0.17537106344E+04  0.50400001928E-02 0. -1.
        1   -1    0    0  501    0  0.00000000000E+00  0.00000000000E+00 -0.80718857101E+03  0.80718857102E+03  0.50400001928E-02 0.  1.
    10030    2    1    2    0    0  0.00000000000E+00  0.00000000000E+00  0.94652206339E+03  0.25608992054E+04  0.23795589347E+04 0.  0.
        4    1    3    3  502    0  0.70835087108E+03 -0.26884793814E+03 -0.51399932446E+03  0.91555288697E+03  0.12699999809E+01 0.  1.
       -4    1    3    3    0  502 -0.70835087108E+03  0.26884793814E+03  0.14605213878E+04  0.16453463185E+04  0.12699999809E+01 0. -1.
</event>
<event>
 5   0  0.2122194E-05  0.2374125E+04  0.7818609E-02  0.8449255E-01
       -2   -1    0    0    0  501  0.00000000000E+00  0.00000000000E+00  0.74776244410E+03  0.74776244410E+03  0.25500000920E-02 0.  1.
        2   -1    0    0  501    0  0.00000000000E+00  0.00000000000E+00 -0.18844458827E+04  0.18844458827E+04  0.25500000920E-02 0. -1.
    10030    2    1    2    0    0  0.00000000000E+00  0.00000000000E+00 -0.11366834386E+04  0.26322083268E+04  0.23741254045E+04 0.  0.
        3    1    3    3  502    0 -0.87525389654E+03  0.22536793881E+03  0.28489980401E+03  0.94764339273E+03  0.10100000352E+00 0. -1.
       -3    1    3    3    0  502  0.87525389654E+03 -0.22536793881E+03 -0.14215832427E+04  0.16845649341E+04  0.10100000352E+00 0.  1.
</event>
<event>
 5   0  0.8528103E-06  0.2426565E+04  0.7818609E-02  0.8429624E-01
        1   -1    0    0  501    0  0.00000000000E+00  0.00000000000E+00  0.11038236813E+04  0.11038236814E+04  0.50400001928E-02 0.  1.
       -1   -1    0    0    0  501  0.00000000000E+00  0.00000000000E+00 -0.13335959912E+04  0.13335959912E+04  0.50400001928E-02 0. -1.
    10030    2    1    2    0    0  0.00000000000E+00  0.00000000000E+00 -0.22977230984E+03  0.24374196725E+04  0.24265653393E+04 0.  0.
        4    1    3    3  502    0 -0.78713240622E+03  0.86157168557E+03 -0.44828957802E+03  0.12501393334E+04  0.12699999809E+01 0. -1.
       -4    1    3    3    0  502  0.78713240622E+03 -0.86157168557E+03  0.21851726818E+03  0.11872803391E+04  0.12699999809E+01 0.  1.
</event>
<event>
 5   0  0.8898848E-06  0.2393621E+04  0.7818609E-02  0.8441896E-01
        1   -1    0    0  501    0  0.00000000000E+00  0.00000000000E+00  0.23734343806E+04  0.23734343806E+04  0.50400001928E-02 0. -1.
       -1   -1    0    0    0  501  0.00000000000E+00  0.00000000000E+00 -0.60349482180E+03  0.60349482182E+03  0.50400001928E-02 0.  1.
    10030    2    1    2    0    0  0.00000000000E+00  0.00000000000E+00  0.17699395588E+04  0.29769292025E+04  0.23936209881E+04 0.  0.
        5    1    3    3  502    0 -0.38474798468E+03  0.11016994137E+04  0.55460447148E+03  0.12920452081E+04  0.46999998093E+01 0.  1.
       -5    1    3    3    0  502  0.38474798468E+03 -0.11016994137E+04  0.12153350874E+04  0.16848839944E+04  0.46999998093E+01 0. -1.
</event>
<event>
 5   0  0.8528103E-06  0.2396402E+04  0.7818609E-02  0.8440852E-01
        1   -1    0    0  501    0  0.00000000000E+00  0.00000000000E+00  0.13608998533E+04  0.13608998533E+04  0.50400001928E-02 0. -1.
       -1   -1    0    0    0  501  0.00000000000E+00  0.00000000000E+00 -0.10549529532E+04  0.10549529532E+04  0.50400001928E-02 0.  1.
    10030    2    1    2    0    0  0.00000000000E+00  0.00000000000E+00  0.30594690012E+03  0.24158528065E+04  0.23964017353E+04 0.  0.
        4    1    3    3  502    0 -0.84734456961E+03  0.69275332585E+03  0.64456215949E+03  0.12701818691E+04  0.12699999809E+01 0.  1.
       -4    1    3    3    0  502  0.84734456961E+03 -0.69275332585E+03 -0.33861525937E+03  0.11456709374E+04  0.12699999809E+01 0. -1.
</event>
<event>
 5   0  0.8898848E-06  0.2404273E+04  0.7818609E-02  0.8437906E-01
        1   -1    0    0  501    0  0.00000000000E+00  0.00000000000E+00  0.26808803175E+04  0.26808803175E+04  0.50400001928E-02 0.  1.
       -1   -1    0    0    0  501  0.00000000000E+00  0.00000000000E+00 -0.53905121480E+03  0.53905121483E+03  0.50400001928E-02 0. -1.
    10030    2    1    2    0    0  0.00000000000E+00  0.00000000000E+00  0.21418291027E+04  0.32199315324E+04  0.24042726900E+04 0.  0.
        5    1    3    3  502    0 -0.10234508101E+04  0.57996003384E+03  0.73931869702E+03  0.13893953460E+04  0.46999998093E+01 0. -1.
       -5    1    3    3    0  502  0.10234508101E+04 -0.57996003384E+03  0.14025104057E+04  0.18305361864E+04  0.46999998093E+01 0.  1.
</event>
<event>
 5   0  0.2087882E-05  0.2319868E+04  0.7818609E-02  0.8470128E-01
        2   -1    0    0  501    0  0.00000000000E+00  0.00000000000E+00  0.16166265227E+04  0.16166265227E+04  0.25500000920E-02 0.  1.
       -2   -1    0    0    0  501  0.00000000000E+00  0.00000000000E+00 -0.83225605726E+03  0.83225605726E+03  0.25500000920E-02 0. -1.
    10030    2    1    2    0    0  0.00000000000E+00  0.00000000000E+00  0.78437046548E+03  0.24488825800E+04  0.23198682858E+04 0.  0.
        2    1    3    3  502    0  0.93200250475E+03 -0.67791021746E+02 -0.33321579618E+03  0.99209730285E+03  0.25500000920E-02 0.  1.
       -2    1    3    3    0  502 -0.93200250475E+03  0.67791021746E+02  0.11175862617E+04  0.14567852772E+04  0.25500000920E-02 0. -1.
</event>
<event>
 5   0  0.2025353E-05  0.2402012E+04  0.7818609E-02  0.8438751E-01
       -2   -1    0    0    0  501  0.00000000000E+00  0.00000000000E+00  0.10521176815E+04  0.10521176815E+04  0.25500000920E-02 0.  1.
        2   -1    0    0  501    0  0.00000000000E+00  0.00000000000E+00 -0.13709643073E+04  0.13709643073E+04  0.25500000920E-02 0. -1.
    10030    2    1    2    0    0  0.00000000000E+00  0.00000000000E+00 -0.31884662574E+03  0.24230819888E+04  0.24020123134E+04 0.  0.
        4    1    3    3  502    0 -0.57849937882E+03 -0.77412431859E+03 -0.87875899613E+03  0.13061963781E+04  0.12699999809E+01 0. -1.
       -4    1    3    3    0  502  0.57849937882E+03  0.77412431859E+03  0.55991237039E+03  0.11168856107E+04  0.12699999809E+01 0.  1.
</event>
<event>
 5   0  0.2048028E-05  0.2364460E+04  0.7818609E-02  0.8452930E-01
        2   -1    0    0  501    0  0.00000000000E+00  0.00000000000E+00  0.15656357354E+04  0.15656357354E+04  0.25500000920E-02 0.  1.
       -2   -1    0    0    0  501  0.00000000000E+00  0.00000000000E+00 -0.89271548544E+03  0.89271548545E+03  0.25500000920E-02 0. -1.
    10030    2    1    2    0    0  0.00000000000E+00  0.00000000000E+00  0.67292024998E+03  0.24583512209E+04  0.23644595709E+04 0.  0.
        5    1    3    3  502    0 -0.91200848778E+03  0.17541689243E+03 -0.42410330713E+03  0.10209878907E+04  0.46999998093E+01 0. -1.
       -5    1    3    3    0  502  0.91200848778E+03 -0.17541689243E+03  0.10970235571E+04  0.14373633301E+04  0.46999998093E+01 0.  1.
</event>
<event>
 5   0  0.2048028E-05  0.2274397E+04  0.7818609E-02  0.8488085E-01
       -2   -1    0    0    0  501  0.00000000000E+00  0.00000000000E+00  0.85073345599E+03  0.85073345599E+03  0.25500000920E-02 0. -1.
        2   -1    0    0  501    0  0.00000000000E+00  0.00000000000E+00 -0.15201239624E+04  0.15201239624E+04  0.25500000920E-02 0.  1.
    10030    2    1    2    0    0  0.00000000000E+00  0.00000000000E+00 -0.66939050642E+03  0.23708574184E+04  0.22743968977E+04 0.  0.
        5    1    3    3  502    0 -0.26970315126E+03 -0.47988132744E+03  0.70258134109E+03  0.89256288802E+03  0.46999998093E+01 0. -1.
       -5    1    3    3    0  502  0.26970315126E+03  0.47988132744E+03 -0.13719718475E+04  0.14782945304E+04  0.46999998093E+01 0.  1.
</event>
<event>
 5   0  0.8528103E-06  0.2410212E+04  0.7818609E-02  0.8435690E-01
       -1   -1    0    0    0  501  0.00000000000E+00  0.00000000000E+00  0.11421758142E+04  0.11421758142E+04  0.50400001928E-02 0.  1.
        1   -1    0    0  501    0  0.00000000000E+00  0.00000000000E+00 -0.12715032188E+04  0.12715032188E+04  0.50400001928E-02 0. -1.
    10030    2    1    2    0    0  0.00000000000E+00  0.00000000000E+00 -0.12932740460E+03  0.24136790331E+04  0.24102117951E+04 0.  0.
        4    1    3    3  502    0  0.34893486417E+03 -0.31004704330E+03  0.10479673959E+04  0.11472235982E+04  0.12699999809E+01 0.  1.
       -4    1    3    3    0  502 -0.34893486417E+03  0.31004704330E+03 -0.11772948005E+04  0.12664554349E+04  0.12699999809E+01 0. -1.
</event>
<event>
 5   0  0.9038897E-06  0.2403779E+04  0.7818609E-02  0.8438090E-01
       -1   -1    0    0    0  501  0.00000000000E+00  0.00000000000E+00  0.73207942648E+03  0.73207942650E+03  0.50400001928E-02 0. -1.
        1   -1    0    0  501    0  0.00000000000E+00  0.00000000000E+00 -0.19731984906E+04  0.19731984906E+04  0.50400001928E-02 0.  1.
    10030    2    1    2    0    0  0.00000000000E+00  0.00000000000E+00 -0.12411190641E+04  0.27052779171E+04  0.24037787081E+04 0.  0.
        1    1    3    3  502    0 -0.26589761846E+02 -0.10462284258E+04  0.44526122884E+02  0.10475130118E+04  0.50400001928E-02 0. -1.
       -1    1    3    3    0  502  0.26589761846E+02  0.10462284258E+04 -0.12856451870E+04  0.16577649053E+04  0.50400001928E-02 0.  1.
</event>
<event>
 5   0  0.2122194E-05  0.2417830E+04  0.7818609E-02  0.8432858E-01
        2   -1    0    0  501    0  0.00000000000E+00  0.00000000000E+00  0.13784086107E+04  0.13784086107E+04  0.25500000920E-02 0.  1.
       -2   -1    0    0    0  501  0.00000000000E+00  0.00000000000E+00 -0.10602628360E+04  0.10602628360E+04  0.25500000920E-02 0. -1.
    10030    2    1    2    0    0  0.00000000000E+00  0.00000000000E+00  0.31814577467E+03  0.24386714467E+04  0.24178299549E+04 0.  0.
        3    1    3    3  502    0 -0.63138762980E+03 -0.25696622969E+03  0.11660744001E+04  0.13507077771E+04  0.10100000352E+00 0.  1.
       -3    1    3    3    0  502  0.63138762980E+03  0.25696622969E+03 -0.84792862546E+03  0.10879636696E+04  0.10100000352E+00 0. -1.
</event>
<event>
 5   0  0.2080257E-05  0.2406156E+04  0.7818609E-02  0.8437202E-01
        2   -1    0    0  501    0  0.00000000000E+00  0.00000000000E+00  0.13787731417E+04  0.13787731417E+04  0.25500000920E-02 0. -1.
       -2   -1    0    0    0  501  0.00000000000E+00  0.00000000000E+00 -0.10497716995E+04  0.10497716995E+04  0.25500000920E-02 0.  1.
    10030    2    1    2    0    0  0.00000000000E+00  0.00000000000E+00  0.32900144224E+03  0.24285448412E+04  0.24061562910E+04 0.  0.
        1    1    3    3  502    0  0.65551635742E+03  0.67084873946E+03 -0.59594007226E+03  0.11112534796E+04  0.50400001928E-02 0.  1.
       -1    1    3    3    0  502 -0.65551635742E+03 -0.67084873946E+03  0.92494151450E+03  0.13172913616E+04  0.50400001928E-02 0. -1.
</event>
<event>
 5   0  0.2048028E-05  0.2398740E+04  0.7818609E-02  0.8439976E-01
       -2   -1    0    0    0  501  0.00000000000E+00  0.00000000000E+00  0.76090150692E+03  0.76090150693E+03  0.25500000920E-02 0. -1.
        2   -1    0    0  501    0  0.00000000000E+00  0.00000000000E+00 -0.18905047713E+04  0.18905047713E+04  0.25500000920E-02 0.  1.
    10030    2    1    2    0    0  0.00000000000E+00  0.00000000000E+00 -0.11296032644E+04  0.26514062783E+04  0.23987396102E+04 0.  0.
        5    1    3    3  502    0 -0.73842385092E+03 -0.79413166082E+03  0.15680269352E+01  0.10844074082E+04  0.46999998093E+01 0. -1.
       -5    1    3    3    0  502  0.73842385092E+03  0.79413166082E+03 -0.11311712913E+04  0.15669988700E+04  0.46999998093E+01 0.  1.
</event>
<event>
 5   0  0.9176817E-06  0.2396335E+04  0.7818609E-02  0.8440877E-01
        1   -1    0    0  501    0  0.00000000000E+00  0.00000000000E+00  0.11501942608E+04  0.11501942608E+04  0.50400001928E-02 0.  1.
       -1   -1    0    0    0  501  0.00000000000E+00  0.00000000000E+00 -0.12481413423E+04  0.12481413423E+04  0.50400001928E-02 0. -1.
    10030    2    1    2    0    0  0.00000000000E+00  0.00000000000E+00 -0.97947081548E+02  0.23983356031E+04  0.23963347083E+04 0.  0.
        3    1    3    3  502    0  0.81646758759E+03 -0.70063659446E+03 -0.57676008840E+03  0.12207223963E+04  0.10100000352E+00 0. -1.
       -3    1    3    3    0  502 -0.81646758759E+03  0.70063659446E+03  0.47881300685E+03  0.11776132068E+04  0.10100000352E+00 0.  1.
</event>
<event>
 5   0  0.2087882E-05  0.2411891E+04  0.7818609E-02  0.8435065E-01
        2   -1    0    0  501    0  0.00000000000E+00  0.00000000000E+00  0.95684833880E+03  0.95684833881E+03  0.25500000920E-02 0. -1.
       -2   -1    0    0    0  501  0.00000000000E+00  0.00000000000E+00 -0.15198909193E+04  0.15198909193E+04  0.25500000920E-02 0.  1.
    10030    2    1    2    0    0  0.00000000000E+00  0.00000000000E+00 -0.56304258046E+03  0.24767392581E+04  0.24118914580E+04 0.  0.
        2    1    3    3  502    0  0.52456363979E+03  0.10850897133E+04 -0.23895311246E+03  0.12286925116E+04  0.25500000920E-02 0.  1.
       -2    1    3    3    0  502 -0.52456363979E+03 -0.10850897133E+04 -0.32408946800E+03  0.12480467465E+04  0.25500000920E-02 0. -1.
</event>
<event>
 5   0  0.9038897E-06  0.2396012E+04  0.7818609E-02  0.8440998E-01
       -1   -1    0    0    0  501  0.00000000000E+00  0.00000000000E+00  0.84072848664E+03  0.84072848666E+03  0.50400001928E-02 0. -1.
        1   -1    0    0  501    0  0.00000000000E+00  0.00000000000E+00 -0.17071133155E+04  0.17071133155E+04  0.50400001928E-02 0.  1.
    10030    2    1    2    0    0  0.00000000000E+00  0.00000000000E+00 -0.86638482882E+03  0.25478418021E+04  0.23960123491E+04 0.  0.
        1    1    3    3  502    0  0.98816357831E+03 -0.31117745669E+03  0.20652735879E+03  0.10563863957E+04  0.50400001928E-02 0. -1.
       -1    1    3    3    0  502 -0.98816357831E+03  0.31117745669E+03 -0.10729121876E+04  0.14914554064E+04  0.50400001928E-02 0.  1.
</event>
<event>
 5   0  0.2122194E-05  0.2440594E+04  0.7818609E-02  0.8424460E-01
       -2   -1    0    0    0  501  0.00000000000E+00  0.00000000000E+00  0.11554590545E+04  0.11554590545E+04  0.25500000920E-02 0.  1.
        2   -1    0    0  501    0  0.00000000000E+00  0.00000000000E+00 -0.12887730461E+04  0.12887730461E+04  0.25500000920E-02 0. -1.
    10030    2    1    2    0    0  0.00000000000E+00  0.00000000000E+00 -0.13331399158E+03  0.24442321006E+04  0.24405937681E+04 0.  0.
        3    1    3    3  502    0  0.93367138806E+03 -0.63289924582E+03  0.39967732082E+03  0.11966811134E+04  0.10100000352E+00 0.  1.
       -3    1    3    3    0  502 -0.93367138806E+03  0.63289924582E+03 -0.53299131240E+03  0.12475509871E+04  0.10100000352E+00 0. -1.
</event>
<event>
 5   0  0.2087882E-05  0.2444240E+04  0.7818609E-02  0.8423124E-01
        2   -1    0    0  501    0  0.00000000000E+00  0.00000000000E+00  0.21889549094E+04  0.21889549094E+04  0.25500000920E-02 0.  1.
       -2   -1    0    0    0  501  0.00000000000E+00  0.00000000000E+00 -0.68232464603E+03  0.68232464604E+03  0.25500000920E-02 0. -1.
    10030    2    1    2    0    0  0.00000000000E+00  0.00000000000E+00  0.15066302634E+04  0.28712795555E+04  0.24442404823E+04 0.  0.
        2    1    3    3  502    0 -0.92451783602E+03 -0.62182850655E+03  0.16341068792E+03  0.11261025591E+04  0.25500000920E-02 0. -1.
       -2    1    3    3    0  502  0.92451783602E+03  0.62182850655E+03  0.13432195755E+04  0.17451769964E+04  0.25500000920E-02 0.  1.
</event>
<event>
 5   0  0.9038897E-06  0.2397714E+04  0.7818609E-02  0.8440360E-01
       -1   -1    0    0    0  501  0.00000000000E+00  0.00000000000E+00  0.13852973853E+04  0.13852973854E+04  0.50400001928E-02 0.  1.
        1   -1    0    0  501    0  0.00000000000E+00  0.00000000000E+00 -0.10375089965E+04  0.10375089966E+04  0.50400001928E-02 0. -1.
    10030    2    1    2    0    0  0.00000000000E+00  0.00000000000E+00  0.34778838881E+03  0.24228063819E+04  0.23977143284E+04 0.  0.
        1    1    3    3  502    0 -0.49685248630E+03  0.10032131176E+04 -0.25949934889E+03  0.11491905258E+04  0.50400001928E-02 0. -1.
       -1    1    3    3    0  502  0.49685248630E+03 -0.10032131176E+04  0.60728773770E+03  0.12736158561E+04  0.50400001928E-02 0.  1.
</event>
<event>
 5   0  0.2048028E-05  0.2375413E+04  0.7818609E-02  0.8448766E-01
        2   -1    0    0  501    0  0.00000000000E+00  0.00000000000E+00  0.17515351665E+04  0.17515351665E+04  0.25500000920E-02 0. -1.
       -2   -1    0    0    0  501  0.00000000000E+00  0.00000000000E+00 -0.80537758819E+03  0.80537758820E+03  0.25500000920E-02 0.  1.
    10030    2    1    2    0    0  0.00000000000E+00  0.00000000000E+00  0.94615757830E+03  0.25569127547E+04  0.23754133687E+04 0.  0.
        5    1    3    3  502    0  0.82702274675E+03 -0.63220216274E+03 -0.14243326717E+03  0.10506928780E+04  0.46999998093E+01 0.  1.
       -5    1    3    3    0  502 -0.82702274675E+03  0.63220216274E+03  0.10885908455E+04  0.15062198767E+04  0.46999998093E+01 0. -1.
</event>
<event>
 5   0  0.2087882E-05  0.2387867E+04  0.7818609E-02  0.8444060E-01
        2   -1    0    0  501    0  0.00000000000E+00  0.00000000000E+00  0.23996659014E+04  0.23996659014E+04  0.25500000920E-02 0. -1.
       -2   -1    0    0    0  501  0.00000000000E+00  0.00000000000E+00 -0.59403160368E+03  0.59403160368E+03  0.25500000920E-02 0.  1.
    10030    2    1    2    0    0  0.00000000000E+00  0.00000000000E+00  0.18056342977E+04  0.29936975051E+04  0.23878671518E+04 0.  0.
        2    1    3    3  502    0 -0.80310184289E+03 -0.55549873611E+03  0.41556327486E+02  0.97738341721E+03  0.25500000920E-02 0.  1.
       -2    1    3    3    0  502  0.80310184289E+03  0.55549873611E+03  0.17640779702E+04  0.20163140878E+04  0.25500000920E-02 0. -1.
</event>
<event>
 5   0  0.2048028E-05  0.2166001E+04  0.7818609E-02  0.8532714E-01
        2   -1    0    0  501    0  0.00000000000E+00  0.00000000000E+00  0.13671474544E+04  0.13671474544E+04  0.25500000920E-02 0. -1.
       -2   -1    0    0    0  501  0.00000000000E+00  0.00000000000E+00 -0.85791019199E+03  0.85791019199E+03  0.25500000920E-02 0.  1.
    10030    2    1    2    0    0  0.00000000000E+00  0.00000000000E+00  0.50923726240E+03  0.22250576464E+04  0.21660006787E+04 0.  0.
        5    1    3    3  502    0 -0.10389494159E+03 -0.98303868744E+03 -0.19983276271E+03  0.10085209184E+04  0.46999998093E+01 0.  1.
       -5    1    3    3    0  502  0.10389494159E+03  0.98303868744E+03  0.70907002511E+03  0.12165367279E+04  0.46999998093E+01 0. -1.
</event>
<event>
 5   0  0.9038897E-06  0.2386359E+04  0.7818609E-02  0.8444628E-01
        1   -1    0    0  501    0  0.00000000000E+00  0.00000000000E+00  0.16277602767E+04  0.16277602767E+04  0.50400001928E-02 0. -1.
       -1   -1    0    0    0  501  0.00000000000E+00  0.00000000000E+00 -0.87462349932E+03  0.87462349933E+03  0.50400001928E-02 0.  1.
    10030    2    1    2    0    0  0.00000000000E+00  0.00000000000E+00  0.75313677734E+03  0.25023837760E+04  0.23863590587E+04 0.  0.
        1    1    3    3  502    0  0.78370022809E+03 -0.76994748106E+03 -0.11154389920E+03  0.11042858383E+04  0.50400001928E-02 0.  1.
       -1    1    3    3    0  502 -0.78370022809E+03  0.76994748106E+03  0.86468067655E+03  0.13980979377E+04  0.50400001928E-02 0. -1.
</event>
<event>
 5   0  0.2025353E-05  0.2414332E+04  0.7818609E-02  0.8434157E-01
        2   -1    0    0  501    0  0.00000000000E+00  0.00000000000E+00  0.15753224666E+04  0.15753224666E+04  0.25500000920E-02 0.  1.
       -2   -1    0    0    0  501  0.00000000000E+00  0.00000000000E+00 -0.92504834701E+03  0.92504834701E+03  0.25500000920E-02 0. -1.
    10030    2    1    2    0    0  0.00000000000E+00  0.00000000000E+00  0.65027411955E+03  0.25003708136E+04  0.24143317450E+04 0.  0.
        4    1    3    3  502    0  0.21803100970E+03  0.11510368119E+04  0.62676273189E+03  0.13286295189E+04  0.12699999809E+01 0.  1.
       -4    1    3    3    0  502 -0.21803100970E+03 -0.11510368119E+04  0.23511387659E+02  0.11717412947E+04  0.12699999809E+01 0. -1.
</event>
<event>
 5   0  0.2122194E-05  0.2401440E+04  0.7818609E-02  0.8438965E-01
       -2   -1    0    0    0  501  0.00000000000E+00  0.00000000000E+00  0.14048431892E+04  0.14048431892E+04  0.25500000920E-02 0. -1.
        2   -1    0    0  501    0  0.00000000000E+00  0.00000000000E+00 -0.10262557609E+04  0.10262557609E+04  0.25500000920E-02 0.  1.
    10030    2    1    2    0    0  0.00000000000E+00  0.00000000000E+00  0.37858742825E+03  0.24310989501E+04  0.24014399148E+04 0.  0.
        3    1    3    3  502    0  0.26556025587E+03 -0.37674420463E+03  0.13117115142E+04  0.13903400850E+04  0.10100000352E+00 0. -1.
       -3    1    3    3    0  502 -0.26556025587E+03  0.37674420463E+03 -0.93312408597E+03  0.10407588651E+04  0.10100000352E+00 0.  1.
</event>
<event>
 5   0  0.2048028E-05  0.2402153E+04  0.7818609E-02  0.8438698E-01
        2   -1    0    0  501    0  0.00000000000E+00  0.00000000000E+00  0.14972899071E+04  0.14972899071E+04  0.25500000920E-02 0. -1.
       -2   -1    0    0    0  501  0.00000000000E+00  0.00000000000E+00 -0.96346407708E+03  0.96346407708E+03  0.25500000920E-02 0.  1.
    10030    2    1    2    0    0  0.00000000000E+00  0.00000000000E+00  0.53382583004E+03  0.24607539842E+04  0.24021532328E+04 0.  0.
        5    1    3    3  502    0 -0.90024860051E+03 -0.55599859036E+03  0.84909114172E+03  0.13566723378E+04  0.46999998093E+01 0. -1.
       -5    1    3    3    0  502  0.90024860051E+03  0.55599859036E+03 -0.31526531168E+03  0.11040816464E+04  0.46999998093E+01 0.  1.
</event>
<event>
 5   0  0.2122194E-05  0.2426105E+04  0.7818609E-02  0.8429794E-01
        2   -1    0    0  501    0  0.00000000000E+00  0.00000000000E+00  0.13302630468E+04  0.13302630468E+04  0.25500000920E-02 0.  1.
       -2   -1    0    0    0  501  0.00000000000E+00  0.00000000000E+00 -0.11061695618E+04  0.11061695618E+04  0.25500000920E-02 0. -1.
    10030    2    1    2    0    0  0.00000000000E+00  0.00000000000E+00  0.22409348503E+03  0.24364326087E+04  0.24261051021E+04 0.  0.
        3    1    3    3  502    0  0.11962097363E+04  0.19340152098E+03  0.16863017507E+03  0.12234206258E+04  0.10100000352E+00 0.  1.
       -3    1    3    3    0  502 -0.11962097363E+04 -0.19340152098E+03  0.55463309964E+02  0.12130119828E+04  0.10100000352E+00 0. -1.
</event>
<event>
 5   0  0.9176817E-06  0.2203549E+04  0.7818609E-02  0.8516953E-01
        1   -1    0    0  501    0  0.00000000000E+00  0.00000000000E+00  0.10902865612E+04  0.10902865612E+04  0.50400001928E-02 0. -1.
       -1   -1    0    0    0  501  0.00000000000E+00  0.00000000000E+00 -0.11133832105E+04  0.11133832105E+04  0.50400001928E-02 0.  1.
    10030    2    1    2    0    0  0.00000000000E+00  0.00000000000E+00 -0.23096649360E+02  0.22036697717E+04  0.22035487304E+04 0.  0.
        3    1    3    3  502    0  0.65987154195E+03 -0.87777501701E+03  0.77828332288E+02  0.11008981297E+04  0.10100000352E+00 0.  1.
       -3    1    3    3    0  502 -0.65987154195E+03  0.87777501701E+03 -0.10092498165E+03  0.11027716420E+04  0.10100000352E+00 0. -1.
</event>
<event>
 5   0  0.9176817E-06  0.2397631E+04  0.7818609E-02  0.8440391E-01
       -1   -1    0    0    0  501  0.00000000000E+00  0.00000000000E+00  0.11338734713E+04  0.11338734713E+04  0.50400001928E-02 0. -1.
        1   -1    0    0  501    0  0.00000000000E+00  0.00000000000E+00 -0.12674769656E+04  0.12674769656E+04  0.50400001928E-02 0.  1.
    10030    2    1    2    0    0  0.00000000000E+00  0.00000000000E+00 -0.13360349434E+03  0.24013504370E+04  0.23976309198E+04 0.  0.
        3    1    3    3  502    0 -0.84450813842E+03  0.51197917113E+03 -0.74744547110E+03  0.12385440687E+04  0.10100000352E+00 0.  1.
       -3    1    3    3    0  502  0.84450813842E+03 -0.51197917113E+03  0.61384197676E+03  0.11628063683E+04  0.10100000352E+00 0. -1.
</event>
<event>
 5   0  0.2025353E-05  0.2399756E+04  0.7818609E-02  0.8439595E-01
        2   -1    0    0  501    0  0.00000000000E+00  0.00000000000E+00  0.79119196750E+03  0.79119196751E+03  0.25500000920E-02 0.  1.
       -2   -1    0    0    0  501  0.00000000000E+00  0.00000000000E+00 -0.18196682475E+04  0.18196682475E+04  0.25500000920E-02 0. -1.
    10030    2    1    2    0    0  0.00000000000E+00  0.00000000000E+00 -0.10284762800E+04  0.26108602150E+04  0.23997557383E+04 0.  0.
        4    1    3    3  502    0 -0.17578305893E+03  0.62601048937E+03 -0.16113709994E+04  0.17376152989E+04  0.12699999809E+01 0. -1.
       -4    1    3    3    0  502  0.17578305893E+03 -0.62601048937E+03  0.58289471939E+03  0.87324491605E+03  0.12699999809E+01 0.  1.
</event>
<event>
 5   0  0.8898848E-06  0.2398652E+04  0.7818609E-02  0.8440009E-01
       -1   -1    0    0    0  501  0.00000000000E+00  0.00000000000E+00  0.11543739058E+04  0.11543739058E+04  0.50400001928E-02 0. -1.
        1   -1    0    0  501    0  0.00000000000E+00  0.00000000000E+00 -0.12460282767E+04  0.12460282767E+04  0.50400001928E-02 0.  1.
    10030    2    1    2    0    0  0.00000000000E+00  0.00000000000E+00 -0.91654370908E+02  0.24004021825E+04  0.23986517284E+04 0.  0.
        5    1    3    3  502    0  0.32928965127E+03  0.12079048798E+03  0.11018918136E+04  0.11563778255E+04  0.46999998093E+01 0. -1.
       -5    1    3    3    0  502 -0.32928965127E+03 -0.12079048798E+03 -0.11935461845E+04  0.12440243570E+04  0.46999998093E+01 0.  1.
</event>
<event>
 5   0  0.7233625E-06  0.2390653E+04  0.7818609E-02  0.8443011E-01
       -3   -1    0    0    0  501  0.00000000000E+00  0.00000000000E+00  0.14652198496E+04  0.14652198531E+04  0.10100000352E+00 0.  1.
        3   -1    0    0  501    0  0.00000000000E+00  0.00000000000E+00 -0.97514737001E+03  0.97514737524E+03  0.10100000352E+00 0. -1.
    10030    2    1    2    0    0  0.00000000000E+00  0.00000000000E+00  0.49007247963E+03  0.24403672284E+04  0.23906528761E+04 0.  0.
        3    1    3    3  502    0  0.20902428926E+03  0.86547418527E+02 -0.95309381369E+03  0.97957615174E+03  0.10100000352E+00 0. -1.
       -3    1    3    3    0  502 -0.20902428926E+03 -0.86547418527E+02  0.14431662933E+04  0.14607910766E+04  0.10100000352E+00 0.  1.
</event>
<event>
 5   0  0.9176817E-06  0.2388106E+04  0.7818609E-02  0.8443970E-01
       -1   -1    0    0    0  501  0.00000000000E+00  0.00000000000E+00  0.10054968149E+04  0.10054968150E+04  0.50400001928E-02 0.  1.
        1   -1    0    0  501    0  0.00000000000E+00  0.00000000000E+00 -0.14179684826E+04  0.14179684826E+04  0.50400001928E-02 0. -1.
    10030    2    1    2    0    0  0.00000000000E+00  0.00000000000E+00 -0.41247166768E+03  0.24234652976E+04  0.23881061894E+04 0.  0.
        3    1    3    3  502    0 -0.65484239346E+03  0.96328984373E+03 -0.47283629338E+03  0.12571078131E+04  0.10100000352E+00 0. -1.
       -3    1    3    3    0  502  0.65484239346E+03 -0.96328984373E+03  0.60364625704E+02  0.11663574845E+04  0.10100000352E+00 0.  1.
</event>
<event>
 5   0  0.7233625E-06  0.2397948E+04  0.7818609E-02  0.8440272E-01
        3   -1    0    0  501    0  0.00000000000E+00  0.00000000000E+00  0.21567210084E+04  0.21567210107E+04  0.10100000352E+00 0.  1.
       -3   -1    0    0    0  501  0.00000000000E+00  0.00000000000E+00 -0.66653922274E+03  0.66653923039E+03  0.10100000352E+00 0. -1.
    10030    2    1    2    0    0  0.00000000000E+00  0.00000000000E+00  0.14901817856E+04  0.28232602411E+04  0.23979484221E+04 0.  0.
        4    1    3    3  502    0  0.82007661079E+03  0.69135211264E+03  0.13758818057E+04  0.17445760939E+04  0.12699999809E+01 0. -1.
       -4    1    3    3    0  502 -0.82007661079E+03 -0.69135211264E+03  0.11429997996E+03  0.10786841473E+04  0.12699999809E+01 0.  1.
</event>
<event>
 5   0  0.9176817E-06  0.2386437E+04  0.7818609E-02  0.8444599E-01
       -1   -1    0    0    0  501  0.00000000000E+00  0.00000000000E+00  0.17959331977E+04  0.17959331977E+04  0.50400001928E-02 0.  1.
        1   -1    0    0  501    0  0.00000000000E+00  0.00000000000E+00 -0.79277470104E+03  0.79277470106E+03  0.50400001928E-02 0. -1.
    10030    2    1    2    0    0  0.00000000000E+00  0.00000000000E+00  0.10031584966E+04  0.25887078987E+04  0.23864370127E+04 0.  0.
        3    1    3    3  502    0  0.22354225240E+03  0.46243530116E+02 -0.76886740913E+03  0.80203909239E+03  0.10100000352E+00 0. -1.
       -3    1    3    3    0  502 -0.22354225240E+03 -0.46243530116E+02  0.17720259057E+04  0.17866688063E+04  0.10100000352E+00 0.  1.
</event>
<event>
 5   0  0.2080257E-05  0.2370631E+04  0.7818609E-02  0.8450581E-01
       -2   -1    0    0    0  501  0.00000000000E+00  0.00000000000E+00  0.10205082354E+04  0.10205082354E+04  0.25500000920E-02 0. -1.
        2   -1    0    0  501    0  0.00000000000E+00  0.00000000000E+00 -0.13767387512E+04  0.13767387512E+04  0.25500000920E-02 0.  1.
    10030    2    1    2    0    0  0.00000000000E+00  0.00000000000E+00 -0.35623051589E+03  0.23972469866E+04  0.23706313367E+04 0.  0.
        1    1    3    3  502    0 -0.26833651217E+03 -0.95116723758E+03 -0.83987030415E+03  0.12969601865E+04  0.50400001928E-02 0.  1.
       -1    1    3    3    0  502  0.26833651217E+03  0.95116723758E+03  0.48363978826E+03  0.11002868001E+04  0.50400001928E-02 0. -1.
</event>
<event>
 5   0  0.9083687E-06  0.2375595E+04  0.7818609E-02  0.8448697E-01
        1   -1    0    0  501    0  0.00000000000E+00  0.00000000000E+00  0.10865808115E+04  0.10865808115E+04  0.50400001928E-02 0.  1.
       -1   -1    0    0    0  501  0.00000000000E+00  0.00000000000E+00 -0.12984427513E+04  0.12984427514E+04  0.50400001928E-02 0. -1.
    10030    2    1    2    0    0  0.00000000000E+00  0.00000000000E+00 -0.21186193985E+03  0.23850235629E+04  0.23755950652E+04 0.  0.
        2    1    3    3  502    0  0.85817862156E+03  0.27671967062E+03 -0.88218700815E+03  0.12614667019E+04  0.25500000920E-02 0. -1.
       -2    1    3    3    0  502 -0.85817862156E+03 -0.27671967062E+03  0.67032506830E+03  0.11235568610E+04  0.25500000920E-02 0.  1.
</event>
<event>
 5   0  0.9176817E-06  0.2397022E+04  0.7818609E-02  0.8440619E-01
        1   -1    0    0  501    0  0.00000000000E+00  0.00000000000E+00  0.20236176254E+04  0.20236176254E+04  0.50400001928E-02 0. -1.
       -1   -1    0    0    0  501  0.00000000000E+00  0.00000000000E+00 -0.70983206165E+03  0.70983206167E+03  0.50400001928E-02 0.  1.
    10030    2    1    2    0    0  0.00000000000E+00  0.00000000000E+00  0.13137855637E+04  0.27334496870E+04  0.23970220450E+04 0.  0.
        3    1    3    3  502    0 -0.53912592106E+03  0.51121272138E+03  0.17293294075E+04  0.18821730566E+04  0.10100000352E+00 0. -1.
       -3    1    3    3    0  502  0.53912592106E+03 -0.51121272138E+03 -0.41554384376E+03  0.85127663044E+03  0.10100000352E+00 0.  1.
</event>
<event>
 5   0  0.9083687E-06  0.2407298E+04  0.7818609E-02  0.8436776E-01
       -1   -1    0    0    0  501  0.00000000000E+00  0.00000000000E+00  0.15839299082E+04  0.15839299082E+04  0.50400001928E-02 0. -1.
        1   -1    0    0  501    0  0.00000000000E+00  0.00000000000E+00 -0.91466855487E+03  0.91466855489E+03  0.50400001928E-02 0.  1.
    10030    2    1    2    0    0  0.00000000000E+00  0.00000000000E+00  0.66926135336E+03  0.24985984631E+04  0.24072979709E+04 0.  0.
        2    1    3    3  502    0 -0.65292674131E+03 -0.52278818660E+03 -0.56373061067E+03  0.10086689343E+04  0.25500000920E-02 0.  1.
       -2    1    3    3    0  502  0.65292674131E+03  0.52278818660E+03  0.12329919640E+04  0.14899295289E+04  0.25500000920E-02 0. -1.
</event>
<event>
 5   0  0.9176817E-06  0.2446122E+04  0.7818609E-02  0.8422435E-01
       -1   -1    0    0    0  501  0.00000000000E+00  0.00000000000E+00  0.13416152902E+04  0.13416152902E+04  0.50400001928E-02 0. -1.
        1   -1    0    0  501    0  0.00000000000E+00  0.00000000000E+00 -0.11149832886E+04  0.11149832886E+04  0.50400001928E-02 0.  1.
    10030    2    1    2    0    0  0.00000000000E+00  0.00000000000E+00  0.22663200160E+03  0.24565985789E+04  0.24461223423E+04 0.  0.
        3    1    3    3  502    0  0.77941145029E+03 -0.45909382512E+03  0.94002392424E+03  0.13045667240E+04  0.10100000352E+00 0. -1.
       -3    1    3    3    0  502 -0.77941145029E+03  0.45909382512E+03 -0.71339192264E+03  0.11520318549E+04  0.10100000352E+00 0.  1.
</event>
<event>
 5   0  0.2048028E-05  0.2352672E+04  0.7818609E-02  0.8457438E-01
        2   -1    0    0  501    0  0.00000000000E+00  0.00000000000E+00  0.16181413037E+04  0.16181413037E+04  0.25500000920E-02 0.  1.
       -2   -1    0    0    0  501  0.00000000000E+00  0.00000000000E+00 -0.85515767416E+03  0.85515767417E+03  0.25500000920E-02 0. -1.
    10030    2    1    2    0    0  0.00000000000E+00  0.00000000000E+00  0.76298362953E+03  0.24732989779E+04  0.23526716335E+04 0.  0.
        5    1    3    3  502    0 -0.26498516288E+03  0.47881682483E+03 -0.71317576354E+03  0.89895742279E+03  0.46999998093E+01 0. -1.
       -5    1    3    3    0  502  0.26498516288E+03 -0.47881682483E+03  0.14761593931E+04  0.15743415551E+04  0.46999998093E+01 0.  1.
</event>
<event>
 5   0  0.2080257E-05  0.2445814E+04  0.7818609E-02  0.8422548E-01
        2   -1    0    0  501    0  0.00000000000E+00  0.00000000000E+00  0.20549420160E+04  0.20549420160E+04  0.25500000920E-02 0.  1.
       -2   -1    0    0    0  501  0.00000000000E+00  0.00000000000E+00 -0.72775843079E+03  0.72775843080E+03  0.25500000920E-02 0. -1.
    10030    2    1    2    0    0  0.00000000000E+00  0.00000000000E+00  0.13271835852E+04  0.27827004468E+04  0.24458138743E+04 0.  0.
        1    1    3    3  502    0  0.79680979312E+03 -0.80709818710E+03  0.11839608760E+04  0.16395355092E+04  0.50400001928E-02 0.  1.
       -1    1    3    3    0  502 -0.79680979312E+03  0.80709818710E+03  0.14322270918E+03  0.11431649376E+04  0.50400001928E-02 0. -1.
</event>
<event>
 5   0  0.9038897E-06  0.2405020E+04  0.7818609E-02  0.8437627E-01
       -1   -1    0    0    0  501  0.00000000000E+00  0.00000000000E+00  0.10170842582E+04  0.10170842582E+04  0.50400001928E-02 0. -1.
        1   -1    0    0  501    0  0.00000000000E+00  0.00000000000E+00 -0.14217410267E+04  0.14217410267E+04  0.50400001928E-02 0.  1.
    10030    2    1    2    0    0  0.00000000000E+00  0.00000000000E+00 -0.40465676853E+03  0.24388252849E+04  0.24050200977E+04 0.  0.
        1    1    3    3  502    0 -0.41890461720E+02 -0.50235786268E+03  0.90476462594E+03  0.10357206483E+04  0.50400001928E-02 0. -1.
       -1    1    3    3    0  502  0.41890461720E+02  0.50235786268E+03 -0.13094213945E+04  0.14031046366E+04  0.50400001928E-02 0.  1.
</event>
<event>
 5   0  0.2087882E-05  0.2446487E+04  0.7818609E-02  0.8422302E-01
       -2   -1    0    0    0  501  0.00000000000E+00  0.00000000000E+00  0.12047260793E+04  0.12047260793E+04  0.25500000920E-02 0.  1.
        2   -1    0    0  501    0  0.00000000000E+00  0.00000000000E+00 -0.12420451865E+04  0.12420451865E+04  0.25500000920E-02 0. -1.
    10030    2    1    2    0    0  0.00000000000E+00  0.00000000000E+00 -0.37319107200E+02  0.24467712659E+04  0.24464866465E+04 0.  0.
        2    1    3    3  502    0  0.78657744217E+03 -0.23908243023E+03  0.88723815549E+03  0.12095685287E+04  0.25500000920E-02 0.  1.
       -2    1    3    3    0  502 -0.78657744217E+03  0.23908243023E+03 -0.92455726269E+03  0.12372027372E+04  0.25500000920E-02 0. -1.
</event>
<event>
 5   0  0.2048028E-05  0.2391860E+04  0.7818609E-02  0.8442557E-01
        2   -1    0    0  501    0  0.00000000000E+00  0.00000000000E+00  0.77626920983E+03  0.77626920984E+03  0.25500000920E-02 0. -1.
       -2   -1    0    0    0  501  0.00000000000E+00  0.00000000000E+00 -0.18424641483E+04  0.18424641483E+04  0.25500000920E-02 0.  1.
    10030    2    1    2    0    0  0.00000000000E+00  0.00000000000E+00 -0.10661949384E+04  0.26187333581E+04  0.23918596853E+04 0.  0.
        5    1    3    3  502    0 -0.22917186272E+03 -0.10645488945E+03 -0.18128922378E+04  0.18304241973E+04  0.46999998093E+01 0.  1.
       -5    1    3    3    0  502  0.22917186272E+03  0.10645488945E+03  0.74669729937E+03  0.78830916082E+03  0.46999998093E+01 0. -1.
</event>
<event>
 5   0  0.9083687E-06  0.2340447E+04  0.7818609E-02  0.8462142E-01
       -1   -1    0    0    0  501  0.00000000000E+00  0.00000000000E+00  0.10428951540E+04  0.10428951540E+04  0.50400001928E-02 0.  1.
        1   -1    0    0  501    0  0.00000000000E+00  0.00000000000E+00 -0.13130971707E+04  0.13130971707E+04  0.50400001928E-02 0. -1.
    10030    2    1    2    0    0  0.00000000000E+00  0.00000000000E+00 -0.27020201663E+03  0.23559923247E+04  0.23404466891E+04 0.  0.
        2    1    3    3  502    0 -0.11428251309E+03 -0.71313695480E+02 -0.13052663653E+04  0.13121990780E+04  0.25500000920E-02 0. -1.
       -2    1    3    3    0  502  0.11428251309E+03  0.71313695480E+02  0.10350643487E+04  0.10437932467E+04  0.25500000920E-02 0.  1.
</event>
<event>
 5   0  0.2087882E-05  0.2275955E+04  0.7818609E-02  0.8487462E-01
       -2   -1    0    0    0  501  0.00000000000E+00  0.00000000000E+00  0.48440413062E+03  0.48440413062E+03  0.25500000920E-02 0.  1.
        2   -1    0    0  501    0  0.00000000000E+00  0.00000000000E+00 -0.26733727876E+04  0.26733727876E+04  0.25500000920E-02 0. -1.
    10030    2    1    2    0    0  0.00000000000E+00  0.00000000000E+00 -0.21889686570E+04  0.31577769183E+04  0.22759550268E+04 0.  0.
        2    1    3    3  502    0 -0.61609786660E+03  0.38676399375E+02 -0.24208764998E+04  0.24983425450E+04  0.25500000920E-02 0. -1.
       -2    1    3    3    0  502  0.61609786660E+03 -0.38676399375E+02  0.23190784274E+03  0.65943437325E+03  0.25500000920E-02 0.  1.
</event>
<event>
 5   0  0.2122194E-05  0.2400392E+04  0.7818609E-02  0.8439357E-01
        2   -1    0    0  501    0  0.00000000000E+00  0.00000000000E+00  0.13917972231E+04  0.13917972231E+04  0.25500000920E-02 0.  1.
       -2   -1    0    0    0  501  0.00000000000E+00  0.00000000000E+00 -0.10349714808E+04  0.10349714808E+04  0.25500000920E-02 0. -1.
    10030    2    1    2    0    0  0.00000000000E+00  0.00000000000E+00  0.35682574225E+03  0.24267687039E+04  0.24003919955E+04 0.  0.
        3    1    3    3  502    0 -0.10083937776E+04 -0.28092135798E+03  0.77197213462E+03  0.13006597583E+04  0.10100000352E+00 0.  1.
       -3    1    3    3    0  502  0.10083937776E+04  0.28092135798E+03 -0.41514639237E+03  0.11261089456E+04  0.10100000352E+00 0. -1.
</event>
<event>
 5   0  0.8898848E-06  0.2468136E+04  0.7818609E-02  0.8414426E-01
        1   -1    0    0  501    0  0.00000000000E+00  0.00000000000E+00  0.12494720206E+04  0.12494720206E+04  0.50400001928E-02 0.  1.
       -1   -1    0    0    0  501  0.00000000000E+00  0.00000000000E+00 -0.12188536448E+04  0.12188536448E+04  0.50400001928E-02 0. -1.
    10030    2    1    2    0    0  0.00000000000E+00  0.00000000000E+00  0.30618375761E+02  0.24683256654E+04  0.24681357551E+04 0.  0.
        5    1    3    3  502    0  0.10948302558E+03  0.11697403873E+04 -0.36237358739E+03  0.12294778621E+04  0.46999998093E+01 0. -1.
       -5    1    3    3    0  502 -0.10948302558E+03 -0.11697403873E+04  0.39299196315E+03  0.12388478033E+04  0.46999998093E+01 0.  1.
</event>
<event>
 5   0  0.8898848E-06  0.2410528E+04  0.7818609E-02  0.8435573E-01
       -1   -1    0    0    0  501  0.00000000000E+00  0.00000000000E+00  0.13691565939E+04  0.13691565939E+04  0.50400001928E-02 0. -1.
        1   -1    0    0  501    0  0.00000000000E+00  0.00000000000E+00 -0.10609894582E+04  0.10609894583E+04  0.50400001928E-02 0.  1.
    10030    2    1    2    0    0  0.00000000000E+00  0.00000000000E+00  0.30816713562E+03  0.24301460521E+04  0.24105275048E+04 0.  0.
        5    1    3    3  502    0  0.92782964352E+02 -0.11975689262E+04  0.53984932738E+02  0.12023795052E+04  0.46999998093E+01 0.  1.
       -5    1    3    3    0  502 -0.92782964352E+02  0.11975689262E+04  0.25418220288E+03  0.12277665469E+04  0.46999998093E+01 0. -1.
</event>
<event>
 5   0  0.2080257E-05  0.2564064E+04  0.7818609E-02  0.8380511E-01
        2   -1    0    0  501    0  0.00000000000E+00  0.00000000000E+00  0.75645473576E+03  0.75645473576E+03  0.25500000920E-02 0. -1.
       -2   -1    0    0    0  501  0.00000000000E+00  0.00000000000E+00 -0.21727750548E+04  0.21727750548E+04  0.25500000920E-02 0.  1.
    10030    2    1    2    0    0  0.00000000000E+00  0.00000000000E+00 -0.14163203190E+04  0.29292297905E+04  0.25640639461E+04 0.  0.
        1    1    3    3  502    0  0.35598301218E+03  0.12143773585E+04 -0.94275846880E+03  0.15780461984E+04  0.50400001928E-02 0.  1.
       -1    1    3    3    0  502 -0.35598301218E+03 -0.12143773585E+04 -0.47356185020E+03  0.13511835921E+04  0.50400001928E-02 0. -1.
</event>
<event>
 5   0  0.8528103E-06  0.2700308E+04  0.7818609E-02  0.8334905E-01
       -1   -1    0    0    0  501  0.00000000000E+00  0.00000000000E+00  0.12747680115E+04  0.12747680115E+04  0.50400001928E-02 0.  1.
        1   -1    0    0  501    0  0.00000000000E+00  0.00000000000E+00 -0.14299980140E+04  0.14299980141E+04  0.50400001928E-02 0. -1.
    10030    2    1    2    0    0  0.00000000000E+00  0.00000000000E+00 -0.15523000253E+03  0.27047660256E+04  0.27003079268E+04 0.  0.
        4    1    3    3  502    0 -0.16759817635E+03 -0.22310489971E+03 -0.14007990150E+04  0.14283222459E+04  0.12699999809E+01 0. -1.
       -4    1    3    3    0  502  0.16759817635E+03  0.22310489971E+03  0.12455690124E+04  0.12764437797E+04  0.12699999809E+01 0.  1.
</event>
<event>
 5   0  0.9083687E-06  0.2403578E+04  0.7818609E-02  0.8438165E-01
        1   -1    0    0  501    0  0.00000000000E+00  0.00000000000E+00  0.17116760501E+04  0.17116760501E+04  0.50400001928E-02 0. -1.
       -1   -1    0    0    0  501  0.00000000000E+00  0.00000000000E+00 -0.84379110560E+03  0.84379110561E+03  0.50400001928E-02 0.  1.
    10030    2    1    2    0    0  0.00000000000E+00  0.00000000000E+00  0.86788494452E+03  0.25554671557E+04  0.24035781883E+04 0.  0.
        2    1    3    3  502    0 -0.82138483526E+03  0.32182559484E+03  0.13016356928E+04  0.15724185950E+04  0.25500000920E-02 0. -1.
       -2    1    3    3    0  502  0.82138483526E+03 -0.32182559484E+03 -0.43375074830E+03  0.98304856073E+03  0.25500000920E-02 0.  1.
</event>
<event>
 5   0  0.2025353E-05  0.2398737E+04  0.7818609E-02  0.8439976E-01
       -2   -1    0    0    0  501  0.00000000000E+00  0.00000000000E+00  0.11817196590E+04  0.11817196590E+04  0.25500000920E-02 0. -1.
        2   -1    0    0  501    0  0.00000000000E+00  0.00000000000E+00 -0.12172810949E+04  0.12172810949E+04  0.25500000920E-02 0.  1.
    10030    2    1    2    0    0  0.00000000000E+00  0.00000000000E+00 -0.35561435931E+02  0.23990007540E+04  0.23987371681E+04 0.  0.
        4    1    3    3  502    0  0.48191084033E+03  0.98522691528E+03  0.46763150871E+03  0.11923048995E+04  0.12699999809E+01 0. -1.
       -4    1    3    3    0  502 -0.48191084033E+03 -0.98522691528E+03 -0.50319294464E+03  0.12066958544E+04  0.12699999809E+01 0.  1.
</event>
<event>
 5   0  0.2087882E-05  0.2308648E+04  0.7818609E-02  0.8474519E-01
       -2   -1    0    0    0  501  0.00000000000E+00  0.00000000000E+00  0.48646281023E+03  0.48646281024E+03  0.25500000920E-02 0. -1.
        2   -1    0    0  501    0  0.00000000000E+00  0.00000000000E+00 -0.27390879094E+04  0.27390879094E+04  0.25500000920E-02 0.  1.
    10030    2    1    2    0    0  0.00000000000E+00  0.00000000000E+00 -0.22526250992E+04  0.32255507197E+04  0.23086484374E+04 0.  0.
        2    1    3    3  502    0  0.93307413941E+03 -0.63609734945E+03 -0.14605148438E+04  0.18461719304E+04  0.25500000920E-02 0.  1.
       -2    1    3    3    0  502 -0.93307413941E+03  0.63609734945E+03 -0.79211025543E+03  0.13793787893E+04  0.25500000920E-02 0. -1.
</event>
<event>
 5   0  0.2122194E-05  0.2431937E+04  0.7818609E-02  0.8427643E-01
       -2   -1    0    0    0  501  0.00000000000E+00  0.00000000000E+00  0.90670465398E+03  0.90670465399E+03  0.25500000920E-02 0. -1.
        2   -1    0    0  501    0  0.00000000000E+00  0.00000000000E+00 -0.16307172380E+04  0.16307172380E+04  0.25500000920E-02 0.  1.
    10030    2    1    2    0    0  0.00000000000E+00  0.00000000000E+00 -0.72401258397E+03  0.25374218919E+04  0.24319366020E+04 0.  0.
        3    1    3    3  502    0 -0.21004435924E+03  0.98642803611E+03  0.34673647317E+03  0.10664825809E+04  0.10100000352E+00 0. -1.
       -3    1    3    3    0  502  0.21004435924E+03 -0.98642803611E+03 -0.10707490571E+04  0.14709393111E+04  0.10100000352E+00 0.  1.
</event>
<event>
 5   0  0.7233625E-06  0.2441943E+04  0.7818609E-02  0.8423965E-01
       -4   -1    0    0    0  501  0.00000000000E+00  0.00000000000E+00  0.97410699340E+03  0.97410782128E+03  0.12699999809E+01 0. -1.
        4   -1    0    0  501    0  0.00000000000E+00  0.00000000000E+00 -0.15303967614E+04  0.15303972884E+04  0.12699999809E+01 0.  1.
    10030    2    1    2    0    0  0.00000000000E+00  0.00000000000E+00 -0.55628976804E+03  0.25045051097E+04  0.24419433938E+04 0.  0.
        4    1    3    3  502    0  0.57569542632E+03 -0.86899252419E+03 -0.93019787958E+03  0.13970837266E+04  0.12699999809E+01 0.  1.
       -4    1    3    3    0  502 -0.57569542632E+03  0.86899252419E+03  0.37390811154E+03  0.11074213831E+04  0.12699999809E+01 0. -1.
</event>
<event>
 5   0  0.2025353E-05  0.2406606E+04  0.7818609E-02  0.8437035E-01
       -2   -1    0    0    0  501  0.00000000000E+00  0.00000000000E+00  0.92725325125E+03  0.92725325125E+03  0.25500000920E-02 0.  1.
        2   -1    0    0  501    0  0.00000000000E+00  0.00000000000E+00 -0.15615343304E+04  0.15615343304E+04  0.25500000920E-02 0. -1.
    10030    2    1    2    0    0  0.00000000000E+00  0.00000000000E+00 -0.63428107914E+03  0.24887875816E+04  0.24066057299E+04 0.  0.
        4    1    3    3  502    0  0.12018091132E+04 -0.58490383834E+02 -0.33062031192E+03  0.12478291843E+04  0.12699999809E+01 0. -1.
       -4    1    3    3    0  502 -0.12018091132E+04  0.58490383834E+02 -0.30366076722E+03  0.12409583974E+04  0.12699999809E+01 0.  1.
</event>
<event>
 5   0  0.2122194E-05  0.2327505E+04  0.7818609E-02  0.8467155E-01
       -2   -1    0    0    0  501  0.00000000000E+00  0.00000000000E+00  0.62833088911E+03  0.62833088911E+03  0.25500000920E-02 0.  1.
        2   -1    0    0  501    0  0.00000000000E+00  0.00000000000E+00 -0.21554243918E+04  0.21554243918E+04  0.25500000920E-02 0. -1.
    10030    2    1    2    0    0  0.00000000000E+00  0.00000000000E+00 -0.15270935027E+04  0.27837552809E+04  0.23275048653E+04 0.  0.
        3    1    3    3  502    0  0.77979865635E+03  0.76278891298E+03 -0.27862240907E+03  0.11258611492E+04  0.10100000352E+00 0.  1.
       -3    1    3    3    0  502 -0.77979865635E+03 -0.76278891298E+03 -0.12484710936E+04  0.16578941317E+04  0.10100000352E+00 0. -1.
</event>
<event>
 5   0  0.9176817E-06  0.2405993E+04  0.7818609E-02  0.8437263E-01
       -1   -1    0    0    0  501  0.00000000000E+00  0.00000000000E+00  0.72537498897E+03  0.72537498899E+03  0.50400001928E-02 0.  1.
        1   -1    0    0  501    0  0.00000000000E+00  0.00000000000E+00 -0.19951073356E+04  0.19951073356E+04  0.50400001928E-02 0. -1.
    10030    2    1    2    0    0  0.00000000000E+00  0.00000000000E+00 -0.12697323466E+04  0.27204823246E+04  0.24059933180E+04 0.  0.
        3    1    3    3  502    0  0.45265617366E+03 -0.62175604932E+03  0.41110094514E+03  0.87205630191E+03  0.10100000352E+00 0.  1.
       -3    1    3    3    0  502 -0.45265617366E+03  0.62175604932E+03 -0.16808332918E+04  0.18484260227E+04  0.10100000352E+00 0. -1.
</event>
<event>
 5   0  0.2080257E-05  0.2385867E+04  0.7818609E-02  0.8444814E-01
       -2   -1    0    0    0  501  0.00000000000E+00  0.00000000000E+00  0.51280598946E+03  0.51280598946E+03  0.25500000920E-02 0. -1.
        2   -1    0    0  501    0  0.00000000000E+00  0.00000000000E+00 -0.27751047922E+04  0.27751047922E+04  0.25500000920E-02 0.  1.
    10030    2    1    2    0    0  0.00000000000E+00  0.00000000000E+00 -0.22622988027E+04  0.32879107816E+04  0.23858670196E+04 0.  0.
        1    1    3    3  502    0 -0.91594927297E+03 -0.78855262578E+02 -0.21787688936E+04  0.23647864840E+04  0.50400001928E-02 0.  1.
       -1    1    3    3    0  502  0.91594927297E+03  0.78855262578E+02 -0.83529909065E+02  0.92312429761E+03  0.50400001928E-02 0. -1.
</event>
<event>
 5   0  0.9083687E-06  0.2391982E+04  0.7818609E-02  0.8442512E-01
       -1   -1    0    0    0  501  0.00000000000E+00  0.00000000000E+00  0.20665456093E+04  0.20665456093E+04  0.50400001928E-02 0. -1.
        1   -1    0    0  501    0  0.00000000000E+00  0.00000000000E+00 -0.69216686052E+03  0.69216686054E+03  0.50400001928E-02 0.  1.
    10030    2    1    2    0    0  0.00000000000E+00  0.00000000000E+00  0.13743787488E+04  0.27587124699E+04  0.23919819285E+04 0.  0.
        2    1    3    3  502    0 -0.20598296367E+03 -0.13027900449E+02  0.20458510000E+04  0.20562356435E+04  0.25500000920E-02 0. -1.
       -2    1    3    3    0  502  0.20598296367E+03  0.13027900449E+02 -0.67147225116E+03  0.70247682637E+03  0.25500000920E-02 0.  1.
</event>
<event>
 5   0  0.9038897E-06  0.2399030E+04  0.7818609E-02  0.8439867E-01
        1   -1    0    0  501    0  0.00000000000E+00  0.00000000000E+00  0.11461377183E+04  0.11461377183E+04  0.50400001928E-02 0. -1.
       -1   -1    0    0    0  501  0.00000000000E+00  0.00000000000E+00 -0.12553776953E+04  0.12553776953E+04  0.50400001928E-02 0.  1.
    10030    2    1    2    0    0  0.00000000000E+00  0.00000000000E+00 -0.10923997701E+03  0.24015154136E+04  0.23990295766E+04 0.  0.
        1    1    3    3  502    0  0.20668531661E+03  0.26206362024E+03 -0.12079594597E+04  0.12532207377E+04  0.50400001928E-02 0.  1.
       -1    1    3    3    0  502 -0.20668531661E+03 -0.26206362024E+03  0.10987194826E+04  0.11482946759E+04  0.50400001928E-02 0. -1.
</event>
<event>
 5   0  0.2025353E-05  0.2400484E+04  0.7818609E-02  0.8439322E-01
        2   -1    0    0  501    0  0.00000000000E+00  0.00000000000E+00  0.16907857188E+04  0.16907857188E+04  0.25500000920E-02 0. -1.
       -2   -1    0    0    0  501  0.00000000000E+00  0.00000000000E+00 -0.85201850532E+03  0.85201850533E+03  0.25500000920E-02 0.  1.
    10030    2    1    2    0    0  0.00000000000E+00  0.00000000000E+00  0.83876721345E+03  0.25428042241E+04  0.24004838853E+04 0.  0.
        4    1    3    3  502    0  0.85620270927E+03 -0.34900549341E+03 -0.39129455984E+03  0.10039925096E+04  0.12699999809E+01 0.  1.
       -4    1    3    3    0  502 -0.85620270927E+03  0.34900549341E+03  0.12300617733E+04  0.15388117145E+04  0.12699999809E+01 0. -1.
</event>
<event>
 5   0  0.2025353E-05  0.2414208E+04  0.7818609E-02  0.8434203E-01
       -2   -1    0    0    0  501  0.00000000000E+00  0.00000000000E+00  0.15526664313E+04  0.15526664313E+04  0.25500000920E-02 0.  1.
        2   -1    0    0  501    0  0.00000000000E+00  0.00000000000E+00 -0.93845033634E+03  0.93845033634E+03  0.25500000920E-02 0. -1.
    10030    2    1    2    0    0  0.00000000000E+00  0.00000000000E+00  0.61421609492E+03  0.24911167676E+04  0.24142082219E+04 0.  0.
        4    1    3    3  502    0  0.97981114905E+02 -0.11753417224E+04  0.57233787515E+03  0.13109541256E+04  0.12699999809E+01 0.  1.
       -4    1    3    3    0  502 -0.97981114905E+02  0.11753417224E+04  0.41878219772E+02  0.11801626420E+04  0.12699999809E+01 0. -1.
</event>
<event>
 5   0  0.2025353E-05  0.2410766E+04  0.7818609E-02  0.8435484E-01
        2   -1    0    0  501    0  0.00000000000E+00  0.00000000000E+00  0.18910998520E+04  0.18910998520E+04  0.25500000920E-02 0.  1.
       -2   -1    0    0    0  501  0.00000000000E+00  0.00000000000E+00 -0.76830880254E+03  0.76830880255E+03  0.25500000920E-02 0. -1.
    10030    2    1    2    0    0  0.00000000000E+00  0.00000000000E+00  0.11227910495E+04  0.26594086546E+04  0.24107664033E+04 0.  0.
        4    1    3    3  502    0  0.74199879845E+01 -0.10840803946E+04 -0.19887887700E+02  0.10842889371E+04  0.12699999809E+01 0.  1.
       -4    1    3    3    0  502 -0.74199879845E+01  0.10840803946E+04  0.11426789372E+04  0.15751197175E+04  0.12699999809E+01 0. -1.
</event>
<event>
 5   0  0.7233625E-06  0.2455239E+04  0.7818609E-02  0.8419108E-01
        3   -1    0    0  501    0  0.00000000000E+00  0.00000000000E+00  0.13965854000E+04  0.13965854037E+04  0.10100000352E+00 0.  1.
       -3   -1    0    0    0  501  0.00000000000E+00  0.00000000000E+00 -0.10790959226E+04  0.10790959274E+04  0.10100000352E+00 0. -1.
    10030    2    1    2    0    0  0.00000000000E+00  0.00000000000E+00  0.31748947740E+03  0.24756813311E+04  0.24552389873E+04 0.  0.
        5    1    3    3  502    0  0.35108130136E+03 -0.59914836427E+03  0.11794927802E+04  0.13687447355E+04  0.46999998093E+01 0.  1.
       -5    1    3    3    0  502 -0.35108130136E+03  0.59914836427E+03 -0.86200330277E+03  0.11069365955E+04  0.46999998093E+01 0. -1.
</event>
<event>
 5   0  0.9038897E-06  0.2402303E+04  0.7818609E-02  0.8438642E-01
        1   -1    0    0  501    0  0.00000000000E+00  0.00000000000E+00  0.26506482782E+04  0.26506482782E+04  0.50400001928E-02 0.  1.
       -1   -1    0    0    0  501  0.00000000000E+00  0.00000000000E+00 -0.54430661726E+03  0.54430661728E+03  0.50400001928E-02 0. -1.
    10030    2    1    2    0    0  0.00000000000E+00  0.00000000000E+00  0.21063416610E+04  0.31949548955E+04  0.24023033929E+04 0.  0.
        1    1    3    3  502    0 -0.70566382770E+03  0.87034340661E+03  0.16287606267E+04  0.19769472077E+04  0.50400001928E-02 0.  1.
       -1    1    3    3    0  502  0.70566382770E+03 -0.87034340661E+03  0.47758103431E+03  0.12180076878E+04  0.50400001928E-02 0. -1.
</event>
<event>
 5   0  0.2122194E-05  0.2424374E+04  0.7818609E-02  0.8430434E-01
        2   -1    0    0  501    0  0.00000000000E+00  0.00000000000E+00  0.14349518753E+04  0.14349518753E+04  0.25500000920E-02 0. -1.
       -2   -1    0    0    0  501  0.00000000000E+00  0.00000000000E+00 -0.10240047661E+04  0.10240047661E+04  0.25500000920E-02 0.  1.
    10030    2    1    2    0    0  0.00000000000E+00  0.00000000000E+00  0.41094710918E+03  0.24589566414E+04  0.24243741951E+04 0.  0.
        3    1    3    3  502    0  0.87446432763E+03 -0.41972924940E+03 -0.53190233780E+03  0.11062461798E+04  0.10100000352E+00 0.  1.
       -3    1    3    3    0  502 -0.87446432763E+03  0.41972924940E+03  0.94284944698E+03  0.13527104616E+04  0.10100000352E+00 0. -1.
</event>
<event>
 5   0  0.2080257E-05  0.2387191E+04  0.7818609E-02  0.8444315E-01
       -2   -1    0    0    0  501  0.00000000000E+00  0.00000000000E+00  0.89372926309E+03  0.89372926309E+03  0.25500000920E-02 0. -1.
        2   -1    0    0  501    0  0.00000000000E+00  0.00000000000E+00 -0.15940735844E+04  0.15940735844E+04  0.25500000920E-02 0.  1.
    10030    2    1    2    0    0  0.00000000000E+00  0.00000000000E+00 -0.70034432127E+03  0.24878028475E+04  0.23871909935E+04 0.  0.
        1    1    3    3  502    0  0.10113569877E+04 -0.30200030457E+03 -0.93099762282E+03  0.14074102864E+04  0.50400001928E-02 0.  1.
       -1    1    3    3    0  502 -0.10113569877E+04  0.30200030457E+03  0.23065330154E+03  0.10803925611E+04  0.50400001928E-02 0. -1.
</event>
<event>
 5   0  0.7233625E-06  0.2376056E+04  0.7818609E-02  0.8448523E-01
       -4   -1    0    0    0  501  0.00000000000E+00  0.00000000000E+00  0.90032738079E+03  0.90032827652E+03  0.12699999809E+01 0.  1.
        4   -1    0    0  501    0  0.00000000000E+00  0.00000000000E+00 -0.15676615785E+04  0.15676620929E+04  0.12699999809E+01 0. -1.
    10030    2    1    2    0    0  0.00000000000E+00  0.00000000000E+00 -0.66733419772E+03  0.24679903694E+04  0.23760558773E+04 0.  0.
        5    1    3    3  502    0 -0.88173857892E+03  0.70726185429E+03  0.46139342399E+02  0.11312971232E+04  0.46999998093E+01 0.  1.
       -5    1    3    3    0  502  0.88173857892E+03 -0.70726185429E+03 -0.71347354011E+03  0.13366932462E+04  0.46999998093E+01 0. -1.
</event>
<event>
 5   0  0.9038897E-06  0.2402899E+04  0.7818609E-02  0.8438419E-01
        1   -1    0    0  501    0  0.00000000000E+00  0.00000000000E+00  0.16392374576E+04  0.16392374576E+04  0.50400001928E-02 0. -1.
       -1   -1    0    0    0  501  0.00000000000E+00  0.00000000000E+00 -0.88058086358E+03  0.88058086360E+03  0.50400001928E-02 0.  1.
    10030    2    1    2    0    0  0.00000000000E+00  0.00000000000E+00  0.75865659405E+03  0.25198183212E+04  0.24028991956E+04 0.  0.
        1    1    3    3  502    0 -0.11669046962E+04  0.22466021403E+03  0.56498023409E+03  0.13158044865E+04  0.50400001928E-02 0.  1.
       -1    1    3    3    0  502  0.11669046962E+04 -0.22466021403E+03  0.19367635997E+03  0.12040138347E+04  0.50400001928E-02 0. -1.
</event>
<event>
 5   0  0.9083687E-06  0.2400163E+04  0.7818609E-02  0.8439443E-01
        1   -1    0    0  501    0  0.00000000000E+00  0.00000000000E+00  0.21905364605E+04  0.21905364605E+04  0.50400001928E-02 0.  1.
       -1   -1    0    0    0  501  0.00000000000E+00  0.00000000000E+00 -0.65746249021E+03  0.65746249023E+03  0.50400001928E-02 0. -1.
    10030    2    1    2    0    0  0.00000000000E+00  0.00000000000E+00  0.15330739703E+04  0.28479989507E+04  0.24001629580E+04 0.  0.
        2    1    3    3  502    0  0.11939219307E+04 -0.12134547395E+03  0.76106636463E+03  0.14210546478E+04  0.25500000920E-02 0. -1.
       -2    1    3    3    0  502 -0.11939219307E+04  0.12134547395E+03  0.77200760567E+03  0.14269443030E+04  0.25500000920E-02 0.  1.
</event>
<event>
 5   0  0.2122194E-05  0.2392451E+04  0.7818609E-02  0.8442335E-01
        2   -1    0    0  501    0  0.00000000000E+00  0.00000000000E+00  0.23996703362E+04  0.23996703362E+04  0.25500000920E-02 0. -1.
       -2   -1    0    0    0  501  0.00000000000E+00  0.00000000000E+00 -0.59631316966E+03  0.59631316967E+03  0.25500000920E-02 0.  1.
    10030    2    1    2    0    0  0.00000000000E+00  0.00000000000E+00  0.18033571665E+04  0.29959835059E+04  0.23924506468E+04 0.  0.
        3    1    3    3  502    0 -0.43490681746E+03 -0.99978301615E+03  0.15180235259E+04  0.18689851403E+04  0.10100000352E+00 0.  1.
       -3    1    3    3    0  502  0.43490681746E+03  0.99978301615E+03  0.28533364058E+03  0.11269983655E+04  0.10100000352E+00 0. -1.
</event>
<event>
 5   0  0.9083687E-06  0.2367238E+04  0.7818609E-02  0.8451872E-01
       -1   -1    0    0    0  501  0.00000000000E+00  0.00000000000E+00  0.77024855461E+03  0.77024855463E+03  0.50400001928E-02 0.  1.
        1   -1    0    0  501    0  0.00000000000E+00  0.00000000000E+00 -0.18188337696E+04  0.18188337696E+04  0.50400001928E-02 0. -1.
    10030    2    1    2    0    0  0.00000000000E+00  0.00000000000E+00 -0.10485852150E+04  0.25890823242E+04  0.23672381225E+04 0.  0.
        2    1    3    3  502    0  0.10605289736E+04  0.63428345348E+02  0.46338353687E+02  0.10634341079E+04  0.25500000920E-02 0.  1.
       -2    1    3    3    0  502 -0.10605289736E+04 -0.63428345348E+02 -0.10949235686E+04  0.15256482163E+04  0.25500000920E-02 0. -1.
</event>
<event>
 5   0  0.2087882E-05  0.2415327E+04  0.7818609E-02  0.8433788E-01
       -2   -1    0    0    0  501  0.00000000000E+00  0.00000000000E+00  0.90755210025E+03  0.90755210026E+03  0.25500000920E-02 0.  1.
        2   -1    0    0  501    0  0.00000000000E+00  0.00000000000E+00 -0.16070165091E+04  0.16070165091E+04  0.25500000920E-02 0. -1.
    10030    2    1    2    0    0  0.00000000000E+00  0.00000000000E+00 -0.69946440880E+03  0.25145686093E+04  0.24153270652E+04 0.  0.
        2    1    3    3  502    0  0.12760444692E+03 -0.11999437527E+04 -0.39969688591E+03  0.12711827190E+04  0.25500000920E-02 0.  1.
       -2    1    3    3    0  502 -0.12760444692E+03  0.11999437527E+04 -0.29976752289E+03  0.12433858903E+04  0.25500000920E-02 0. -1.
</event>
<event>
 5   0  0.9176817E-06  0.2398750E+04  0.7818609E-02  0.8439972E-01
       -1   -1    0    0    0  501  0.00000000000E+00  0.00000000000E+00  0.21329137912E+04  0.21329137912E+04  0.50400001928E-02 0. -1.
        1   -1    0    0  501    0  0.00000000000E+00  0.00000000000E+00 -0.67442994471E+03  0.67442994473E+03  0.50400001928E-02 0.  1.
    10030    2    1    2    0    0  0.00000000000E+00  0.00000000000E+00  0.14584838465E+04  0.28073437359E+04  0.23987504499E+04 0.  0.
        3    1    3    3  502    0 -0.65605460455E+02  0.64638371388E+03  0.19091267949E+04  0.20166509642E+04  0.10100000352E+00 0. -1.
       -3    1    3    3    0  502  0.65605460455E+02 -0.64638371388E+03 -0.45064294849E+03  0.79069277171E+03  0.10100000352E+00 0.  1.
</event>
<event>
 5   0  0.9038897E-06  0.2336880E+04  0.7818609E-02  0.8463520E-01
        1   -1    0    0  501    0  0.00000000000E+00  0.00000000000E+00  0.88731449108E+03  0.88731449109E+03  0.50400001928E-02 0.  1.
       -1   -1    0    0    0  501  0.00000000000E+00  0.00000000000E+00 -0.15386343231E+04  0.15386343231E+04  0.50400001928E-02 0. -1.
    10030    2    1    2    0    0  0.00000000000E+00  0.00000000000E+00 -0.65131983202E+03  0.24259488142E+04  0.23368804260E+04 0.  0.
        1    1    3    3  502    0 -0.36662446742E+03  0.95923058944E+03 -0.90432429170E+03  0.13683344797E+04  0.50400001928E-02 0. -1.
       -1    1    3    3    0  502  0.36662446742E+03 -0.95923058944E+03  0.25300445968E+03  0.10576143345E+04  0.50400001928E-02 0.  1.
</event>
<event>
 5   0  0.2025353E-05  0.2391544E+04  0.7818609E-02  0.8442676E-01
        2   -1    0    0  501    0  0.00000000000E+00  0.00000000000E+00  0.17830566444E+04  0.17830566444E+04  0.25500000920E-02 0. -1.
       -2   -1    0    0    0  501  0.00000000000E+00  0.00000000000E+00 -0.80192110381E+03  0.80192110381E+03  0.25500000920E-02 0.  1.
    10030    2    1    2    0    0  0.00000000000E+00  0.00000000000E+00  0.98113554060E+03  0.25849777482E+04  0.23915440639E+04 0.  0.
        4    1    3    3  502    0  0.41059072620E+03  0.25072037624E+03  0.16738371176E+04  0.17416020673E+04  0.12699999809E+01 0. -1.
       -4    1    3    3    0  502 -0.41059072620E+03 -0.25072037624E+03 -0.69270157702E+03  0.84337568094E+03  0.12699999809E+01 0.  1.
</event>
<event>
 5   0  0.2048028E-05  0.2396380E+04  0.7818609E-02  0.8440860E-01
       -2   -1    0    0    0  501  0.00000000000E+00  0.00000000000E+00  0.15851873397E+04  0.15851873397E+04  0.25500000920E-02 0. -1.
        2   -1    0    0  501    0  0.00000000000E+00  0.00000000000E+00 -0.90567171067E+03  0.90567171067E+03  0.25500000920E-02 0.  1.
    10030    2    1    2    0    0  0.00000000000E+00  0.00000000000E+00  0.67951562900E+03  0.24908590503E+04  0.23963800447E+04 0.  0.
        5    1    3    3  502    0  0.22265215982E+03  0.10641199870E+04 -0.18379908212E+03  0.11026012532E+04  0.46999998093E+01 0.  1.
       -5    1    3    3    0  502 -0.22265215982E+03 -0.10641199870E+04  0.86331471113E+03  0.13882577972E+04  0.46999998093E+01 0. -1.
</event>
<event>
 5   0  0.9083687E-06  0.2403054E+04  0.7818609E-02  0.8438361E-01
        1   -1    0    0  501    0  0.00000000000E+00  0.00000000000E+00  0.12517675190E+04  0.12517675190E+04  0.50400001928E-02 0.  1.
       -1   -1    0    0    0  501  0.00000000000E+00  0.00000000000E+00 -0.11533030140E+04  0.11533030140E+04  0.50400001928E-02 0. -1.
    10030    2    1    2    0    0  0.00000000000E+00  0.00000000000E+00  0.98464505054E+02  0.24050705330E+04  0.24030541005E+04 0.  0.
        2    1    3    3  502    0  0.51030979267E+03 -0.60521198899E+02  0.11362321594E+04  0.12470374573E+04  0.25500000920E-02 0.  1.
       -2    1    3    3    0  502 -0.51030979267E+03  0.60521198899E+02 -0.10377676543E+04  0.11580330757E+04  0.25500000920E-02 0. -1.
</event>
<event>
 5   0  0.9083687E-06  0.2417425E+04  0.7818609E-02  0.8433008E-01
        1   -1    0    0  501    0  0.00000000000E+00  0.00000000000E+00  0.22481025348E+04  0.22481025348E+04  0.50400001928E-02 0. -1.
       -1   -1    0    0    0  501  0.00000000000E+00  0.00000000000E+00 -0.64987529357E+03  0.64987529359E+03  0.50400001928E-02 0.  1.
    10030    2    1    2    0    0  0.00000000000E+00  0.00000000000E+00  0.15982272412E+04  0.28979778283E+04  0.24174253203E+04 0.  0.
        2    1    3    3  502    0  0.13242004531E+03  0.35891599331E+03  0.21736107898E+04  0.22070205310E+04  0.25500000920E-02 0. -1.
       -2    1    3    3    0  502 -0.13242004531E+03 -0.35891599331E+03 -0.57538354866E+03  0.69095729732E+03  0.25500000920E-02 0.  1.
</event>
<event>
 5   0  0.9038897E-06  0.2373864E+04  0.7818609E-02  0.8449354E-01
        1   -1    0    0  501    0  0.00000000000E+00  0.00000000000E+00  0.10996848339E+04  0.10996848339E+04  0.50400001928E-02 0. -1.
       -1   -1    0    0    0  501  0.00000000000E+00  0.00000000000E+00 -0.12811010172E+04  0.12811010172E+04  0.50400001928E-02 0.  1.
    10030    2    1    2    0    0  0.00000000000E+00  0.00000000000E+00 -0.18141618325E+03  0.23807858511E+04  0.23738638203E+04 0.  0.
        1    1    3    3  502    0  0.10592991508E+04 -0.51718609488E+03 -0.22971676846E+03  0.12009854043E+04  0.50400001928E-02 0. -1.
       -1    1    3    3    0  502 -0.10592991508E+04  0.51718609488E+03  0.48300585213E+02  0.11798004468E+04  0.50400001928E-02 0.  1.
</event>
<event>
 5   0  0.8898848E-06  0.2467168E+04  0.7818609E-02  0.8414776E-01
        1   -1    0    0  501    0  0.00000000000E+00  0.00000000000E+00  0.15566288312E+04  0.15566288312E+04  0.50400001928E-02 0.  1.
       -1   -1    0    0    0  501  0.00000000000E+00  0.00000000000E+00 -0.97758055408E+03  0.97758055409E+03  0.50400001928E-02 0. -1.
    10030    2    1    2    0    0  0.00000000000E+00  0.00000000000E+00  0.57904827714E+03  0.25342093853E+04  0.24671684785E+04 0.  0.
        5    1    3    3  502    0  0.73315802069E+03 -0.94228078250E+03 -0.29221181719E+02  0.11942737223E+04  0.46999998093E+01 0. -1.
       -5    1    3    3    0  502 -0.73315802069E+03  0.94228078250E+03  0.60826945886E+03  0.13399356630E+04  0.46999998093E+01 0.  1.
</event>
<event>
 5   0  0.9176817E-06  0.2404878E+04  0.7818609E-02  0.8437680E-01
       -1   -1    0    0    0  501  0.00000000000E+00  0.00000000000E+00  0.22970516251E+04  0.22970516251E+04  0.50400001928E-02 0.  1.
        1   -1    0    0  501    0  0.00000000000E+00  0.00000000000E+00 -0.62944136364E+03  0.62944136366E+03  0.50400001928E-02 0. -1.
    10030    2    1    2    0    0  0.00000000000E+00  0.00000000000E+00  0.16676102614E+04  0.29264929887E+04  0.24048777992E+04 0.  0.
        3    1    3    3  502    0 -0.44521627475E+03  0.82508365415E+03  0.17500246833E+04  0.19853379990E+04  0.10100000352E+00 0.  1.
       -3    1    3    3    0  502  0.44521627475E+03 -0.82508365415E+03 -0.82414421908E+02  0.94115498978E+03  0.10100000352E+00 0. -1.
</event>
<event>
 5   0  0.2080257E-05  0.2415769E+04  0.7818609E-02  0.8433624E-01
        2   -1    0    0  501    0  0.00000000000E+00  0.00000000000E+00  0.11277637843E+04  0.11277637843E+04  0.25500000920E-02 0. -1.
       -2   -1    0    0    0  501  0.00000000000E+00  0.00000000000E+00 -0.12936968738E+04  0.12936968738E+04  0.25500000920E-02 0.  1.
    10030    2    1    2    0    0  0.00000000000E+00  0.00000000000E+00 -0.16593308955E+03  0.24214606581E+04  0.24157686000E+04 0.  0.
        1    1    3    3  502    0  0.93175573108E+03 -0.76837160597E+03 -0.62404436523E+02  0.12093212894E+04  0.50400001928E-02 0. -1.
       -1    1    3    3    0  502 -0.93175573108E+03  0.76837160597E+03 -0.10352865303E+03  0.12121393688E+04  0.50400001928E-02 0.  1.
</event>
<event>
 5   0  0.8898848E-06  0.2250907E+04  0.7818609E-02  0.8497533E-01
        1   -1    0    0  501    0  0.00000000000E+00  0.00000000000E+00  0.21415495447E+04  0.21415495447E+04  0.50400001928E-02 0.  1.
       -1   -1    0    0    0  501  0.00000000000E+00  0.00000000000E+00 -0.59146226149E+03  0.59146226151E+03  0.50400001928E-02 0. -1.
    10030    2    1    2    0    0  0.00000000000E+00  0.00000000000E+00  0.15500872832E+04  0.27330118062E+04  0.22509071387E+04 0.  0.
        5    1    3    3  502    0  0.41303740634E+03  0.97142653532E+03  0.12489703602E+04  0.16353037831E+04  0.46999998093E+01 0.  1.
       -5    1    3    3    0  502 -0.41303740634E+03 -0.97142653532E+03  0.30111692303E+03  0.10977080231E+04  0.46999998093E+01 0. -1.
</event>
<event>
 5   0  0.9038897E-06  0.2158636E+04  0.7818609E-02  0.8535845E-01
       -1   -1    0    0    0  501  0.00000000000E+00  0.00000000000E+00  0.12942144076E+04  0.12942144076E+04  0.50400001928E-02 0. -1.
        1   -1    0    0  501    0  0.00000000000E+00  0.00000000000E+00 -0.90010346289E+03  0.90010346290E+03  0.50400001928E-02 0.  1.
    10030    2    1    2    0    0  0.00000000000E+00  0.00000000000E+00  0.39411094470E+03  0.21943178705E+04  0.21586355598E+04 0.  0.
        1    1    3    3  502    0 -0.32584911694E+03 -0.63168041119E+03 -0.62860791536E+03  0.94886548055E+03  0.50400001928E-02 0.  1.
       -1    1    3    3    0  502  0.32584911694E+03  0.63168041119E+03  0.10227188601E+04  0.12454523900E+04  0.50400001928E-02 0. -1.
</event>
<event>
 5   0  0.9038897E-06  0.2393410E+04  0.7818609E-02  0.8441975E-01
        1   -1    0    0  501    0  0.00000000000E+00  0.00000000000E+00  0.82814886835E+03  0.82814886836E+03  0.50400001928E-02 0. -1.
       -1   -1    0    0    0  501  0.00000000000E+00  0.00000000000E+00 -0.17292821747E+04  0.17292821747E+04  0.50400001928E-02 0.  1.
    10030    2    1    2    0    0  0.00000000000E+00  0.00000000000E+00 -0.90113330630E+03  0.25574310430E+04  0.23934101830E+04 0.  0.
        1    1    3    3  502    0 -0.75893423966E+03  0.66930202250E+03 -0.11332200605E+04  0.15192544497E+04  0.50400001928E-02 0. -1.
       -1    1    3    3    0  502  0.75893423966E+03 -0.66930202250E+03  0.23208675416E+03  0.10381765933E+04  0.50400001928E-02 0.  1.
</event>
<event>
 5   0  0.8528103E-06  0.2401123E+04  0.7818609E-02  0.8439083E-01
        1   -1    0    0  501    0  0.00000000000E+00  0.00000000000E+00  0.13441919316E+04  0.13441919316E+04  0.50400001928E-02 0.  1.
       -1   -1    0    0    0  501  0.00000000000E+00  0.00000000000E+00 -0.10722783351E+04  0.10722783351E+04  0.50400001928E-02 0. -1.
    10030    2    1    2    0    0  0.00000000000E+00  0.00000000000E+00  0.27191359651E+03  0.24164702668E+04  0.24011229761E+04 0.  0.
        4    1    3    3  502    0  0.36378299146E+03  0.55890351085E+03  0.11406538686E+04  0.13212887875E+04  0.12699999809E+01 0.  1.
       -4    1    3    3    0  502 -0.36378299146E+03 -0.55890351085E+03 -0.86874027205E+03  0.10951814792E+04  0.12699999809E+01 0. -1.
</event>
<event>
 5   0  0.9176817E-06  0.2176510E+04  0.7818609E-02  0.8528269E-01
       -1   -1    0    0    0  501  0.00000000000E+00  0.00000000000E+00  0.10357982072E+04  0.10357982072E+04  0.50400001928E-02 0. -1.
        1   -1    0    0  501    0  0.00000000000E+00  0.00000000000E+00 -0.11433688997E+04  0.11433688997E+04  0.50400001928E-02 0.  1.
    10030    2    1    2    0    0  0.00000000000E+00  0.00000000000E+00 -0.10757069251E+03  0.21791671068E+04  0.21765104699E+04 0.  0.
        3    1    3    3  502    0 -0.86646860766E+03  0.35725724906E+03 -0.60754167251E+03  0.11169187455E+04  0.10100000352E+00 0.  1.
       -3    1    3    3    0  502  0.86646860766E+03 -0.35725724906E+03  0.49997098000E+03  0.10622483613E+04  0.10100000352E+00 0. -1.
</event>
<event>
 5   0  0.2080257E-05  0.2461974E+04  0.7818609E-02  0.8416659E-01
        2   -1    0    0  501    0  0.00000000000E+00  0.00000000000E+00  0.25567497077E+04  0.25567497077E+04  0.25500000920E-02 0.  1.
       -2   -1    0    0    0  501  0.00000000000E+00  0.00000000000E+00 -0.59267799918E+03  0.59267799918E+03  0.25500000920E-02 0. -1.
    10030    2    1    2    0    0  0.00000000000E+00  0.00000000000E+00  0.19640717085E+04  0.31494277068E+04  0.24619742494E+04 0.  0.
        1    1    3    3  502    0 -0.25168141037E+03 -0.10987103910E+04  0.16149906419E+04  0.19694422634E+04  0.50400001928E-02 0.  1.
       -1    1    3    3    0  502  0.25168141037E+03  0.10987103910E+04  0.34908106662E+03  0.11799854434E+04  0.50400001928E-02 0. -1.
</event>
<event>
 5   0  0.2122194E-05  0.2379860E+04  0.7818609E-02  0.8447082E-01
        2   -1    0    0  501    0  0.00000000000E+00  0.00000000000E+00  0.20473101861E+04  0.20473101861E+04  0.25500000920E-02 0.  1.
       -2   -1    0    0    0  501  0.00000000000E+00  0.00000000000E+00 -0.69160650957E+03  0.69160650958E+03  0.25500000920E-02 0. -1.
    10030    2    1    2    0    0  0.00000000000E+00  0.00000000000E+00  0.13557036766E+04  0.27389166957E+04  0.23798597033E+04 0.  0.
        3    1    3    3  502    0  0.68686623613E+02  0.39548297637E+03  0.19670396099E+04  0.20075780119E+04  0.10100000352E+00 0.  1.
       -3    1    3    3    0  502 -0.68686623613E+02 -0.39548297637E+03 -0.61133593332E+03  0.73133868381E+03  0.10100000352E+00 0. -1.
</event>
<event>
 5   0  0.9176817E-06  0.2348612E+04  0.7818609E-02  0.8458997E-01
       -1   -1    0    0    0  501  0.00000000000E+00  0.00000000000E+00  0.95852097518E+03  0.95852097519E+03  0.50400001928E-02 0. -1.
        1   -1    0    0  501    0  0.00000000000E+00  0.00000000000E+00 -0.14386690491E+04  0.14386690491E+04  0.50400001928E-02 0.  1.
    10030    2    1    2    0    0  0.00000000000E+00  0.00000000000E+00 -0.48014807387E+03  0.23971900243E+04  0.23486118963E+04 0.  0.
        3    1    3    3  502    0  0.62495867496E+03  0.34134571850E+03 -0.11931457751E+04  0.13894916681E+04  0.10100000352E+00 0.  1.
       -3    1    3    3    0  502 -0.62495867496E+03 -0.34134571850E+03  0.71299770118E+03  0.10076983562E+04  0.10100000352E+00 0. -1.
</event>
<event>
 5   0  0.2048028E-05  0.2368189E+04  0.7818609E-02  0.8451510E-01
       -2   -1    0    0    0  501  0.00000000000E+00  0.00000000000E+00  0.93813373056E+03  0.93813373056E+03  0.25500000920E-02 0.  1.
        2   -1    0    0  501    0  0.00000000000E+00  0.00000000000E+00 -0.14945410095E+04  0.14945410095E+04  0.25500000920E-02 0. -1.
    10030    2    1    2    0    0  0.00000000000E+00  0.00000000000E+00 -0.55640727896E+03  0.24326747401E+04  0.23681886181E+04 0.  0.
        5    1    3    3  502    0 -0.11087448752E+04 -0.33171869694E+03 -0.20975794909E+02  0.11575035923E+04  0.46999998093E+01 0.  1.
       -5    1    3    3    0  502  0.11087448752E+04  0.33171869694E+03 -0.53543148405E+03  0.12751711478E+04  0.46999998093E+01 0. -1.
</event>
<event>
 5   0  0.8528103E-06  0.2417420E+04  0.7818609E-02  0.8433011E-01
       -1   -1    0    0    0  501  0.00000000000E+00  0.00000000000E+00  0.14032511945E+04  0.14032511945E+04  0.50400001928E-02 0.  1.
        1   -1    0    0  501    0  0.00000000000E+00  0.00000000000E+00 -0.10411388740E+04  0.10411388740E+04  0.50400001928E-02 0. -1.
    10030    2    1    2    0    0  0.00000000000E+00  0.00000000000E+00  0.36211232043E+03  0.24443900685E+04  0.24174195901E+04 0.  0.
        4    1    3    3  502    0 -0.65759045101E+03 -0.10109851116E+04  0.26233743005E+03  0.12342360541E+04  0.12699999809E+01 0. -1.
       -4    1    3    3    0  502  0.65759045101E+03  0.10109851116E+04  0.99774890383E+02  0.12101540145E+04  0.12699999809E+01 0.  1.
</event>
<event>
 5   0  0.9083687E-06  0.2389523E+04  0.7818609E-02  0.8443436E-01
        1   -1    0    0  501    0  0.00000000000E+00  0.00000000000E+00  0.15541447527E+04  0.15541447527E+04  0.50400001928E-02 0. -1.
       -1   -1    0    0    0  501  0.00000000000E+00  0.00000000000E+00 -0.91848288483E+03  0.91848288484E+03  0.50400001928E-02 0.  1.
    10030    2    1    2    0    0  0.00000000000E+00  0.00000000000E+00  0.63566186784E+03  0.24726276375E+04  0.23895232628E+04 0.  0.
        2    1    3    3  502    0 -0.10269808700E+03  0.10436491549E+04  0.91019529818E+03  0.13885985512E+04  0.25500000920E-02 0. -1.
       -2    1    3    3    0  502  0.10269808700E+03 -0.10436491549E+04 -0.27453343033E+03  0.10840290863E+04  0.25500000920E-02 0.  1.
</event>
<event>
 5   0  0.9038897E-06  0.2406817E+04  0.7818609E-02  0.8436956E-01
       -1   -1    0    0    0  501  0.00000000000E+00  0.00000000000E+00  0.12037326940E+04  0.12037326940E+04  0.50400001928E-02 0. -1.
        1   -1    0    0  501    0  0.00000000000E+00  0.00000000000E+00 -0.12030843807E+04  0.12030843807E+04  0.50400001928E-02 0.  1.
    10030    2    1    2    0    0  0.00000000000E+00  0.00000000000E+00  0.64831329334E+00  0.24068170747E+04  0.24068169874E+04 0.  0.
        1    1    3    3  502    0 -0.48830654198E+03  0.26927414502E+03  0.10667388232E+04  0.12036957926E+04  0.50400001928E-02 0. -1.
       -1    1    3    3    0  502  0.48830654198E+03 -0.26927414502E+03 -0.10660905099E+04  0.12031212821E+04  0.50400001928E-02 0.  1.
</event>
<event>
 5   0  0.8898848E-06  0.2343554E+04  0.7818609E-02  0.8460944E-01
       -1   -1    0    0    0  501  0.00000000000E+00  0.00000000000E+00  0.81998240842E+03  0.81998240844E+03  0.50400001928E-02 0. -1.
        1   -1    0    0  501    0  0.00000000000E+00  0.00000000000E+00 -0.16745010677E+04  0.16745010677E+04  0.50400001928E-02 0.  1.
    10030    2    1    2    0    0  0.00000000000E+00  0.00000000000E+00 -0.85451865929E+03  0.24944834762E+04  0.23435540689E+04 0.  0.
        5    1    3    3  502    0 -0.13379811222E+03  0.47547132301E+03  0.70374694306E+03  0.85980042085E+03  0.46999998093E+01 0. -1.
       -5    1    3    3    0  502  0.13379811222E+03 -0.47547132301E+03 -0.15582656023E+04  0.16346830553E+04  0.46999998093E+01 0.  1.
</event>
<event>
 5   0  0.2048028E-05  0.2397155E+04  0.7818609E-02  0.8440569E-01
       -2   -1    0    0    0  501  0.00000000000E+00  0.00000000000E+00  0.73258969253E+03  0.73258969254E+03  0.25500000920E-02 0.  1.
        2   -1    0    0  501    0  0.00000000000E+00  0.00000000000E+00 -0.19609720357E+04  0.19609720357E+04  0.25500000920E-02 0. -1.
    10030    2    1    2    0    0  0.00000000000E+00  0.00000000000E+00 -0.12283823432E+04  0.26935617283E+04  0.23971548976E+04 0.  0.
        5    1    3    3  502    0  0.23049315701E+03 -0.10450652751E+04 -0.77563304505E+01  0.10702199658E+04  0.46999998093E+01 0.  1.
       -5    1    3    3    0  502 -0.23049315701E+03  0.10450652751E+04 -0.12206260127E+04  0.16233417624E+04  0.46999998093E+01 0. -1.
</event>
<event>
 5   0  0.2025353E-05  0.2357591E+04  0.7818609E-02  0.8455554E-01
        2   -1    0    0  501    0  0.00000000000E+00  0.00000000000E+00  0.17133129266E+04  0.17133129266E+04  0.25500000920E-02 0.  1.
       -2   -1    0    0    0  501  0.00000000000E+00  0.00000000000E+00 -0.81103627680E+03  0.81103627680E+03  0.25500000920E-02 0. -1.
    10030    2    1    2    0    0  0.00000000000E+00  0.00000000000E+00  0.90227664983E+03  0.25243492034E+04  0.23575910901E+04 0.  0.
        4    1    3    3  502    0  0.90003833749E+03  0.37236836459E+03 -0.25977487679E+03  0.10080733145E+04  0.12699999809E+01 0. -1.
       -4    1    3    3    0  502 -0.90003833749E+03 -0.37236836459E+03  0.11620515266E+04  0.15162758889E+04  0.12699999809E+01 0.  1.
</event>
<event>
 5   0  0.8898848E-06  0.2391344E+04  0.7818609E-02  0.8442751E-01
        1   -1    0    0  501    0  0.00000000000E+00  0.00000000000E+00  0.10615631822E+04  0.10615631822E+04  0.50400001928E-02 0.  1.
       -1   -1    0    0    0  501  0.00000000000E+00  0.00000000000E+00 -0.13467226504E+04  0.13467226504E+04  0.50400001928E-02 0. -1.
    10030    2    1    2    0    0  0.00000000000E+00  0.00000000000E+00 -0.28515946817E+03  0.24082858326E+04  0.23913437079E+04 0.  0.
        5    1    3    3  502    0 -0.50676393688E+03  0.23409852281E+03  0.92226528492E+03  0.10780571190E+04  0.46999998093E+01 0.  1.
       -5    1    3    3    0  502  0.50676393688E+03 -0.23409852281E+03 -0.12074247531E+04  0.13302287136E+04  0.46999998093E+01 0. -1.
</event>
<event>
 5   0  0.7233625E-06  0.2393837E+04  0.7818609E-02  0.8441814E-01
        3   -1    0    0  501    0  0.00000000000E+00  0.00000000000E+00  0.17097335930E+04  0.17097335960E+04  0.10100000352E+00 0.  1.
       -3   -1    0    0    0  501  0.00000000000E+00  0.00000000000E+00 -0.83791653898E+03  0.83791654507E+03  0.10100000352E+00 0. -1.
    10030    2    1    2    0    0  0.00000000000E+00  0.00000000000E+00  0.87181705406E+03  0.25476501411E+04  0.23938371427E+04 0.  0.
        2    1    3    3  502    0  0.49516321973E+03  0.27707408430E+03  0.15575014095E+04  0.16576390750E+04  0.25500000920E-02 0.  1.
       -2    1    3    3    0  502 -0.49516321973E+03 -0.27707408430E+03 -0.68568435547E+03  0.89001106606E+03  0.25500000920E-02 0. -1.
</event>
<event>
 5   0  0.2080257E-05  0.2401268E+04  0.7818609E-02  0.8439029E-01
        2   -1    0    0  501    0  0.00000000000E+00  0.00000000000E+00  0.18665473235E+04  0.18665473236E+04  0.25500000920E-02 0. -1.
       -2   -1    0    0    0  501  0.00000000000E+00  0.00000000000E+00 -0.77229324206E+03  0.77229324206E+03  0.25500000920E-02 0.  1.
    10030    2    1    2    0    0  0.00000000000E+00  0.00000000000E+00  0.10942540815E+04  0.26388405656E+04  0.24012679017E+04 0.  0.
        1    1    3    3  502    0  0.79013457603E+03  0.87582418032E+03  0.79320350319E+03  0.14214613750E+04  0.50400001928E-02 0. -1.
       -1    1    3    3    0  502 -0.79013457603E+03 -0.87582418032E+03  0.30105057830E+03  0.12173791906E+04  0.50400001928E-02 0.  1.
</event>
<event>
 5   0  0.2025353E-05  0.2400426E+04  0.7818609E-02  0.8439344E-01
        2   -1    0    0  501    0  0.00000000000E+00  0.00000000000E+00  0.13436415444E+04  0.13436415444E+04  0.25500000920E-02 0. -1.
       -2   -1    0    0    0  501  0.00000000000E+00  0.00000000000E+00 -0.10720944967E+04  0.10720944967E+04  0.25500000920E-02 0.  1.
    10030    2    1    2    0    0  0.00000000000E+00  0.00000000000E+00  0.27154704768E+03  0.24157360411E+04  0.24004255500E+04 0.  0.
        4    1    3    3  502    0  0.73882888953E+03 -0.74968395503E+03  0.71617981202E+03  0.12731100881E+04  0.12699999809E+01 0. -1.
       -4    1    3    3    0  502 -0.73882888953E+03  0.74968395503E+03 -0.44463276434E+03  0.11426259530E+04  0.12699999809E+01 0.  1.
</event>
<event>
 5   0  0.2025353E-05  0.2400785E+04  0.7818609E-02  0.8439210E-01
        2   -1    0    0  501    0  0.00000000000E+00  0.00000000000E+00  0.14432288638E+04  0.14432288638E+04  0.25500000920E-02 0. -1.
       -2   -1    0    0    0  501  0.00000000000E+00  0.00000000000E+00 -0.99841553446E+03  0.99841553447E+03  0.25500000920E-02 0.  1.
    10030    2    1    2    0    0  0.00000000000E+00  0.00000000000E+00  0.44481332933E+03  0.24416443983E+04  0.24007849695E+04 0.  0.
        4    1    3    3  502    0  0.60368001602E+02  0.47534665364E+03 -0.89693455290E+03  0.10169031133E+04  0.12699999809E+01 0.  1.
       -4    1    3    3    0  502 -0.60368001602E+02 -0.47534665364E+03  0.13417478822E+04  0.14247412850E+04  0.12699999809E+01 0. -1.
</event>
<event>
 5   0  0.8528103E-06  0.2378984E+04  0.7818609E-02  0.8447414E-01
       -1   -1    0    0    0  501  0.00000000000E+00  0.00000000000E+00  0.78046290009E+03  0.78046290010E+03  0.50400001928E-02 0. -1.
        1   -1    0    0  501    0  0.00000000000E+00  0.00000000000E+00 -0.18128866850E+04  0.18128866850E+04  0.50400001928E-02 0.  1.
    10030    2    1    2    0    0  0.00000000000E+00  0.00000000000E+00 -0.10324237849E+04  0.25933495851E+04  0.23789836483E+04 0.  0.
        4    1    3    3  502    0 -0.45168066089E+03  0.84571300473E+03  0.25124540242E+03  0.99114669496E+03  0.12699999809E+01 0. -1.
       -4    1    3    3    0  502  0.45168066089E+03 -0.84571300473E+03 -0.12836691873E+04  0.16022028901E+04  0.12699999809E+01 0.  1.
</event>
<event>
 5   0  0.9176817E-06  0.2372923E+04  0.7818609E-02  0.8449711E-01
       -1   -1    0    0    0  501  0.00000000000E+00  0.00000000000E+00  0.50986717700E+03  0.50986717703E+03  0.50400001928E-02 0.  1.
        1   -1    0    0  501    0  0.00000000000E+00  0.00000000000E+00 -0.27608974976E+04  0.27608974976E+04  0.50400001928E-02 0. -1.
    10030    2    1    2    0    0  0.00000000000E+00  0.00000000000E+00 -0.22510303206E+04  0.32707646747E+04  0.23729231030E+04 0.  0.
        3    1    3    3  502    0  0.10004696966E+04 -0.29755046179E+03 -0.19030610573E+04  0.21705108360E+04  0.10100000352E+00 0. -1.
       -3    1    3    3    0  502 -0.10004696966E+04  0.29755046179E+03 -0.34796926331E+03  0.11002538387E+04  0.10100000352E+00 0.  1.
</event>
<event>
 5   0  0.9176817E-06  0.2411678E+04  0.7818609E-02  0.8435144E-01
        1   -1    0    0  501    0  0.00000000000E+00  0.00000000000E+00  0.15350692888E+04  0.15350692888E+04  0.50400001928E-02 0.  1.
       -1   -1    0    0    0  501  0.00000000000E+00  0.00000000000E+00 -0.94721969574E+03  0.94721969576E+03  0.50400001928E-02 0. -1.
    10030    2    1    2    0    0  0.00000000000E+00  0.00000000000E+00  0.58784959308E+03  0.24822889846E+04  0.24116781417E+04 0.  0.
        3    1    3    3  502    0 -0.40453158468E+03  0.11322927715E+04  0.20006760667E+03  0.12189174626E+04  0.10100000352E+00 0. -1.
       -3    1    3    3    0  502  0.40453158468E+03 -0.11322927715E+04  0.38778198640E+03  0.12633715219E+04  0.10100000352E+00 0.  1.
</event>
<event>
 5   0  0.2025353E-05  0.2349643E+04  0.7818609E-02  0.8458601E-01
        2   -1    0    0  501    0  0.00000000000E+00  0.00000000000E+00  0.22172215239E+04  0.22172215239E+04  0.25500000920E-02 0.  1.
       -2   -1    0    0    0  501  0.00000000000E+00  0.00000000000E+00 -0.62249346277E+03  0.62249346277E+03  0.25500000920E-02 0. -1.
    10030    2    1    2    0    0  0.00000000000E+00  0.00000000000E+00  0.15947280612E+04  0.28397149867E+04  0.23496432956E+04 0.  0.
        4    1    3    3  502    0  0.22036181352E+03  0.11198279274E+04  0.11340993420E+04  0.16089614185E+04  0.12699999809E+01 0. -1.
       -4    1    3    3    0  502 -0.22036181352E+03 -0.11198279274E+04  0.46062871915E+03  0.12307535682E+04  0.12699999809E+01 0.  1.
</event>
<event>
 5   0  0.8528103E-06  0.2198151E+04  0.7818609E-02  0.8519198E-01
       -1   -1    0    0    0  501  0.00000000000E+00  0.00000000000E+00  0.67421354104E+03  0.67421354106E+03  0.50400001928E-02 0.  1.
        1   -1    0    0  501    0  0.00000000000E+00  0.00000000000E+00 -0.17916675393E+04  0.17916675394E+04  0.50400001928E-02 0. -1.
    10030    2    1    2    0    0  0.00000000000E+00  0.00000000000E+00 -0.11174539983E+04  0.24658810804E+04  0.21981506009E+04 0.  0.
        4    1    3    3  502    0 -0.10420147304E+04 -0.33688298678E+03 -0.66324136758E+03  0.12803029211E+04  0.12699999809E+01 0. -1.
       -4    1    3    3    0  502  0.10420147304E+04  0.33688298678E+03 -0.45421263072E+03  0.11855781594E+04  0.12699999809E+01 0.  1.
</event>
<event>
 5   0  0.2080257E-05  0.2455075E+04  0.7818609E-02  0.8419168E-01
       -2   -1    0    0    0  501  0.00000000000E+00  0.00000000000E+00  0.63659230011E+03  0.63659230011E+03  0.25500000920E-02 0. -1.
        2   -1    0    0  501    0  0.00000000000E+00  0.00000000000E+00 -0.23670530312E+04  0.23670530312E+04  0.25500000920E-02 0.  1.
    10030    2    1    2    0    0  0.00000000000E+00  0.00000000000E+00 -0.17304607310E+04  0.30036453313E+04  0.24550745273E+04 0.  0.
        1    1    3    3  502    0  0.17485726035E+03 -0.12086344302E+04 -0.71303335583E+03  0.14141388949E+04  0.50400001928E-02 0.  1.
       -1    1    3    3    0  502 -0.17485726035E+03  0.12086344302E+04 -0.10174273752E+04  0.15895064364E+04  0.50400001928E-02 0. -1.
</event>
<event>
 5   0  0.8898848E-06  0.2401177E+04  0.7818609E-02  0.8439063E-01
       -1   -1    0    0    0  501  0.00000000000E+00  0.00000000000E+00  0.11650648470E+04  0.11650648471E+04  0.50400001928E-02 0.  1.
        1   -1    0    0  501    0  0.00000000000E+00  0.00000000000E+00 -0.12371948732E+04  0.12371948732E+04  0.50400001928E-02 0. -1.
    10030    2    1    2    0    0  0.00000000000E+00  0.00000000000E+00 -0.72130026125E+02  0.24022597202E+04  0.24011765913E+04 0.  0.
        5    1    3    3  502    0 -0.82294879851E+03 -0.84082473760E+03  0.20312273754E+03  0.11939480310E+04  0.46999998093E+01 0.  1.
       -5    1    3    3    0  502  0.82294879851E+03  0.84082473760E+03 -0.27525276367E+03  0.12083116892E+04  0.46999998093E+01 0. -1.
</event>
<event>
 5   0  0.2122194E-05  0.2400675E+04  0.7818609E-02  0.8439251E-01
       -2   -1    0    0    0  501  0.00000000000E+00  0.00000000000E+00  0.14962630808E+04  0.14962630808E+04  0.25500000920E-02 0. -1.
        2   -1    0    0  501    0  0.00000000000E+00  0.00000000000E+00 -0.96293895838E+03  0.96293895838E+03  0.25500000920E-02 0.  1.
    10030    2    1    2    0    0  0.00000000000E+00  0.00000000000E+00  0.53332412246E+03  0.24592020392E+04  0.24006749155E+04 0.  0.
        3    1    3    3  502    0  0.57219034227E+03 -0.70430537807E+03 -0.53821741835E+03  0.10550477965E+04  0.10100000352E+00 0.  1.
       -3    1    3    3    0  502 -0.57219034227E+03  0.70430537807E+03  0.10715415408E+04  0.14041542427E+04  0.10100000352E+00 0. -1.
</event>
<event>
 5   0  0.2080257E-05  0.2414932E+04  0.7818609E-02  0.8433934E-01
        2   -1    0    0  501    0  0.00000000000E+00  0.00000000000E+00  0.16830157439E+04  0.16830157439E+04  0.25500000920E-02 0. -1.
       -2   -1    0    0    0  501  0.00000000000E+00  0.00000000000E+00 -0.86628646671E+03  0.86628646671E+03  0.25500000920E-02 0.  1.
    10030    2    1    2    0    0  0.00000000000E+00  0.00000000000E+00  0.81672927721E+03  0.25493022106E+04  0.24149316862E+04 0.  0.
        1    1    3    3  502    0 -0.37882557543E+03 -0.80159963762E+03  0.12736707120E+04  0.15518723783E+04  0.50400001928E-02 0. -1.
       -1    1    3    3    0  502  0.37882557543E+03  0.80159963762E+03 -0.45694143484E+03  0.99742983238E+03  0.50400001928E-02 0.  1.
</event>
<event>
 5   0  0.8898848E-06  0.2395926E+04  0.7818609E-02  0.8441030E-01
       -1   -1    0    0    0  501  0.00000000000E+00  0.00000000000E+00  0.11467675563E+04  0.11467675563E+04  0.50400001928E-02 0. -1.
        1   -1    0    0  501    0  0.00000000000E+00  0.00000000000E+00 -0.12514440194E+04  0.12514440194E+04  0.50400001928E-02 0.  1.
    10030    2    1    2    0    0  0.00000000000E+00  0.00000000000E+00 -0.10467646308E+03  0.23982115757E+04  0.23959260422E+04 0.  0.
        5    1    3    3  502    0  0.10209584481E+04 -0.16813502068E+03 -0.65662579010E+03  0.12254815609E+04  0.46999998093E+01 0.  1.
       -5    1    3    3    0  502 -0.10209584481E+04  0.16813502068E+03  0.55194932702E+03  0.11727300148E+04  0.46999998093E+01 0. -1.
</event>
<event>
 5   0  0.9083687E-06  0.2395130E+04  0.7818609E-02  0.8441329E-01
        1   -1    0    0  501    0  0.00000000000E+00  0.00000000000E+00  0.19535752612E+04  0.19535752613E+04  0.50400001928E-02 0.  1.
       -1   -1    0    0    0  501  0.00000000000E+00  0.00000000000E+00 -0.73412144967E+03  0.73412144969E+03  0.50400001928E-02 0. -1.
    10030    2    1    2    0    0  0.00000000000E+00  0.00000000000E+00  0.12194538116E+04  0.26876967109E+04  0.23951296440E+04 0.  0.
        2    1    3    3  502    0 -0.87823694397E+03 -0.10595562069E+03  0.15155708009E+04  0.17548451715E+04  0.25500000920E-02 0.  1.
       -2    1    3    3    0  502  0.87823694397E+03  0.10595562069E+03 -0.29611698932E+03  0.93285153947E+03  0.25500000920E-02 0. -1.
</event>
<event>
 5   0  0.2087882E-05  0.2394619E+04  0.7818609E-02  0.8441521E-01
       -2   -1    0    0    0  501  0.00000000000E+00  0.00000000000E+00  0.11640799606E+04  0.11640799606E+04  0.25500000920E-02 0.  1.
        2   -1    0    0  501    0  0.00000000000E+00  0.00000000000E+00 -0.12314871069E+04  0.12314871069E+04  0.25500000920E-02 0. -1.
    10030    2    1    2    0    0  0.00000000000E+00  0.00000000000E+00 -0.67407146327E+02  0.23955670675E+04  0.23946185190E+04 0.  0.
        2    1    3    3  502    0  0.85709513823E+03  0.76847345629E+02 -0.86651869322E+03  0.12212175221E+04  0.25500000920E-02 0. -1.
       -2    1    3    3    0  502 -0.85709513823E+03 -0.76847345629E+02  0.79911154690E+03  0.11743495454E+04  0.25500000920E-02 0.  1.
</event>
<event>
 5   0  0.2087882E-05  0.2382753E+04  0.7818609E-02  0.8445989E-01
       -2   -1    0    0    0  501  0.00000000000E+00  0.00000000000E+00  0.82799314782E+03  0.82799314782E+03  0.25500000920E-02 0. -1.
        2   -1    0    0  501    0  0.00000000000E+00  0.00000000000E+00 -0.17142389951E+04  0.17142389951E+04  0.25500000920E-02 0.  1.
    10030    2    1    2    0    0  0.00000000000E+00  0.00000000000E+00 -0.88624584726E+03  0.25422321429E+04  0.23827531485E+04 0.  0.
        2    1    3    3  502    0  0.43814004302E+03 -0.10977438825E+04 -0.28354701407E+03  0.12154864203E+04  0.25500000920E-02 0. -1.
       -2    1    3    3    0  502 -0.43814004302E+03  0.10977438825E+04 -0.60269883319E+03  0.13267457226E+04  0.25500000920E-02 0.  1.
</event>
<event>
 5   0  0.9176817E-06  0.2363736E+04  0.7818609E-02  0.8453206E-01
        1   -1    0    0  501    0  0.00000000000E+00  0.00000000000E+00  0.18530135431E+04  0.18530135431E+04  0.50400001928E-02 0. -1.
       -1   -1    0    0    0  501  0.00000000000E+00  0.00000000000E+00 -0.75380556700E+03  0.75380556701E+03  0.50400001928E-02 0.  1.
    10030    2    1    2    0    0  0.00000000000E+00  0.00000000000E+00  0.10992079761E+04  0.26068191101E+04  0.23637359620E+04 0.  0.
        3    1    3    3  502    0 -0.34427392742E+03  0.36037072369E+03  0.17314540092E+04  0.18017559745E+04  0.10100000352E+00 0. -1.
       -3    1    3    3    0  502  0.34427392742E+03 -0.36037072369E+03 -0.63224603314E+03  0.80506313554E+03  0.10100000352E+00 0.  1.
</event>
<event>
 5   0  0.9083687E-06  0.2441837E+04  0.7818609E-02  0.8424004E-01
        1   -1    0    0  501    0  0.00000000000E+00  0.00000000000E+00  0.11598918545E+04  0.11598918545E+04  0.50400001928E-02 0. -1.
       -1   -1    0    0    0  501  0.00000000000E+00  0.00000000000E+00 -0.12851563087E+04  0.12851563087E+04  0.50400001928E-02 0.  1.
    10030    2    1    2    0    0  0.00000000000E+00  0.00000000000E+00 -0.12526445423E+03  0.24450481632E+04  0.24418372871E+04 0.  0.
        2    1    3    3  502    0  0.64136181412E+03  0.82399480869E+03  0.57091605583E+03  0.11900662016E+04  0.25500000920E-02 0. -1.
       -2    1    3    3    0  502 -0.64136181412E+03 -0.82399480869E+03 -0.69618051006E+03  0.12549819616E+04  0.25500000920E-02 0.  1.
</event>
<event>
 5   0  0.2080257E-05  0.2407379E+04  0.7818609E-02  0.8436746E-01
       -2   -1    0    0    0  501  0.00000000000E+00  0.00000000000E+00  0.99659030520E+03  0.99659030521E+03  0.25500000920E-02 0. -1.
        2   -1    0    0  501    0  0.00000000000E+00  0.00000000000E+00 -0.14538260949E+04  0.14538260949E+04  0.25500000920E-02 0.  1.
    10030    2    1    2    0    0  0.00000000000E+00  0.00000000000E+00 -0.45723578973E+03  0.24504164001E+04  0.24073794812E+04 0.  0.
        1    1    3    3  502    0 -0.41065111721E+03  0.64909250137E+03  0.71472605740E+03  0.10491848038E+04  0.50400001928E-02 0. -1.
       -1    1    3    3    0  502  0.41065111721E+03 -0.64909250137E+03 -0.11719618471E+04  0.14012315963E+04  0.50400001928E-02 0.  1.
</event>
<event>
 5   0  0.8528103E-06  0.2367872E+04  0.7818609E-02  0.8451631E-01
        1   -1    0    0  501    0  0.00000000000E+00  0.00000000000E+00  0.14775387010E+04  0.14775387010E+04  0.50400001928E-02 0. -1.
       -1   -1    0    0    0  501  0.00000000000E+00  0.00000000000E+00 -0.94867501648E+03  0.94867501649E+03  0.50400001928E-02 0.  1.
    10030    2    1    2    0    0  0.00000000000E+00  0.00000000000E+00  0.52886368452E+03  0.24262137175E+04  0.23678716617E+04 0.  0.
        4    1    3    3  502    0  0.11599921859E+04  0.23463674896E+03  0.29788851489E+03  0.12203997114E+04  0.12699999809E+01 0. -1.
       -4    1    3    3    0  502 -0.11599921859E+04 -0.23463674896E+03  0.23097516963E+03  0.12058140061E+04  0.12699999809E+01 0.  1.
</event>
<event>
 5   0  0.2080257E-05  0.2402922E+04  0.7818609E-02  0.8438411E-01
        2   -1    0    0  501    0  0.00000000000E+00  0.00000000000E+00  0.10181182666E+04  0.10181182666E+04  0.25500000920E-02 0. -1.
       -2   -1    0    0    0  501  0.00000000000E+00  0.00000000000E+00 -0.14178195314E+04  0.14178195314E+04  0.25500000920E-02 0.  1.
    10030    2    1    2    0    0  0.00000000000E+00  0.00000000000E+00 -0.39970126484E+03  0.24359377981E+04  0.24029215249E+04 0.  0.
        1    1    3    3  502    0 -0.38120671396E+03 -0.96158904420E+03 -0.81942406818E+03  0.13196317108E+04  0.50400001928E-02 0.  1.
       -1    1    3    3    0  502  0.38120671396E+03  0.96158904420E+03  0.41972280335E+03  0.11163060872E+04  0.50400001928E-02 0. -1.
</event>
<event>
 5   0  0.9038897E-06  0.2410783E+04  0.7818609E-02  0.8435478E-01
        1   -1    0    0  501    0  0.00000000000E+00  0.00000000000E+00  0.29347527581E+04  0.29347527581E+04  0.50400001928E-02 0.  1.
       -1   -1    0    0    0  501  0.00000000000E+00  0.00000000000E+00 -0.49509068915E+03  0.49509068917E+03  0.50400001928E-02 0. -1.
    10030    2    1    2    0    0  0.00000000000E+00  0.00000000000E+00  0.24396620689E+04  0.34298434473E+04  0.24107830807E+04 0.  0.
        1    1    3    3  502    0  0.55967728468E+02  0.32740154656E+01 -0.49323479975E+03  0.49641079110E+03  0.50400001928E-02 0. -1.
       -1    1    3    3    0  502 -0.55967728468E+02 -0.32740154656E+01  0.29328968687E+04  0.29334326562E+04  0.50400001928E-02 0.  1.
</event>
<event>
 5   0  0.2025353E-05  0.2396737E+04  0.7818609E-02  0.8440726E-01
        2   -1    0    0  501    0  0.00000000000E+00  0.00000000000E+00  0.19124390245E+04  0.19124390245E+04  0.25500000920E-02 0.  1.
       -2   -1    0    0    0  501  0.00000000000E+00  0.00000000000E+00 -0.75091907057E+03  0.75091907057E+03  0.25500000920E-02 0. -1.
    10030    2    1    2    0    0  0.00000000000E+00  0.00000000000E+00  0.11615199539E+04  0.26633580950E+04  0.23967368940E+04 0.  0.
        4    1    3    3  502    0 -0.10483363266E+04 -0.40564586780E+03  0.11918887014E+03  0.11303827773E+04  0.12699999809E+01 0. -1.
       -4    1    3    3    0  502  0.10483363266E+04  0.40564586780E+03  0.10423310838E+04  0.15329753177E+04  0.12699999809E+01 0.  1.
</event>
<event>
 5   0  0.7233625E-06  0.2412424E+04  0.7818609E-02  0.8434867E-01
        3   -1    0    0  501    0  0.00000000000E+00  0.00000000000E+00  0.24361751466E+04  0.24361751487E+04  0.10100000352E+00 0. -1.
       -3   -1    0    0    0  501  0.00000000000E+00  0.00000000000E+00 -0.59722631573E+03  0.59722632427E+03  0.10100000352E+00 0.  1.
    10030    2    1    2    0    0  0.00000000000E+00  0.00000000000E+00  0.18389488308E+04  0.30334014729E+04  0.24124244431E+04 0.  0.
        2    1    3    3  502    0 -0.11299164181E+04 -0.13478004350E+03  0.41639944812E+03  0.12117199645E+04  0.25500000920E-02 0. -1.
       -2    1    3    3    0  502  0.11299164181E+04  0.13478004350E+03  0.14225493827E+04  0.18216815085E+04  0.25500000920E-02 0.  1.
</event>
<event>
 5   0  0.2122194E-05  0.2419336E+04  0.7818609E-02  0.8432300E-01
        2   -1    0    0  501    0  0.00000000000E+00  0.00000000000E+00  0.12590655300E+04  0.12590655300E+04  0.25500000920E-02 0.  1.
       -2   -1    0    0    0  501  0.00000000000E+00  0.00000000000E+00 -0.11622088930E+04  0.11622088930E+04  0.25500000920E-02 0. -1.
    10030    2    1    2    0    0  0.00000000000E+00  0.00000000000E+00  0.96856637064E+02  0.24212744230E+04  0.24193364014E+04 0.  0.
        3    1    3    3  502    0 -0.65950781197E+03 -0.24069264063E+03  0.10343131883E+04  0.12500749110E+04  0.10100000352E+00 0.  1.
       -3    1    3    3    0  502  0.65950781197E+03  0.24069264063E+03 -0.93745655124E+03  0.11711995120E+04  0.10100000352E+00 0. -1.
</event>
<event>
 5   0  0.2087882E-05  0.2403652E+04  0.7818609E-02  0.8438138E-01
        2   -1    0    0  501    0  0.00000000000E+00  0.00000000000E+00  0.82649193710E+03  0.82649193711E+03  0.25500000920E-02 0.  1.
       -2   -1    0    0    0  501  0.00000000000E+00  0.00000000000E+00 -0.17476095496E+04  0.17476095496E+04  0.25500000920E-02 0. -1.
    10030    2    1    2    0    0  0.00000000000E+00  0.00000000000E+00 -0.92111761249E+03  0.25741014867E+04  0.24036515571E+04 0.  0.
        2    1    3    3  502    0 -0.94771778201E+02  0.56373878362E+03 -0.15926926111E+04  0.16921740039E+04  0.25500000920E-02 0. -1.
       -2    1    3    3    0  502  0.94771778201E+02 -0.56373878362E+03  0.67157499861E+03  0.88192748277E+03  0.25500000920E-02 0.  1.
</event>
<event>
 5   0  0.2080257E-05  0.2359958E+04  0.7818609E-02  0.8454649E-01
        2   -1    0    0  501    0  0.00000000000E+00  0.00000000000E+00  0.90993340219E+03  0.90993340220E+03  0.25500000920E-02 0.  1.
       -2   -1    0    0    0  501  0.00000000000E+00  0.00000000000E+00 -0.15301677292E+04  0.15301677292E+04  0.25500000920E-02 0. -1.
    10030    2    1    2    0    0  0.00000000000E+00  0.00000000000E+00 -0.62023432704E+03  0.24401011314E+04  0.23599582435E+04 0.  0.
        1    1    3    3  502    0  0.89168832316E+03 -0.77226687746E+03 -0.34020044600E+03  0.12276972506E+04  0.50400001928E-02 0. -1.
       -1    1    3    3    0  502 -0.89168832316E+03  0.77226687746E+03 -0.28003388104E+03  0.12124038808E+04  0.50400001928E-02 0.  1.
</event>
<event>
 5   0  0.9083687E-06  0.2405276E+04  0.7818609E-02  0.8437531E-01
       -1   -1    0    0    0  501  0.00000000000E+00  0.00000000000E+00  0.68568678418E+03  0.68568678420E+03  0.50400001928E-02 0.  1.
        1   -1    0    0  501    0  0.00000000000E+00  0.00000000000E+00 -0.21093279079E+04  0.21093279080E+04  0.50400001928E-02 0. -1.
    10030    2    1    2    0    0  0.00000000000E+00  0.00000000000E+00 -0.14236411238E+04  0.27950146922E+04  0.24052760923E+04 0.  0.
        2    1    3    3  502    0 -0.86693475238E+03 -0.83280657412E+03 -0.67164010392E+03  0.13770414242E+04  0.25500000920E-02 0. -1.
       -2    1    3    3    0  502  0.86693475238E+03  0.83280657412E+03 -0.75200101984E+03  0.14179732680E+04  0.25500000920E-02 0.  1.
</event>
<event>
 5   0  0.2087882E-05  0.2411354E+04  0.7818609E-02  0.8435265E-01
       -2   -1    0    0    0  501  0.00000000000E+00  0.00000000000E+00  0.11124304487E+04  0.11124304487E+04  0.25500000920E-02 0. -1.
        2   -1    0    0  501    0  0.00000000000E+00  0.00000000000E+00 -0.13067392883E+04  0.13067392883E+04  0.25500000920E-02 0.  1.
    10030    2    1    2    0    0  0.00000000000E+00  0.00000000000E+00 -0.19430883966E+03  0.24191697370E+04  0.24113536222E+04 0.  0.
        2    1    3    3  502    0  0.60068678585E+03  0.65990695579E+03  0.71624778592E+03  0.11442520246E+04  0.25500000920E-02 0. -1.
       -2    1    3    3    0  502 -0.60068678585E+03 -0.65990695579E+03 -0.91055662558E+03  0.12749177124E+04  0.25500000920E-02 0.  1.
</event>
<event>
 5   0  0.9176817E-06  0.2407941E+04  0.7818609E-02  0.8436536E-01
       -1   -1    0    0    0  501  0.00000000000E+00  0.00000000000E+00  0.97607449628E+03  0.97607449629E+03  0.50400001928E-02 0. -1.
        1   -1    0    0  501    0  0.00000000000E+00  0.00000000000E+00 -0.14850766442E+04  0.14850766442E+04  0.50400001928E-02 0.  1.
    10030    2    1    2    0    0  0.00000000000E+00  0.00000000000E+00 -0.50900214788E+03  0.24611511405E+04  0.24079413925E+04 0.  0.
        3    1    3    3  502    0  0.62262269029E+03 -0.38756320179E+03 -0.12304202837E+04  0.14324099744E+04  0.10100000352E+00 0.  1.
       -3    1    3    3    0  502 -0.62262269029E+03  0.38756320179E+03  0.72141813586E+03  0.10287411661E+04  0.10100000352E+00 0. -1.
</event>
<event>
 5   0  0.8528103E-06  0.2403913E+04  0.7818609E-02  0.8438040E-01
        1   -1    0    0  501    0  0.00000000000E+00  0.00000000000E+00  0.19671761003E+04  0.19671761003E+04  0.50400001928E-02 0. -1.
       -1   -1    0    0    0  501  0.00000000000E+00  0.00000000000E+00 -0.73440253306E+03  0.73440253308E+03  0.50400001928E-02 0.  1.
    10030    2    1    2    0    0  0.00000000000E+00  0.00000000000E+00  0.12327735672E+04  0.27015786334E+04  0.24039127364E+04 0.  0.
        4    1    3    3  502    0 -0.67747819560E+03  0.86532698647E+03  0.69359559189E+02  0.11011720394E+04  0.12699999809E+01 0. -1.
       -4    1    3    3    0  502  0.67747819560E+03 -0.86532698647E+03  0.11634140080E+04  0.16004065940E+04  0.12699999809E+01 0.  1.
</event>
<event>
 5   0  0.9083687E-06  0.2408181E+04  0.7818609E-02  0.8436447E-01
        1   -1    0    0  501    0  0.00000000000E+00  0.00000000000E+00  0.14677877161E+04  0.14677877162E+04  0.50400001928E-02 0.  1.
       -1   -1    0    0    0  501  0.00000000000E+00  0.00000000000E+00 -0.98776793843E+03  0.98776793844E+03  0.50400001928E-02 0. -1.
    10030    2    1    2    0    0  0.00000000000E+00  0.00000000000E+00  0.48001977772E+03  0.24555556546E+04  0.24081807627E+04 0.  0.
        2    1    3    3  502    0  0.39126233583E+03 -0.99529436400E+03 -0.32417090536E+03  0.11174899831E+04  0.25500000920E-02 0. -1.
       -2    1    3    3    0  502 -0.39126233583E+03  0.99529436400E+03  0.80419068307E+03  0.13380656715E+04  0.25500000920E-02 0.  1.
</event>
<event>
 5   0  0.8898848E-06  0.2360961E+04  0.7818609E-02  0.8454265E-01
       -1   -1    0    0    0  501  0.00000000000E+00  0.00000000000E+00  0.11555543006E+04  0.11555543007E+04  0.50400001928E-02 0. -1.
        1   -1    0    0  501    0  0.00000000000E+00  0.00000000000E+00 -0.12059443441E+04  0.12059443442E+04  0.50400001928E-02 0.  1.
    10030    2    1    2    0    0  0.00000000000E+00  0.00000000000E+00 -0.50390043499E+02  0.23614986448E+04  0.23609609681E+04 0.  0.
        5    1    3    3  502    0 -0.63330315111E+03 -0.13644846131E+02 -0.10215408532E+04  0.12020095124E+04  0.46999998093E+01 0.  1.
       -5    1    3    3    0  502  0.63330315111E+03  0.13644846131E+02  0.97115080972E+03  0.11594891324E+04  0.46999998093E+01 0. -1.
</event>
<event>
 5   0  0.2080257E-05  0.2373010E+04  0.7818609E-02  0.8449678E-01
       -2   -1    0    0    0  501  0.00000000000E+00  0.00000000000E+00  0.12727662368E+04  0.12727662368E+04  0.25500000920E-02 0. -1.
        2   -1    0    0  501    0  0.00000000000E+00  0.00000000000E+00 -0.11060902511E+04  0.11060902511E+04  0.25500000920E-02 0.  1.
    10030    2    1    2    0    0  0.00000000000E+00  0.00000000000E+00  0.16667598572E+03  0.23788564879E+04  0.23730101782E+04 0.  0.
        1    1    3    3  502    0 -0.17326081591E+03  0.44424775784E+02  0.12591733736E+04  0.12718138448E+04  0.50400001928E-02 0. -1.
       -1    1    3    3    0  502  0.17326081591E+03 -0.44424775784E+02 -0.10924973879E+04  0.11070426431E+04  0.50400001928E-02 0.  1.
</event>
<event>
 5   0  0.2025353E-05  0.2405474E+04  0.7818609E-02  0.8437457E-01
        2   -1    0    0  501    0  0.00000000000E+00  0.00000000000E+00  0.82324950453E+03  0.82324950453E+03  0.25500000920E-02 0. -1.
       -2   -1    0    0    0  501  0.00000000000E+00  0.00000000000E+00 -0.17571536272E+04  0.17571536272E+04  0.25500000920E-02 0.  1.
    10030    2    1    2    0    0  0.00000000000E+00  0.00000000000E+00 -0.93390412267E+03  0.25804031317E+04  0.24054736357E+04 0.  0.
        4    1    3    3  502    0  0.28500027834E+03  0.42501908834E+01  0.78649482902E+03  0.83655182251E+03  0.12699999809E+01 0. -1.
       -4    1    3    3    0  502 -0.28500027834E+03 -0.42501908834E+01 -0.17203989517E+04  0.17438513092E+04  0.12699999809E+01 0.  1.
</event>
<event>
 5   0  0.2122194E-05  0.2426535E+04  0.7818609E-02  0.8429635E-01
       -2   -1    0    0    0  501  0.00000000000E+00  0.00000000000E+00  0.73399875096E+03  0.73399875097E+03  0.25500000920E-02 0. -1.
        2   -1    0    0  501    0  0.00000000000E+00  0.00000000000E+00 -0.20054781379E+04  0.20054781379E+04  0.25500000920E-02 0.  1.
    10030    2    1    2    0    0  0.00000000000E+00  0.00000000000E+00 -0.12714793870E+04  0.27394768889E+04  0.24265353476E+04 0.  0.
        3    1    3    3  502    0  0.72720370113E+03 -0.44451971580E+03 -0.16105781193E+04  0.18221923305E+04  0.10100000352E+00 0.  1.
       -3    1    3    3    0  502 -0.72720370113E+03  0.44451971580E+03  0.33909873232E+03  0.91728455843E+03  0.10100000352E+00 0. -1.
</event>
<event>
 5   0  0.9083687E-06  0.2372171E+04  0.7818609E-02  0.8449996E-01
       -1   -1    0    0    0  501  0.00000000000E+00  0.00000000000E+00  0.12707187397E+04  0.12707187397E+04  0.50400001928E-02 0.  1.
        1   -1    0    0  501    0  0.00000000000E+00  0.00000000000E+00 -0.11070889890E+04  0.11070889890E+04  0.50400001928E-02 0. -1.
    10030    2    1    2    0    0  0.00000000000E+00  0.00000000000E+00  0.16362975071E+03  0.23778077287E+04  0.23721709254E+04 0.  0.
        2    1    3    3  502    0 -0.81203008365E+03 -0.29321018951E+02  0.94789701872E+03  0.12485036392E+04  0.25500000920E-02 0.  1.
       -2    1    3    3    0  502  0.81203008365E+03  0.29321018951E+02 -0.78426726801E+03  0.11293040895E+04  0.25500000920E-02 0. -1.
</event>
<event>
 5   0  0.7233625E-06  0.2415133E+04  0.7818609E-02  0.8433859E-01
       -4   -1    0    0    0  501  0.00000000000E+00  0.00000000000E+00  0.17968649119E+04  0.17968653607E+04  0.12699999809E+01 0.  1.
        4   -1    0    0  501    0  0.00000000000E+00  0.00000000000E+00 -0.81153320547E+03  0.81153419920E+03  0.12699999809E+01 0. -1.
    10030    2    1    2    0    0  0.00000000000E+00  0.00000000000E+00  0.98533170641E+03  0.26083995599E+04  0.24151334730E+04 0.  0.
        3    1    3    3  502    0  0.10967034920E+04 -0.86200782006E+02 -0.45211909137E+02  0.11010146462E+04  0.10100000352E+00 0. -1.
       -3    1    3    3    0  502 -0.10967034920E+04  0.86200782006E+02  0.10305436155E+04  0.15073849137E+04  0.10100000352E+00 0.  1.
</event>
<event>
 5   0  0.7233625E-06  0.2438391E+04  0.7818609E-02  0.8425269E-01
       -3   -1    0    0    0  501  0.00000000000E+00  0.00000000000E+00  0.10452944114E+04  0.10452944163E+04  0.10100000352E+00 0. -1.
        3   -1    0    0  501    0  0.00000000000E+00  0.00000000000E+00 -0.14220272027E+04  0.14220272063E+04  0.10100000352E+00 0.  1.
    10030    2    1    2    0    0  0.00000000000E+00  0.00000000000E+00 -0.37673279124E+03  0.24673216226E+04  0.24383905334E+04 0.  0.
        4    1    3    3  502    0  0.11773718037E+04 -0.31657326617E+03 -0.19194222327E+03  0.12342068007E+04  0.12699999809E+01 0. -1.
       -4    1    3    3    0  502 -0.11773718037E+04  0.31657326617E+03 -0.18479056797E+03  0.12331148219E+04  0.12699999809E+01 0.  1.
</event>
<event>
 5   0  0.7233625E-06  0.2401572E+04  0.7818609E-02  0.8438915E-01
        3   -1    0    0  501    0  0.00000000000E+00  0.00000000000E+00  0.15132627038E+04  0.15132627072E+04  0.10100000352E+00 0. -1.
       -3   -1    0    0    0  501  0.00000000000E+00  0.00000000000E+00 -0.95283288343E+03  0.95283288878E+03  0.10100000352E+00 0.  1.
    10030    2    1    2    0    0  0.00000000000E+00  0.00000000000E+00  0.56042982038E+03  0.24660955960E+04  0.24015715490E+04 0.  0.
        2    1    3    3  502    0 -0.53771961830E+03  0.99649887208E+02  0.13779616387E+04  0.14825150136E+04  0.25500000920E-02 0. -1.
       -2    1    3    3    0  502  0.53771961830E+03 -0.99649887208E+02 -0.81753181833E+03  0.98358058232E+03  0.25500000920E-02 0.  1.
</event>
<event>
 5   0  0.8528103E-06  0.2367824E+04  0.7818609E-02  0.8451649E-01
        1   -1    0    0  501    0  0.00000000000E+00  0.00000000000E+00  0.17971601716E+04  0.17971601716E+04  0.50400001928E-02 0.  1.
       -1   -1    0    0    0  501  0.00000000000E+00  0.00000000000E+00 -0.77992350976E+03  0.77992350978E+03  0.50400001928E-02 0. -1.
    10030    2    1    2    0    0  0.00000000000E+00  0.00000000000E+00  0.10172366619E+04  0.25770836814E+04  0.23678238690E+04 0.  0.
        4    1    3    3  502    0  0.84102672334E+03 -0.83273594901E+03  0.47650208440E+03  0.12758647889E+04  0.12699999809E+01 0.  1.
       -4    1    3    3    0  502 -0.84102672334E+03  0.83273594901E+03  0.54073457748E+03  0.13012188926E+04  0.12699999809E+01 0. -1.
</event>
<event>
 5   0  0.9038897E-06  0.2388903E+04  0.7818609E-02  0.8443670E-01
        1   -1    0    0  501    0  0.00000000000E+00  0.00000000000E+00  0.19402743492E+04  0.19402743492E+04  0.50400001928E-02 0.  1.
       -1   -1    0    0    0  501  0.00000000000E+00  0.00000000000E+00 -0.73531605351E+03  0.73531605353E+03  0.50400001928E-02 0. -1.
    10030    2    1    2    0    0  0.00000000000E+00  0.00000000000E+00  0.12049582957E+04  0.26755904027E+04  0.23889034114E+04 0.  0.
        1    1    3    3  502    0  0.11853700577E+04  0.13597875138E+03  0.66506426240E+03  0.13659805517E+04  0.50400001928E-02 0. -1.
       -1    1    3    3    0  502 -0.11853700577E+04 -0.13597875138E+03  0.53989403326E+03  0.13096098510E+04  0.50400001928E-02 0.  1.
</event>
<event>
 5   0  0.2025353E-05  0.2432609E+04  0.7818609E-02  0.8427395E-01
        2   -1    0    0  501    0  0.00000000000E+00  0.00000000000E+00  0.96921593994E+03  0.96921593994E+03  0.25500000920E-02 0.  1.
       -2   -1    0    0    0  501  0.00000000000E+00  0.00000000000E+00 -0.15263849405E+04  0.15263849405E+04  0.25500000920E-02 0. -1.
    10030    2    1    2    0    0  0.00000000000E+00  0.00000000000E+00 -0.55716900059E+03  0.24956008805E+04  0.24326089820E+04 0.  0.
        4    1    3    3  502    0 -0.64120637194E+03 -0.49308354375E+03  0.65329735870E+03  0.10397480677E+04  0.12699999809E+01 0.  1.
       -4    1    3    3    0  502  0.64120637194E+03  0.49308354375E+03 -0.12104663593E+04  0.14558528128E+04  0.12699999809E+01 0. -1.
</event>
<event>
 5   0  0.2048028E-05  0.2402611E+04  0.7818609E-02  0.8438527E-01
       -2   -1    0    0    0  501  0.00000000000E+00  0.00000000000E+00  0.81319550337E+03  0.81319550338E+03  0.25500000920E-02 0.  1.
        2   -1    0    0  501    0  0.00000000000E+00  0.00000000000E+00 -0.17746461977E+04  0.17746461977E+04  0.25500000920E-02 0. -1.
    10030    2    1    2    0    0  0.00000000000E+00  0.00000000000E+00 -0.96145069437E+03  0.25878417011E+04  0.24026105037E+04 0.  0.
        5    1    3    3  502    0  0.35870041027E+02  0.19409910987E+03 -0.17570502907E+04  0.17681088593E+04  0.46999998093E+01 0. -1.
       -5    1    3    3    0  502 -0.35870041027E+02 -0.19409910987E+03  0.79559959632E+03  0.81973284183E+03  0.46999998093E+01 0.  1.
</event>
<event>
 5   0  0.8898848E-06  0.2391149E+04  0.7818609E-02  0.8442824E-01
       -1   -1    0    0    0  501  0.00000000000E+00  0.00000000000E+00  0.73945850582E+03  0.73945850584E+03  0.50400001928E-02 0. -1.
        1   -1    0    0  501    0  0.00000000000E+00  0.00000000000E+00 -0.19330346883E+04  0.19330346883E+04  0.50400001928E-02 0.  1.
    10030    2    1    2    0    0  0.00000000000E+00  0.00000000000E+00 -0.11935761824E+04  0.26724931941E+04  0.23911494661E+04 0.  0.
        5    1    3    3  502    0  0.78554237800E+03  0.56521088831E+03  0.18783555815E+03  0.98582171959E+03  0.46999998093E+01 0. -1.
       -5    1    3    3    0  502 -0.78554237800E+03 -0.56521088831E+03 -0.13814117406E+04  0.16866714745E+04  0.46999998093E+01 0.  1.
</event>
<event>
 5   0  0.2080257E-05  0.2387354E+04  0.7818609E-02  0.8444253E-01
       -2   -1    0    0    0  501  0.00000000000E+00  0.00000000000E+00  0.99485059176E+03  0.99485059176E+03  0.25500000920E-02 0. -1.
        2   -1    0    0  501    0  0.00000000000E+00  0.00000000000E+00 -0.14322396152E+04  0.14322396152E+04  0.25500000920E-02 0.  1.
    10030    2    1    2    0    0  0.00000000000E+00  0.00000000000E+00 -0.43738902348E+03  0.24270902070E+04  0.23873537055E+04 0.  0.
        1    1    3    3  502    0 -0.40477578265E+03  0.28859808877E+03  0.88460242670E+03  0.10147185543E+04  0.50400001928E-02 0. -1.
       -1    1    3    3    0  502  0.40477578265E+03 -0.28859808877E+03 -0.13219914502E+04  0.14123716527E+04  0.50400001928E-02 0.  1.
</event>
<event>
 5   0  0.2087882E-05  0.2426337E+04  0.7818609E-02  0.8429709E-01
        2   -1    0    0  501    0  0.00000000000E+00  0.00000000000E+00  0.13869552509E+04  0.13869552509E+04  0.25500000920E-02 0. -1.
       -2   -1    0    0    0  501  0.00000000000E+00  0.00000000000E+00 -0.10611573345E+04  0.10611573345E+04  0.25500000920E-02 0.  1.
    10030    2    1    2    0    0  0.00000000000E+00  0.00000000000E+00  0.32579791635E+03  0.24481125854E+04  0.24263369405E+04 0.  0.
        2    1    3    3  502    0  0.27094443669E+03  0.24568192982E+01  0.13560348184E+04  0.13828403207E+04  0.25500000920E-02 0. -1.
       -2    1    3    3    0  502 -0.27094443669E+03 -0.24568192982E+01 -0.10302369020E+04  0.10652722648E+04  0.25500000920E-02 0.  1.
</event>
<event>
 5   0  0.2087882E-05  0.2372110E+04  0.7818609E-02  0.8450020E-01
       -2   -1    0    0    0  501  0.00000000000E+00  0.00000000000E+00  0.11572383366E+04  0.11572383366E+04  0.25500000920E-02 0. -1.
        2   -1    0    0  501    0  0.00000000000E+00  0.00000000000E+00 -0.12155893157E+04  0.12155893157E+04  0.25500000920E-02 0.  1.
    10030    2    1    2    0    0  0.00000000000E+00  0.00000000000E+00 -0.58350979116E+02  0.23728276523E+04  0.23721100798E+04 0.  0.
        2    1    3    3  502    0  0.10639166940E+04  0.52286014535E+03  0.85863509989E+01  0.11854852124E+04  0.25500000920E-02 0.  1.
       -2    1    3    3    0  502 -0.10639166940E+04 -0.52286014535E+03 -0.66937330115E+02  0.11873424399E+04  0.25500000920E-02 0. -1.
</event>
<event>
 5   0  0.8528103E-06  0.2413412E+04  0.7818609E-02  0.8434499E-01
        1   -1    0    0  501    0  0.00000000000E+00  0.00000000000E+00  0.13794172049E+04  0.13794172050E+04  0.50400001928E-02 0. -1.
       -1   -1    0    0    0  501  0.00000000000E+00  0.00000000000E+00 -0.10556192753E+04  0.10556192754E+04  0.50400001928E-02 0.  1.
    10030    2    1    2    0    0  0.00000000000E+00  0.00000000000E+00  0.32379792961E+03  0.24350364803E+04  0.24134120165E+04 0.  0.
        4    1    3    3  502    0  0.69441078788E+03 -0.95762724627E+03 -0.78736421350E+02  0.11855198531E+04  0.12699999809E+01 0.  1.
       -4    1    3    3    0  502 -0.69441078788E+03  0.95762724627E+03  0.40253435096E+03  0.12495166272E+04  0.12699999809E+01 0. -1.
</event>
<event>
 5   0  0.9038897E-06  0.2412825E+04  0.7818609E-02  0.8434718E-01
       -1   -1    0    0    0  501  0.00000000000E+00  0.00000000000E+00  0.10299077209E+04  0.10299077209E+04  0.50400001928E-02 0. -1.
        1   -1    0    0  501    0  0.00000000000E+00  0.00000000000E+00 -0.14131663665E+04  0.14131663665E+04  0.50400001928E-02 0.  1.
    10030    2    1    2    0    0  0.00000000000E+00  0.00000000000E+00 -0.38325864559E+03  0.24430740874E+04  0.24128248604E+04 0.  0.
        1    1    3    3  502    0  0.26718489425E+03  0.10393683265E+04  0.36642149261E+03  0.11339925027E+04  0.50400001928E-02 0. -1.
       -1    1    3    3    0  502 -0.26718489425E+03 -0.10393683265E+04 -0.74968013820E+03  0.13090815847E+04  0.50400001928E-02 0.  1.
</event>
<event>
 5   0  0.2048028E-05  0.2396077E+04  0.7818609E-02  0.8440974E-01
        2   -1    0    0  501    0  0.00000000000E+00  0.00000000000E+00  0.13092668937E+04  0.13092668937E+04  0.25500000920E-02 0. -1.
       -2   -1    0    0    0  501  0.00000000000E+00  0.00000000000E+00 -0.10962596673E+04  0.10962596673E+04  0.25500000920E-02 0.  1.
    10030    2    1    2    0    0  0.00000000000E+00  0.00000000000E+00  0.21300722635E+03  0.24055265610E+04  0.23960772018E+04 0.  0.
        5    1    3    3  502    0  0.93801026782E+03 -0.52520547171E+03  0.63733293474E+03  0.12497677423E+04  0.46999998093E+01 0. -1.
       -5    1    3    3    0  502 -0.93801026782E+03  0.52520547171E+03 -0.42432570839E+03  0.11557588186E+04  0.46999998093E+01 0.  1.
</event>
<event>
 5   0  0.8898848E-06  0.2398310E+04  0.7818609E-02  0.8440136E-01
        1   -1    0    0  501    0  0.00000000000E+00  0.00000000000E+00  0.13144513562E+04  0.13144513562E+04  0.50400001928E-02 0. -1.
       -1   -1    0    0    0  501  0.00000000000E+00  0.00000000000E+00 -0.10939719170E+04  0.10939719170E+04  0.50400001928E-02 0.  1.
    10030    2    1    2    0    0  0.00000000000E+00  0.00000000000E+00  0.22047943917E+03  0.24084232732E+04  0.23983101301E+04 0.  0.
        5    1    3    3  502    0 -0.83877159258E+03  0.39030064083E+02 -0.74945996533E+03  0.11255103109E+04  0.46999998093E+01 0.  1.
       -5    1    3    3    0  502  0.83877159258E+03 -0.39030064083E+02  0.96993940450E+03  0.12829129623E+04  0.46999998093E+01 0. -1.
</event>
<event>
 5   0  0.2087882E-05  0.2442980E+04  0.7818609E-02  0.8423586E-01
       -2   -1    0    0    0  501  0.00000000000E+00  0.00000000000E+00  0.10318729139E+04  0.10318729139E+04  0.25500000920E-02 0. -1.
        2   -1    0    0  501    0  0.00000000000E+00  0.00000000000E+00 -0.14459512103E+04  0.14459512103E+04  0.25500000920E-02 0.  1.
    10030    2    1    2    0    0  0.00000000000E+00  0.00000000000E+00 -0.41407829640E+03  0.24778241242E+04  0.24429800561E+04 0.  0.
        2    1    3    3  502    0  0.12162399755E+03  0.20004252326E+03  0.10089045403E+04  0.10357112432E+04  0.25500000920E-02 0. -1.
       -2    1    3    3    0  502 -0.12162399755E+03 -0.20004252326E+03 -0.14229828367E+04  0.14421128809E+04  0.25500000920E-02 0.  1.
</event>
<event>
 5   0  0.2025353E-05  0.2396150E+04  0.7818609E-02  0.8440946E-01
        2   -1    0    0  501    0  0.00000000000E+00  0.00000000000E+00  0.13642279310E+04  0.13642279310E+04  0.25500000920E-02 0. -1.
       -2   -1    0    0    0  501  0.00000000000E+00  0.00000000000E+00 -0.10521586408E+04  0.10521586408E+04  0.25500000920E-02 0.  1.
    10030    2    1    2    0    0  0.00000000000E+00  0.00000000000E+00  0.31206929018E+03  0.24163865718E+04  0.23961504174E+04 0.  0.
        4    1    3    3  502    0  0.10923573148E+04  0.19031524087E+03  0.61364906563E+03  0.12672928559E+04  0.12699999809E+01 0.  1.
       -4    1    3    3    0  502 -0.10923573148E+04 -0.19031524087E+03 -0.30157977545E+03  0.11490937159E+04  0.12699999809E+01 0. -1.
</event>
<event>
 5   0  0.8528103E-06  0.2400268E+04  0.7818609E-02  0.8439403E-01
       -1   -1    0    0    0  501  0.00000000000E+00  0.00000000000E+00  0.12839174884E+04  0.12839174884E+04  0.50400001928E-02 0. -1.
        1   -1    0    0  501    0  0.00000000000E+00  0.00000000000E+00 -0.11218178545E+04  0.11218178545E+04  0.50400001928E-02 0.  1.
    10030    2    1    2    0    0  0.00000000000E+00  0.00000000000E+00  0.16209963389E+03  0.24057353429E+04  0.24002679535E+04 0.  0.
        4    1    3    3  502    0  0.39870473990E+03 -0.59587455813E+03 -0.88358101386E+03  0.11378703703E+04  0.12699999809E+01 0.  1.
       -4    1    3    3    0  502 -0.39870473990E+03  0.59587455813E+03  0.10456806478E+04  0.12678649726E+04  0.12699999809E+01 0. -1.
</event>
<event>
 5   0  0.2048028E-05  0.2404325E+04  0.7818609E-02  0.8437886E-01
       -2   -1    0    0    0  501  0.00000000000E+00  0.00000000000E+00  0.60582034079E+03  0.60582034080E+03  0.25500000920E-02 0.  1.
        2   -1    0    0  501    0  0.00000000000E+00  0.00000000000E+00 -0.23855164706E+04  0.23855164706E+04  0.25500000920E-02 0. -1.
    10030    2    1    2    0    0  0.00000000000E+00  0.00000000000E+00 -0.17796961298E+04  0.29913368114E+04  0.24043247711E+04 0.  0.
        5    1    3    3  502    0  0.80680828525E+03  0.49947144697E+03  0.28432048338E+02  0.94933756212E+03  0.46999998093E+01 0.  1.
       -5    1    3    3    0  502 -0.80680828525E+03 -0.49947144697E+03 -0.18081281781E+04  0.20419992493E+04  0.46999998093E+01 0. -1.
</event>
<event>
 5   0  0.2122194E-05  0.2408270E+04  0.7818609E-02  0.8436414E-01
        2   -1    0    0  501    0  0.00000000000E+00  0.00000000000E+00  0.11653619573E+04  0.11653619573E+04  0.25500000920E-02 0. -1.
       -2   -1    0    0    0  501  0.00000000000E+00  0.00000000000E+00 -0.12441983267E+04  0.12441983267E+04  0.25500000920E-02 0.  1.
    10030    2    1    2    0    0  0.00000000000E+00  0.00000000000E+00 -0.78836369438E+02  0.24095602839E+04  0.24082702483E+04 0.  0.
        3    1    3    3  502    0  0.16345418312E+03 -0.43554264015E+03  0.10718192353E+04  0.11684225026E+04  0.10100000352E+00 0. -1.
       -3    1    3    3    0  502 -0.16345418312E+03  0.43554264015E+03 -0.11506556047E+04  0.12411377813E+04  0.10100000352E+00 0.  1.
</event>
<event>
 5   0  0.2025353E-05  0.2398385E+04  0.7818609E-02  0.8440108E-01
       -2   -1    0    0    0  501  0.00000000000E+00  0.00000000000E+00  0.12036904138E+04  0.12036904139E+04  0.25500000920E-02 0. -1.
        2   -1    0    0  501    0  0.00000000000E+00  0.00000000000E+00 -0.11947116102E+04  0.11947116102E+04  0.25500000920E-02 0.  1.
    10030    2    1    2    0    0  0.00000000000E+00  0.00000000000E+00  0.89788036490E+01  0.23984020241E+04  0.23983852172E+04 0.  0.
        4    1    3    3  502    0  0.93467168401E+03 -0.33824410747E+03  0.67534510457E+03  0.12017124682E+04  0.12699999809E+01 0. -1.
       -4    1    3    3    0  502 -0.93467168401E+03  0.33824410747E+03 -0.66636630092E+03  0.11966895558E+04  0.12699999809E+01 0.  1.
</event>
<event>
 5   0  0.9083687E-06  0.2400858E+04  0.7818609E-02  0.8439182E-01
        1   -1    0    0  501    0  0.00000000000E+00  0.00000000000E+00  0.17351954447E+04  0.17351954447E+04  0.50400001928E-02 0. -1.
       -1   -1    0    0    0  501  0.00000000000E+00  0.00000000000E+00 -0.83047145582E+03  0.83047145583E+03  0.50400001928E-02 0.  1.
    10030    2    1    2    0    0  0.00000000000E+00  0.00000000000E+00  0.90472398885E+03  0.25656669005E+04  0.24008584191E+04 0.  0.
        2    1    3    3  502    0 -0.51966427049E+03  0.60188715537E+03  0.14133776138E+04  0.16217137173E+04  0.25500000920E-02 0. -1.
       -2    1    3    3    0  502  0.51966427049E+03 -0.60188715537E+03 -0.50865362495E+03  0.94395318316E+03  0.25500000920E-02 0.  1.
</event>
<event>
 5   0  0.2122194E-05  0.2458853E+04  0.7818609E-02  0.8417793E-01
       -2   -1    0    0    0  501  0.00000000000E+00  0.00000000000E+00  0.53892230509E+03  0.53892230510E+03  0.25500000920E-02 0.  1.
        2   -1    0    0  501    0  0.00000000000E+00  0.00000000000E+00 -0.28046524520E+04  0.28046524520E+04  0.25500000920E-02 0. -1.
    10030    2    1    2    0    0  0.00000000000E+00  0.00000000000E+00 -0.22657301469E+04  0.33435747571E+04  0.24588531997E+04 0.  0.
        3    1    3    3  502    0  0.10845322710E+04  0.30962449166E+03 -0.46751293232E+03  0.12209201140E+04  0.10100000352E+00 0. -1.
       -3    1    3    3    0  502 -0.10845322710E+04 -0.30962449166E+03 -0.17982172146E+04  0.21226546431E+04  0.10100000352E+00 0.  1.
</event>
<event>
 5   0  0.9176817E-06  0.2303644E+04  0.7818609E-02  0.8476486E-01
       -1   -1    0    0    0  501  0.00000000000E+00  0.00000000000E+00  0.29033574838E+04  0.29033574838E+04  0.50400001928E-02 0.  1.
        1   -1    0    0  501    0  0.00000000000E+00  0.00000000000E+00 -0.45695163711E+03  0.45695163714E+03  0.50400001928E-02 0. -1.
    10030    2    1    2    0    0  0.00000000000E+00  0.00000000000E+00  0.24464058467E+04  0.33603091209E+04  0.23036440310E+04 0.  0.
        3    1    3    3  502    0 -0.10688732703E+04 -0.42910453064E+03  0.12356812786E+04  0.16892391775E+04  0.10100000352E+00 0.  1.
       -3    1    3    3    0  502  0.10688732703E+04  0.42910453064E+03  0.12107245681E+04  0.16710699435E+04  0.10100000352E+00 0. -1.
</event>
<event>
 5   0  0.2025353E-05  0.2428333E+04  0.7818609E-02  0.8428972E-01
        2   -1    0    0  501    0  0.00000000000E+00  0.00000000000E+00  0.23299886960E+04  0.23299886960E+04  0.25500000920E-02 0. -1.
       -2   -1    0    0    0  501  0.00000000000E+00  0.00000000000E+00 -0.63270701920E+03  0.63270701921E+03  0.25500000920E-02 0.  1.
    10030    2    1    2    0    0  0.00000000000E+00  0.00000000000E+00  0.16972816768E+04  0.29626957152E+04  0.24283329283E+04 0.  0.
        4    1    3    3  502    0  0.53844707629E+03 -0.33220579254E+03 -0.41569747593E+03  0.75702836602E+03  0.12699999809E+01 0.  1.
       -4    1    3    3    0  502 -0.53844707629E+03  0.33220579254E+03  0.21129791528E+04  0.22056673492E+04  0.12699999809E+01 0. -1.
</event>
<event>
 5   0  0.9038897E-06  0.2379582E+04  0.7818609E-02  0.8447187E-01
        1   -1    0    0  501    0  0.00000000000E+00  0.00000000000E+00  0.20152377637E+04  0.20152377637E+04  0.50400001928E-02 0.  1.
       -1   -1    0    0    0  501  0.00000000000E+00  0.00000000000E+00 -0.70244954586E+03  0.70244954588E+03  0.50400001928E-02 0. -1.
    10030    2    1    2    0    0  0.00000000000E+00  0.00000000000E+00  0.13127882178E+04  0.27176873096E+04  0.23795821918E+04 0.  0.
        1    1    3    3  502    0 -0.10440590475E+04 -0.10066690725E+03  0.14983232014E+02  0.10490079209E+04  0.50400001928E-02 0.  1.
       -1    1    3    3    0  502  0.10440590475E+04  0.10066690725E+03  0.12978049858E+04  0.16686793886E+04  0.50400001928E-02 0. -1.
</event>
<event>
 5   0  0.2048028E-05  0.2412295E+04  0.7818609E-02  0.8434915E-01
       -2   -1    0    0    0  501  0.00000000000E+00  0.00000000000E+00  0.16580314947E+04  0.16580314947E+04  0.25500000920E-02 0. -1.
        2   -1    0    0  501    0  0.00000000000E+00  0.00000000000E+00 -0.87742119636E+03  0.87742119636E+03  0.25500000920E-02 0.  1.
    10030    2    1    2    0    0  0.00000000000E+00  0.00000000000E+00  0.78061029833E+03  0.25354526911E+04  0.24122951541E+04 0.  0.
        5    1    3    3  502    0  0.43203890779E+03  0.62667376689E+03  0.13736965768E+04  0.15704910070E+04  0.46999998093E+01 0. -1.
       -5    1    3    3    0  502 -0.43203890779E+03 -0.62667376689E+03 -0.59308627849E+03  0.96496168404E+03  0.46999998093E+01 0.  1.
</event>
<event>
 5   0  0.8898848E-06  0.2408790E+04  0.7818609E-02  0.8436220E-01
       -1   -1    0    0    0  501  0.00000000000E+00  0.00000000000E+00  0.10185852699E+04  0.10185852699E+04  0.50400001928E-02 0.  1.
        1   -1    0    0  501    0  0.00000000000E+00  0.00000000000E+00 -0.14240996895E+04  0.14240996895E+04  0.50400001928E-02 0. -1.
    10030    2    1    2    0    0  0.00000000000E+00  0.00000000000E+00 -0.40551441963E+03  0.24426849594E+04  0.24087897099E+04 0.  0.
        5    1    3    3  502    0  0.32021370550E+03 -0.98359581270E+03 -0.82832289004E+03  0.13251937368E+04  0.46999998093E+01 0. -1.
       -5    1    3    3    0  502 -0.32021370550E+03  0.98359581270E+03  0.42280847041E+03  0.11174912226E+04  0.46999998093E+01 0.  1.
</event>
<event>
 5   0  0.8898848E-06  0.2407887E+04  0.7818609E-02  0.8436557E-01
        1   -1    0    0  501    0  0.00000000000E+00  0.00000000000E+00  0.21985736087E+04  0.21985736087E+04  0.50400001928E-02 0.  1.
       -1   -1    0    0    0  501  0.00000000000E+00  0.00000000000E+00 -0.65928223478E+03  0.65928223480E+03  0.50400001928E-02 0. -1.
    10030    2    1    2    0    0  0.00000000000E+00  0.00000000000E+00  0.15392913739E+04  0.28578558435E+04  0.24078874742E+04 0.  0.
        5    1    3    3  502    0 -0.44830153722E+03 -0.98197662043E+03  0.14023791648E+04  0.17697292909E+04  0.46999998093E+01 0.  1.
       -5    1    3    3    0  502  0.44830153722E+03  0.98197662043E+03  0.13691220911E+03  0.10881265525E+04  0.46999998093E+01 0. -1.
</event>
<event>
 5   0  0.2048028E-05  0.2362895E+04  0.7818609E-02  0.8453527E-01
        2   -1    0    0  501    0  0.00000000000E+00  0.00000000000E+00  0.91402826457E+03  0.91402826458E+03  0.25500000920E-02 0.  1.
       -2   -1    0    0    0  501  0.00000000000E+00  0.00000000000E+00 -0.15271063660E+04  0.15271063660E+04  0.25500000920E-02 0. -1.
    10030    2    1    2    0    0  0.00000000000E+00  0.00000000000E+00 -0.61307810143E+03  0.24411346306E+04  0.23628951577E+04 0.  0.
        5    1    3    3  502    0 -0.58493913695E+03 -0.99888626695E+03 -0.62346926372E+02  0.11592397498E+04  0.46999998093E+01 0.  1.
       -5    1    3    3    0  502  0.58493913695E+03  0.99888626695E+03 -0.55073117505E+03  0.12818948808E+04  0.46999998093E+01 0. -1.
</event>
<event>
 5   0  0.8528103E-06  0.2395693E+04  0.7818609E-02  0.8441118E-01
        1   -1    0    0  501    0  0.00000000000E+00  0.00000000000E+00  0.11410729725E+04  0.11410729725E+04  0.50400001928E-02 0. -1.
       -1   -1    0    0    0  501  0.00000000000E+00  0.00000000000E+00 -0.12574447039E+04  0.12574447039E+04  0.50400001928E-02 0.  1.
    10030    2    1    2    0    0  0.00000000000E+00  0.00000000000E+00 -0.11637173137E+03  0.23985176764E+04  0.23956929403E+04 0.  0.
        4    1    3    3  502    0  0.85530341955E+02  0.28522180312E+03  0.11034268117E+04  0.11428994960E+04  0.12699999809E+01 0. -1.
       -4    1    3    3    0  502 -0.85530341955E+02 -0.28522180312E+03 -0.12197985431E+04  0.12556181804E+04  0.12699999809E+01 0.  1.
</event>
<event>
 5   0  0.8528103E-06  0.2410887E+04  0.7818609E-02  0.8435439E-01
        1   -1    0    0  501    0  0.00000000000E+00  0.00000000000E+00  0.14156154262E+04  0.14156154262E+04  0.50400001928E-02 0.  1.
       -1   -1    0    0    0  501  0.00000000000E+00  0.00000000000E+00 -0.10264749858E+04  0.10264749858E+04  0.50400001928E-02 0. -1.
    10030    2    1    2    0    0  0.00000000000E+00  0.00000000000E+00  0.38914044042E+03  0.24420904120E+04  0.24108868281E+04 0.  0.
        4    1    3    3  502    0  0.54748680072E+03  0.42789043146E+03 -0.80319651622E+03  0.10620538004E+04  0.12699999809E+01 0. -1.
       -4    1    3    3    0  502 -0.54748680072E+03 -0.42789043146E+03  0.11923369566E+04  0.13800366116E+04  0.12699999809E+01 0.  1.
</event>
<event>
 5   0  0.8898848E-06  0.2398443E+04  0.7818609E-02  0.8440087E-01
       -1   -1    0    0    0  501  0.00000000000E+00  0.00000000000E+00  0.94789217727E+03  0.94789217728E+03  0.50400001928E-02 0.  1.
        1   -1    0    0  501    0  0.00000000000E+00  0.00000000000E+00 -0.15171894942E+04  0.15171894942E+04  0.50400001928E-02 0. -1.
    10030    2    1    2    0    0  0.00000000000E+00  0.00000000000E+00 -0.56929731695E+03  0.24650816715E+04  0.23984428724E+04 0.  0.
        5    1    3    3  502    0  0.64181594764E+03 -0.61250798164E+02 -0.13238958314E+04  0.14725493653E+04  0.46999998093E+01 0. -1.
       -5    1    3    3    0  502 -0.64181594764E+03  0.61250798164E+02  0.75459851442E+03  0.99253230621E+03  0.46999998093E+01 0.  1.
</event>
<event>
 5   0  0.8528103E-06  0.2393923E+04  0.7818609E-02  0.8441782E-01
       -1   -1    0    0    0  501  0.00000000000E+00  0.00000000000E+00  0.13279737611E+04  0.13279737611E+04  0.50400001928E-02 0.  1.
        1   -1    0    0  501    0  0.00000000000E+00  0.00000000000E+00 -0.10788741328E+04  0.10788741328E+04  0.50400001928E-02 0. -1.
    10030    2    1    2    0    0  0.00000000000E+00  0.00000000000E+00  0.24909962827E+03  0.24068478939E+04  0.23939227556E+04 0.  0.
        4    1    3    3  502    0  0.37578538047E+03  0.10877237699E+03 -0.10127823211E+04  0.10857143847E+04  0.12699999809E+01 0. -1.
       -4    1    3    3    0  502 -0.37578538047E+03 -0.10877237699E+03  0.12618819494E+04  0.13211335093E+04  0.12699999809E+01 0.  1.
</event>
<event>
 5   0  0.8528103E-06  0.2404813E+04  0.7818609E-02  0.8437704E-01
        1   -1    0    0  501    0  0.00000000000E+00  0.00000000000E+00  0.19724282282E+04  0.19724282282E+04  0.50400001928E-02 0.  1.
       -1   -1    0    0    0  501  0.00000000000E+00  0.00000000000E+00 -0.73299574586E+03  0.73299574588E+03  0.50400001928E-02 0. -1.
    10030    2    1    2    0    0  0.00000000000E+00  0.00000000000E+00  0.12394324824E+04  0.27054239741E+04  0.24048130907E+04 0.  0.
        4    1    3    3  502    0  0.82092346206E+03 -0.86618979977E+03  0.78497998636E+03  0.14284240588E+04  0.12699999809E+01 0.  1.
       -4    1    3    3    0  502 -0.82092346206E+03  0.86618979977E+03  0.45445249601E+03  0.12769999153E+04  0.12699999809E+01 0. -1.
</event>
<event>
 5   0  0.8528103E-06  0.2405417E+04  0.7818609E-02  0.8437478E-01
        1   -1    0    0  501    0  0.00000000000E+00  0.00000000000E+00  0.14614248009E+04  0.14614248009E+04  0.50400001928E-02 0.  1.
       -1   -1    0    0    0  501  0.00000000000E+00  0.00000000000E+00 -0.98979312683E+03  0.98979312684E+03  0.50400001928E-02 0. -1.
    10030    2    1    2    0    0  0.00000000000E+00  0.00000000000E+00  0.47163167402E+03  0.24512179277E+04  0.24054174052E+04 0.  0.
        4    1    3    3  502    0  0.35838580099E+03 -0.10753486125E+04  0.64558114847E+03  0.13044507093E+04  0.12699999809E+01 0. -1.
       -4    1    3    3    0  502 -0.35838580099E+03  0.10753486125E+04 -0.17394947444E+03  0.11467672184E+04  0.12699999809E+01 0.  1.
</event>
<event>
 5   0  0.9038897E-06  0.2407401E+04  0.7818609E-02  0.8436738E-01
        1   -1    0    0  501    0  0.00000000000E+00  0.00000000000E+00  0.14269457721E+04  0.14269457721E+04  0.50400001928E-02 0. -1.
       -1   -1    0    0    0  501  0.00000000000E+00  0.00000000000E+00 -0.10153816496E+04  0.10153816496E+04  0.50400001928E-02 0.  1.
    10030    2    1    2    0    0  0.00000000000E+00  0.00000000000E+00  0.41156412247E+03  0.24423274217E+04  0.24074007161E+04 0.  0.
        1    1    3    3  502    0 -0.45508867829E+03  0.33503962665E+03 -0.87243397758E+03  0.10394702025E+04  0.50400001928E-02 0.  1.
       -1    1    3    3    0  502  0.45508867829E+03 -0.33503962665E+03  0.12839981001E+04  0.14028572192E+04  0.50400001928E-02 0. -1.
</event>
<event>
 5   0  0.2087882E-05  0.2387641E+04  0.7818609E-02  0.8444145E-01
        2   -1    0    0  501    0  0.00000000000E+00  0.00000000000E+00  0.17543841503E+04  0.17543841503E+04  0.25500000920E-02 0. -1.
       -2   -1    0    0    0  501  0.00000000000E+00  0.00000000000E+00 -0.81236893899E+03  0.81236893899E+03  0.25500000920E-02 0.  1.
    10030    2    1    2    0    0  0.00000000000E+00  0.00000000000E+00  0.94201521132E+03  0.25667530893E+04  0.23876408363E+04 0.  0.
        2    1    3    3  502    0 -0.31793296335E+02  0.75624773836E+03  0.14634554783E+04  0.16476114204E+04  0.25500000920E-02 0. -1.
       -2    1    3    3    0  502  0.31793296335E+02 -0.75624773836E+03 -0.52144026703E+03  0.91914166892E+03  0.25500000920E-02 0.  1.
</event>
<event>
 5   0  0.9038897E-06  0.2391005E+04  0.7818609E-02  0.8442879E-01
       -1   -1    0    0    0  501  0.00000000000E+00  0.00000000000E+00  0.72696006140E+03  0.72696006142E+03  0.50400001928E-02 0.  1.
        1   -1    0    0  501    0  0.00000000000E+00  0.00000000000E+00 -0.19660319273E+04  0.19660319273E+04  0.50400001928E-02 0. -1.
    10030    2    1    2    0    0  0.00000000000E+00  0.00000000000E+00 -0.12390718659E+04  0.26929919887E+04  0.23910053874E+04 0.  0.
        1    1    3    3  502    0 -0.93294603202E+02 -0.12722116054E+03 -0.19542562343E+04  0.19606138162E+04  0.50400001928E-02 0. -1.
       -1    1    3    3    0  502  0.93294603202E+02  0.12722116054E+03  0.71518436847E+03  0.73237817253E+03  0.50400001928E-02 0.  1.
</event>
<event>
 5   0  0.8528103E-06  0.2413834E+04  0.7818609E-02  0.8434343E-01
        1   -1    0    0  501    0  0.00000000000E+00  0.00000000000E+00  0.11135231254E+04  0.11135231254E+04  0.50400001928E-02 0.  1.
       -1   -1    0    0    0  501  0.00000000000E+00  0.00000000000E+00 -0.13081437609E+04  0.13081437609E+04  0.50400001928E-02 0. -1.
    10030    2    1    2    0    0  0.00000000000E+00  0.00000000000E+00 -0.19462063550E+03  0.24216668863E+04  0.24138337384E+04 0.  0.
        4    1    3    3  502    0  0.85636263392E+03  0.76476253479E+03  0.27595621704E+03  0.11808353577E+04  0.12699999809E+01 0.  1.
       -4    1    3    3    0  502 -0.85636263392E+03 -0.76476253479E+03 -0.47057685253E+03  0.12408315286E+04  0.12699999809E+01 0. -1.
</event>
<event>
 5   0  0.2048028E-05  0.2403434E+04  0.7818609E-02  0.8438219E-01
        2   -1    0    0  501    0  0.00000000000E+00  0.00000000000E+00  0.14840286806E+04  0.14840286806E+04  0.25500000920E-02 0.  1.
       -2   -1    0    0    0  501  0.00000000000E+00  0.00000000000E+00 -0.97311005730E+03  0.97311005731E+03  0.25500000920E-02 0. -1.
    10030    2    1    2    0    0  0.00000000000E+00  0.00000000000E+00  0.51091862325E+03  0.24571387379E+04  0.24034335725E+04 0.  0.
        5    1    3    3  502    0 -0.54097820895E+02  0.10372855655E+04  0.87329188837E+03  0.13570367463E+04  0.46999998093E+01 0.  1.
       -5    1    3    3    0  502  0.54097820895E+02 -0.10372855655E+04 -0.36237326512E+03  0.11001019916E+04  0.46999998093E+01 0. -1.
</event>
<event>
 5   0  0.2048028E-05  0.2453167E+04  0.7818609E-02  0.8419863E-01
       -2   -1    0    0    0  501  0.00000000000E+00  0.00000000000E+00  0.67761852129E+03  0.67761852129E+03  0.25500000920E-02 0. -1.
        2   -1    0    0  501    0  0.00000000000E+00  0.00000000000E+00 -0.22202857812E+04  0.22202857812E+04  0.25500000920E-02 0.  1.
    10030    2    1    2    0    0  0.00000000000E+00  0.00000000000E+00 -0.15426672599E+04  0.28979043025E+04  0.24531667435E+04 0.  0.
        5    1    3    3  502    0 -0.65705449638E+03 -0.41684687025E+03 -0.18913838149E+04  0.20451984621E+04  0.46999998093E+01 0.  1.
       -5    1    3    3    0  502  0.65705449638E+03  0.41684687025E+03  0.34871655496E+03  0.85270584034E+03  0.46999998093E+01 0. -1.
</event>
<event>
 5   0  0.9176817E-06  0.2250929E+04  0.7818609E-02  0.8497524E-01
        1   -1    0    0  501    0  0.00000000000E+00  0.00000000000E+00  0.99823258901E+03  0.99823258902E+03  0.50400001928E-02 0. -1.
       -1   -1    0    0    0  501  0.00000000000E+00  0.00000000000E+00 -0.12689131708E+04  0.12689131709E+04  0.50400001928E-02 0.  1.
    10030    2    1    2    0    0  0.00000000000E+00  0.00000000000E+00 -0.27068058184E+03  0.22671457599E+04  0.22509291235E+04 0.  0.
        3    1    3    3  502    0  0.51633114113E+03 -0.84932799205E+03  0.39639742992E+03  0.10700872946E+04  0.10100000352E+00 0.  1.
       -3    1    3    3    0  502 -0.51633114113E+03  0.84932799205E+03 -0.66707801176E+03  0.11970584653E+04  0.10100000352E+00 0. -1.
</event>
<event>
 5   0  0.8528103E-06  0.2383284E+04  0.7818609E-02  0.8445788E-01
        1   -1    0    0  501    0  0.00000000000E+00  0.00000000000E+00  0.75484651982E+03  0.75484651984E+03  0.50400001928E-02 0.  1.
       -1   -1    0    0    0  501  0.00000000000E+00  0.00000000000E+00 -0.18811913361E+04  0.18811913361E+04  0.50400001928E-02 0. -1.
    10030    2    1    2    0    0  0.00000000000E+00  0.00000000000E+00 -0.11263448162E+04  0.26360378559E+04  0.23832840646E+04 0.  0.
        4    1    3    3  502    0  0.83524200978E+03 -0.33892894391E+03 -0.14252602181E+04  0.16863778777E+04  0.12699999809E+01 0. -1.
       -4    1    3    3    0  502 -0.83524200978E+03  0.33892894391E+03  0.29891540189E+03  0.94965997826E+03  0.12699999809E+01 0.  1.
</event>
<event>
 5   0  0.8528103E-06  0.2398426E+04  0.7818609E-02  0.8440093E-01
       -1   -1    0    0    0  501  0.00000000000E+00  0.00000000000E+00  0.73753973182E+03  0.73753973184E+03  0.50400001928E-02 0.  1.
        1   -1    0    0  501    0  0.00000000000E+00  0.00000000000E+00 -0.19498776014E+04  0.19498776014E+04  0.50400001928E-02 0. -1.
    10030    2    1    2    0    0  0.00000000000E+00  0.00000000000E+00 -0.12123378696E+04  0.26874173332E+04  0.23984263201E+04 0.  0.
        4    1    3    3  502    0 -0.46827034039E+03  0.18575136948E+03 -0.18255658183E+04  0.18937985249E+04  0.12699999809E+01 0. -1.
       -4    1    3    3    0  502  0.46827034039E+03 -0.18575136948E+03  0.61322794874E+03  0.79361880836E+03  0.12699999809E+01 0.  1.
</event>
<event>
 5   0  0.2025353E-05  0.2389745E+04  0.7818609E-02  0.8443353E-01
       -2   -1    0    0    0  501  0.00000000000E+00  0.00000000000E+00  0.13330530076E+04  0.13330530076E+04  0.25500000920E-02 0. -1.
        2   -1    0    0  501    0  0.00000000000E+00  0.00000000000E+00 -0.10710153091E+04  0.10710153091E+04  0.25500000920E-02 0.  1.
    10030    2    1    2    0    0  0.00000000000E+00  0.00000000000E+00  0.26203769846E+03  0.24040683167E+04  0.23897449061E+04 0.  0.
        4    1    3    3  502    0 -0.24410842362E+03  0.50878227415E+03 -0.92851281806E+03  0.10865477399E+04  0.12699999809E+01 0.  1.
       -4    1    3    3    0  502  0.24410842362E+03 -0.50878227415E+03  0.11905505165E+04  0.13175205768E+04  0.12699999809E+01 0. -1.
</event>
<event>
 5   0  0.7233625E-06  0.2397446E+04  0.7818609E-02  0.8440460E-01
        3   -1    0    0  501    0  0.00000000000E+00  0.00000000000E+00  0.65211586791E+03  0.65211587573E+03  0.10100000352E+00 0.  1.
       -3   -1    0    0    0  501  0.00000000000E+00  0.00000000000E+00 -0.22035000286E+04  0.22035000309E+04  0.10100000352E+00 0. -1.
    10030    2    1    2    0    0  0.00000000000E+00  0.00000000000E+00 -0.15513841607E+04  0.28556159067E+04  0.23974464316E+04 0.  0.
        4    1    3    3  502    0 -0.11971091705E+04 -0.40756735316E+02 -0.71977016204E+03  0.13974269843E+04  0.12699999809E+01 0. -1.
       -4    1    3    3    0  502  0.11971091705E+04  0.40756735316E+02 -0.83161399867E+03  0.14581889223E+04  0.12699999809E+01 0.  1.
</event>
<event>
 5   0  0.9176817E-06  0.2397104E+04  0.7818609E-02  0.8440589E-01
        1   -1    0    0  501    0  0.00000000000E+00  0.00000000000E+00  0.24392514513E+04  0.24392514513E+04  0.50400001928E-02 0. -1.
       -1   -1    0    0    0  501  0.00000000000E+00  0.00000000000E+00 -0.58892098654E+03  0.58892098657E+03  0.50400001928E-02 0.  1.
    10030    2    1    2    0    0  0.00000000000E+00  0.00000000000E+00  0.18503304648E+04  0.30281724379E+04  0.23971035615E+04 0.  0.
        3    1    3    3  502    0  0.79827214552E+03 -0.31109045152E+03 -0.13365021472E+03  0.86710903434E+03  0.10100000352E+00 0.  1.
       -3    1    3    3    0  502 -0.79827214552E+03  0.31109045152E+03  0.19839806795E+04  0.21610634035E+04  0.10100000352E+00 0. -1.
</event>
<event>
 5   0  0.2087882E-05  0.2374283E+04  0.7818609E-02  0.8449195E-01
       -2   -1    0    0    0  501  0.00000000000E+00  0.00000000000E+00  0.10208219634E+04  0.10208219634E+04  0.25500000920E-02 0.  1.
        2   -1    0    0  501    0  0.00000000000E+00  0.00000000000E+00 -0.13805587575E+04  0.13805587575E+04  0.25500000920E-02 0. -1.
    10030    2    1    2    0    0  0.00000000000E+00  0.00000000000E+00 -0.35973679416E+03  0.24013807209E+04  0.23742827982E+04 0.  0.
        2    1    3    3  502    0 -0.69942524264E+03 -0.95846682386E+03 -0.21838689247E+03  0.12064605909E+04  0.25500000920E-02 0.  1.
       -2    1    3    3    0  502  0.69942524264E+03  0.95846682386E+03 -0.14134990169E+03  0.11949201300E+04  0.25500000920E-02 0. -1.
</event>
<event>
 5   0  0.2048028E-05  0.2411855E+04  0.7818609E-02  0.8435078E-01
        2   -1    0    0  501    0  0.00000000000E+00  0.00000000000E+00  0.14844019996E+04  0.14844019996E+04  0.25500000920E-02 0. -1.
       -2   -1    0    0    0  501  0.00000000000E+00  0.00000000000E+00 -0.97969511696E+03  0.97969511697E+03  0.25500000920E-02 0.  1.
    10030    2    1    2    0    0  0.00000000000E+00  0.00000000000E+00  0.50470688259E+03  0.24640971165E+04  0.24118552117E+04 0.  0.
        5    1    3    3  502    0 -0.68412133699E+03 -0.42395564508E+03  0.11698471492E+04  0.14199735333E+04  0.46999998093E+01 0. -1.
       -5    1    3    3    0  502  0.68412133699E+03  0.42395564508E+03 -0.66514026665E+03  0.10441235832E+04  0.46999998093E+01 0.  1.
</event>
<event>
 5   0  0.2122194E-05  0.2416724E+04  0.7818609E-02  0.8433269E-01
        2   -1    0    0  501    0  0.00000000000E+00  0.00000000000E+00  0.24225476047E+04  0.24225476047E+04  0.25500000920E-02 0. -1.
       -2   -1    0    0    0  501  0.00000000000E+00  0.00000000000E+00 -0.60272836121E+03  0.60272836122E+03  0.25500000920E-02 0.  1.
    10030    2    1    2    0    0  0.00000000000E+00  0.00000000000E+00  0.18198192435E+04  0.30252759659E+04  0.24167235239E+04 0.  0.
        3    1    3    3  502    0  0.90125105659E+03 -0.76384501602E+03  0.59217334756E+03  0.13215074571E+04  0.10100000352E+00 0.  1.
       -3    1    3    3    0  502 -0.90125105659E+03  0.76384501602E+03  0.12276458959E+04  0.17037685087E+04  0.10100000352E+00 0. -1.
</event>
<event>
 5   0  0.9083687E-06  0.2417410E+04  0.7818609E-02  0.8433014E-01
        1   -1    0    0  501    0  0.00000000000E+00  0.00000000000E+00  0.96203206044E+03  0.96203206045E+03  0.50400001928E-02 0.  1.
       -1   -1    0    0    0  501  0.00000000000E+00  0.00000000000E+00 -0.15186270997E+04  0.15186270997E+04  0.50400001928E-02 0. -1.
    10030    2    1    2    0    0  0.00000000000E+00  0.00000000000E+00 -0.55659503928E+03  0.24806591602E+04  0.24174101496E+04 0.  0.
        2    1    3    3  502    0  0.93886195546E+03 -0.28665413437E+03  0.44537407596E+03  0.10779566001E+04  0.25500000920E-02 0.  1.
       -2    1    3    3    0  502 -0.93886195546E+03  0.28665413437E+03 -0.10019691152E+04  0.14027025601E+04  0.25500000920E-02 0. -1.
</event>
<event>
 5   0  0.2122194E-05  0.2392416E+04  0.7818609E-02  0.8442348E-01
        2   -1    0    0  501    0  0.00000000000E+00  0.00000000000E+00  0.12854503939E+04  0.12854503939E+04  0.25500000920E-02 0.  1.
       -2   -1    0    0    0  501  0.00000000000E+00  0.00000000000E+00 -0.11131612902E+04  0.11131612902E+04  0.25500000920E-02 0. -1.
    10030    2    1    2    0    0  0.00000000000E+00  0.00000000000E+00  0.17228910371E+03  0.23986116841E+04  0.23924160332E+04 0.  0.
        3    1    3    3  502    0  0.11647444538E+04  0.27246765445E+03  0.92895746039E+02  0.11997907714E+04  0.10100000352E+00 0.  1.
       -3    1    3    3    0  502 -0.11647444538E+04 -0.27246765445E+03  0.79393357669E+02  0.11988209127E+04  0.10100000352E+00 0. -1.
</event>
<event>
 5   0  0.8898848E-06  0.2427255E+04  0.7818609E-02  0.8429370E-01
       -1   -1    0    0    0  501  0.00000000000E+00  0.00000000000E+00  0.87970823189E+03  0.87970823190E+03  0.50400001928E-02 0. -1.
        1   -1    0    0  501    0  0.00000000000E+00  0.00000000000E+00 -0.16742962086E+04  0.16742962086E+04  0.50400001928E-02 0.  1.
    10030    2    1    2    0    0  0.00000000000E+00  0.00000000000E+00 -0.79458797673E+03  0.25540044405E+04  0.24272553696E+04 0.  0.
        5    1    3    3  502    0  0.91259762631E+03 -0.34730912060E+03 -0.11556308607E+04  0.15129318653E+04  0.46999998093E+01 0.  1.
       -5    1    3    3    0  502 -0.91259762631E+03  0.34730912060E+03  0.36104288399E+03  0.10410725752E+04  0.46999998093E+01 0. -1.
</event>
<event>
 5   0  0.9176817E-06  0.2395555E+04  0.7818609E-02  0.8441170E-01
        1   -1    0    0  501    0  0.00000000000E+00  0.00000000000E+00  0.57824246571E+03  0.57824246573E+03  0.50400001928E-02 0. -1.
       -1   -1    0    0    0  501  0.00000000000E+00  0.00000000000E+00 -0.24810890542E+04  0.24810890542E+04  0.50400001928E-02 0.  1.
    10030    2    1    2    0    0  0.00000000000E+00  0.00000000000E+00 -0.19028465885E+04  0.30593315199E+04  0.23955550942E+04 0.  0.
        3    1    3    3  502    0  0.62663742600E+03 -0.49887944704E+03  0.18591247884E+03  0.82226432875E+03  0.10100000352E+00 0. -1.
       -3    1    3    3    0  502 -0.62663742600E+03  0.49887944704E+03 -0.20887590673E+04  0.22370671912E+04  0.10100000352E+00 0.  1.
</event>
<event>
 5   0  0.8528103E-06  0.2419368E+04  0.7818609E-02  0.8432288E-01
        1   -1    0    0  501    0  0.00000000000E+00  0.00000000000E+00  0.10549985612E+04  0.10549985612E+04  0.50400001928E-02 0.  1.
       -1   -1    0    0    0  501  0.00000000000E+00  0.00000000000E+00 -0.13870492280E+04  0.13870492281E+04  0.50400001928E-02 0. -1.
    10030    2    1    2    0    0  0.00000000000E+00  0.00000000000E+00 -0.33205066681E+03  0.24420477893E+04  0.24193676364E+04 0.  0.
        4    1    3    3  502    0  0.79376272039E+03  0.56921196221E+03  0.55429738367E+03  0.11230800135E+04  0.12699999809E+01 0.  1.
       -4    1    3    3    0  502 -0.79376272039E+03 -0.56921196221E+03 -0.88634805048E+03  0.13189677758E+04  0.12699999809E+01 0. -1.
</event>
<event>
 5   0  0.2025353E-05  0.2382638E+04  0.7818609E-02  0.8446032E-01
       -2   -1    0    0    0  501  0.00000000000E+00  0.00000000000E+00  0.55971485941E+03  0.55971485941E+03  0.25500000920E-02 0.  1.
        2   -1    0    0  501    0  0.00000000000E+00  0.00000000000E+00 -0.25356509194E+04  0.25356509194E+04  0.25500000920E-02 0. -1.
    10030    2    1    2    0    0  0.00000000000E+00  0.00000000000E+00 -0.19759360600E+04  0.30953657788E+04  0.23826384517E+04 0.  0.
        4    1    3    3  502    0 -0.50555356189E+03  0.59367793037E+03 -0.21580555195E+04  0.22946117595E+04  0.12699999809E+01 0. -1.
       -4    1    3    3    0  502  0.50555356189E+03 -0.59367793037E+03  0.18211945949E+03  0.80075401927E+03  0.12699999809E+01 0.  1.
</event>
<event>
 5   0  0.8528103E-06  0.2410338E+04  0.7818609E-02  0.8435643E-01
       -1   -1    0    0    0  501  0.00000000000E+00  0.00000000000E+00  0.17620822271E+04  0.17620822271E+04  0.50400001928E-02 0. -1.
        1   -1    0    0  501    0  0.00000000000E+00  0.00000000000E+00 -0.82427012888E+03  0.82427012890E+03  0.50400001928E-02 0.  1.
    10030    2    1    2    0    0  0.00000000000E+00  0.00000000000E+00  0.93781209822E+03  0.25863523560E+04  0.24103375236E+04 0.  0.
        4    1    3    3  502    0 -0.52532796527E+03 -0.63467852574E+03  0.14127068957E+04  0.16353986328E+04  0.12699999809E+01 0. -1.
       -4    1    3    3    0  502  0.52532796527E+03  0.63467852574E+03 -0.47489479747E+03  0.95095372321E+03  0.12699999809E+01 0.  1.
</event>
<event>
 5   0  0.2048028E-05  0.2357814E+04  0.7818609E-02  0.8455468E-01
        2   -1    0    0  501    0  0.00000000000E+00  0.00000000000E+00  0.15070718552E+04  0.15070718552E+04  0.25500000920E-02 0. -1.
       -2   -1    0    0    0  501  0.00000000000E+00  0.00000000000E+00 -0.92219995035E+03  0.92219995035E+03  0.25500000920E-02 0.  1.
    10030    2    1    2    0    0  0.00000000000E+00  0.00000000000E+00  0.58487190484E+03  0.24292718055E+04  0.23578138943E+04 0.  0.
        5    1    3    3  502    0  0.60407437880E+03  0.94963881236E+03  0.65389568822E+03  0.13016610120E+04  0.46999998093E+01 0. -1.
       -5    1    3    3    0  502 -0.60407437880E+03 -0.94963881236E+03 -0.69023783381E+02  0.11276107936E+04  0.46999998093E+01 0.  1.
</event>
<event>
 5   0  0.9176817E-06  0.2392219E+04  0.7818609E-02  0.8442422E-01
       -1   -1    0    0    0  501  0.00000000000E+00  0.00000000000E+00  0.89146329752E+03  0.89146329754E+03  0.50400001928E-02 0.  1.
        1   -1    0    0  501    0  0.00000000000E+00  0.00000000000E+00 -0.16048649450E+04  0.16048649450E+04  0.50400001928E-02 0. -1.
    10030    2    1    2    0    0  0.00000000000E+00  0.00000000000E+00 -0.71340164747E+03  0.24963282425E+04  0.23922192174E+04 0.  0.
        3    1    3    3  502    0 -0.73595316381E+03 -0.42002726861E+03  0.52421056259E+03  0.99641692570E+03  0.10100000352E+00 0.  1.
       -3    1    3    3    0  502  0.73595316381E+03  0.42002726861E+03 -0.12376122101E+04  0.14999113168E+04  0.10100000352E+00 0. -1.
</event>
<event>
 5   0  0.2087882E-05  0.2368266E+04  0.7818609E-02  0.8451481E-01
       -2   -1    0    0    0  501  0.00000000000E+00  0.00000000000E+00  0.69507235534E+03  0.69507235535E+03  0.25500000920E-02 0. -1.
        2   -1    0    0  501    0  0.00000000000E+00  0.00000000000E+00 -0.20173015885E+04  0.20173015885E+04  0.25500000920E-02 0.  1.
    10030    2    1    2    0    0  0.00000000000E+00  0.00000000000E+00 -0.13222292331E+04  0.27123739438E+04  0.23682656663E+04 0.  0.
        2    1    3    3  502    0  0.21664390055E+03 -0.27134534676E+03 -0.19576867912E+04  0.19882405411E+04  0.25500000920E-02 0.  1.
       -2    1    3    3    0  502 -0.21664390055E+03  0.27134534676E+03  0.63545755805E+03  0.72413340273E+03  0.25500000920E-02 0. -1.
</event>
<event>
 5   0  0.2025353E-05  0.2401868E+04  0.7818609E-02  0.8438805E-01
       -2   -1    0    0    0  501  0.00000000000E+00  0.00000000000E+00  0.65301961316E+03  0.65301961317E+03  0.25500000920E-02 0. -1.
        2   -1    0    0  501    0  0.00000000000E+00  0.00000000000E+00 -0.22085741441E+04  0.22085741441E+04  0.25500000920E-02 0.  1.
    10030    2    1    2    0    0  0.00000000000E+00  0.00000000000E+00 -0.15555545309E+04  0.28615937572E+04  0.24018678009E+04 0.  0.
        4    1    3    3  502    0 -0.75974214482E+03 -0.89965869540E+02  0.32511665200E+03  0.83126676500E+03  0.12699999809E+01 0. -1.
       -4    1    3    3    0  502  0.75974214482E+03  0.89965869540E+02 -0.18806711829E+04  0.20303269922E+04  0.12699999809E+01 0.  1.
</event>
<event>
 5   0  0.2087882E-05  0.2412037E+04  0.7818609E-02  0.8435011E-01
       -2   -1    0    0    0  501  0.00000000000E+00  0.00000000000E+00  0.70326104408E+03  0.70326104409E+03  0.25500000920E-02 0.  1.
        2   -1    0    0  501    0  0.00000000000E+00  0.00000000000E+00 -0.20681951406E+04  0.20681951406E+04  0.25500000920E-02 0. -1.
    10030    2    1    2    0    0  0.00000000000E+00  0.00000000000E+00 -0.13649340965E+04  0.27714561847E+04  0.24120373745E+04 0.  0.
        2    1    3    3  502    0 -0.29842094937E+03 -0.10813360643E+04 -0.17359895915E+03  0.11351120410E+04  0.25500000920E-02 0.  1.
       -2    1    3    3    0  502  0.29842094937E+03  0.10813360643E+04 -0.11913351374E+04  0.16363441437E+04  0.25500000920E-02 0. -1.
</event>
<event>
 5   0  0.8528103E-06  0.2348807E+04  0.7818609E-02  0.8458922E-01
        1   -1    0    0  501    0  0.00000000000E+00  0.00000000000E+00  0.11272753077E+04  0.11272753077E+04  0.50400001928E-02 0.  1.
       -1   -1    0    0    0  501  0.00000000000E+00  0.00000000000E+00 -0.12235015580E+04  0.12235015580E+04  0.50400001928E-02 0. -1.
    10030    2    1    2    0    0  0.00000000000E+00  0.00000000000E+00 -0.96226250329E+02  0.23507768658E+04  0.23488065866E+04 0.  0.
        4    1    3    3  502    0  0.17085247566E+03 -0.10035827309E+04  0.53791422592E+03  0.11514001014E+04  0.12699999809E+01 0.  1.
       -4    1    3    3    0  502 -0.17085247566E+03  0.10035827309E+04 -0.63414047625E+03  0.11993767643E+04  0.12699999809E+01 0. -1.
</event>
<event>
 5   0  0.2048028E-05  0.2409331E+04  0.7818609E-02  0.8436019E-01
        2   -1    0    0  501    0  0.00000000000E+00  0.00000000000E+00  0.13888178686E+04  0.13888178686E+04  0.25500000920E-02 0. -1.
       -2   -1    0    0    0  501  0.00000000000E+00  0.00000000000E+00 -0.10449306892E+04  0.10449306892E+04  0.25500000920E-02 0.  1.
    10030    2    1    2    0    0  0.00000000000E+00  0.00000000000E+00  0.34388717947E+03  0.24337485578E+04  0.24093305399E+04 0.  0.
        5    1    3    3  502    0  0.19507604685E+03 -0.55310723726E+03  0.12348502152E+04  0.13670623336E+04  0.46999998093E+01 0. -1.
       -5    1    3    3    0  502 -0.19507604685E+03  0.55310723726E+03 -0.89096303571E+03  0.10666862242E+04  0.46999998093E+01 0.  1.
</event>
<event>
 5   0  0.9083687E-06  0.2413474E+04  0.7818609E-02  0.8434476E-01
       -1   -1    0    0    0  501  0.00000000000E+00  0.00000000000E+00  0.61998216468E+03  0.61998216470E+03  0.50400001928E-02 0.  1.
        1   -1    0    0  501    0  0.00000000000E+00  0.00000000000E+00 -0.23488005474E+04  0.23488005474E+04  0.50400001928E-02 0. -1.
    10030    2    1    2    0    0  0.00000000000E+00  0.00000000000E+00 -0.17288183827E+04  0.29687827121E+04  0.24134742160E+04 0.  0.
        2    1    3    3  502    0 -0.10785609658E+04 -0.64316627652E+02 -0.15254410022E+04  0.18693316016E+04  0.25500000920E-02 0. -1.
       -2    1    3    3    0  502  0.10785609658E+04  0.64316627652E+02 -0.20337738049E+03  0.10994511105E+04  0.25500000920E-02 0.  1.
</event>
<event>
 5   0  0.9038897E-06  0.2408041E+04  0.7818609E-02  0.8436499E-01
       -1   -1    0    0    0  501  0.00000000000E+00  0.00000000000E+00  0.69612092559E+03  0.69612092561E+03  0.50400001928E-02 0. -1.
        1   -1    0    0  501    0  0.00000000000E+00  0.00000000000E+00 -0.20824908922E+04  0.20824908922E+04  0.50400001928E-02 0.  1.
    10030    2    1    2    0    0  0.00000000000E+00  0.00000000000E+00 -0.13863699666E+04  0.27786118178E+04  0.24080411022E+04 0.  0.
        1    1    3    3  502    0 -0.67644660841E+03  0.52096408369E+02  0.45455541228E+03  0.81664843883E+03  0.50400001928E-02 0. -1.
       -1    1    3    3    0  502  0.67644660841E+03 -0.52096408369E+02 -0.18409253789E+04  0.19619633790E+04  0.50400001928E-02 0.  1.
</event>
<event>
 5   0  0.8898848E-06  0.2390897E+04  0.7818609E-02  0.8442919E-01
        1   -1    0    0  501    0  0.00000000000E+00  0.00000000000E+00  0.14973415903E+04  0.14973415903E+04  0.50400001928E-02 0.  1.
       -1   -1    0    0    0  501  0.00000000000E+00  0.00000000000E+00 -0.95442285230E+03  0.95442285231E+03  0.50400001928E-02 0. -1.
    10030    2    1    2    0    0  0.00000000000E+00  0.00000000000E+00  0.54291873798E+03  0.24517644426E+04  0.23908969292E+04 0.  0.
        5    1    3    3  502    0  0.96026448349E+03 -0.68173183012E+03  0.60781332406E+02  0.11792296752E+04  0.46999998093E+01 0. -1.
       -5    1    3    3    0  502 -0.96026448349E+03  0.68173183012E+03  0.48213740558E+03  0.12725347674E+04  0.46999998093E+01 0.  1.
</event>
<event>
 5   0  0.8528103E-06  0.2390733E+04  0.7818609E-02  0.8442981E-01
       -1   -1    0    0    0  501  0.00000000000E+00  0.00000000000E+00  0.78533325596E+03  0.78533325598E+03  0.50400001928E-02 0.  1.
        1   -1    0    0  501    0  0.00000000000E+00  0.00000000000E+00 -0.18194833654E+04  0.18194833654E+04  0.50400001928E-02 0. -1.
    10030    2    1    2    0    0  0.00000000000E+00  0.00000000000E+00 -0.10341501095E+04  0.26048166214E+04  0.23907327710E+04 0.  0.
        4    1    3    3  502    0 -0.88404002989E+02  0.37865398521E+03  0.71450154777E+03  0.81345447502E+03  0.12699999809E+01 0.  1.
       -4    1    3    3    0  502  0.88404002989E+02 -0.37865398521E+03 -0.17486516572E+04  0.17913621464E+04  0.12699999809E+01 0. -1.
</event>
<event>
 5   0  0.2080257E-05  0.2416081E+04  0.7818609E-02  0.8433507E-01
       -2   -1    0    0    0  501  0.00000000000E+00  0.00000000000E+00  0.12789245352E+04  0.12789245352E+04  0.25500000920E-02 0. -1.
        2   -1    0    0  501    0  0.00000000000E+00  0.00000000000E+00 -0.11410855970E+04  0.11410855970E+04  0.25500000920E-02 0.  1.
    10030    2    1    2    0    0  0.00000000000E+00  0.00000000000E+00  0.13783893815E+03  0.24200101322E+04  0.24160814281E+04 0.  0.
        1    1    3    3  502    0 -0.71468428592E+03 -0.50118682467E+03  0.90538248998E+03  0.12576483272E+04  0.50400001928E-02 0. -1.
       -1    1    3    3    0  502  0.71468428592E+03  0.50118682467E+03 -0.76754355183E+03  0.11623618050E+04  0.50400001928E-02 0.  1.
</event>
<event>
 5   0  0.9038897E-06  0.2397714E+04  0.7818609E-02  0.8440360E-01
        1   -1    0    0  501    0  0.00000000000E+00  0.00000000000E+00  0.72688821712E+03  0.72688821713E+03  0.50400001928E-02 0.  1.
       -1   -1    0    0    0  501  0.00000000000E+00  0.00000000000E+00 -0.19772745677E+04  0.19772745677E+04  0.50400001928E-02 0. -1.
    10030    2    1    2    0    0  0.00000000000E+00  0.00000000000E+00 -0.12503863506E+04  0.27041627849E+04  0.23977135653E+04 0.  0.
        1    1    3    3  502    0  0.18555622482E+03  0.11475203709E+04 -0.29440954240E+03  0.11991293062E+04  0.50400001928E-02 0.  1.
       -1    1    3    3    0  502 -0.18555622482E+03 -0.11475203709E+04 -0.95597680822E+03  0.15050334787E+04  0.50400001928E-02 0. -1.
</event>
<event>
 5   0  0.2122194E-05  0.2392506E+04  0.7818609E-02  0.8442314E-01
       -2   -1    0    0    0  501  0.00000000000E+00  0.00000000000E+00  0.93345914657E+03  0.93345914657E+03  0.25500000920E-02 0. -1.
        2   -1    0    0  501    0  0.00000000000E+00  0.00000000000E+00 -0.15330309833E+04  0.15330309833E+04  0.25500000920E-02 0.  1.
    10030    2    1    2    0    0  0.00000000000E+00  0.00000000000E+00 -0.59957183678E+03  0.24664901299E+04  0.23925064626E+04 0.  0.
        3    1    3    3  502    0  0.14109261031E+03 -0.10549402555E+03 -0.15195843128E+04  0.15297622717E+04  0.10100000352E+00 0.  1.
       -3    1    3    3    0  502 -0.14109261031E+03  0.10549402555E+03  0.92001247601E+03  0.93672785820E+03  0.10100000352E+00 0. -1.
</event>
<event>
 5   0  0.2080257E-05  0.2391438E+04  0.7818609E-02  0.8442716E-01
        2   -1    0    0  501    0  0.00000000000E+00  0.00000000000E+00  0.89316108694E+03  0.89316108695E+03  0.25500000920E-02 0. -1.
       -2   -1    0    0    0  501  0.00000000000E+00  0.00000000000E+00 -0.16007687708E+04  0.16007687708E+04  0.25500000920E-02 0.  1.
    10030    2    1    2    0    0  0.00000000000E+00  0.00000000000E+00 -0.70760768390E+03  0.24939298578E+04  0.23914383750E+04 0.  0.
        1    1    3    3  502    0 -0.43335873334E+03  0.38842847690E+03 -0.14431124371E+04  0.15560366254E+04  0.50400001928E-02 0.  1.
       -1    1    3    3    0  502  0.43335873334E+03 -0.38842847690E+03  0.73550475318E+03  0.93789323242E+03  0.50400001928E-02 0. -1.
</event>
<event>
 5   0  0.2080257E-05  0.2395072E+04  0.7818609E-02  0.8441351E-01
        2   -1    0    0  501    0  0.00000000000E+00  0.00000000000E+00  0.20359382834E+04  0.20359382834E+04  0.25500000920E-02 0.  1.
       -2   -1    0    0    0  501  0.00000000000E+00  0.00000000000E+00 -0.70438881926E+03  0.70438881926E+03  0.25500000920E-02 0. -1.
    10030    2    1    2    0    0  0.00000000000E+00  0.00000000000E+00  0.13315494641E+04  0.27403271026E+04  0.23950717430E+04 0.  0.
        1    1    3    3  502    0 -0.10169404428E+03  0.54904278678E+03  0.18778758305E+04  0.19591343229E+04  0.50400001928E-02 0.  1.
       -1    1    3    3    0  502  0.10169404428E+03 -0.54904278678E+03 -0.54632636643E+03  0.78119277969E+03  0.50400001928E-02 0. -1.
</event>
<event>
 5   0  0.2048028E-05  0.2400034E+04  0.7818609E-02  0.8439491E-01
       -2   -1    0    0    0  501  0.00000000000E+00  0.00000000000E+00  0.10515052014E+04  0.10515052014E+04  0.25500000920E-02 0. -1.
        2   -1    0    0  501    0  0.00000000000E+00  0.00000000000E+00 -0.13695045098E+04  0.13695045098E+04  0.25500000920E-02 0.  1.
    10030    2    1    2    0    0  0.00000000000E+00  0.00000000000E+00 -0.31799930847E+03  0.24210097112E+04  0.24000342626E+04 0.  0.
        5    1    3    3  502    0 -0.68419381945E+03  0.64890529289E+03  0.58965899630E+03  0.11121686399E+04  0.46999998093E+01 0. -1.
       -5    1    3    3    0  502  0.68419381945E+03 -0.64890529289E+03 -0.90765830477E+03  0.13088410713E+04  0.46999998093E+01 0.  1.
</event>
<event>
 5   0  0.8898848E-06  0.2399064E+04  0.7818609E-02  0.8439854E-01
        1   -1    0    0  501    0  0.00000000000E+00  0.00000000000E+00  0.12710855109E+04  0.12710855109E+04  0.50400001928E-02 0. -1.
       -1   -1    0    0    0  501  0.00000000000E+00  0.00000000000E+00 -0.11320066464E+04  0.11320066464E+04  0.50400001928E-02 0.  1.
    10030    2    1    2    0    0  0.00000000000E+00  0.00000000000E+00  0.13907886454E+03  0.24030921573E+04  0.23990641896E+04 0.  0.
        5    1    3    3  502    0  0.54474977683E+03 -0.66567357195E+03 -0.76791543072E+03  0.11530784112E+04  0.46999998093E+01 0.  1.
       -5    1    3    3    0  502 -0.54474977683E+03  0.66567357195E+03  0.90699429526E+03  0.12500137461E+04  0.46999998093E+01 0. -1.
</event>
<event>
 5   0  0.2122194E-05  0.2406052E+04  0.7818609E-02  0.8437241E-01
       -2   -1    0    0    0  501  0.00000000000E+00  0.00000000000E+00  0.17611746163E+04  0.17611746163E+04  0.25500000920E-02 0. -1.
        2   -1    0    0  501    0  0.00000000000E+00  0.00000000000E+00 -0.82176469681E+03  0.82176469682E+03  0.25500000920E-02 0.  1.
    10030    2    1    2    0    0  0.00000000000E+00  0.00000000000E+00  0.93940991946E+03  0.25829393131E+04  0.24060516408E+04 0.  0.
        3    1    3    3  502    0 -0.67071606343E+03 -0.22569377815E+03 -0.57468686461E+03  0.91162641570E+03  0.10100000352E+00 0.  1.
       -3    1    3    3    0  502  0.67071606343E+03  0.22569377815E+03  0.15140967841E+04  0.16713128974E+04  0.10100000352E+00 0. -1.
</event>
<event>
 5   0  0.9083687E-06  0.2408559E+04  0.7818609E-02  0.8436306E-01
        1   -1    0    0  501    0  0.00000000000E+00  0.00000000000E+00  0.16847287607E+04  0.16847287607E+04  0.50400001928E-02 0.  1.
       -1   -1    0    0    0  501  0.00000000000E+00  0.00000000000E+00 -0.86084450887E+03  0.86084450889E+03  0.50400001928E-02 0. -1.
    10030    2    1    2    0    0  0.00000000000E+00  0.00000000000E+00  0.82388425179E+03  0.25455732696E+04  0.24085593226E+04 0.  0.
        2    1    3    3  502    0 -0.25926374405E+03  0.11161918957E+04  0.80340039446E+03  0.13994835586E+04  0.25500000920E-02 0.  1.
       -2    1    3    3    0  502  0.25926374405E+03 -0.11161918957E+04  0.20483857333E+02  0.11460897109E+04  0.25500000920E-02 0. -1.
</event>
<event>
 5   0  0.9038897E-06  0.2418435E+04  0.7818609E-02  0.8432634E-01
        1   -1    0    0  501    0  0.00000000000E+00  0.00000000000E+00  0.71988310792E+03  0.71988310794E+03  0.50400001928E-02 0.  1.
       -1   -1    0    0    0  501  0.00000000000E+00  0.00000000000E+00 -0.20311727486E+04  0.20311727486E+04  0.50400001928E-02 0. -1.
    10030    2    1    2    0    0  0.00000000000E+00  0.00000000000E+00 -0.13112896407E+04  0.27510558565E+04  0.24184349907E+04 0.  0.
        1    1    3    3  502    0 -0.28636009051E+03  0.37528170816E+03 -0.19220282392E+04  0.19791490632E+04  0.50400001928E-02 0. -1.
       -1    1    3    3    0  502  0.28636009051E+03 -0.37528170816E+03  0.61073859853E+03  0.77190679338E+03  0.50400001928E-02 0.  1.
</event>
<event>
 5   0  0.9176817E-06  0.2399602E+04  0.7818609E-02  0.8439653E-01
       -1   -1    0    0    0  501  0.00000000000E+00  0.00000000000E+00  0.11867601443E+04  0.11867601443E+04  0.50400001928E-02 0. -1.
        1   -1    0    0  501    0  0.00000000000E+00  0.00000000000E+00 -0.12129851629E+04  0.12129851629E+04  0.50400001928E-02 0.  1.
    10030    2    1    2    0    0  0.00000000000E+00  0.00000000000E+00 -0.26225018623E+02  0.23997453072E+04  0.23996020062E+04 0.  0.
        3    1    3    3  502    0 -0.25240074995E+03  0.57129733805E+03 -0.10375933512E+04  0.12110684372E+04  0.10100000352E+00 0.  1.
       -3    1    3    3    0  502  0.25240074995E+03 -0.57129733805E+03  0.10113683326E+04  0.11886768700E+04  0.10100000352E+00 0. -1.
</event>
<event>
 5   0  0.9176817E-06  0.2400131E+04  0.7818609E-02  0.8439455E-01
       -1   -1    0    0    0  501  0.00000000000E+00  0.00000000000E+00  0.19466018430E+04  0.19466018430E+04  0.50400001928E-02 0.  1.
        1   -1    0    0  501    0  0.00000000000E+00  0.00000000000E+00 -0.73983128278E+03  0.73983128280E+03  0.50400001928E-02 0. -1.
    10030    2    1    2    0    0  0.00000000000E+00  0.00000000000E+00  0.12067705602E+04  0.26864331258E+04  0.24001307786E+04 0.  0.
        3    1    3    3  502    0  0.15935527334E+03  0.92780286172E+02 -0.72387980636E+03  0.74699683326E+03  0.10100000352E+00 0. -1.
       -3    1    3    3    0  502 -0.15935527334E+03 -0.92780286172E+02  0.19306503665E+04  0.19394362925E+04  0.10100000352E+00 0.  1.
</event>
<event>
 5   0  0.2087882E-05  0.2400197E+04  0.7818609E-02  0.8439430E-01
       -2   -1    0    0    0  501  0.00000000000E+00  0.00000000000E+00  0.74800402878E+03  0.74800402878E+03  0.25500000920E-02 0. -1.
        2   -1    0    0  501    0  0.00000000000E+00  0.00000000000E+00 -0.19254399142E+04  0.19254399142E+04  0.25500000920E-02 0.  1.
    10030    2    1    2    0    0  0.00000000000E+00  0.00000000000E+00 -0.11774358854E+04  0.26734439430E+04  0.24001973360E+04 0.  0.
        2    1    3    3  502    0 -0.11885845520E+04  0.16569799259E+03 -0.59641482561E+03  0.13401118260E+04  0.25500000920E-02 0. -1.
       -2    1    3    3    0  502  0.11885845520E+04 -0.16569799259E+03 -0.58102105979E+03  0.13333321169E+04  0.25500000920E-02 0.  1.
</event>
<event>
 5   0  0.8898848E-06  0.2388013E+04  0.7818609E-02  0.8444005E-01
       -1   -1    0    0    0  501  0.00000000000E+00  0.00000000000E+00  0.79166312963E+03  0.79166312965E+03  0.50400001928E-02 0.  1.
        1   -1    0    0  501    0  0.00000000000E+00  0.00000000000E+00 -0.18008316329E+04  0.18008316329E+04  0.50400001928E-02 0. -1.
    10030    2    1    2    0    0  0.00000000000E+00  0.00000000000E+00 -0.10091685033E+04  0.25924947626E+04  0.23880134057E+04 0.  0.
        5    1    3    3  502    0 -0.13653687358E+03  0.10859612033E+04  0.13427513206E+02  0.10946033259E+04  0.46999998093E+01 0.  1.
       -5    1    3    3    0  502  0.13653687358E+03 -0.10859612033E+04 -0.10225960165E+04  0.14978914366E+04  0.46999998093E+01 0. -1.
</event>
<event>
 5   0  0.2048028E-05  0.2221451E+04  0.7818609E-02  0.8509553E-01
       -2   -1    0    0    0  501  0.00000000000E+00  0.00000000000E+00  0.85846217571E+03  0.85846217571E+03  0.25500000920E-02 0.  1.
        2   -1    0    0  501    0  0.00000000000E+00  0.00000000000E+00 -0.14371173497E+04  0.14371173497E+04  0.25500000920E-02 0. -1.
    10030    2    1    2    0    0  0.00000000000E+00  0.00000000000E+00 -0.57865517400E+03  0.22955795254E+04  0.22214507753E+04 0.  0.
        5    1    3    3  502    0  0.72528095884E+03 -0.21986376889E+03 -0.11284059813E+04  0.13592993397E+04  0.46999998093E+01 0. -1.
       -5    1    3    3    0  502 -0.72528095884E+03  0.21986376889E+03  0.54975080731E+03  0.93628018577E+03  0.46999998093E+01 0.  1.
</event>
<event>
 5   0  0.9083687E-06  0.2424947E+04  0.7818609E-02  0.8430223E-01
       -1   -1    0    0    0  501  0.00000000000E+00  0.00000000000E+00  0.90213317218E+03  0.90213317219E+03  0.50400001928E-02 0.  1.
        1   -1    0    0  501    0  0.00000000000E+00  0.00000000000E+00 -0.16295728557E+04  0.16295728557E+04  0.50400001928E-02 0. -1.
    10030    2    1    2    0    0  0.00000000000E+00  0.00000000000E+00 -0.72743968356E+03  0.25317060279E+04  0.24249467868E+04 0.  0.
        2    1    3    3  502    0  0.19258302316E+03 -0.11970428886E+04 -0.35371507159E+03  0.12629783252E+04  0.25500000920E-02 0.  1.
       -2    1    3    3    0  502 -0.19258302316E+03  0.11970428886E+04 -0.37372461197E+03  0.12687277027E+04  0.25500000920E-02 0. -1.
</event>
<event>
 5   0  0.2048028E-05  0.2375729E+04  0.7818609E-02  0.8448647E-01
        2   -1    0    0  501    0  0.00000000000E+00  0.00000000000E+00  0.16175599566E+04  0.16175599566E+04  0.25500000920E-02 0. -1.
       -2   -1    0    0    0  501  0.00000000000E+00  0.00000000000E+00 -0.87231516851E+03  0.87231516851E+03  0.25500000920E-02 0.  1.
    10030    2    1    2    0    0  0.00000000000E+00  0.00000000000E+00  0.74524478809E+03  0.24898751251E+04  0.23757290133E+04 0.  0.
        5    1    3    3  502    0  0.12917329355E+03 -0.14503269394E+03  0.16007971789E+04  0.16125426878E+04  0.46999998093E+01 0. -1.
       -5    1    3    3    0  502 -0.12917329355E+03  0.14503269394E+03 -0.85555239082E+03  0.87733243728E+03  0.46999998093E+01 0.  1.
</event>
<event>
 5   0  0.9038897E-06  0.2535584E+04  0.7818609E-02  0.8390417E-01
        1   -1    0    0  501    0  0.00000000000E+00  0.00000000000E+00  0.11489231226E+04  0.11489231226E+04  0.50400001928E-02 0. -1.
       -1   -1    0    0    0  501  0.00000000000E+00  0.00000000000E+00 -0.13989589685E+04  0.13989589685E+04  0.50400001928E-02 0.  1.
    10030    2    1    2    0    0  0.00000000000E+00  0.00000000000E+00 -0.25003584594E+03  0.25478820911E+04  0.25355838038E+04 0.  0.
        1    1    3    3  502    0 -0.47345602371E+03  0.20535678287E+03  0.10385988260E+04  0.11597497731E+04  0.50400001928E-02 0. -1.
       -1    1    3    3    0  502  0.47345602371E+03 -0.20535678287E+03 -0.12886346720E+04  0.13881323181E+04  0.50400001928E-02 0.  1.
</event>
<event>
 5   0  0.9083687E-06  0.2391084E+04  0.7818609E-02  0.8442849E-01
       -1   -1    0    0    0  501  0.00000000000E+00  0.00000000000E+00  0.97488314312E+03  0.97488314313E+03  0.50400001928E-02 0.  1.
        1   -1    0    0  501    0  0.00000000000E+00  0.00000000000E+00 -0.14661451739E+04  0.14661451739E+04  0.50400001928E-02 0. -1.
    10030    2    1    2    0    0  0.00000000000E+00  0.00000000000E+00 -0.49126203081E+03  0.24410283171E+04  0.23910836166E+04 0.  0.
        2    1    3    3  502    0  0.10249277058E+03  0.81022138991E+03  0.64573726960E+03  0.10411244354E+04  0.25500000920E-02 0.  1.
       -2    1    3    3    0  502 -0.10249277058E+03 -0.81022138991E+03 -0.11369993004E+04  0.13999038816E+04  0.25500000920E-02 0. -1.
</event>
<event>
 5   0  0.2080257E-05  0.2413537E+04  0.7818609E-02  0.8434453E-01
       -2   -1    0    0    0  501  0.00000000000E+00  0.00000000000E+00  0.82106796213E+03  0.82106796214E+03  0.25500000920E-02 0.  1.
        2   -1    0    0  501    0  0.00000000000E+00  0.00000000000E+00 -0.17736533457E+04  0.17736533457E+04  0.25500000920E-02 0. -1.
    10030    2    1    2    0    0  0.00000000000E+00  0.00000000000E+00 -0.95258538356E+03  0.25947213078E+04  0.24135367725E+04 0.  0.
        1    1    3    3  502    0 -0.65509006695E+03 -0.34556825077E+03  0.54797866790E+03  0.92132569282E+03  0.50400001928E-02 0.  1.
       -1    1    3    3    0  502  0.65509006695E+03  0.34556825077E+03 -0.15005640515E+04  0.16733956150E+04  0.50400001928E-02 0. -1.
</event>
<event>
 5   0  0.2080257E-05  0.2351028E+04  0.7818609E-02  0.8458069E-01
       -2   -1    0    0    0  501  0.00000000000E+00  0.00000000000E+00  0.10987806053E+04  0.10987806053E+04  0.25500000920E-02 0.  1.
        2   -1    0    0  501    0  0.00000000000E+00  0.00000000000E+00 -0.12576062280E+04  0.12576062280E+04  0.25500000920E-02 0. -1.
    10030    2    1    2    0    0  0.00000000000E+00  0.00000000000E+00 -0.15882562271E+03  0.23563868333E+04  0.23510281431E+04 0.  0.
        1    1    3    3  502    0  0.38558375617E+03 -0.24453178524E+03 -0.11651004664E+04  0.12513711375E+04  0.50400001928E-02 0. -1.
       -1    1    3    3    0  502 -0.38558375617E+03  0.24453178524E+03  0.10062748437E+04  0.11050156958E+04  0.50400001928E-02 0.  1.
</event>
<event>
 5   0  0.7233625E-06  0.2390041E+04  0.7818609E-02  0.8443241E-01
       -3   -1    0    0    0  501  0.00000000000E+00  0.00000000000E+00  0.62942003829E+03  0.62942004639E+03  0.10100000352E+00 0.  1.
        3   -1    0    0  501    0  0.00000000000E+00  0.00000000000E+00 -0.22688731504E+04  0.22688731526E+04  0.10100000352E+00 0. -1.
    10030    2    1    2    0    0  0.00000000000E+00  0.00000000000E+00 -0.16394531121E+04  0.28982931990E+04  0.23900412048E+04 0.  0.
        4    1    3    3  502    0  0.36352206548E+03  0.10941035271E+04 -0.43844025530E+03  0.12334675880E+04  0.12699999809E+01 0. -1.
       -4    1    3    3    0  502 -0.36352206548E+03 -0.10941035271E+04 -0.12010128568E+04  0.16648256111E+04  0.12699999809E+01 0.  1.
</event>
<event>
 5   0  0.8528103E-06  0.2365066E+04  0.7818609E-02  0.8452699E-01
       -1   -1    0    0    0  501  0.00000000000E+00  0.00000000000E+00  0.76236052646E+03  0.76236052647E+03  0.50400001928E-02 0.  1.
        1   -1    0    0  501    0  0.00000000000E+00  0.00000000000E+00 -0.18342817078E+04  0.18342817078E+04  0.50400001928E-02 0. -1.
    10030    2    1    2    0    0  0.00000000000E+00  0.00000000000E+00 -0.10719211814E+04  0.25966422343E+04  0.23650657230E+04 0.  0.
        4    1    3    3  502    0  0.31258617747E+03 -0.72434240454E+03  0.43120280726E+03  0.89906591041E+03  0.12699999809E+01 0.  1.
       -4    1    3    3    0  502 -0.31258617747E+03  0.72434240454E+03 -0.15031239886E+04  0.16975763239E+04  0.12699999809E+01 0. -1.
</event>
<event>
 5   0  0.2048028E-05  0.2415207E+04  0.7818609E-02  0.8433832E-01
        2   -1    0    0  501    0  0.00000000000E+00  0.00000000000E+00  0.13627164594E+04  0.13627164594E+04  0.25500000920E-02 0.  1.
       -2   -1    0    0    0  501  0.00000000000E+00  0.00000000000E+00 -0.10701463502E+04  0.10701463503E+04  0.25500000920E-02 0. -1.
    10030    2    1    2    0    0  0.00000000000E+00  0.00000000000E+00  0.29257010917E+03  0.24328628097E+04  0.24152068611E+04 0.  0.
        5    1    3    3  502    0 -0.93241136197E+03  0.23260535786E+03 -0.59035276674E+03  0.11278451488E+04  0.46999998093E+01 0. -1.
       -5    1    3    3    0  502  0.93241136197E+03 -0.23260535786E+03  0.88292287591E+03  0.13050176609E+04  0.46999998093E+01 0.  1.
</event>
<event>
 5   0  0.8898848E-06  0.2399990E+04  0.7818609E-02  0.8439507E-01
        1   -1    0    0  501    0  0.00000000000E+00  0.00000000000E+00  0.14328015567E+04  0.14328015567E+04  0.50400001928E-02 0. -1.
       -1   -1    0    0    0  501  0.00000000000E+00  0.00000000000E+00 -0.10050157064E+04  0.10050157064E+04  0.50400001928E-02 0.  1.
    10030    2    1    2    0    0  0.00000000000E+00  0.00000000000E+00  0.42778585034E+03  0.24378172631E+04  0.23999900572E+04 0.  0.
        5    1    3    3  502    0 -0.39190429979E+03 -0.11337663616E+04  0.24521456408E+03  0.12244049229E+04  0.46999998093E+01 0.  1.
       -5    1    3    3    0  502  0.39190429979E+03  0.11337663616E+04  0.18257128626E+03  0.12134123402E+04  0.46999998093E+01 0. -1.
</event>
<event>
 5   0  0.9083687E-06  0.2416473E+04  0.7818609E-02  0.8433362E-01
       -1   -1    0    0    0  501  0.00000000000E+00  0.00000000000E+00  0.11863223556E+04  0.11863223556E+04  0.50400001928E-02 0.  1.
        1   -1    0    0  501    0  0.00000000000E+00  0.00000000000E+00 -0.12305553808E+04  0.12305553808E+04  0.50400001928E-02 0. -1.
    10030    2    1    2    0    0  0.00000000000E+00  0.00000000000E+00 -0.44233025217E+02  0.24168777363E+04  0.24164729322E+04 0.  0.
        2    1    3    3  502    0 -0.60296916424E+03  0.73066440952E+03  0.72793782142E+03  0.11947115820E+04  0.25500000920E-02 0.  1.
       -2    1    3    3    0  502  0.60296916424E+03 -0.73066440952E+03 -0.77217084664E+03  0.12221661543E+04  0.25500000920E-02 0. -1.
</event>
<event>
 5   0  0.2048028E-05  0.2372372E+04  0.7818609E-02  0.8449920E-01
        2   -1    0    0  501    0  0.00000000000E+00  0.00000000000E+00  0.57031250126E+03  0.57031250127E+03  0.25500000920E-02 0. -1.
       -2   -1    0    0    0  501  0.00000000000E+00  0.00000000000E+00 -0.24671331001E+04  0.24671331001E+04  0.25500000920E-02 0.  1.
    10030    2    1    2    0    0  0.00000000000E+00  0.00000000000E+00 -0.18968205988E+04  0.30374456013E+04  0.23723716819E+04 0.  0.
        5    1    3    3  502    0  0.47596399007E+03  0.85290110775E+03 -0.18101787128E+04  0.20568789662E+04  0.46999998093E+01 0.  1.
       -5    1    3    3    0  502 -0.47596399007E+03 -0.85290110775E+03 -0.86641885985E+02  0.98056663509E+03  0.46999998093E+01 0. -1.
</event>
<event>
 5   0  0.2080257E-05  0.2395070E+04  0.7818609E-02  0.8441351E-01
       -2   -1    0    0    0  501  0.00000000000E+00  0.00000000000E+00  0.11530227794E+04  0.11530227794E+04  0.25500000920E-02 0.  1.
        2   -1    0    0  501    0  0.00000000000E+00  0.00000000000E+00 -0.12437660168E+04  0.12437660168E+04  0.25500000920E-02 0. -1.
    10030    2    1    2    0    0  0.00000000000E+00  0.00000000000E+00 -0.90743237383E+02  0.23967887962E+04  0.23950703953E+04 0.  0.
        1    1    3    3  502    0 -0.37055737083E+03  0.84687322937E+03  0.71647842463E+03  0.11695504969E+04  0.50400001928E-02 0.  1.
       -1    1    3    3    0  502  0.37055737083E+03 -0.84687322937E+03 -0.80722166201E+03  0.12272382993E+04  0.50400001928E-02 0. -1.
</event>
<event>
 5   0  0.9083687E-06  0.2388226E+04  0.7818609E-02  0.8443925E-01
        1   -1    0    0  501    0  0.00000000000E+00  0.00000000000E+00  0.98633276130E+03  0.98633276131E+03  0.50400001928E-02 0.  1.
       -1   -1    0    0    0  501  0.00000000000E+00  0.00000000000E+00 -0.14456641036E+04  0.14456641036E+04  0.50400001928E-02 0. -1.
    10030    2    1    2    0    0  0.00000000000E+00  0.00000000000E+00 -0.45933134230E+03  0.24319968649E+04  0.23882260088E+04 0.  0.
        2    1    3    3  502    0 -0.37129024296E+03 -0.71452846487E+03 -0.11275850938E+04  0.13855885087E+04  0.25500000920E-02 0. -1.
       -2    1    3    3    0  502  0.37129024296E+03  0.71452846487E+03  0.66825375149E+03  0.10464083562E+04  0.25500000920E-02 0.  1.
</event>
<event>
 5   0  0.8898848E-06  0.2406444E+04  0.7818609E-02  0.8437095E-01
        1   -1    0    0  501    0  0.00000000000E+00  0.00000000000E+00  0.11112490575E+04  0.11112490575E+04  0.50400001928E-02 0.  1.
       -1   -1    0    0    0  501  0.00000000000E+00  0.00000000000E+00 -0.13028070094E+04  0.13028070094E+04  0.50400001928E-02 0. -1.
    10030    2    1    2    0    0  0.00000000000E+00  0.00000000000E+00 -0.19155795182E+03  0.24140560669E+04  0.24064439003E+04 0.  0.
        5    1    3    3  502    0 -0.47783911212E+03  0.68995713033E+03  0.76912572594E+03  0.11383969128E+04  0.46999998093E+01 0.  1.
       -5    1    3    3    0  502  0.47783911212E+03 -0.68995713033E+03 -0.96068367776E+03  0.12756591541E+04  0.46999998093E+01 0. -1.
</event>
<event>
 5   0  0.9176817E-06  0.2414109E+04  0.7818609E-02  0.8434240E-01
       -1   -1    0    0    0  501  0.00000000000E+00  0.00000000000E+00  0.19001002819E+04  0.19001002819E+04  0.50400001928E-02 0.  1.
        1   -1    0    0  501    0  0.00000000000E+00  0.00000000000E+00 -0.76679112652E+03  0.76679112654E+03  0.50400001928E-02 0. -1.
    10030    2    1    2    0    0  0.00000000000E+00  0.00000000000E+00  0.11333091554E+04  0.26668914085E+04  0.24141085607E+04 0.  0.
        3    1    3    3  502    0 -0.70358105183E+03 -0.59168018622E+03 -0.29747228909E+03  0.96623056887E+03  0.10100000352E+00 0. -1.
       -3    1    3    3    0  502  0.70358105183E+03  0.59168018622E+03  0.14307814445E+04  0.17006608396E+04  0.10100000352E+00 0.  1.
</event>
<event>
 5   0  0.9176817E-06  0.2394873E+04  0.7818609E-02  0.8441425E-01
        1   -1    0    0  501    0  0.00000000000E+00  0.00000000000E+00  0.15938379300E+04  0.15938379300E+04  0.50400001928E-02 0. -1.
       -1   -1    0    0    0  501  0.00000000000E+00  0.00000000000E+00 -0.89962377175E+03  0.89962377176E+03  0.50400001928E-02 0.  1.
    10030    2    1    2    0    0  0.00000000000E+00  0.00000000000E+00  0.69421415820E+03  0.24934617017E+04  0.23948732661E+04 0.  0.
        3    1    3    3  502    0 -0.79812489871E+01 -0.76524334662E+03  0.13059944759E+04  0.15136983389E+04  0.10100000352E+00 0. -1.
       -3    1    3    3    0  502  0.79812489871E+01  0.76524334662E+03 -0.61178031768E+03  0.97976336285E+03  0.10100000352E+00 0.  1.
</event>
<event>
 5   0  0.8898848E-06  0.2376334E+04  0.7818609E-02  0.8448417E-01
        1   -1    0    0  501    0  0.00000000000E+00  0.00000000000E+00  0.75477746033E+03  0.75477746035E+03  0.50400001928E-02 0. -1.
       -1   -1    0    0    0  501  0.00000000000E+00  0.00000000000E+00 -0.18704071287E+04  0.18704071287E+04  0.50400001928E-02 0.  1.
    10030    2    1    2    0    0  0.00000000000E+00  0.00000000000E+00 -0.11156296684E+04  0.26251845890E+04  0.23763342714E+04 0.  0.
        5    1    3    3  502    0  0.66714239228E+03  0.41881810096E+02  0.52733651828E+03  0.85143346839E+03  0.46999998093E+01 0. -1.
       -5    1    3    3    0  502 -0.66714239228E+03 -0.41881810096E+02 -0.16429661866E+04  0.17737511206E+04  0.46999998093E+01 0.  1.
</event>
<event>
 5   0  0.8528103E-06  0.2341179E+04  0.7818609E-02  0.8461860E-01
        1   -1    0    0  501    0  0.00000000000E+00  0.00000000000E+00  0.24596207963E+04  0.24596207964E+04  0.50400001928E-02 0.  1.
       -1   -1    0    0    0  501  0.00000000000E+00  0.00000000000E+00 -0.55711014462E+03  0.55711014465E+03  0.50400001928E-02 0. -1.
    10030    2    1    2    0    0  0.00000000000E+00  0.00000000000E+00  0.19025106517E+04  0.30167309410E+04  0.23411789317E+04 0.  0.
        4    1    3    3  502    0  0.23968842524E+03  0.52800207262E+03  0.22615558791E+04  0.23347105468E+04  0.12699999809E+01 0.  1.
       -4    1    3    3    0  502 -0.23968842524E+03 -0.52800207262E+03 -0.35904522742E+03  0.68202039421E+03  0.12699999809E+01 0. -1.
</event>
<event>
 5   0  0.8898848E-06  0.2381005E+04  0.7818609E-02  0.8446649E-01
        1   -1    0    0  501    0  0.00000000000E+00  0.00000000000E+00  0.18093736201E+04  0.18093736201E+04  0.50400001928E-02 0. -1.
       -1   -1    0    0    0  501  0.00000000000E+00  0.00000000000E+00 -0.78330785994E+03  0.78330785995E+03  0.50400001928E-02 0.  1.
    10030    2    1    2    0    0  0.00000000000E+00  0.00000000000E+00  0.10260657601E+04  0.25926814800E+04  0.23810053156E+04 0.  0.
        5    1    3    3  502    0 -0.17179184464E+03 -0.93719569487E+02  0.17917296801E+04  0.18023909487E+04  0.46999998093E+01 0. -1.
       -5    1    3    3    0  502  0.17179184464E+03  0.93719569487E+02 -0.76566391994E+03  0.79029053131E+03  0.46999998093E+01 0.  1.
</event>
<event>
 5   0  0.2025353E-05  0.2367784E+04  0.7818609E-02  0.8451664E-01
        2   -1    0    0  501    0  0.00000000000E+00  0.00000000000E+00  0.14302900897E+04  0.14302900897E+04  0.25500000920E-02 0. -1.
       -2   -1    0    0    0  501  0.00000000000E+00  0.00000000000E+00 -0.97994157877E+03  0.97994157877E+03  0.25500000920E-02 0.  1.
    10030    2    1    2    0    0  0.00000000000E+00  0.00000000000E+00  0.45034851093E+03  0.24102316685E+04  0.23677843893E+04 0.  0.
        4    1    3    3  502    0 -0.49596077375E+03 -0.10705978371E+04  0.12626077560E+03  0.11866339850E+04  0.12699999809E+01 0.  1.
       -4    1    3    3    0  502  0.49596077375E+03  0.10705978371E+04  0.32408773533E+03  0.12235976835E+04  0.12699999809E+01 0. -1.
</event>
<event>
 5   0  0.8898848E-06  0.2404822E+04  0.7818609E-02  0.8437700E-01
        1   -1    0    0  501    0  0.00000000000E+00  0.00000000000E+00  0.28902862140E+04  0.28902862140E+04  0.50400001928E-02 0.  1.
       -1   -1    0    0    0  501  0.00000000000E+00  0.00000000000E+00 -0.50022467507E+03  0.50022467510E+03  0.50400001928E-02 0. -1.
    10030    2    1    2    0    0  0.00000000000E+00  0.00000000000E+00  0.23900615389E+04  0.33905108891E+04  0.24048222240E+04 0.  0.
        5    1    3    3  502    0 -0.29381647307E+03  0.52696599350E+03  0.26614070966E+04  0.27289432207E+04  0.46999998093E+01 0.  1.
       -5    1    3    3    0  502  0.29381647307E+03 -0.52696599350E+03 -0.27134555768E+03  0.66156766836E+03  0.46999998093E+01 0. -1.
</event>
<event>
 5   0  0.2122194E-05  0.2353353E+04  0.7818609E-02  0.8457177E-01
       -2   -1    0    0    0  501  0.00000000000E+00  0.00000000000E+00  0.67510418768E+03  0.67510418769E+03  0.25500000920E-02 0.  1.
        2   -1    0    0  501    0  0.00000000000E+00  0.00000000000E+00 -0.20508953016E+04  0.20508953016E+04  0.25500000920E-02 0. -1.
    10030    2    1    2    0    0  0.00000000000E+00  0.00000000000E+00 -0.13757911139E+04  0.27259994893E+04  0.23533533577E+04 0.  0.
        3    1    3    3  502    0  0.10207535601E+04  0.57818893012E+03 -0.79360209985E+03  0.14163490292E+04  0.10100000352E+00 0. -1.
       -3    1    3    3    0  502 -0.10207535601E+04 -0.57818893012E+03 -0.58218901403E+03  0.13096504601E+04  0.10100000352E+00 0.  1.
</event>
<event>
 5   0  0.2122194E-05  0.2408007E+04  0.7818609E-02  0.8436512E-01
        2   -1    0    0  501    0  0.00000000000E+00  0.00000000000E+00  0.12493738686E+04  0.12493738686E+04  0.25500000920E-02 0.  1.
       -2   -1    0    0    0  501  0.00000000000E+00  0.00000000000E+00 -0.11602805093E+04  0.11602805093E+04  0.25500000920E-02 0. -1.
    10030    2    1    2    0    0  0.00000000000E+00  0.00000000000E+00  0.89093359236E+02  0.24096543779E+04  0.24080067679E+04 0.  0.
        3    1    3    3  502    0  0.84248329822E+03 -0.40755132542E+03 -0.71343310751E+03  0.11768020223E+04  0.10100000352E+00 0. -1.
       -3    1    3    3    0  502 -0.84248329822E+03  0.40755132542E+03  0.80252646674E+03  0.12328523556E+04  0.10100000352E+00 0.  1.
</event>
<event>
 5   0  0.7233625E-06  0.2401289E+04  0.7818609E-02  0.8439021E-01
       -4   -1    0    0    0  501  0.00000000000E+00  0.00000000000E+00  0.95966529280E+03  0.95966613315E+03  0.12699999809E+01 0. -1.
        4   -1    0    0  501    0  0.00000000000E+00  0.00000000000E+00 -0.15021336913E+04  0.15021342281E+04  0.12699999809E+01 0.  1.
    10030    2    1    2    0    0  0.00000000000E+00  0.00000000000E+00 -0.54246839847E+03  0.24618003613E+04  0.24012890404E+04 0.  0.
        4    1    3    3  502    0  0.11583510804E+04 -0.29507422718E+02 -0.59363905227E+03  0.13019434899E+04  0.12699999809E+01 0. -1.
       -4    1    3    3    0  502 -0.11583510804E+04  0.29507422718E+02  0.51170653804E+02  0.11598568714E+04  0.12699999809E+01 0.  1.
</event>
<event>
 5   0  0.2048028E-05  0.2411308E+04  0.7818609E-02  0.8435282E-01
        2   -1    0    0  501    0  0.00000000000E+00  0.00000000000E+00  0.19128943391E+04  0.19128943391E+04  0.25500000920E-02 0. -1.
       -2   -1    0    0    0  501  0.00000000000E+00  0.00000000000E+00 -0.75989636867E+03  0.75989636868E+03  0.25500000920E-02 0.  1.
    10030    2    1    2    0    0  0.00000000000E+00  0.00000000000E+00  0.11529979705E+04  0.26727907078E+04  0.24113079123E+04 0.  0.
        5    1    3    3  502    0 -0.78057709251E+03 -0.13741176911E+03  0.15835319026E+04  0.17708127988E+04  0.46999998093E+01 0. -1.
       -5    1    3    3    0  502  0.78057709251E+03  0.13741176911E+03 -0.43053393217E+03  0.90197790904E+03  0.46999998093E+01 0.  1.
</event>
<event>
 5   0  0.8898848E-06  0.2382723E+04  0.7818609E-02  0.8446000E-01
       -1   -1    0    0    0  501  0.00000000000E+00  0.00000000000E+00  0.11659731485E+04  0.11659731485E+04  0.50400001928E-02 0. -1.
        1   -1    0    0  501    0  0.00000000000E+00  0.00000000000E+00 -0.12173030078E+04  0.12173030078E+04  0.50400001928E-02 0.  1.
    10030    2    1    2    0    0  0.00000000000E+00  0.00000000000E+00 -0.51329859329E+02  0.23832761564E+04  0.23827233333E+04 0.  0.
        5    1    3    3  502    0  0.10395466030E+04 -0.57757407445E+03 -0.96896475064E+02  0.11931722291E+04  0.46999998093E+01 0.  1.
       -5    1    3    3    0  502 -0.10395466030E+04  0.57757407445E+03  0.45566615735E+02  0.11901039273E+04  0.46999998093E+01 0. -1.
</event>
<event>
 5   0  0.9083687E-06  0.2393177E+04  0.7818609E-02  0.8442063E-01
       -1   -1    0    0    0  501  0.00000000000E+00  0.00000000000E+00  0.11757881706E+04  0.11757881706E+04  0.50400001928E-02 0. -1.
        1   -1    0    0  501    0  0.00000000000E+00  0.00000000000E+00 -0.12177564437E+04  0.12177564437E+04  0.50400001928E-02 0.  1.
    10030    2    1    2    0    0  0.00000000000E+00  0.00000000000E+00 -0.41968273147E+02  0.23935446143E+04  0.23931766514E+04 0.  0.
        2    1    3    3  502    0 -0.85270103877E+03  0.10029324557E+03 -0.85457843701E+03  0.12113885015E+04  0.25500000920E-02 0.  1.
       -2    1    3    3    0  502  0.85270103877E+03 -0.10029324557E+03  0.81261016386E+03  0.11821561128E+04  0.25500000920E-02 0. -1.
</event>
<event>
 5   0  0.2048028E-05  0.2411749E+04  0.7818609E-02  0.8435118E-01
       -2   -1    0    0    0  501  0.00000000000E+00  0.00000000000E+00  0.64501095879E+03  0.64501095880E+03  0.25500000920E-02 0. -1.
        2   -1    0    0  501    0  0.00000000000E+00  0.00000000000E+00 -0.22544313728E+04  0.22544313728E+04  0.25500000920E-02 0.  1.
    10030    2    1    2    0    0  0.00000000000E+00  0.00000000000E+00 -0.16094204140E+04  0.28994423316E+04  0.24117486945E+04 0.  0.
        5    1    3    3  502    0  0.65369263042E+03 -0.10128081145E+04 -0.84304033464E+03  0.14709974261E+04  0.46999998093E+01 0. -1.
       -5    1    3    3    0  502 -0.65369263042E+03  0.10128081145E+04 -0.76638007937E+03  0.14284449055E+04  0.46999998093E+01 0.  1.
</event>
<event>
 5   0  0.2080257E-05  0.2397814E+04  0.7818609E-02  0.8440323E-01
       -2   -1    0    0    0  501  0.00000000000E+00  0.00000000000E+00  0.15580379506E+04  0.15580379506E+04  0.25500000920E-02 0. -1.
        2   -1    0    0  501    0  0.00000000000E+00  0.00000000000E+00 -0.92255621893E+03  0.92255621893E+03  0.25500000920E-02 0.  1.
    10030    2    1    2    0    0  0.00000000000E+00  0.00000000000E+00  0.63548173168E+03  0.24805941695E+04  0.23978136714E+04 0.  0.
        1    1    3    3  502    0  0.11985628960E+04 -0.22651847231E+02  0.29948280738E+03  0.12356197124E+04  0.50400001928E-02 0. -1.
       -1    1    3    3    0  502 -0.11985628960E+04  0.22651847231E+02  0.33599892430E+03  0.12449744571E+04  0.50400001928E-02 0.  1.
</event>
<event>
 5   0  0.9083687E-06  0.2412876E+04  0.7818609E-02  0.8434699E-01
        1   -1    0    0  501    0  0.00000000000E+00  0.00000000000E+00  0.60856886469E+03  0.60856886471E+03  0.50400001928E-02 0. -1.
       -1   -1    0    0    0  501  0.00000000000E+00  0.00000000000E+00 -0.23916645380E+04  0.23916645380E+04  0.50400001928E-02 0.  1.
    10030    2    1    2    0    0  0.00000000000E+00  0.00000000000E+00 -0.17830956733E+04  0.30002334027E+04  0.24128759377E+04 0.  0.
        2    1    3    3  502    0 -0.16667567380E+03 -0.51149372212E+03  0.45117177890E+03  0.70211294112E+03  0.25500000920E-02 0. -1.
       -2    1    3    3    0  502  0.16667567380E+03  0.51149372212E+03 -0.22342674522E+04  0.22981204616E+04  0.25500000920E-02 0.  1.
</event>
<event>
 5   0  0.2080257E-05  0.2397322E+04  0.7818609E-02  0.8440507E-01
       -2   -1    0    0    0  501  0.00000000000E+00  0.00000000000E+00  0.13977657288E+04  0.13977657288E+04  0.25500000920E-02 0. -1.
        2   -1    0    0  501    0  0.00000000000E+00  0.00000000000E+00 -0.10279180045E+04  0.10279180045E+04  0.25500000920E-02 0.  1.
    10030    2    1    2    0    0  0.00000000000E+00  0.00000000000E+00  0.36984772427E+03  0.24256837333E+04  0.23973223052E+04 0.  0.
        1    1    3    3  502    0  0.76790912335E+02  0.77767894717E+03 -0.73473327439E+03  0.10726203306E+04  0.50400001928E-02 0.  1.
       -1    1    3    3    0  502 -0.76790912335E+02 -0.77767894717E+03  0.11045809987E+04  0.13530634027E+04  0.50400001928E-02 0. -1.
</event>
<event>
 5   0  0.8528103E-06  0.2395522E+04  0.7818609E-02  0.8441182E-01
       -1   -1    0    0    0  501  0.00000000000E+00  0.00000000000E+00  0.56339814766E+03  0.56339814768E+03  0.50400001928E-02 0. -1.
        1   -1    0    0  501    0  0.00000000000E+00  0.00000000000E+00 -0.25463899916E+04  0.25463899916E+04  0.50400001928E-02 0.  1.
    10030    2    1    2    0    0  0.00000000000E+00  0.00000000000E+00 -0.19829918440E+04  0.31097881393E+04  0.23955219928E+04 0.  0.
        4    1    3    3  502    0  0.16181719944E+03  0.10042009186E+03 -0.25266086038E+04  0.25337761643E+04  0.12699999809E+01 0.  1.
       -4    1    3    3    0  502 -0.16181719944E+03 -0.10042009186E+03  0.54361675985E+03  0.57601197503E+03  0.12699999809E+01 0. -1.
</event>
<event>
 5   0  0.2122194E-05  0.2109454E+04  0.7818609E-02  0.8557090E-01
        2   -1    0    0  501    0  0.00000000000E+00  0.00000000000E+00  0.11744712993E+04  0.11744712993E+04  0.25500000920E-02 0.  1.
       -2   -1    0    0    0  501  0.00000000000E+00  0.00000000000E+00 -0.94719103336E+03  0.94719103336E+03  0.25500000920E-02 0. -1.
    10030    2    1    2    0    0  0.00000000000E+00  0.00000000000E+00  0.22728026593E+03  0.21216623327E+04  0.21094536578E+04 0.  0.
        3    1    3    3  502    0  0.19189645467E+03 -0.88929836063E+03  0.65036975918E+03  0.11183276163E+04  0.10100000352E+00 0.  1.
       -3    1    3    3    0  502 -0.19189645467E+03  0.88929836063E+03 -0.42308949324E+03  0.10033347164E+04  0.10100000352E+00 0. -1.
</event>
<event>
 5   0  0.8528103E-06  0.2369074E+04  0.7818609E-02  0.8451173E-01
        1   -1    0    0  501    0  0.00000000000E+00  0.00000000000E+00  0.95593874676E+03  0.95593874677E+03  0.50400001928E-02 0.  1.
       -1   -1    0    0    0  501  0.00000000000E+00  0.00000000000E+00 -0.14678012730E+04  0.14678012730E+04  0.50400001928E-02 0. -1.
    10030    2    1    2    0    0  0.00000000000E+00  0.00000000000E+00 -0.51186252619E+03  0.24237400197E+04  0.23690741731E+04 0.  0.
        4    1    3    3  502    0 -0.69891298277E+03  0.95525471572E+03 -0.30320979537E+03  0.12218546240E+04  0.12699999809E+01 0.  1.
       -4    1    3    3    0  502  0.69891298277E+03 -0.95525471572E+03 -0.20865273083E+03  0.12018853957E+04  0.12699999809E+01 0. -1.
</event>
<event>
 5   0  0.2122194E-05  0.2397470E+04  0.7818609E-02  0.8440451E-01
       -2   -1    0    0    0  501  0.00000000000E+00  0.00000000000E+00  0.86557429699E+03  0.86557429699E+03  0.25500000920E-02 0.  1.
        2   -1    0    0  501    0  0.00000000000E+00  0.00000000000E+00 -0.16601295111E+04  0.16601295111E+04  0.25500000920E-02 0. -1.
    10030    2    1    2    0    0  0.00000000000E+00  0.00000000000E+00 -0.79455521415E+03  0.25257038081E+04  0.23974698618E+04 0.  0.
        3    1    3    3  502    0 -0.11188978836E+03  0.50840034406E+03  0.74028135761E+03  0.90498990779E+03  0.10100000352E+00 0.  1.
       -3    1    3    3    0  502  0.11188978836E+03 -0.50840034406E+03 -0.15348365718E+04  0.16207139003E+04  0.10100000352E+00 0. -1.
</event>
<event>
 5   0  0.2025353E-05  0.2380124E+04  0.7818609E-02  0.8446982E-01
        2   -1    0    0  501    0  0.00000000000E+00  0.00000000000E+00  0.16748146392E+04  0.16748146393E+04  0.25500000920E-02 0. -1.
       -2   -1    0    0    0  501  0.00000000000E+00  0.00000000000E+00 -0.84561477825E+03  0.84561477825E+03  0.25500000920E-02 0.  1.
    10030    2    1    2    0    0  0.00000000000E+00  0.00000000000E+00  0.82919986100E+03  0.25204294175E+04  0.23801243747E+04 0.  0.
        4    1    3    3  502    0  0.25623073992E+03  0.10869513974E+04 -0.20895652520E+02  0.11169403626E+04  0.12699999809E+01 0.  1.
       -4    1    3    3    0  502 -0.25623073992E+03 -0.10869513974E+04  0.85009551352E+03  0.14034890549E+04  0.12699999809E+01 0. -1.
</event>
<event>
 5   0  0.2087882E-05  0.2429717E+04  0.7818609E-02  0.8428461E-01
       -2   -1    0    0    0  501  0.00000000000E+00  0.00000000000E+00  0.63151311043E+03  0.63151311044E+03  0.25500000920E-02 0. -1.
        2   -1    0    0  501    0  0.00000000000E+00  0.00000000000E+00 -0.23370550130E+04  0.23370550130E+04  0.25500000920E-02 0.  1.
    10030    2    1    2    0    0  0.00000000000E+00  0.00000000000E+00 -0.17055419026E+04  0.29685681235E+04  0.24297167576E+04 0.  0.
        2    1    3    3  502    0 -0.17390148310E+03 -0.11435608535E+04 -0.13064886013E+04  0.17449600617E+04  0.25500000920E-02 0. -1.
       -2    1    3    3    0  502  0.17390148310E+03  0.11435608535E+04 -0.39905330128E+03  0.12236080618E+04  0.25500000920E-02 0.  1.
</event>
<event>
 5   0  0.2087882E-05  0.2461640E+04  0.7818609E-02  0.8416780E-01
       -2   -1    0    0    0  501  0.00000000000E+00  0.00000000000E+00  0.23035147872E+04  0.23035147872E+04  0.25500000920E-02 0. -1.
        2   -1    0    0  501    0  0.00000000000E+00  0.00000000000E+00 -0.65765470881E+03  0.65765470881E+03  0.25500000920E-02 0.  1.
    10030    2    1    2    0    0  0.00000000000E+00  0.00000000000E+00  0.16458600784E+04  0.29611694960E+04  0.24616395728E+04 0.  0.
        2    1    3    3  502    0 -0.61023029915E+02  0.12264649412E+04  0.72244948618E+03  0.14247362290E+04  0.25500000920E-02 0. -1.
       -2    1    3    3    0  502  0.61023029915E+02 -0.12264649412E+04  0.92341059218E+03  0.15364332670E+04  0.25500000920E-02 0.  1.
</event>
<event>
 5   0  0.8528103E-06  0.2397827E+04  0.7818609E-02  0.8440317E-01
        1   -1    0    0  501    0  0.00000000000E+00  0.00000000000E+00  0.11718256914E+04  0.11718256914E+04  0.50400001928E-02 0.  1.
       -1   -1    0    0    0  501  0.00000000000E+00  0.00000000000E+00 -0.12266277020E+04  0.12266277020E+04  0.50400001928E-02 0. -1.
    10030    2    1    2    0    0  0.00000000000E+00  0.00000000000E+00 -0.54802010609E+02  0.23984533934E+04  0.23978272290E+04 0.  0.
        4    1    3    3  502    0  0.24364500609E+03 -0.11500243628E+03 -0.11959542522E+04  0.12259268476E+04  0.12699999809E+01 0. -1.
       -4    1    3    3    0  502 -0.24364500609E+03  0.11500243628E+03  0.11411522416E+04  0.11725265459E+04  0.12699999809E+01 0.  1.
</event>
<event>
 5   0  0.2087882E-05  0.2378790E+04  0.7818609E-02  0.8447487E-01
       -2   -1    0    0    0  501  0.00000000000E+00  0.00000000000E+00  0.84271569884E+03  0.84271569884E+03  0.25500000920E-02 0. -1.
        2   -1    0    0  501    0  0.00000000000E+00  0.00000000000E+00 -0.16786929249E+04  0.16786929249E+04  0.25500000920E-02 0.  1.
    10030    2    1    2    0    0  0.00000000000E+00  0.00000000000E+00 -0.83597722603E+03  0.25214086237E+04  0.23787903492E+04 0.  0.
        2    1    3    3  502    0 -0.10121488793E+03 -0.10784788872E+04 -0.93866211101E+03  0.14333344768E+04  0.25500000920E-02 0.  1.
       -2    1    3    3    0  502  0.10121488793E+03  0.10784788872E+04  0.10268488498E+03  0.10880741469E+04  0.25500000920E-02 0. -1.
</event>
<event>
 5   0  0.2048028E-05  0.2462396E+04  0.7818609E-02  0.8416506E-01
       -2   -1    0    0    0  501  0.00000000000E+00  0.00000000000E+00  0.78096938648E+03  0.78096938648E+03  0.25500000920E-02 0. -1.
        2   -1    0    0  501    0  0.00000000000E+00  0.00000000000E+00 -0.19409839457E+04  0.19409839457E+04  0.25500000920E-02 0.  1.
    10030    2    1    2    0    0  0.00000000000E+00  0.00000000000E+00 -0.11600145592E+04  0.27219533322E+04  0.24623964273E+04 0.  0.
        5    1    3    3  502    0 -0.79169708184E+03  0.94138760923E+03 -0.52118074832E+03  0.13359065696E+04  0.46999998093E+01 0. -1.
       -5    1    3    3    0  502  0.79169708184E+03 -0.94138760923E+03 -0.63883381091E+03  0.13860467626E+04  0.46999998093E+01 0.  1.
</event>
<event>
 5   0  0.2048028E-05  0.2405583E+04  0.7818609E-02  0.8437416E-01
       -2   -1    0    0    0  501  0.00000000000E+00  0.00000000000E+00  0.58450049048E+03  0.58450049049E+03  0.25500000920E-02 0.  1.
        2   -1    0    0  501    0  0.00000000000E+00  0.00000000000E+00 -0.24751167473E+04  0.24751167473E+04  0.25500000920E-02 0. -1.
    10030    2    1    2    0    0  0.00000000000E+00  0.00000000000E+00 -0.18906162568E+04  0.30596172378E+04  0.24055826345E+04 0.  0.
        5    1    3    3  502    0 -0.53463462920E+03 -0.78985050792E+03 -0.13280803948E+02  0.95388494136E+03  0.46999998093E+01 0.  1.
       -5    1    3    3    0  502  0.53463462920E+03  0.78985050792E+03 -0.18773354529E+04  0.21057322964E+04  0.46999998093E+01 0. -1.
</event>
<event>
 5   0  0.2122194E-05  0.2394595E+04  0.7818609E-02  0.8441530E-01
       -2   -1    0    0    0  501  0.00000000000E+00  0.00000000000E+00  0.76739991515E+03  0.76739991516E+03  0.25500000920E-02 0. -1.
        2   -1    0    0  501    0  0.00000000000E+00  0.00000000000E+00 -0.18680245696E+04  0.18680245696E+04  0.25500000920E-02 0.  1.
    10030    2    1    2    0    0  0.00000000000E+00  0.00000000000E+00 -0.11006246544E+04  0.26354244848E+04  0.23945954950E+04 0.  0.
        3    1    3    3  502    0  0.48199126757E+03 -0.72728325629E+03  0.35206626820E+03  0.94085449688E+03  0.10100000352E+00 0. -1.
       -3    1    3    3    0  502 -0.48199126757E+03  0.72728325629E+03 -0.14526909226E+04  0.16945699879E+04  0.10100000352E+00 0.  1.
</event>
<event>
 5   0  0.8898848E-06  0.2403690E+04  0.7818609E-02  0.8438124E-01
       -1   -1    0    0    0  501  0.00000000000E+00  0.00000000000E+00  0.11484963737E+04  0.11484963737E+04  0.50400001928E-02 0. -1.
        1   -1    0    0  501    0  0.00000000000E+00  0.00000000000E+00 -0.12576713139E+04  0.12576713140E+04  0.50400001928E-02 0.  1.
    10030    2    1    2    0    0  0.00000000000E+00  0.00000000000E+00 -0.10917494027E+03  0.24061676876E+04  0.24036896167E+04 0.  0.
        5    1    3    3  502    0 -0.58527873020E+03 -0.75790866151E+03  0.67240647025E+03  0.11700979799E+04  0.46999998093E+01 0. -1.
       -5    1    3    3    0  502  0.58527873020E+03  0.75790866151E+03 -0.78158141052E+03  0.12360697078E+04  0.46999998093E+01 0.  1.
</event>
<event>
 5   0  0.9038897E-06  0.2373767E+04  0.7818609E-02  0.8449391E-01
       -1   -1    0    0    0  501  0.00000000000E+00  0.00000000000E+00  0.75514929776E+03  0.75514929777E+03  0.50400001928E-02 0.  1.
        1   -1    0    0  501    0  0.00000000000E+00  0.00000000000E+00 -0.18654481776E+04  0.18654481776E+04  0.50400001928E-02 0. -1.
    10030    2    1    2    0    0  0.00000000000E+00  0.00000000000E+00 -0.11102988798E+04  0.26205974754E+04  0.23737665271E+04 0.  0.
        1    1    3    3  502    0 -0.22068283243E+02 -0.93061645042E+03 -0.13680271403E+04  0.16547000464E+04  0.50400001928E-02 0. -1.
       -1    1    3    3    0  502  0.22068283243E+02  0.93061645042E+03  0.25772826052E+03  0.96589742893E+03  0.50400001928E-02 0.  1.
</event>
<event>
 5   0  0.2122194E-05  0.2408833E+04  0.7818609E-02  0.8436204E-01
        2   -1    0    0  501    0  0.00000000000E+00  0.00000000000E+00  0.12281602202E+04  0.12281602202E+04  0.25500000920E-02 0. -1.
       -2   -1    0    0    0  501  0.00000000000E+00  0.00000000000E+00 -0.11811318075E+04  0.11811318075E+04  0.25500000920E-02 0.  1.
    10030    2    1    2    0    0  0.00000000000E+00  0.00000000000E+00  0.47028412680E+02  0.24092920277E+04  0.24088329961E+04 0.  0.
        3    1    3    3  502    0  0.55992701509E+03 -0.66472325328E+03 -0.81045751020E+03  0.11883672209E+04  0.10100000352E+00 0.  1.
       -3    1    3    3    0  502 -0.55992701509E+03  0.66472325328E+03  0.85748592288E+03  0.12209248068E+04  0.10100000352E+00 0. -1.
</event>
<event>
 5   0  0.9083687E-06  0.2390772E+04  0.7818609E-02  0.8442966E-01
        1   -1    0    0  501    0  0.00000000000E+00  0.00000000000E+00  0.12483184396E+04  0.12483184396E+04  0.50400001928E-02 0.  1.
       -1   -1    0    0    0  501  0.00000000000E+00  0.00000000000E+00 -0.11446982586E+04  0.11446982586E+04  0.50400001928E-02 0. -1.
    10030    2    1    2    0    0  0.00000000000E+00  0.00000000000E+00  0.10362018096E+03  0.23930166982E+04  0.23907722133E+04 0.  0.
        2    1    3    3  502    0 -0.23475039749E+03 -0.71589515590E+03  0.98076237193E+03  0.12367329758E+04  0.25500000920E-02 0.  1.
       -2    1    3    3    0  502  0.23475039749E+03  0.71589515590E+03 -0.87714219096E+03  0.11562837223E+04  0.25500000920E-02 0. -1.
</event>
<event>
 5   0  0.2025353E-05  0.2425058E+04  0.7818609E-02  0.8430181E-01
        2   -1    0    0  501    0  0.00000000000E+00  0.00000000000E+00  0.12037456289E+04  0.12037456289E+04  0.25500000920E-02 0. -1.
       -2   -1    0    0    0  501  0.00000000000E+00  0.00000000000E+00 -0.12213762036E+04  0.12213762036E+04  0.25500000920E-02 0.  1.
    10030    2    1    2    0    0  0.00000000000E+00  0.00000000000E+00 -0.17630574740E+02  0.24251218325E+04  0.24250577447E+04 0.  0.
        4    1    3    3  502    0 -0.43815077115E+03  0.75579603228E+03  0.83205228996E+03  0.12064478301E+04  0.12699999809E+01 0. -1.
       -4    1    3    3    0  502  0.43815077115E+03 -0.75579603228E+03 -0.84968286470E+03  0.12186740024E+04  0.12699999809E+01 0.  1.
</event>
<event>
 5   0  0.8528103E-06  0.2420488E+04  0.7818609E-02  0.8431873E-01
       -1   -1    0    0    0  501  0.00000000000E+00  0.00000000000E+00  0.13483176961E+04  0.13483176961E+04  0.50400001928E-02 0. -1.
        1   -1    0    0  501    0  0.00000000000E+00  0.00000000000E+00 -0.10863098431E+04  0.10863098431E+04  0.50400001928E-02 0.  1.
    10030    2    1    2    0    0  0.00000000000E+00  0.00000000000E+00  0.26200785295E+03  0.24346275392E+04  0.24204882027E+04 0.  0.
        4    1    3    3  502    0  0.12823090057E+03 -0.62353124984E+03 -0.90430694419E+03  0.11058964895E+04  0.12699999809E+01 0.  1.
       -4    1    3    3    0  502 -0.12823090057E+03  0.62353124984E+03  0.11663147971E+04  0.13287310497E+04  0.12699999809E+01 0. -1.
</event>
<event>
 5   0  0.2025353E-05  0.2332704E+04  0.7818609E-02  0.8465137E-01
       -2   -1    0    0    0  501  0.00000000000E+00  0.00000000000E+00  0.94754584187E+03  0.94754584188E+03  0.25500000920E-02 0. -1.
        2   -1    0    0  501    0  0.00000000000E+00  0.00000000000E+00 -0.14356847860E+04  0.14356847860E+04  0.25500000920E-02 0.  1.
    10030    2    1    2    0    0  0.00000000000E+00  0.00000000000E+00 -0.48813894412E+03  0.23832306279E+04  0.23327041383E+04 0.  0.
        4    1    3    3  502    0  0.44302525003E+03  0.86350869292E+03 -0.90496342648E+03  0.13269811796E+04  0.12699999809E+01 0.  1.
       -4    1    3    3    0  502 -0.44302525003E+03 -0.86350869292E+03  0.41682448236E+03  0.10562494482E+04  0.12699999809E+01 0. -1.
</event>
<event>
 5   0  0.2080257E-05  0.2388304E+04  0.7818609E-02  0.8443895E-01
       -2   -1    0    0    0  501  0.00000000000E+00  0.00000000000E+00  0.17418676391E+04  0.17418676391E+04  0.25500000920E-02 0.  1.
        2   -1    0    0  501    0  0.00000000000E+00  0.00000000000E+00 -0.81866077732E+03  0.81866077732E+03  0.25500000920E-02 0. -1.
    10030    2    1    2    0    0  0.00000000000E+00  0.00000000000E+00  0.92320686180E+03  0.25605284164E+04  0.23883037624E+04 0.  0.
        1    1    3    3  502    0  0.49519462273E+03 -0.26664580915E+03  0.15909808881E+04  0.16874649295E+04  0.50400001928E-02 0.  1.
       -1    1    3    3    0  502 -0.49519462273E+03  0.26664580915E+03 -0.66777402633E+03  0.87306348692E+03  0.50400001928E-02 0. -1.
</event>
<event>
 5   0  0.2087882E-05  0.2395796E+04  0.7818609E-02  0.8441079E-01
        2   -1    0    0  501    0  0.00000000000E+00  0.00000000000E+00  0.16141434132E+04  0.16141434132E+04  0.25500000920E-02 0. -1.
       -2   -1    0    0    0  501  0.00000000000E+00  0.00000000000E+00 -0.88899120124E+03  0.88899120124E+03  0.25500000920E-02 0.  1.
    10030    2    1    2    0    0  0.00000000000E+00  0.00000000000E+00  0.72515221192E+03  0.25031346144E+04  0.23957957274E+04 0.  0.
        2    1    3    3  502    0 -0.81098092505E+02  0.99592052936E+03 -0.32772540869E+03  0.10515885816E+04  0.25500000920E-02 0.  1.
       -2    1    3    3    0  502  0.81098092505E+02 -0.99592052936E+03  0.10528776206E+04  0.14515460328E+04  0.25500000920E-02 0. -1.
</event>
<event>
 5   0  0.9176817E-06  0.2385350E+04  0.7818609E-02  0.8445009E-01
       -1   -1    0    0    0  501  0.00000000000E+00  0.00000000000E+00  0.12119307546E+04  0.12119307546E+04  0.50400001928E-02 0.  1.
        1   -1    0    0  501    0  0.00000000000E+00  0.00000000000E+00 -0.11737250001E+04  0.11737250001E+04  0.50400001928E-02 0. -1.
    10030    2    1    2    0    0  0.00000000000E+00  0.00000000000E+00  0.38205754535E+02  0.23856557547E+04  0.23853498067E+04 0.  0.
        3    1    3    3  502    0  0.32588016964E+03  0.83734664364E+03  0.80350324197E+03  0.12053898774E+04  0.10100000352E+00 0.  1.
       -3    1    3    3    0  502 -0.32588016964E+03 -0.83734664364E+03 -0.76529748743E+03  0.11802658773E+04  0.10100000352E+00 0. -1.
</event>
<event>
 5   0  0.9038897E-06  0.2387614E+04  0.7818609E-02  0.8444155E-01
        1   -1    0    0  501    0  0.00000000000E+00  0.00000000000E+00  0.14610110615E+04  0.14610110615E+04  0.50400001928E-02 0. -1.
       -1   -1    0    0    0  501  0.00000000000E+00  0.00000000000E+00 -0.97547199035E+03  0.97547199036E+03  0.50400001928E-02 0.  1.
    10030    2    1    2    0    0  0.00000000000E+00  0.00000000000E+00  0.48553907111E+03  0.24364830518E+04  0.23876141799E+04 0.  0.
        1    1    3    3  502    0 -0.83504267777E+03  0.44192315121E+02  0.11122212357E+04  0.13915046933E+04  0.50400001928E-02 0. -1.
       -1    1    3    3    0  502  0.83504267777E+03 -0.44192315121E+02 -0.62668216454E+03  0.10449783585E+04  0.50400001928E-02 0.  1.
</event>
<event>
 5   0  0.9083687E-06  0.2396102E+04  0.7818609E-02  0.8440964E-01
        1   -1    0    0  501    0  0.00000000000E+00  0.00000000000E+00  0.14492898070E+04  0.14492898070E+04  0.50400001928E-02 0.  1.
       -1   -1    0    0    0  501  0.00000000000E+00  0.00000000000E+00 -0.99036508191E+03  0.99036508192E+03  0.50400001928E-02 0. -1.
    10030    2    1    2    0    0  0.00000000000E+00  0.00000000000E+00  0.45892472507E+03  0.24396548889E+04  0.23961018496E+04 0.  0.
        2    1    3    3  502    0 -0.39610463009E+02  0.36407004307E+03 -0.93197775532E+03  0.10013483517E+04  0.25500000920E-02 0. -1.
       -2    1    3    3    0  502  0.39610463009E+02 -0.36407004307E+03  0.13909024804E+04  0.14383065372E+04  0.25500000920E-02 0.  1.
</event>
<event>
 5   0  0.2087882E-05  0.2397416E+04  0.7818609E-02  0.8440471E-01
        2   -1    0    0  501    0  0.00000000000E+00  0.00000000000E+00  0.14775641191E+04  0.14775641191E+04  0.25500000920E-02 0.  1.
       -2   -1    0    0    0  501  0.00000000000E+00  0.00000000000E+00 -0.97247993775E+03  0.97247993775E+03  0.25500000920E-02 0. -1.
    10030    2    1    2    0    0  0.00000000000E+00  0.00000000000E+00  0.50508418133E+03  0.24500440568E+04  0.23974164949E+04 0.  0.
        2    1    3    3  502    0 -0.25730883348E+03  0.11054903176E+04  0.64647074652E+03  0.13062316426E+04  0.25500000920E-02 0.  1.
       -2    1    3    3    0  502  0.25730883348E+03 -0.11054903176E+04 -0.14138656519E+03  0.11438124142E+04  0.25500000920E-02 0. -1.
</event>
<event>
 5   0  0.2048028E-05  0.2417993E+04  0.7818609E-02  0.8432798E-01
        2   -1    0    0  501    0  0.00000000000E+00  0.00000000000E+00  0.25258058171E+04  0.25258058171E+04  0.25500000920E-02 0. -1.
       -2   -1    0    0    0  501  0.00000000000E+00  0.00000000000E+00 -0.57869534347E+03  0.57869534347E+03  0.25500000920E-02 0.  1.
    10030    2    1    2    0    0  0.00000000000E+00  0.00000000000E+00  0.19471104737E+04  0.31045011606E+04  0.24179926095E+04 0.  0.
        5    1    3    3  502    0 -0.10502616773E+04  0.14067340893E+03  0.22621932937E+03  0.10835293599E+04  0.46999998093E+01 0.  1.
       -5    1    3    3    0  502  0.10502616773E+04 -0.14067340893E+03  0.17208911443E+04  0.20209718007E+04  0.46999998093E+01 0. -1.
</event>
<event>
 5   0  0.9038897E-06  0.2397006E+04  0.7818609E-02  0.8440625E-01
        1   -1    0    0  501    0  0.00000000000E+00  0.00000000000E+00  0.15058715255E+04  0.15058715255E+04  0.50400001928E-02 0. -1.
       -1   -1    0    0    0  501  0.00000000000E+00  0.00000000000E+00 -0.95387267355E+03  0.95387267357E+03  0.50400001928E-02 0.  1.
    10030    2    1    2    0    0  0.00000000000E+00  0.00000000000E+00  0.55199885194E+03  0.24597441991E+04  0.23970062145E+04 0.  0.
        1    1    3    3  502    0  0.33991078837E+03  0.66732236423E+03 -0.68420026719E+03  0.10143906977E+04  0.50400001928E-02 0.  1.
       -1    1    3    3    0  502 -0.33991078837E+03 -0.66732236423E+03  0.12361991191E+04  0.14453535014E+04  0.50400001928E-02 0. -1.
</event>
<event>
 5   0  0.2080257E-05  0.2388440E+04  0.7818609E-02  0.8443844E-01
       -2   -1    0    0    0  501  0.00000000000E+00  0.00000000000E+00  0.61845866149E+03  0.61845866150E+03  0.25500000920E-02 0.  1.
        2   -1    0    0  501    0  0.00000000000E+00  0.00000000000E+00 -0.23059933431E+04  0.23059933431E+04  0.25500000920E-02 0. -1.
    10030    2    1    2    0    0  0.00000000000E+00  0.00000000000E+00 -0.16875346816E+04  0.29244520046E+04  0.23884401239E+04 0.  0.
        1    1    3    3  502    0 -0.78409313383E+03  0.89953076665E+03 -0.90124875310E+03  0.14953952513E+04  0.50400001928E-02 0. -1.
       -1    1    3    3    0  502  0.78409313383E+03 -0.89953076665E+03 -0.78628592847E+03  0.14290567532E+04  0.50400001928E-02 0.  1.
</event>
<event>
 5   0  0.9038897E-06  0.2408528E+04  0.7818609E-02  0.8436318E-01
       -1   -1    0    0    0  501  0.00000000000E+00  0.00000000000E+00  0.77177556299E+03  0.77177556300E+03  0.50400001928E-02 0. -1.
        1   -1    0    0  501    0  0.00000000000E+00  0.00000000000E+00 -0.18791101900E+04  0.18791101900E+04  0.50400001928E-02 0.  1.
    10030    2    1    2    0    0  0.00000000000E+00  0.00000000000E+00 -0.11073346270E+04  0.26508857530E+04  0.24085276206E+04 0.  0.
        1    1    3    3  502    0 -0.14196609005E+03 -0.11702874613E+02 -0.18698049973E+04  0.18752232016E+04  0.50400001928E-02 0.  1.
       -1    1    3    3    0  502  0.14196609005E+03  0.11702874613E+02  0.76247037029E+03  0.77566255137E+03  0.50400001928E-02 0. -1.
</event>
<event>
 5   0  0.2048028E-05  0.2380840E+04  0.7818609E-02  0.8446712E-01
        2   -1    0    0  501    0  0.00000000000E+00  0.00000000000E+00  0.15365687604E+04  0.15365687604E+04  0.25500000920E-02 0.  1.
       -2   -1    0    0    0  501  0.00000000000E+00  0.00000000000E+00 -0.92224947076E+03  0.92224947077E+03  0.25500000920E-02 0. -1.
    10030    2    1    2    0    0  0.00000000000E+00  0.00000000000E+00  0.61431928961E+03  0.24588182311E+04  0.23808399577E+04 0.  0.
        5    1    3    3  502    0  0.10561956840E+04  0.54034959521E+03  0.20623152333E+03  0.12041928995E+04  0.46999998093E+01 0. -1.
       -5    1    3    3    0  502 -0.10561956840E+04 -0.54034959521E+03  0.40808776628E+03  0.12546253317E+04  0.46999998093E+01 0.  1.
</event>
<event>
 5   0  0.2025353E-05  0.2426340E+04  0.7818609E-02  0.8429708E-01
        2   -1    0    0  501    0  0.00000000000E+00  0.00000000000E+00  0.17983615332E+04  0.17983615332E+04  0.25500000920E-02 0. -1.
       -2   -1    0    0    0  501  0.00000000000E+00  0.00000000000E+00 -0.81840126932E+03  0.81840126933E+03  0.25500000920E-02 0.  1.
    10030    2    1    2    0    0  0.00000000000E+00  0.00000000000E+00  0.97996026388E+03  0.26167628025E+04  0.24263399279E+04 0.  0.
        4    1    3    3  502    0  0.66368890700E+03  0.46965806096E+03 -0.48108339918E+03  0.94472456799E+03  0.12699999809E+01 0.  1.
       -4    1    3    3    0  502 -0.66368890700E+03 -0.46965806096E+03  0.14610436631E+04  0.16720382345E+04  0.12699999809E+01 0. -1.
</event>
<event>
 5   0  0.2048028E-05  0.2384326E+04  0.7818609E-02  0.8445395E-01
        2   -1    0    0  501    0  0.00000000000E+00  0.00000000000E+00  0.25242425961E+04  0.25242425961E+04  0.25500000920E-02 0.  1.
       -2   -1    0    0    0  501  0.00000000000E+00  0.00000000000E+00 -0.56304130834E+03  0.56304130835E+03  0.25500000920E-02 0. -1.
    10030    2    1    2    0    0  0.00000000000E+00  0.00000000000E+00  0.19612012877E+04  0.30872839044E+04  0.23843261974E+04 0.  0.
        5    1    3    3  502    0  0.55008896507E+02  0.89425341628E+03  0.19989252350E+04  0.21905340299E+04  0.46999998093E+01 0.  1.
       -5    1    3    3    0  502 -0.55008896507E+02 -0.89425341628E+03 -0.37723947243E+02  0.89674987450E+03  0.46999998093E+01 0. -1.
</event>
<event>
 5   0  0.2048028E-05  0.2400965E+04  0.7818609E-02  0.8439142E-01
       -2   -1    0    0    0  501  0.00000000000E+00  0.00000000000E+00  0.10976920080E+04  0.10976920080E+04  0.25500000920E-02 0. -1.
        2   -1    0    0  501    0  0.00000000000E+00  0.00000000000E+00 -0.13128985135E+04  0.13128985135E+04  0.25500000920E-02 0.  1.
    10030    2    1    2    0    0  0.00000000000E+00  0.00000000000E+00 -0.21520650545E+03  0.24105905215E+04  0.24009649774E+04 0.  0.
        5    1    3    3  502    0 -0.82943347302E+03 -0.76515770580E+03  0.30356255185E+03  0.11685882567E+04  0.46999998093E+01 0. -1.
       -5    1    3    3    0  502  0.82943347302E+03  0.76515770580E+03 -0.51876905730E+03  0.12420022648E+04  0.46999998093E+01 0.  1.
</event>
<event>
 5   0  0.7233625E-06  0.2390541E+04  0.7818609E-02  0.8443053E-01
       -4   -1    0    0    0  501  0.00000000000E+00  0.00000000000E+00  0.11580495261E+04  0.11580502224E+04  0.12699999809E+01 0.  1.
        4   -1    0    0  501    0  0.00000000000E+00  0.00000000000E+00 -0.12336863171E+04  0.12336869708E+04  0.12699999809E+01 0. -1.
    10030    2    1    2    0    0  0.00000000000E+00  0.00000000000E+00 -0.75636791097E+02  0.23917371933E+04  0.23905409174E+04 0.  0.
        4    1    3    3  502    0 -0.11019786381E+03 -0.11094897745E+04 -0.46879924057E+03  0.12094980239E+04  0.12699999809E+01 0.  1.
       -4    1    3    3    0  502  0.11019786381E+03  0.11094897745E+04  0.39316244948E+03  0.11822391694E+04  0.12699999809E+01 0. -1.
</event>
<event>
 5   0  0.2080257E-05  0.2403418E+04  0.7818609E-02  0.8438225E-01
       -2   -1    0    0    0  501  0.00000000000E+00  0.00000000000E+00  0.10336449522E+04  0.10336449522E+04  0.25500000920E-02 0. -1.
        2   -1    0    0  501    0  0.00000000000E+00  0.00000000000E+00 -0.13970994932E+04  0.13970994932E+04  0.25500000920E-02 0.  1.
    10030    2    1    2    0    0  0.00000000000E+00  0.00000000000E+00 -0.36345454109E+03  0.24307444454E+04  0.24034182648E+04 0.  0.
        1    1    3    3  502    0 -0.40325934537E+03 -0.20353975018E+03  0.94451285981E+03  0.10469723358E+04  0.50400001928E-02 0. -1.
       -1    1    3    3    0  502  0.40325934537E+03  0.20353975018E+03 -0.13079674009E+04  0.13837721096E+04  0.50400001928E-02 0.  1.
</event>
<event>
 5   0  0.9083687E-06  0.2378115E+04  0.7818609E-02  0.8447743E-01
        1   -1    0    0  501    0  0.00000000000E+00  0.00000000000E+00  0.11806394626E+04  0.11806394626E+04  0.50400001928E-02 0.  1.
       -1   -1    0    0    0  501  0.00000000000E+00  0.00000000000E+00 -0.11975352374E+04  0.11975352374E+04  0.50400001928E-02 0. -1.
    10030    2    1    2    0    0  0.00000000000E+00  0.00000000000E+00 -0.16895774786E+02  0.23781747000E+04  0.23781146811E+04 0.  0.
        2    1    3    3  502    0 -0.35025921051E+03 -0.38215189987E+03 -0.10785850621E+04  0.11966901542E+04  0.25500000920E-02 0. -1.
       -2    1    3    3    0  502  0.35025921051E+03  0.38215189987E+03  0.10616892873E+04  0.11814845458E+04  0.25500000920E-02 0.  1.
</event>
<event>
 5   0  0.2025353E-05  0.2401481E+04  0.7818609E-02  0.8438949E-01
        2   -1    0    0  501    0  0.00000000000E+00  0.00000000000E+00  0.29704286372E+04  0.29704286372E+04  0.25500000920E-02 0. -1.
       -2   -1    0    0    0  501  0.00000000000E+00  0.00000000000E+00 -0.48537716127E+03  0.48537716127E+03  0.25500000920E-02 0.  1.
    10030    2    1    2    0    0  0.00000000000E+00  0.00000000000E+00  0.24850514759E+04  0.34558057985E+04  0.24014813925E+04 0.  0.
        4    1    3    3  502    0 -0.24031194419E+03  0.43628505975E+03 -0.32969835773E+03  0.59732495668E+03  0.12699999809E+01 0.  1.
       -4    1    3    3    0  502  0.24031194419E+03 -0.43628505975E+03  0.28147498337E+04  0.28584808418E+04  0.12699999809E+01 0. -1.
</event>
<event>
 5   0  0.9176817E-06  0.2378784E+04  0.7818609E-02  0.8447490E-01
       -1   -1    0    0    0  501  0.00000000000E+00  0.00000000000E+00  0.92395088364E+03  0.92395088365E+03  0.50400001928E-02 0. -1.
        1   -1    0    0  501    0  0.00000000000E+00  0.00000000000E+00 -0.15310911925E+04  0.15310911925E+04  0.50400001928E-02 0.  1.
    10030    2    1    2    0    0  0.00000000000E+00  0.00000000000E+00 -0.60714030888E+03  0.24550420762E+04  0.23787837735E+04 0.  0.
        3    1    3    3  502    0 -0.50488649579E+03  0.42095876112E+03 -0.13265764262E+04  0.14805139908E+04  0.10100000352E+00 0.  1.
       -3    1    3    3    0  502  0.50488649579E+03 -0.42095876112E+03  0.71943611728E+03  0.97452808541E+03  0.10100000352E+00 0. -1.
</event>
<event>
 5   0  0.2122194E-05  0.2384393E+04  0.7818609E-02  0.8445370E-01
       -2   -1    0    0    0  501  0.00000000000E+00  0.00000000000E+00  0.56348059980E+03  0.56348059981E+03  0.25500000920E-02 0.  1.
        2   -1    0    0  501    0  0.00000000000E+00  0.00000000000E+00 -0.25224162541E+04  0.25224162541E+04  0.25500000920E-02 0. -1.
    10030    2    1    2    0    0  0.00000000000E+00  0.00000000000E+00 -0.19589356543E+04  0.30858968539E+04  0.23843931084E+04 0.  0.
        3    1    3    3  502    0 -0.10820404079E+04 -0.20801057175E+03 -0.39028006042E+03  0.11689304419E+04  0.10100000352E+00 0.  1.
       -3    1    3    3    0  502  0.10820404079E+04  0.20801057175E+03 -0.15686555939E+04  0.19169664120E+04  0.10100000352E+00 0. -1.
</event>
<event>
 5   0  0.8528103E-06  0.2395573E+04  0.7818609E-02  0.8441163E-01
       -1   -1    0    0    0  501  0.00000000000E+00  0.00000000000E+00  0.85015078494E+03  0.85015078496E+03  0.50400001928E-02 0. -1.
        1   -1    0    0  501    0  0.00000000000E+00  0.00000000000E+00 -0.16875740948E+04  0.16875740948E+04  0.50400001928E-02 0.  1.
    10030    2    1    2    0    0  0.00000000000E+00  0.00000000000E+00 -0.83742330981E+03  0.25377248797E+04  0.23955729514E+04 0.  0.
        4    1    3    3  502    0  0.10719763563E+03 -0.61251902784E+03 -0.15031875636E+04  0.16267284214E+04  0.12699999809E+01 0.  1.
       -4    1    3    3    0  502 -0.10719763563E+03  0.61251902784E+03  0.66576425382E+03  0.91099645835E+03  0.12699999809E+01 0. -1.
</event>
<event>
 5   0  0.2080257E-05  0.2246922E+04  0.7818609E-02  0.8499148E-01
       -2   -1    0    0    0  501  0.00000000000E+00  0.00000000000E+00  0.87826788157E+03  0.87826788157E+03  0.25500000920E-02 0. -1.
        2   -1    0    0  501    0  0.00000000000E+00  0.00000000000E+00 -0.14371067847E+04  0.14371067847E+04  0.25500000920E-02 0.  1.
    10030    2    1    2    0    0  0.00000000000E+00  0.00000000000E+00 -0.55883890310E+03  0.23153746662E+04  0.22469221004E+04 0.  0.
        1    1    3    3  502    0 -0.17892058989E+03 -0.24296110858E+03  0.83573325007E+03  0.88853404159E+03  0.50400001928E-02 0. -1.
       -1    1    3    3    0  502  0.17892058989E+03  0.24296110858E+03 -0.13945721532E+04  0.14268406247E+04  0.50400001928E-02 0.  1.
</event>
<event>
 5   0  0.8898848E-06  0.2412673E+04  0.7818609E-02  0.8434774E-01
        1   -1    0    0  501    0  0.00000000000E+00  0.00000000000E+00  0.23372857064E+04  0.23372857064E+04  0.50400001928E-02 0.  1.
       -1   -1    0    0    0  501  0.00000000000E+00  0.00000000000E+00 -0.62262270505E+03  0.62262270507E+03  0.50400001928E-02 0. -1.
    10030    2    1    2    0    0  0.00000000000E+00  0.00000000000E+00  0.17146630014E+04  0.29599084115E+04  0.24126725008E+04 0.  0.
        5    1    3    3  502    0  0.90876191379E+03  0.44145732994E+03  0.16660007435E+04  0.19484130356E+04  0.46999998093E+01 0.  1.
       -5    1    3    3    0  502 -0.90876191379E+03 -0.44145732994E+03  0.48662257916E+02  0.10114953759E+04  0.46999998093E+01 0. -1.
</event>
<event>
 5   0  0.8528103E-06  0.2414712E+04  0.7818609E-02  0.8434016E-01
        1   -1    0    0  501    0  0.00000000000E+00  0.00000000000E+00  0.18395715234E+04  0.18395715234E+04  0.50400001928E-02 0.  1.
       -1   -1    0    0    0  501  0.00000000000E+00  0.00000000000E+00 -0.79241738403E+03  0.79241738405E+03  0.50400001928E-02 0. -1.
    10030    2    1    2    0    0  0.00000000000E+00  0.00000000000E+00  0.10471541393E+04  0.26319889074E+04  0.24147119533E+04 0.  0.
        4    1    3    3  502    0  0.10555858634E+04  0.56809836710E+03  0.68043420552E+03  0.13784010994E+04  0.12699999809E+01 0.  1.
       -4    1    3    3    0  502 -0.10555858634E+04 -0.56809836710E+03  0.36671993380E+03  0.12535878081E+04  0.12699999809E+01 0. -1.
</event>
<event>
 5   0  0.2122194E-05  0.2413356E+04  0.7818609E-02  0.8434520E-01
       -2   -1    0    0    0  501  0.00000000000E+00  0.00000000000E+00  0.56199693357E+03  0.56199693358E+03  0.25500000920E-02 0.  1.
        2   -1    0    0  501    0  0.00000000000E+00  0.00000000000E+00 -0.25908893465E+04  0.25908893465E+04  0.25500000920E-02 0. -1.
    10030    2    1    2    0    0  0.00000000000E+00  0.00000000000E+00 -0.20288924129E+04  0.31528862801E+04  0.24133560599E+04 0.  0.
        3    1    3    3  502    0  0.62420547420E+03 -0.79083753544E+03 -0.18820346755E+04  0.21347390968E+04  0.10100000352E+00 0. -1.
       -3    1    3    3    0  502 -0.62420547420E+03  0.79083753544E+03 -0.14685773740E+03  0.10181471832E+04  0.10100000352E+00 0.  1.
</event>
<event>
 5   0  0.8898848E-06  0.2392661E+04  0.7818609E-02  0.8442256E-01
       -1   -1    0    0    0  501  0.00000000000E+00  0.00000000000E+00  0.73037453966E+03  0.73037453968E+03  0.50400001928E-02 0.  1.
        1   -1    0    0  501    0  0.00000000000E+00  0.00000000000E+00 -0.19595518098E+04  0.19595518098E+04  0.50400001928E-02 0. -1.
    10030    2    1    2    0    0  0.00000000000E+00  0.00000000000E+00 -0.12291772702E+04  0.26899263495E+04  0.23926610718E+04 0.  0.
        5    1    3    3  502    0 -0.10875935845E+04  0.27209180967E+03 -0.14523891235E+03  0.11304911276E+04  0.46999998093E+01 0. -1.
       -5    1    3    3    0  502  0.10875935845E+04 -0.27209180967E+03 -0.10839383578E+04  0.15594352219E+04  0.46999998093E+01 0.  1.
</event>
<event>
 5   0  0.9176817E-06  0.2390315E+04  0.7818609E-02  0.8443138E-01
       -1   -1    0    0    0  501  0.00000000000E+00  0.00000000000E+00  0.64004751063E+03  0.64004751065E+03  0.50400001928E-02 0. -1.
        1   -1    0    0  501    0  0.00000000000E+00  0.00000000000E+00 -0.22317110496E+04  0.22317110496E+04  0.50400001928E-02 0.  1.
    10030    2    1    2    0    0  0.00000000000E+00  0.00000000000E+00 -0.15916635390E+04  0.28717585603E+04  0.23903147088E+04 0.  0.
        3    1    3    3  502    0 -0.99925332900E+03  0.63170966548E+03 -0.10068049809E+04  0.15528105476E+04  0.10100000352E+00 0. -1.
       -3    1    3    3    0  502  0.99925332900E+03 -0.63170966548E+03 -0.58485855814E+03  0.13189480127E+04  0.10100000352E+00 0.  1.
</event>
<event>
 5   0  0.9083687E-06  0.2361857E+04  0.7818609E-02  0.8453923E-01
       -1   -1    0    0    0  501  0.00000000000E+00  0.00000000000E+00  0.89209924331E+03  0.89209924332E+03  0.50400001928E-02 0. -1.
        1   -1    0    0  501    0  0.00000000000E+00  0.00000000000E+00 -0.15632699728E+04  0.15632699728E+04  0.50400001928E-02 0.  1.
    10030    2    1    2    0    0  0.00000000000E+00  0.00000000000E+00 -0.67117072949E+03  0.24553692161E+04  0.23618568626E+04 0.  0.
        2    1    3    3  502    0  0.14516858143E+03 -0.11716502189E+04 -0.36412795894E+03  0.12354866745E+04  0.25500000920E-02 0.  1.
       -2    1    3    3    0  502 -0.14516858143E+03  0.11716502189E+04 -0.30704277055E+03  0.12198825416E+04  0.25500000920E-02 0. -1.
</event>
<event>
 5   0  0.2087882E-05  0.2402628E+04  0.7818609E-02  0.8438520E-01
        2   -1    0    0  501    0  0.00000000000E+00  0.00000000000E+00  0.26920879111E+04  0.26920879111E+04  0.25500000920E-02 0. -1.
       -2   -1    0    0    0  501  0.00000000000E+00  0.00000000000E+00 -0.53607285736E+03  0.53607285737E+03  0.25500000920E-02 0.  1.
    10030    2    1    2    0    0  0.00000000000E+00  0.00000000000E+00  0.21560150537E+04  0.32281607685E+04  0.24026279436E+04 0.  0.
        2    1    3    3  502    0  0.31651661497E+03  0.11435839085E+03 -0.47144134769E+03  0.57923877066E+03  0.25500000920E-02 0.  1.
       -2    1    3    3    0  502 -0.31651661497E+03 -0.11435839085E+03  0.26274564014E+04  0.26489219978E+04  0.25500000920E-02 0. -1.
</event>
<event>
 5   0  0.9083687E-06  0.2397918E+04  0.7818609E-02  0.8440283E-01
       -1   -1    0    0    0  501  0.00000000000E+00  0.00000000000E+00  0.16261271032E+04  0.16261271032E+04  0.50400001928E-02 0.  1.
        1   -1    0    0  501    0  0.00000000000E+00  0.00000000000E+00 -0.88400389379E+03  0.88400389380E+03  0.50400001928E-02 0. -1.
    10030    2    1    2    0    0  0.00000000000E+00  0.00000000000E+00  0.74212320943E+03  0.25101309970E+04  0.23979180062E+04 0.  0.
        2    1    3    3  502    0  0.95199723582E+03 -0.11187121718E+03 -0.38284142174E+03  0.10321731737E+04  0.25500000920E-02 0. -1.
       -2    1    3    3    0  502 -0.95199723582E+03  0.11187121718E+03  0.11249646312E+04  0.14779578234E+04  0.25500000920E-02 0.  1.
</event>
<event>
 5   0  0.9083687E-06  0.2401223E+04  0.7818609E-02  0.8439046E-01
        1   -1    0    0  501    0  0.00000000000E+00  0.00000000000E+00  0.16222484062E+04  0.16222484063E+04  0.50400001928E-02 0. -1.
       -1   -1    0    0    0  501  0.00000000000E+00  0.00000000000E+00 -0.88856196848E+03  0.88856196849E+03  0.50400001928E-02 0.  1.
    10030    2    1    2    0    0  0.00000000000E+00  0.00000000000E+00  0.73368643777E+03  0.25108103747E+04  0.24012232193E+04 0.  0.
        2    1    3    3  502    0  0.10400993905E+04  0.52854307042E+03  0.70531241778E+02  0.11688195650E+04  0.25500000920E-02 0.  1.
       -2    1    3    3    0  502 -0.10400993905E+04 -0.52854307042E+03  0.66315519599E+03  0.13419908097E+04  0.25500000920E-02 0. -1.
</event>
<event>
 5   0  0.9176817E-06  0.2198132E+04  0.7818609E-02  0.8519206E-01
       -1   -1    0    0    0  501  0.00000000000E+00  0.00000000000E+00  0.95593949133E+03  0.95593949134E+03  0.50400001928E-02 0. -1.
        1   -1    0    0  501    0  0.00000000000E+00  0.00000000000E+00 -0.12636221602E+04  0.12636221603E+04  0.50400001928E-02 0.  1.
    10030    2    1    2    0    0  0.00000000000E+00  0.00000000000E+00 -0.30768266891E+03  0.22195616516E+04  0.21981322300E+04 0.  0.
        3    1    3    3  502    0 -0.11910253895E+03  0.59320583080E+01  0.94938767355E+03  0.95684772508E+03  0.10100000352E+00 0. -1.
       -3    1    3    3    0  502  0.11910253895E+03 -0.59320583080E+01 -0.12570703425E+04  0.12627139265E+04  0.10100000352E+00 0.  1.
</event>
<event>
 5   0  0.2080257E-05  0.2401946E+04  0.7818609E-02  0.8438776E-01
        2   -1    0    0  501    0  0.00000000000E+00  0.00000000000E+00  0.74632234378E+03  0.74632234378E+03  0.25500000920E-02 0. -1.
       -2   -1    0    0    0  501  0.00000000000E+00  0.00000000000E+00 -0.19325907331E+04  0.19325907331E+04  0.25500000920E-02 0.  1.
    10030    2    1    2    0    0  0.00000000000E+00  0.00000000000E+00 -0.11862683893E+04  0.26789130769E+04  0.24019455826E+04 0.  0.
        1    1    3    3  502    0 -0.64510254254E+03 -0.83419886984E+03  0.47844457576E+02  0.10556202617E+04  0.50400001928E-02 0. -1.
       -1    1    3    3    0  502  0.64510254254E+03  0.83419886984E+03 -0.12341128469E+04  0.16232928151E+04  0.50400001928E-02 0.  1.
</event>
<event>
 5   0  0.2025353E-05  0.2381402E+04  0.7818609E-02  0.8446499E-01
        2   -1    0    0  501    0  0.00000000000E+00  0.00000000000E+00  0.14277201645E+04  0.14277201645E+04  0.25500000920E-02 0. -1.
       -2   -1    0    0    0  501  0.00000000000E+00  0.00000000000E+00 -0.99303022660E+03  0.99303022661E+03  0.25500000920E-02 0.  1.
    10030    2    1    2    0    0  0.00000000000E+00  0.00000000000E+00  0.43468993791E+03  0.24207503911E+04  0.23814023419E+04 0.  0.
        4    1    3    3  502    0  0.10952387393E+04  0.23509698600E+03  0.62768446380E+03  0.12840591450E+04  0.12699999809E+01 0. -1.
       -4    1    3    3    0  502 -0.10952387393E+04 -0.23509698600E+03 -0.19299452590E+03  0.11366912461E+04  0.12699999809E+01 0.  1.
</event>
<event>
 5   0  0.9038897E-06  0.2433241E+04  0.7818609E-02  0.8427163E-01
        1   -1    0    0  501    0  0.00000000000E+00  0.00000000000E+00  0.23399720481E+04  0.23399720481E+04  0.50400001928E-02 0. -1.
       -1   -1    0    0    0  501  0.00000000000E+00  0.00000000000E+00 -0.63255674472E+03  0.63255674474E+03  0.50400001928E-02 0.  1.
    10030    2    1    2    0    0  0.00000000000E+00  0.00000000000E+00  0.17074153034E+04  0.29725287929E+04  0.24332407210E+04 0.  0.
        1    1    3    3  502    0  0.55852565158E+03  0.39293808283E+03 -0.37633481771E+03  0.77973016836E+03  0.50400001928E-02 0.  1.
       -1    1    3    3    0  502 -0.55852565158E+03 -0.39293808283E+03  0.20837501211E+04  0.21927986245E+04  0.50400001928E-02 0. -1.
</event>
<event>
 5   0  0.2080257E-05  0.2494870E+04  0.7818609E-02  0.8404815E-01
       -2   -1    0    0    0  501  0.00000000000E+00  0.00000000000E+00  0.10221968157E+04  0.10221968157E+04  0.25500000920E-02 0. -1.
        2   -1    0    0  501    0  0.00000000000E+00  0.00000000000E+00 -0.15223035422E+04  0.15223035422E+04  0.25500000920E-02 0.  1.
    10030    2    1    2    0    0  0.00000000000E+00  0.00000000000E+00 -0.50010672652E+03  0.25445003579E+04  0.24948698029E+04 0.  0.
        1    1    3    3  502    0  0.29480627462E+03  0.28694263119E+03  0.95101826637E+03  0.10361865450E+04  0.50400001928E-02 0. -1.
       -1    1    3    3    0  502 -0.29480627462E+03 -0.28694263119E+03 -0.14511249929E+04  0.15083138129E+04  0.50400001928E-02 0.  1.
</event>
<event>
 5   0  0.2025353E-05  0.2388311E+04  0.7818609E-02  0.8443893E-01
        2   -1    0    0  501    0  0.00000000000E+00  0.00000000000E+00  0.12827695190E+04  0.12827695190E+04  0.25500000920E-02 0. -1.
       -2   -1    0    0    0  501  0.00000000000E+00  0.00000000000E+00 -0.11116633704E+04  0.11116633704E+04  0.25500000920E-02 0.  1.
    10030    2    1    2    0    0  0.00000000000E+00  0.00000000000E+00  0.17110614864E+03  0.23944328894E+04  0.23883114428E+04 0.  0.
        4    1    3    3  502    0 -0.11394701213E+04  0.27097407703E+03 -0.14782493447E+03  0.11805392547E+04  0.12699999809E+01 0.  1.
       -4    1    3    3    0  502  0.11394701213E+04 -0.27097407703E+03  0.31893108310E+03  0.12138936347E+04  0.12699999809E+01 0. -1.
</event>
<event>
 5   0  0.2048028E-05  0.2396916E+04  0.7818609E-02  0.8440659E-01
        2   -1    0    0  501    0  0.00000000000E+00  0.00000000000E+00  0.13464315322E+04  0.13464315322E+04  0.25500000920E-02 0. -1.
       -2   -1    0    0    0  501  0.00000000000E+00  0.00000000000E+00 -0.10667465759E+04  0.10667465759E+04  0.25500000920E-02 0.  1.
    10030    2    1    2    0    0  0.00000000000E+00  0.00000000000E+00  0.27968495633E+03  0.24131781080E+04  0.23969157070E+04 0.  0.
        5    1    3    3  502    0 -0.35483639815E+03 -0.15703343024E+03  0.12814274849E+04  0.13388976274E+04  0.46999998093E+01 0. -1.
       -5    1    3    3    0  502  0.35483639815E+03  0.15703343024E+03 -0.10017425285E+04  0.10742804807E+04  0.46999998093E+01 0.  1.
</event>
<event>
 5   0  0.2080257E-05  0.2393773E+04  0.7818609E-02  0.8441838E-01
        2   -1    0    0  501    0  0.00000000000E+00  0.00000000000E+00  0.14839544933E+04  0.14839544933E+04  0.25500000920E-02 0.  1.
       -2   -1    0    0    0  501  0.00000000000E+00  0.00000000000E+00 -0.96535139662E+03  0.96535139662E+03  0.25500000920E-02 0. -1.
    10030    2    1    2    0    0  0.00000000000E+00  0.00000000000E+00  0.51860309673E+03  0.24493058900E+04  0.23937732079E+04 0.  0.
        1    1    3    3  502    0  0.32430433276E+03 -0.68906999217E+03 -0.68545331523E+03  0.10246155385E+04  0.50400001928E-02 0. -1.
       -1    1    3    3    0  502 -0.32430433276E+03  0.68906999217E+03  0.12040564120E+04  0.14246903515E+04  0.50400001928E-02 0.  1.
</event>
<event>
 5   0  0.2048028E-05  0.2379952E+04  0.7818609E-02  0.8447048E-01
        2   -1    0    0  501    0  0.00000000000E+00  0.00000000000E+00  0.25803848332E+04  0.25803848332E+04  0.25500000920E-02 0. -1.
       -2   -1    0    0    0  501  0.00000000000E+00  0.00000000000E+00 -0.54877180431E+03  0.54877180432E+03  0.25500000920E-02 0.  1.
    10030    2    1    2    0    0  0.00000000000E+00  0.00000000000E+00  0.20316130289E+04  0.31291566375E+04  0.23799516304E+04 0.  0.
        5    1    3    3  502    0  0.10563726639E+04 -0.45819436919E+03  0.14105856939E+04  0.18208897206E+04  0.46999998093E+01 0.  1.
       -5    1    3    3    0  502 -0.10563726639E+04  0.45819436919E+03  0.62102733504E+03  0.13082669169E+04  0.46999998093E+01 0. -1.
</event>
<event>
 5   0  0.2080257E-05  0.2397423E+04  0.7818609E-02  0.8440469E-01
       -2   -1    0    0    0  501  0.00000000000E+00  0.00000000000E+00  0.93763340506E+03  0.93763340506E+03  0.25500000920E-02 0.  1.
        2   -1    0    0  501    0  0.00000000000E+00  0.00000000000E+00 -0.15324855747E+04  0.15324855747E+04  0.25500000920E-02 0. -1.
    10030    2    1    2    0    0  0.00000000000E+00  0.00000000000E+00 -0.59485216968E+03  0.24701189798E+04  0.23974233399E+04 0.  0.
        1    1    3    3  502    0 -0.25321277429E+03  0.25457455683E+03  0.88092439909E+03  0.95129002464E+03  0.50400001928E-02 0.  1.
       -1    1    3    3    0  502  0.25321277429E+03 -0.25457455683E+03 -0.14757765688E+04  0.15188289552E+04  0.50400001928E-02 0. -1.
</event>
<event>
 5   0  0.8528103E-06  0.2399914E+04  0.7818609E-02  0.8439536E-01
       -1   -1    0    0    0  501  0.00000000000E+00  0.00000000000E+00  0.95601610658E+03  0.95601610660E+03  0.50400001928E-02 0. -1.
        1   -1    0    0  501    0  0.00000000000E+00  0.00000000000E+00 -0.15061434086E+04  0.15061434086E+04  0.50400001928E-02 0.  1.
    10030    2    1    2    0    0  0.00000000000E+00  0.00000000000E+00 -0.55012730201E+03  0.24621595152E+04  0.23999144630E+04 0.  0.
        4    1    3    3  502    0  0.21221597545E+03 -0.66316796760E+03 -0.12776866311E+04  0.14550986612E+04  0.12699999809E+01 0.  1.
       -4    1    3    3    0  502 -0.21221597545E+03  0.66316796760E+03  0.72755932910E+03  0.10070608540E+04  0.12699999809E+01 0. -1.
</event>
<event>
 5   0  0.9176817E-06  0.2381356E+04  0.7818609E-02  0.8446517E-01
        1   -1    0    0  501    0  0.00000000000E+00  0.00000000000E+00  0.92056345744E+03  0.92056345745E+03  0.50400001928E-02 0.  1.
       -1   -1    0    0    0  501  0.00000000000E+00  0.00000000000E+00 -0.15400504692E+04  0.15400504692E+04  0.50400001928E-02 0. -1.
    10030    2    1    2    0    0  0.00000000000E+00  0.00000000000E+00 -0.61948701172E+03  0.24606139266E+04  0.23813560713E+04 0.  0.
        3    1    3    3  502    0 -0.35013523936E+03 -0.96233833304E+03 -0.93743565052E+03  0.13883354646E+04  0.10100000352E+00 0. -1.
       -3    1    3    3    0  502  0.35013523936E+03  0.96233833304E+03  0.31794863880E+03  0.10722784621E+04  0.10100000352E+00 0.  1.
</event>
<event>
 5   0  0.2080257E-05  0.2375881E+04  0.7818609E-02  0.8448589E-01
       -2   -1    0    0    0  501  0.00000000000E+00  0.00000000000E+00  0.63012147938E+03  0.63012147938E+03  0.25500000920E-02 0. -1.
        2   -1    0    0  501    0  0.00000000000E+00  0.00000000000E+00 -0.22395729331E+04  0.22395729331E+04  0.25500000920E-02 0.  1.
    10030    2    1    2    0    0  0.00000000000E+00  0.00000000000E+00 -0.16094514537E+04  0.28696944124E+04  0.23758813184E+04 0.  0.
        1    1    3    3  502    0  0.47091154341E+02  0.10225373564E+04 -0.15328492079E+04  0.18432110341E+04  0.50400001928E-02 0.  1.
       -1    1    3    3    0  502 -0.47091154341E+02 -0.10225373564E+04 -0.76602245769E+02  0.10264833784E+04  0.50400001928E-02 0. -1.
</event>
<event>
 5   0  0.9083687E-06  0.2396786E+04  0.7818609E-02  0.8440708E-01
       -1   -1    0    0    0  501  0.00000000000E+00  0.00000000000E+00  0.12471607982E+04  0.12471607982E+04  0.50400001928E-02 0.  1.
        1   -1    0    0  501    0  0.00000000000E+00  0.00000000000E+00 -0.11515326502E+04  0.11515326502E+04  0.50400001928E-02 0. -1.
    10030    2    1    2    0    0  0.00000000000E+00  0.00000000000E+00  0.95628147935E+02  0.23986934484E+04  0.23967864980E+04 0.  0.
        2    1    3    3  502    0 -0.28444273470E+03  0.10887571450E+04  0.46026645432E+03  0.12157898663E+04  0.25500000920E-02 0. -1.
       -2    1    3    3    0  502  0.28444273470E+03 -0.10887571450E+04 -0.36463830638E+03  0.11829035821E+04  0.25500000920E-02 0.  1.
</event>
<event>
 5   0  0.2087882E-05  0.2257359E+04  0.7818609E-02  0.8494926E-01
        2   -1    0    0  501    0  0.00000000000E+00  0.00000000000E+00  0.11171268108E+04  0.11171268108E+04  0.25500000920E-02 0.  1.
       -2   -1    0    0    0  501  0.00000000000E+00  0.00000000000E+00 -0.11403514755E+04  0.11403514755E+04  0.25500000920E-02 0. -1.
    10030    2    1    2    0    0  0.00000000000E+00  0.00000000000E+00 -0.23224664691E+02  0.22574782863E+04  0.22573588169E+04 0.  0.
        2    1    3    3  502    0 -0.11070884971E+04  0.61159165553E+01  0.20802365741E+03  0.11264795546E+04  0.25500000920E-02 0.  1.
       -2    1    3    3    0  502  0.11070884971E+04 -0.61159165553E+01 -0.23124832210E+03  0.11309987318E+04  0.25500000920E-02 0. -1.
</event>
<event>
 5   0  0.8528103E-06  0.2393334E+04  0.7818609E-02  0.8442003E-01
       -1   -1    0    0    0  501  0.00000000000E+00  0.00000000000E+00  0.10303353615E+04  0.10303353615E+04  0.50400001928E-02 0.  1.
        1   -1    0    0  501    0  0.00000000000E+00  0.00000000000E+00 -0.13898506460E+04  0.13898506460E+04  0.50400001928E-02 0. -1.
    10030    2    1    2    0    0  0.00000000000E+00  0.00000000000E+00 -0.35951528451E+03  0.24201860075E+04  0.23933342999E+04 0.  0.
        4    1    3    3  502    0  0.97890065910E+03 -0.49642896458E+03 -0.66189028132E+03  0.12817131406E+04  0.12699999809E+01 0.  1.
       -4    1    3    3    0  502 -0.97890065910E+03  0.49642896458E+03  0.30237499681E+03  0.11384728670E+04  0.12699999809E+01 0. -1.
</event>
<event>
 5   0  0.2048028E-05  0.2407046E+04  0.7818609E-02  0.8436870E-01
       -2   -1    0    0    0  501  0.00000000000E+00  0.00000000000E+00  0.67697520505E+03  0.67697520506E+03  0.25500000920E-02 0.  1.
        2   -1    0    0  501    0  0.00000000000E+00  0.00000000000E+00 -0.21396176821E+04  0.21396176821E+04  0.25500000920E-02 0. -1.
    10030    2    1    2    0    0  0.00000000000E+00  0.00000000000E+00 -0.14626424770E+04  0.28165928872E+04  0.24070464217E+04 0.  0.
        5    1    3    3  502    0  0.10610763901E+04 -0.52115592049E+03 -0.99547201598E+03  0.15454686097E+04  0.46999998093E+01 0. -1.
       -5    1    3    3    0  502 -0.10610763901E+04  0.52115592049E+03 -0.46717046107E+03  0.12711242774E+04  0.46999998093E+01 0.  1.
</event>
<event>
 5   0  0.8528103E-06  0.2385339E+04  0.7818609E-02  0.8445013E-01
        1   -1    0    0  501    0  0.00000000000E+00  0.00000000000E+00  0.12974403161E+04  0.12974403161E+04  0.50400001928E-02 0.  1.
       -1   -1    0    0    0  501  0.00000000000E+00  0.00000000000E+00 -0.10963590528E+04  0.10963590528E+04  0.50400001928E-02 0. -1.
    10030    2    1    2    0    0  0.00000000000E+00  0.00000000000E+00  0.20108126328E+03  0.23937993689E+04  0.23853389159E+04 0.  0.
        4    1    3    3  502    0  0.97464925229E+03  0.67168897767E+03 -0.46099423917E+02  0.11845817901E+04  0.12699999809E+01 0.  1.
       -4    1    3    3    0  502 -0.97464925229E+03 -0.67168897767E+03  0.24718068720E+03  0.12092175787E+04  0.12699999809E+01 0. -1.
</event>
<event>
 5   0  0.2080257E-05  0.2378678E+04  0.7818609E-02  0.8447529E-01
       -2   -1    0    0    0  501  0.00000000000E+00  0.00000000000E+00  0.70817827875E+03  0.70817827876E+03  0.25500000920E-02 0. -1.
        2   -1    0    0  501    0  0.00000000000E+00  0.00000000000E+00 -0.19974174845E+04  0.19974174845E+04  0.25500000920E-02 0.  1.
    10030    2    1    2    0    0  0.00000000000E+00  0.00000000000E+00 -0.12892392057E+04  0.27055957633E+04  0.23786783525E+04 0.  0.
        1    1    3    3  502    0 -0.48178593652E+03  0.98505084685E+03 -0.12079972021E+03  0.11031932886E+04  0.50400001928E-02 0. -1.
       -1    1    3    3    0  502  0.48178593652E+03 -0.98505084685E+03 -0.11684394855E+04  0.16024024747E+04  0.50400001928E-02 0.  1.
</event>
<event>
 5   0  0.9083687E-06  0.2402297E+04  0.7818609E-02  0.8438644E-01
        1   -1    0    0  501    0  0.00000000000E+00  0.00000000000E+00  0.12008298668E+04  0.12008298668E+04  0.50400001928E-02 0.  1.
       -1   -1    0    0    0  501  0.00000000000E+00  0.00000000000E+00 -0.12014670755E+04  0.12014670755E+04  0.50400001928E-02 0. -1.
    10030    2    1    2    0    0  0.00000000000E+00  0.00000000000E+00 -0.63720875966E+00  0.24022969423E+04  0.24022968578E+04 0.  0.
        2    1    3    3  502    0 -0.72772508959E+03  0.29565106398E+03 -0.90903431827E+03  0.12013895078E+04  0.25500000920E-02 0. -1.
       -2    1    3    3    0  502  0.72772508959E+03 -0.29565106398E+03  0.90839710951E+03  0.12009074345E+04  0.25500000920E-02 0.  1.
</event>
<event>
 5   0  0.9083687E-06  0.2415661E+04  0.7818609E-02  0.8433664E-01
       -1   -1    0    0    0  501  0.00000000000E+00  0.00000000000E+00  0.93593520172E+03  0.93593520173E+03  0.50400001928E-02 0.  1.
        1   -1    0    0  501    0  0.00000000000E+00  0.00000000000E+00 -0.15587128149E+04  0.15587128149E+04  0.50400001928E-02 0. -1.
    10030    2    1    2    0    0  0.00000000000E+00  0.00000000000E+00 -0.62277761316E+03  0.24946480166E+04  0.24156607318E+04 0.  0.
        2    1    3    3  502    0 -0.63754487963E+03 -0.10221369163E+04 -0.22120142839E+03  0.12248091366E+04  0.25500000920E-02 0. -1.
       -2    1    3    3    0  502  0.63754487963E+03  0.10221369163E+04 -0.40157618478E+03  0.12698388801E+04  0.25500000920E-02 0.  1.
</event>
<event>
 5   0  0.9176817E-06  0.2412017E+04  0.7818609E-02  0.8435018E-01
       -1   -1    0    0    0  501  0.00000000000E+00  0.00000000000E+00  0.10497544138E+04  0.10497544138E+04  0.50400001928E-02 0. -1.
        1   -1    0    0  501    0  0.00000000000E+00  0.00000000000E+00 -0.13855206467E+04  0.13855206468E+04  0.50400001928E-02 0.  1.
    10030    2    1    2    0    0  0.00000000000E+00  0.00000000000E+00 -0.33576623299E+03  0.24352750605E+04  0.24120169272E+04 0.  0.
        3    1    3    3  502    0  0.38064713422E+03 -0.48636982463E+03  0.87796655083E+03  0.10734398547E+04  0.10100000352E+00 0. -1.
       -3    1    3    3    0  502 -0.38064713422E+03  0.48636982463E+03 -0.12137327838E+04  0.13618352058E+04  0.10100000352E+00 0.  1.
</event>
<event>
 5   0  0.8898848E-06  0.2403050E+04  0.7818609E-02  0.8438363E-01
        1   -1    0    0  501    0  0.00000000000E+00  0.00000000000E+00  0.16791279928E+04  0.16791279928E+04  0.50400001928E-02 0. -1.
       -1   -1    0    0    0  501  0.00000000000E+00  0.00000000000E+00 -0.85976892187E+03  0.85976892189E+03  0.50400001928E-02 0.  1.
    10030    2    1    2    0    0  0.00000000000E+00  0.00000000000E+00  0.81935907093E+03  0.25388969147E+04  0.24030497823E+04 0.  0.
        5    1    3    3  502    0 -0.75824837820E+03 -0.43433403770E+03 -0.46159251167E+03  0.98826939453E+03  0.46999998093E+01 0.  1.
       -5    1    3    3    0  502  0.75824837820E+03  0.43433403770E+03  0.12809515826E+04  0.15506275202E+04  0.46999998093E+01 0. -1.
</event>
<event>
 5   0  0.8528103E-06  0.2410473E+04  0.7818609E-02  0.8435593E-01
       -1   -1    0    0    0  501  0.00000000000E+00  0.00000000000E+00  0.74350445840E+03  0.74350445842E+03  0.50400001928E-02 0. -1.
        1   -1    0    0  501    0  0.00000000000E+00  0.00000000000E+00 -0.19537143753E+04  0.19537143753E+04  0.50400001928E-02 0.  1.
    10030    2    1    2    0    0  0.00000000000E+00  0.00000000000E+00 -0.12102099169E+04  0.26972188338E+04  0.24104732718E+04 0.  0.
        4    1    3    3  502    0 -0.11413027156E+04 -0.38717319174E+03 -0.59291053993E+03  0.13431379267E+04  0.12699999809E+01 0. -1.
       -4    1    3    3    0  502  0.11413027156E+04  0.38717319174E+03 -0.61729937702E+03  0.13540809070E+04  0.12699999809E+01 0.  1.
</event>
<event>
 5   0  0.2025353E-05  0.2406860E+04  0.7818609E-02  0.8436940E-01
        2   -1    0    0  501    0  0.00000000000E+00  0.00000000000E+00  0.11755593758E+04  0.11755593758E+04  0.25500000920E-02 0.  1.
       -2   -1    0    0    0  501  0.00000000000E+00  0.00000000000E+00 -0.12319617664E+04  0.12319617664E+04  0.25500000920E-02 0. -1.
    10030    2    1    2    0    0  0.00000000000E+00  0.00000000000E+00 -0.56402390691E+02  0.24075211422E+04  0.24068603658E+04 0.  0.
        4    1    3    3  502    0  0.10874495199E+04  0.51450187865E+03  0.31754062100E+01  0.12030254933E+04  0.12699999809E+01 0.  1.
       -4    1    3    3    0  502 -0.10874495199E+04 -0.51450187865E+03 -0.59577796901E+02  0.12044956489E+04  0.12699999809E+01 0. -1.
</event>
<event>
 5   0  0.2080257E-05  0.2379531E+04  0.7818609E-02  0.8447207E-01
        2   -1    0    0  501    0  0.00000000000E+00  0.00000000000E+00  0.65969280299E+03  0.65969280300E+03  0.25500000920E-02 0.  1.
       -2   -1    0    0    0  501  0.00000000000E+00  0.00000000000E+00 -0.21457598671E+04  0.21457598671E+04  0.25500000920E-02 0. -1.
    10030    2    1    2    0    0  0.00000000000E+00  0.00000000000E+00 -0.14860670641E+04  0.28054526701E+04  0.23795313331E+04 0.  0.
        1    1    3    3  502    0 -0.28658539957E+03  0.70960466754E+03  0.33099834162E+03  0.83380446006E+03  0.50400001928E-02 0.  1.
       -1    1    3    3    0  502  0.28658539957E+03 -0.70960466754E+03 -0.18170654057E+04  0.19716482100E+04  0.50400001928E-02 0. -1.
</event>
<event>
 5   0  0.2048028E-05  0.2473951E+04  0.7818609E-02  0.8412325E-01
        2   -1    0    0  501    0  0.00000000000E+00  0.00000000000E+00  0.21099612427E+04  0.21099612427E+04  0.25500000920E-02 0. -1.
       -2   -1    0    0    0  501  0.00000000000E+00  0.00000000000E+00 -0.72518304805E+03  0.72518304805E+03  0.25500000920E-02 0.  1.
    10030    2    1    2    0    0  0.00000000000E+00  0.00000000000E+00  0.13847781946E+04  0.28351442907E+04  0.24739507879E+04 0.  0.
        5    1    3    3  502    0 -0.54308850161E+03  0.55193179032E+03  0.17978544847E+04  0.19575179846E+04  0.46999998093E+01 0. -1.
       -5    1    3    3    0  502  0.54308850161E+03 -0.55193179032E+03 -0.41307629012E+03  0.87762630612E+03  0.46999998093E+01 0.  1.
</event>
<event>
 5   0  0.2087882E-05  0.2417007E+04  0.7818609E-02  0.8433164E-01
        2   -1    0    0  501    0  0.00000000000E+00  0.00000000000E+00  0.16766962085E+04  0.16766962085E+04  0.25500000920E-02 0.  1.
       -2   -1    0    0    0  501  0.00000000000E+00  0.00000000000E+00 -0.87104685782E+03  0.87104685783E+03  0.25500000920E-02 0. -1.
    10030    2    1    2    0    0  0.00000000000E+00  0.00000000000E+00  0.80564935066E+03  0.25477430663E+04  0.24170072105E+04 0.  0.
        2    1    3    3  502    0  0.18139673494E+03  0.26386743167E+03 -0.82551816481E+03  0.88544397755E+03  0.25500000920E-02 0. -1.
       -2    1    3    3    0  502 -0.18139673494E+03 -0.26386743167E+03  0.16311675155E+04  0.16622990888E+04  0.25500000920E-02 0.  1.
</event>
<event>
 5   0  0.9083687E-06  0.2434060E+04  0.7818609E-02  0.8426861E-01
        1   -1    0    0  501    0  0.00000000000E+00  0.00000000000E+00  0.11721226686E+04  0.11721226686E+04  0.50400001928E-02 0.  1.
       -1   -1    0    0    0  501  0.00000000000E+00  0.00000000000E+00 -0.12636574354E+04  0.12636574354E+04  0.50400001928E-02 0. -1.
    10030    2    1    2    0    0  0.00000000000E+00  0.00000000000E+00 -0.91534766817E+02  0.24357801040E+04  0.24340595928E+04 0.  0.
        2    1    3    3  502    0  0.21912590835E+03  0.97647111183E+03  0.64728950321E+03  0.11918455004E+04  0.25500000920E-02 0.  1.
       -2    1    3    3    0  502 -0.21912590835E+03 -0.97647111183E+03 -0.73882427003E+03  0.12439346036E+04  0.25500000920E-02 0. -1.
</event>
<event>
 5   0  0.9038897E-06  0.2406317E+04  0.7818609E-02  0.8437142E-01
       -1   -1    0    0    0  501  0.00000000000E+00  0.00000000000E+00  0.94122002830E+03  0.94122002831E+03  0.50400001928E-02 0. -1.
        1   -1    0    0  501    0  0.00000000000E+00  0.00000000000E+00 -0.15379933607E+04  0.15379933608E+04  0.50400001928E-02 0.  1.
    10030    2    1    2    0    0  0.00000000000E+00  0.00000000000E+00 -0.59677333245E+03  0.24792133891E+04  0.24063168158E+04 0.  0.
        1    1    3    3  502    0 -0.94136859745E+03  0.73667449040E+03 -0.43937519158E+03  0.12735441492E+04  0.50400001928E-02 0. -1.
       -1    1    3    3    0  502  0.94136859745E+03 -0.73667449040E+03 -0.15739814087E+03  0.12056692398E+04  0.50400001928E-02 0.  1.
</event>
<event>
 5   0  0.2048028E-05  0.2460668E+04  0.7818609E-02  0.8417133E-01
        2   -1    0    0  501    0  0.00000000000E+00  0.00000000000E+00  0.88351580305E+03  0.88351580306E+03  0.25500000920E-02 0. -1.
       -2   -1    0    0    0  501  0.00000000000E+00  0.00000000000E+00 -0.17132940139E+04  0.17132940139E+04  0.25500000920E-02 0.  1.
    10030    2    1    2    0    0  0.00000000000E+00  0.00000000000E+00 -0.82977821084E+03  0.25968098170E+04  0.24606684755E+04 0.  0.
        5    1    3    3  502    0  0.49142521651E+03 -0.97325489322E+03 -0.10164962168E+04  0.14906409626E+04  0.46999998093E+01 0.  1.
       -5    1    3    3    0  502 -0.49142521651E+03  0.97325489322E+03  0.18671800597E+03  0.11061688544E+04  0.46999998093E+01 0. -1.
</event>
<event>
 5   0  0.2080257E-05  0.2333022E+04  0.7818609E-02  0.8465014E-01
        2   -1    0    0  501    0  0.00000000000E+00  0.00000000000E+00  0.26339201716E+04  0.26339201716E+04  0.25500000920E-02 0.  1.
       -2   -1    0    0    0  501  0.00000000000E+00  0.00000000000E+00 -0.51662436310E+03  0.51662436311E+03  0.25500000920E-02 0. -1.
    10030    2    1    2    0    0  0.00000000000E+00  0.00000000000E+00  0.21172958085E+04  0.31505445347E+04  0.23330215011E+04 0.  0.
        1    1    3    3  502    0 -0.76597699354E+03 -0.79501170715E+03  0.15674923023E+04  0.19172366799E+04  0.50400001928E-02 0.  1.
       -1    1    3    3    0  502  0.76597699354E+03  0.79501170715E+03  0.54980350619E+03  0.12333078548E+04  0.50400001928E-02 0. -1.
</event>
<event>
 5   0  0.8898848E-06  0.2407194E+04  0.7818609E-02  0.8436815E-01
       -1   -1    0    0    0  501  0.00000000000E+00  0.00000000000E+00  0.10732469599E+04  0.10732469600E+04  0.50400001928E-02 0.  1.
        1   -1    0    0  501    0  0.00000000000E+00  0.00000000000E+00 -0.13497782189E+04  0.13497782189E+04  0.50400001928E-02 0. -1.
    10030    2    1    2    0    0  0.00000000000E+00  0.00000000000E+00 -0.27653125896E+03  0.24230251789E+04  0.24071936939E+04 0.  0.
        5    1    3    3  502    0 -0.10224033078E+04 -0.44804773078E+03  0.31476993490E+03  0.11598092493E+04  0.46999998093E+01 0.  1.
       -5    1    3    3    0  502  0.10224033078E+04  0.44804773078E+03 -0.59130119385E+03  0.12632159296E+04  0.46999998093E+01 0. -1.
</event>
<event>
 5   0  0.9176817E-06  0.2393667E+04  0.7818609E-02  0.8441878E-01
       -1   -1    0    0    0  501  0.00000000000E+00  0.00000000000E+00  0.11955221706E+04  0.11955221706E+04  0.50400001928E-02 0. -1.
        1   -1    0    0  501    0  0.00000000000E+00  0.00000000000E+00 -0.11981459466E+04  0.11981459466E+04  0.50400001928E-02 0.  1.
    10030    2    1    2    0    0  0.00000000000E+00  0.00000000000E+00 -0.26237759269E+01  0.23936681172E+04  0.23936666792E+04 0.  0.
        3    1    3    3  502    0  0.96199556939E+03 -0.62468825857E+03 -0.34298318750E+03  0.11972085754E+04  0.10100000352E+00 0.  1.
       -3    1    3    3    0  502 -0.96199556939E+03  0.62468825857E+03  0.34035941158E+03  0.11964595418E+04  0.10100000352E+00 0. -1.
</event>
<event>
 5   0  0.2048028E-05  0.2389351E+04  0.7818609E-02  0.8443501E-01
        2   -1    0    0  501    0  0.00000000000E+00  0.00000000000E+00  0.56956192944E+03  0.56956192945E+03  0.25500000920E-02 0.  1.
       -2   -1    0    0    0  501  0.00000000000E+00  0.00000000000E+00 -0.25058721624E+04  0.25058721624E+04  0.25500000920E-02 0. -1.
    10030    2    1    2    0    0  0.00000000000E+00  0.00000000000E+00 -0.19363102330E+04  0.30754340919E+04  0.23893508606E+04 0.  0.
        5    1    3    3  502    0 -0.12154339159E+03 -0.13746126817E+03  0.55130449551E+03  0.58105691034E+03  0.46999998093E+01 0.  1.
       -5    1    3    3    0  502  0.12154339159E+03  0.13746126817E+03 -0.24876147285E+04  0.24943771815E+04  0.46999998093E+01 0. -1.
</event>
<event>
 5   0  0.9176817E-06  0.2395504E+04  0.7818609E-02  0.8441189E-01
        1   -1    0    0  501    0  0.00000000000E+00  0.00000000000E+00  0.29221139345E+04  0.29221139345E+04  0.50400001928E-02 0. -1.
       -1   -1    0    0    0  501  0.00000000000E+00  0.00000000000E+00 -0.49094944138E+03  0.49094944140E+03  0.50400001928E-02 0.  1.
    10030    2    1    2    0    0  0.00000000000E+00  0.00000000000E+00  0.24311644931E+04  0.34130633759E+04  0.23955042925E+04 0.  0.
        3    1    3    3  502    0  0.44489221079E+03 -0.18835621797E+03 -0.34596673798E+03  0.59422229684E+03  0.10100000352E+00 0.  1.
       -3    1    3    3    0  502 -0.44489221079E+03  0.18835621797E+03  0.27771312311E+04  0.28188410791E+04  0.10100000352E+00 0. -1.
</event>
<event>
 5   0  0.2122194E-05  0.2394422E+04  0.7818609E-02  0.8441595E-01
        2   -1    0    0  501    0  0.00000000000E+00  0.00000000000E+00  0.14134931989E+04  0.14134931989E+04  0.25500000920E-02 0.  1.
       -2   -1    0    0    0  501  0.00000000000E+00  0.00000000000E+00 -0.10140223003E+04  0.10140223003E+04  0.25500000920E-02 0. -1.
    10030    2    1    2    0    0  0.00000000000E+00  0.00000000000E+00  0.39947089858E+03  0.24275154992E+04  0.23944215377E+04 0.  0.
        3    1    3    3  502    0  0.56636282082E+03 -0.88995937896E+03  0.77370432225E+03  0.13082098186E+04  0.10100000352E+00 0.  1.
       -3    1    3    3    0  502 -0.56636282082E+03  0.88995937896E+03 -0.37423342367E+03  0.11193056806E+04  0.10100000352E+00 0. -1.
</event>
<event>
 5   0  0.9083687E-06  0.2387083E+04  0.7818609E-02  0.8444355E-01
       -1   -1    0    0    0  501  0.00000000000E+00  0.00000000000E+00  0.76501866782E+03  0.76501866784E+03  0.50400001928E-02 0.  1.
        1   -1    0    0  501    0  0.00000000000E+00  0.00000000000E+00 -0.18620996168E+04  0.18620996168E+04  0.50400001928E-02 0. -1.
    10030    2    1    2    0    0  0.00000000000E+00  0.00000000000E+00 -0.10970809490E+04  0.26271182846E+04  0.23870827118E+04 0.  0.
        2    1    3    3  502    0 -0.39065975176E+03 -0.32641332664E+03  0.63954035868E+03  0.81741823556E+03  0.25500000920E-02 0.  1.
       -2    1    3    3    0  502  0.39065975176E+03  0.32641332664E+03 -0.17366213076E+04  0.18097000491E+04  0.25500000920E-02 0. -1.
</event>
<event>
 5   0  0.2080257E-05  0.2389266E+04  0.7818609E-02  0.8443533E-01
        2   -1    0    0  501    0  0.00000000000E+00  0.00000000000E+00  0.13993621113E+04  0.13993621113E+04  0.25500000920E-02 0. -1.
       -2   -1    0    0    0  501  0.00000000000E+00  0.00000000000E+00 -0.10198560932E+04  0.10198560932E+04  0.25500000920E-02 0.  1.
    10030    2    1    2    0    0  0.00000000000E+00  0.00000000000E+00  0.37950601810E+03  0.24192182045E+04  0.23892659758E+04 0.  0.
        1    1    3    3  502    0 -0.86660558746E+03  0.10796701544E+03  0.10151320064E+04  0.13390874172E+04  0.50400001928E-02 0. -1.
       -1    1    3    3    0  502  0.86660558746E+03 -0.10796701544E+03 -0.63562598826E+03  0.10801307873E+04  0.50400001928E-02 0.  1.
</event>
<event>
 5   0  0.9083687E-06  0.2395997E+04  0.7818609E-02  0.8441004E-01
       -1   -1    0    0    0  501  0.00000000000E+00  0.00000000000E+00  0.13986546502E+04  0.13986546503E+04  0.50400001928E-02 0. -1.
        1   -1    0    0  501    0  0.00000000000E+00  0.00000000000E+00 -0.10261288065E+04  0.10261288065E+04  0.50400001928E-02 0.  1.
    10030    2    1    2    0    0  0.00000000000E+00  0.00000000000E+00  0.37252584378E+03  0.24247834567E+04  0.23959965166E+04 0.  0.
        2    1    3    3  502    0 -0.88037454166E+03 -0.14525994116E+03  0.99526719248E+03  0.13366811768E+04  0.25500000920E-02 0. -1.
       -2    1    3    3    0  502  0.88037454166E+03  0.14525994116E+03 -0.62274134871E+03  0.10881022799E+04  0.25500000920E-02 0.  1.
</event>
<event>
 5   0  0.2025353E-05  0.2403874E+04  0.7818609E-02  0.8438054E-01
       -2   -1    0    0    0  501  0.00000000000E+00  0.00000000000E+00  0.12789600863E+04  0.12789600863E+04  0.25500000920E-02 0.  1.
        2   -1    0    0  501    0  0.00000000000E+00  0.00000000000E+00 -0.11295528699E+04  0.11295528699E+04  0.25500000920E-02 0. -1.
    10030    2    1    2    0    0  0.00000000000E+00  0.00000000000E+00  0.14940721640E+03  0.24085129562E+04  0.24038744027E+04 0.  0.
        4    1    3    3  502    0 -0.64525624881E+03  0.79233762485E+03 -0.55936577759E+03  0.11649232698E+04  0.12699999809E+01 0. -1.
       -4    1    3    3    0  502  0.64525624881E+03 -0.79233762485E+03  0.70877299400E+03  0.12435896865E+04  0.12699999809E+01 0.  1.
</event>
<event>
 5   0  0.8528103E-06  0.2400492E+04  0.7818609E-02  0.8439319E-01
       -1   -1    0    0    0  501  0.00000000000E+00  0.00000000000E+00  0.68352722054E+03  0.68352722056E+03  0.50400001928E-02 0.  1.
        1   -1    0    0  501    0  0.00000000000E+00  0.00000000000E+00 -0.21075829616E+04  0.21075829616E+04  0.50400001928E-02 0. -1.
    10030    2    1    2    0    0  0.00000000000E+00  0.00000000000E+00 -0.14240557410E+04  0.27911101821E+04  0.24004918861E+04 0.  0.
        4    1    3    3  502    0 -0.49609721954E+03 -0.33218769110E+03  0.49861748070E+03  0.77787024516E+03  0.12699999809E+01 0.  1.
       -4    1    3    3    0  502  0.49609721954E+03  0.33218769110E+03 -0.19226732217E+04  0.20132399370E+04  0.12699999809E+01 0. -1.
</event>
<event>
 5   0  0.7233625E-06  0.2394398E+04  0.7818609E-02  0.8441604E-01
       -4   -1    0    0    0  501  0.00000000000E+00  0.00000000000E+00  0.13256282819E+04  0.13256288902E+04  0.12699999809E+01 0.  1.
        4   -1    0    0  501    0  0.00000000000E+00  0.00000000000E+00 -0.10812109607E+04  0.10812117066E+04  0.12699999809E+01 0. -1.
    10030    2    1    2    0    0  0.00000000000E+00  0.00000000000E+00  0.24441732119E+03  0.24068405968E+04  0.23943980103E+04 0.  0.
        1    1    3    3  502    0 -0.64404475426E+03 -0.62936540368E+03 -0.67080859543E+03  0.11228885201E+04  0.50400001928E-02 0. -1.
       -1    1    3    3    0  502  0.64404475426E+03  0.62936540368E+03  0.91522591661E+03  0.12839520767E+04  0.50400001928E-02 0.  1.
</event>
<event>
 5   0  0.8898848E-06  0.2357243E+04  0.7818609E-02  0.8455687E-01
        1   -1    0    0  501    0  0.00000000000E+00  0.00000000000E+00  0.15866193483E+04  0.15866193483E+04  0.50400001928E-02 0.  1.
       -1   -1    0    0    0  501  0.00000000000E+00  0.00000000000E+00 -0.87554004003E+03  0.87554004005E+03  0.50400001928E-02 0. -1.
    10030    2    1    2    0    0  0.00000000000E+00  0.00000000000E+00  0.71107930826E+03  0.24621593883E+04  0.23572431082E+04 0.  0.
        5    1    3    3  502    0  0.91781670352E+03 -0.97739195137E+02  0.11210908218E+04  0.14521732584E+04  0.46999998093E+01 0.  1.
       -5    1    3    3    0  502 -0.91781670352E+03  0.97739195137E+02 -0.41001151355E+03  0.10099861300E+04  0.46999998093E+01 0. -1.
</event>
<event>
 5   0  0.9083687E-06  0.2404990E+04  0.7818609E-02  0.8437638E-01
       -1   -1    0    0    0  501  0.00000000000E+00  0.00000000000E+00  0.19392021393E+04  0.19392021393E+04  0.50400001928E-02 0.  1.
        1   -1    0    0  501    0  0.00000000000E+00  0.00000000000E+00 -0.74566456001E+03  0.74566456003E+03  0.50400001928E-02 0. -1.
    10030    2    1    2    0    0  0.00000000000E+00  0.00000000000E+00  0.11935375793E+04  0.26848666994E+04  0.24049900707E+04 0.  0.
        2    1    3    3  502    0  0.23037322231E+03  0.16020202038E+03  0.19021418499E+04  0.19227272625E+04  0.25500000920E-02 0.  1.
       -2    1    3    3    0  502 -0.23037322231E+03 -0.16020202038E+03 -0.70860427059E+03  0.76213943684E+03  0.25500000920E-02 0. -1.
</event>
<event>
 5   0  0.9176817E-06  0.2392765E+04  0.7818609E-02  0.8442217E-01
       -1   -1    0    0    0  501  0.00000000000E+00  0.00000000000E+00  0.83095522651E+03  0.83095522652E+03  0.50400001928E-02 0. -1.
        1   -1    0    0  501    0  0.00000000000E+00  0.00000000000E+00 -0.17225134196E+04  0.17225134196E+04  0.50400001928E-02 0.  1.
    10030    2    1    2    0    0  0.00000000000E+00  0.00000000000E+00 -0.89155819305E+03  0.25534686461E+04  0.23927653698E+04 0.  0.
        3    1    3    3  502    0 -0.10267521104E+04 -0.56830342257E+03 -0.19746524838E+03  0.11900341217E+04  0.10100000352E+00 0. -1.
       -3    1    3    3    0  502  0.10267521104E+04  0.56830342257E+03 -0.69409294466E+03  0.13634345244E+04  0.10100000352E+00 0.  1.
</event>
<event>
 5   0  0.8898848E-06  0.2411732E+04  0.7818609E-02  0.8435124E-01
        1   -1    0    0  501    0  0.00000000000E+00  0.00000000000E+00  0.14066525492E+04  0.14066525492E+04  0.50400001928E-02 0. -1.
       -1   -1    0    0    0  501  0.00000000000E+00  0.00000000000E+00 -0.10337399886E+04  0.10337399886E+04  0.50400001928E-02 0.  1.
    10030    2    1    2    0    0  0.00000000000E+00  0.00000000000E+00  0.37291256055E+03  0.24403925378E+04  0.24117321495E+04 0.  0.
        5    1    3    3  502    0  0.97572790527E+03  0.58226004668E+03 -0.22209820731E+03  0.11577656977E+04  0.46999998093E+01 0.  1.
       -5    1    3    3    0  502 -0.97572790527E+03 -0.58226004668E+03  0.59501076786E+03  0.12826268401E+04  0.46999998093E+01 0. -1.
</event>
<event>
 5   0  0.8898848E-06  0.2474936E+04  0.7818609E-02  0.8411970E-01
       -1   -1    0    0    0  501  0.00000000000E+00  0.00000000000E+00  0.14891244392E+04  0.14891244392E+04  0.50400001928E-02 0. -1.
        1   -1    0    0  501    0  0.00000000000E+00  0.00000000000E+00 -0.10283405008E+04  0.10283405008E+04  0.50400001928E-02 0.  1.
    10030    2    1    2    0    0  0.00000000000E+00  0.00000000000E+00  0.46078393842E+03  0.25174649400E+04  0.24749359357E+04 0.  0.
        5    1    3    3  502    0 -0.44398428655E+03  0.62654971914E+03 -0.75665293530E+03  0.10780688066E+04  0.46999998093E+01 0.  1.
       -5    1    3    3    0  502  0.44398428655E+03 -0.62654971914E+03  0.12174368737E+04  0.14393961334E+04  0.46999998093E+01 0. -1.
</event>
<event>
 5   0  0.8898848E-06  0.2409542E+04  0.7818609E-02  0.8435940E-01
       -1   -1    0    0    0  501  0.00000000000E+00  0.00000000000E+00  0.49783357523E+03  0.49783357525E+03  0.50400001928E-02 0.  1.
        1   -1    0    0  501    0  0.00000000000E+00  0.00000000000E+00 -0.29155790886E+04  0.29155790886E+04  0.50400001928E-02 0. -1.
    10030    2    1    2    0    0  0.00000000000E+00  0.00000000000E+00 -0.24177455133E+04  0.34134126638E+04  0.24095419993E+04 0.  0.
        5    1    3    3  502    0 -0.24708286070E+02  0.23910155638E+03 -0.28812506925E+04  0.28912640310E+04  0.46999998093E+01 0. -1.
       -5    1    3    3    0  502  0.24708286070E+02 -0.23910155638E+03  0.46350517918E+03  0.52214863285E+03  0.46999998093E+01 0.  1.
</event>
<event>
 5   0  0.2025353E-05  0.2393928E+04  0.7818609E-02  0.8441780E-01
       -2   -1    0    0    0  501  0.00000000000E+00  0.00000000000E+00  0.90047024067E+03  0.90047024068E+03  0.25500000920E-02 0.  1.
        2   -1    0    0  501    0  0.00000000000E+00  0.00000000000E+00 -0.15910835583E+04  0.15910835583E+04  0.25500000920E-02 0. -1.
    10030    2    1    2    0    0  0.00000000000E+00  0.00000000000E+00 -0.69061331763E+03  0.24915537990E+04  0.23939284824E+04 0.  0.
        4    1    3    3  502    0  0.82256102354E+03 -0.72359929178E+03  0.15656019801E+03  0.11066685507E+04  0.12699999809E+01 0.  1.
       -4    1    3    3    0  502 -0.82256102354E+03  0.72359929178E+03 -0.84717351564E+03  0.13848852483E+04  0.12699999809E+01 0. -1.
</event>
<event>
 5   0  0.8528103E-06  0.2407590E+04  0.7818609E-02  0.8436667E-01
       -1   -1    0    0    0  501  0.00000000000E+00  0.00000000000E+00  0.97016383128E+03  0.97016383129E+03  0.50400001928E-02 0.  1.
        1   -1    0    0  501    0  0.00000000000E+00  0.00000000000E+00 -0.14936887543E+04  0.14936887543E+04  0.50400001928E-02 0. -1.
    10030    2    1    2    0    0  0.00000000000E+00  0.00000000000E+00 -0.52352492304E+03  0.24638525856E+04  0.24075903345E+04 0.  0.
        4    1    3    3  502    0  0.32236493488E+03 -0.27465041629E+03 -0.14149356100E+04  0.14769551096E+04  0.12699999809E+01 0. -1.
       -4    1    3    3    0  502 -0.32236493488E+03  0.27465041629E+03  0.89141068697E+03  0.98689747601E+03  0.12699999809E+01 0.  1.
</event>
<event>
 5   0  0.2122194E-05  0.2399316E+04  0.7818609E-02  0.8439760E-01
        2   -1    0    0  501    0  0.00000000000E+00  0.00000000000E+00  0.20219117113E+04  0.20219117113E+04  0.25500000920E-02 0.  1.
       -2   -1    0    0    0  501  0.00000000000E+00  0.00000000000E+00 -0.71179110005E+03  0.71179110006E+03  0.25500000920E-02 0. -1.
    10030    2    1    2    0    0  0.00000000000E+00  0.00000000000E+00  0.13101206113E+04  0.27337028114E+04  0.23993155367E+04 0.  0.
        3    1    3    3  502    0  0.34029974065E+03  0.40962993346E+02 -0.65481472642E+03  0.73909689246E+03  0.10100000352E+00 0. -1.
       -3    1    3    3    0  502 -0.34029974065E+03 -0.40962993346E+02  0.19649353377E+04  0.19946059189E+04  0.10100000352E+00 0.  1.
</event>
<event>
 5   0  0.2080257E-05  0.2425026E+04  0.7818609E-02  0.8430193E-01
       -2   -1    0    0    0  501  0.00000000000E+00  0.00000000000E+00  0.12508276760E+04  0.12508276760E+04  0.25500000920E-02 0. -1.
        2   -1    0    0  501    0  0.00000000000E+00  0.00000000000E+00 -0.11753716244E+04  0.11753716244E+04  0.25500000920E-02 0.  1.
    10030    2    1    2    0    0  0.00000000000E+00  0.00000000000E+00  0.75456051638E+02  0.24261993004E+04  0.24250256554E+04 0.  0.
        1    1    3    3  502    0 -0.53868547345E+03 -0.87750478819E+03  0.67834304980E+03  0.12330231084E+04  0.50400001928E-02 0. -1.
       -1    1    3    3    0  502  0.53868547345E+03  0.87750478819E+03 -0.60288699816E+03  0.11931761920E+04  0.50400001928E-02 0.  1.
</event>
<event>
 5   0  0.8528103E-06  0.2421032E+04  0.7818609E-02  0.8431671E-01
       -1   -1    0    0    0  501  0.00000000000E+00  0.00000000000E+00  0.65252718980E+03  0.65252718981E+03  0.50400001928E-02 0.  1.
        1   -1    0    0  501    0  0.00000000000E+00  0.00000000000E+00 -0.22456522358E+04  0.22456522358E+04  0.50400001928E-02 0. -1.
    10030    2    1    2    0    0  0.00000000000E+00  0.00000000000E+00 -0.15931250460E+04  0.28981794256E+04  0.24210321292E+04 0.  0.
        4    1    3    3  502    0  0.42448571411E+03 -0.72969495514E+03  0.24201046862E+03  0.87818763876E+03  0.12699999809E+01 0.  1.
       -4    1    3    3    0  502 -0.42448571411E+03  0.72969495514E+03 -0.18351355146E+04  0.20199917868E+04  0.12699999809E+01 0. -1.
</event>
<event>
 5   0  0.2080257E-05  0.2513780E+04  0.7818609E-02  0.8398093E-01
        2   -1    0    0  501    0  0.00000000000E+00  0.00000000000E+00  0.79338908642E+03  0.79338908643E+03  0.25500000920E-02 0.  1.
       -2   -1    0    0    0  501  0.00000000000E+00  0.00000000000E+00 -0.19911701581E+04  0.19911701581E+04  0.25500000920E-02 0. -1.
    10030    2    1    2    0    0  0.00000000000E+00  0.00000000000E+00 -0.11977810716E+04  0.27845592445E+04  0.25137801595E+04 0.  0.
        1    1    3    3  502    0 -0.54972255220E+03  0.91127648246E+03 -0.13396159126E+04  0.17109034179E+04  0.50400001928E-02 0. -1.
       -1    1    3    3    0  502  0.54972255220E+03 -0.91127648246E+03  0.14183484100E+03  0.10736558266E+04  0.50400001928E-02 0.  1.
</event>
<event>
 5   0  0.2080257E-05  0.2440897E+04  0.7818609E-02  0.8424349E-01
        2   -1    0    0  501    0  0.00000000000E+00  0.00000000000E+00  0.17329664766E+04  0.17329664766E+04  0.25500000920E-02 0.  1.
       -2   -1    0    0    0  501  0.00000000000E+00  0.00000000000E+00 -0.85950538907E+03  0.85950538907E+03  0.25500000920E-02 0. -1.
    10030    2    1    2    0    0  0.00000000000E+00  0.00000000000E+00  0.87346108755E+03  0.25924718657E+04  0.24408965777E+04 0.  0.
        1    1    3    3  502    0  0.10404177741E+04  0.34697442356E+03  0.10053585499E+04  0.14878192797E+04  0.50400001928E-02 0.  1.
       -1    1    3    3    0  502 -0.10404177741E+04 -0.34697442356E+03 -0.13189746232E+03  0.11046525860E+04  0.50400001928E-02 0. -1.
</event>
<event>
 5   0  0.9083687E-06  0.2399506E+04  0.7818609E-02  0.8439689E-01
       -1   -1    0    0    0  501  0.00000000000E+00  0.00000000000E+00  0.12233006158E+04  0.12233006158E+04  0.50400001928E-02 0. -1.
        1   -1    0    0  501    0  0.00000000000E+00  0.00000000000E+00 -0.11766587069E+04  0.11766587069E+04  0.50400001928E-02 0.  1.
    10030    2    1    2    0    0  0.00000000000E+00  0.00000000000E+00  0.46641908941E+02  0.23999593227E+04  0.23995060498E+04 0.  0.
        2    1    3    3  502    0  0.92328758944E+03  0.76588489637E+03  0.42499389272E+02  0.12003523838E+04  0.25500000920E-02 0.  1.
       -2    1    3    3    0  502 -0.92328758944E+03 -0.76588489637E+03  0.41425196686E+01  0.11996069389E+04  0.25500000920E-02 0. -1.
</event>
<event>
 5   0  0.2080257E-05  0.2404489E+04  0.7818609E-02  0.8437825E-01
        2   -1    0    0  501    0  0.00000000000E+00  0.00000000000E+00  0.22802179211E+04  0.22802179211E+04  0.25500000920E-02 0. -1.
       -2   -1    0    0    0  501  0.00000000000E+00  0.00000000000E+00 -0.63388320680E+03  0.63388320680E+03  0.25500000920E-02 0.  1.
    10030    2    1    2    0    0  0.00000000000E+00  0.00000000000E+00  0.16463347143E+04  0.29141011279E+04  0.24044890085E+04 0.  0.
        1    1    3    3  502    0 -0.75755547434E+03  0.73889750891E+03  0.15146458571E+04  0.18477044942E+04  0.50400001928E-02 0. -1.
       -1    1    3    3    0  502  0.75755547434E+03 -0.73889750891E+03  0.13168885726E+03  0.10663966338E+04  0.50400001928E-02 0.  1.
</event>
<event>
 5   0  0.8528103E-06  0.2476753E+04  0.7818609E-02  0.8411314E-01
       -1   -1    0    0    0  501  0.00000000000E+00  0.00000000000E+00  0.92232326487E+03  0.92232326488E+03  0.50400001928E-02 0. -1.
        1   -1    0    0  501    0  0.00000000000E+00  0.00000000000E+00 -0.16627321061E+04  0.16627321061E+04  0.50400001928E-02 0.  1.
    10030    2    1    2    0    0  0.00000000000E+00  0.00000000000E+00 -0.74040884126E+03  0.25850553710E+04  0.24767531203E+04 0.  0.
        4    1    3    3  502    0  0.31659299719E+03 -0.92062247293E+03 -0.11690467768E+04  0.15213312732E+04  0.12699999809E+01 0.  1.
       -4    1    3    3    0  502 -0.31659299719E+03  0.92062247293E+03  0.42863793558E+03  0.10637240978E+04  0.12699999809E+01 0. -1.
</event>
<event>
 5   0  0.9083687E-06  0.2404990E+04  0.7818609E-02  0.8437638E-01
        1   -1    0    0  501    0  0.00000000000E+00  0.00000000000E+00  0.19663047766E+04  0.19663047766E+04  0.50400001928E-02 0. -1.
       -1   -1    0    0    0  501  0.00000000000E+00  0.00000000000E+00 -0.73538655976E+03  0.73538655977E+03  0.50400001928E-02 0.  1.
    10030    2    1    2    0    0  0.00000000000E+00  0.00000000000E+00  0.12309182168E+04  0.27016913363E+04  0.24049899003E+04 0.  0.
        2    1    3    3  502    0  0.83829967036E+03 -0.12413058569E+02  0.15838356451E+04  0.17920479268E+04  0.25500000920E-02 0. -1.
       -2    1    3    3    0  502 -0.83829967036E+03  0.12413058569E+02 -0.35291742827E+03  0.90964340954E+03  0.25500000920E-02 0.  1.
</event>
<event>
 5   0  0.8528103E-06  0.2396307E+04  0.7818609E-02  0.8440887E-01
       -1   -1    0    0    0  501  0.00000000000E+00  0.00000000000E+00  0.71823233338E+03  0.71823233340E+03  0.50400001928E-02 0. -1.
        1   -1    0    0  501    0  0.00000000000E+00  0.00000000000E+00 -0.19987575014E+04  0.19987575014E+04  0.50400001928E-02 0.  1.
    10030    2    1    2    0    0  0.00000000000E+00  0.00000000000E+00 -0.12805251680E+04  0.27169898348E+04  0.23963073794E+04 0.  0.
        4    1    3    3  502    0  0.11011818669E+04  0.37695455550E+03 -0.31782099560E+03  0.12065272641E+04  0.12699999809E+01 0.  1.
       -4    1    3    3    0  502 -0.11011818669E+04 -0.37695455550E+03 -0.96270417240E+03  0.15104625707E+04  0.12699999809E+01 0. -1.
</event>
<event>
 5   0  0.2080257E-05  0.2400046E+04  0.7818609E-02  0.8439486E-01
        2   -1    0    0  501    0  0.00000000000E+00  0.00000000000E+00  0.13339743074E+04  0.13339743074E+04  0.25500000920E-02 0. -1.
       -2   -1    0    0    0  501  0.00000000000E+00  0.00000000000E+00 -0.10795227456E+04  0.10795227456E+04  0.25500000920E-02 0.  1.
    10030    2    1    2    0    0  0.00000000000E+00  0.00000000000E+00  0.25445156183E+03  0.24134970530E+04  0.24000463386E+04 0.  0.
        1    1    3    3  502    0  0.76264374652E+02  0.11941119762E+04  0.35412724544E+02  0.11970688066E+04  0.50400001928E-02 0. -1.
       -1    1    3    3    0  502 -0.76264374652E+02 -0.11941119762E+04  0.21903883729E+03  0.12164282465E+04  0.50400001928E-02 0.  1.
</event>
<event>
 5   0  0.9038897E-06  0.2399857E+04  0.7818609E-02  0.8439557E-01
       -1   -1    0    0    0  501  0.00000000000E+00  0.00000000000E+00  0.81617191630E+03  0.81617191632E+03  0.50400001928E-02 0.  1.
        1   -1    0    0  501    0  0.00000000000E+00  0.00000000000E+00 -0.17641238352E+04  0.17641238352E+04  0.50400001928E-02 0. -1.
    10030    2    1    2    0    0  0.00000000000E+00  0.00000000000E+00 -0.94795191894E+03  0.25802957516E+04  0.23998569384E+04 0.  0.
        1    1    3    3  502    0 -0.57432849395E+03 -0.52171274175E+03 -0.14581048033E+04  0.16516982234E+04  0.50400001928E-02 0. -1.
       -1    1    3    3    0  502  0.57432849395E+03  0.52171274175E+03  0.51015288434E+03  0.92859752815E+03  0.50400001928E-02 0.  1.
</event>
<event>
 5   0  0.8528103E-06  0.2135370E+04  0.7818609E-02  0.8545821E-01
       -1   -1    0    0    0  501  0.00000000000E+00  0.00000000000E+00  0.82348215899E+03  0.82348215900E+03  0.50400001928E-02 0. -1.
        1   -1    0    0  501    0  0.00000000000E+00  0.00000000000E+00 -0.13843064304E+04  0.13843064304E+04  0.50400001928E-02 0.  1.
    10030    2    1    2    0    0  0.00000000000E+00  0.00000000000E+00 -0.56082427140E+03  0.22077885894E+04  0.21353703642E+04 0.  0.
        4    1    3    3  502    0  0.12988306969E+03 -0.84056966346E+03  0.38686124604E+03  0.93439296204E+03  0.12699999809E+01 0. -1.
       -4    1    3    3    0  502 -0.12988306969E+03  0.84056966346E+03 -0.94768551744E+03  0.12733956274E+04  0.12699999809E+01 0.  1.
</event>
<event>
 5   0  0.2087882E-05  0.2378038E+04  0.7818609E-02  0.8447772E-01
       -2   -1    0    0    0  501  0.00000000000E+00  0.00000000000E+00  0.67565346706E+03  0.67565346707E+03  0.25500000920E-02 0.  1.
        2   -1    0    0  501    0  0.00000000000E+00  0.00000000000E+00 -0.20924420623E+04  0.20924420623E+04  0.25500000920E-02 0. -1.
    10030    2    1    2    0    0  0.00000000000E+00  0.00000000000E+00 -0.14167885952E+04  0.27680955293E+04  0.23780376229E+04 0.  0.
        2    1    3    3  502    0 -0.99075209289E+02 -0.61367269797E+03 -0.18882333330E+04  0.19879223318E+04  0.25500000920E-02 0. -1.
       -2    1    3    3    0  502  0.99075209289E+02  0.61367269797E+03  0.47144473782E+03  0.78017319753E+03  0.25500000920E-02 0.  1.
</event>
<event>
 5   0  0.2087882E-05  0.2399327E+04  0.7818609E-02  0.8439756E-01
       -2   -1    0    0    0  501  0.00000000000E+00  0.00000000000E+00  0.80822965639E+03  0.80822965639E+03  0.25500000920E-02 0.  1.
        2   -1    0    0  501    0  0.00000000000E+00  0.00000000000E+00 -0.17806724671E+04  0.17806724671E+04  0.25500000920E-02 0. -1.
    10030    2    1    2    0    0  0.00000000000E+00  0.00000000000E+00 -0.97244281071E+03  0.25889021235E+04  0.23993268191E+04 0.  0.
        2    1    3    3  502    0  0.96277617121E+03  0.65857511304E+03 -0.18384161470E+03  0.11808712354E+04  0.25500000920E-02 0.  1.
       -2    1    3    3    0  502 -0.96277617121E+03 -0.65857511304E+03 -0.78860119601E+03  0.14080308881E+04  0.25500000920E-02 0. -1.
</event>
<event>
 5   0  0.2048028E-05  0.2385050E+04  0.7818609E-02  0.8445122E-01
        2   -1    0    0  501    0  0.00000000000E+00  0.00000000000E+00  0.14412449365E+04  0.14412449365E+04  0.25500000920E-02 0. -1.
       -2   -1    0    0    0  501  0.00000000000E+00  0.00000000000E+00 -0.98672716380E+03  0.98672716380E+03  0.25500000920E-02 0.  1.
    10030    2    1    2    0    0  0.00000000000E+00  0.00000000000E+00  0.45451777272E+03  0.24279721003E+04  0.23850497090E+04 0.  0.
        5    1    3    3  502    0  0.89571370429E+03  0.54761728220E+03 -0.34852201259E+03  0.11061995349E+04  0.46999998093E+01 0.  1.
       -5    1    3    3    0  502 -0.89571370429E+03 -0.54761728220E+03  0.80303978530E+03  0.13217725654E+04  0.46999998093E+01 0. -1.
</event>
<event>
 5   0  0.2080257E-05  0.2414161E+04  0.7818609E-02  0.8434221E-01
       -2   -1    0    0    0  501  0.00000000000E+00  0.00000000000E+00  0.15540380693E+04  0.15540380693E+04  0.25500000920E-02 0.  1.
        2   -1    0    0  501    0  0.00000000000E+00  0.00000000000E+00 -0.93758498720E+03  0.93758498720E+03  0.25500000920E-02 0. -1.
    10030    2    1    2    0    0  0.00000000000E+00  0.00000000000E+00  0.61645308211E+03  0.24916230565E+04  0.24141605277E+04 0.  0.
        1    1    3    3  502    0  0.29601249338E+03  0.11607884926E+04  0.46127300698E+03  0.12836767926E+04  0.50400001928E-02 0.  1.
       -1    1    3    3    0  502 -0.29601249338E+03 -0.11607884926E+04  0.15518007513E+03  0.12079462639E+04  0.50400001928E-02 0. -1.
</event>
<event>
 5   0  0.9176817E-06  0.2387384E+04  0.7818609E-02  0.8444242E-01
       -1   -1    0    0    0  501  0.00000000000E+00  0.00000000000E+00  0.17653012397E+04  0.17653012397E+04  0.50400001928E-02 0. -1.
        1   -1    0    0  501    0  0.00000000000E+00  0.00000000000E+00 -0.80717153973E+03  0.80717153975E+03  0.50400001928E-02 0.  1.
    10030    2    1    2    0    0  0.00000000000E+00  0.00000000000E+00  0.95812969992E+03  0.25724727794E+04  0.23873842755E+04 0.  0.
        3    1    3    3  502    0 -0.97077941849E+03 -0.69403362697E+03  0.50964756268E+03  0.12976270662E+04  0.10100000352E+00 0.  1.
       -3    1    3    3    0  502  0.97077941849E+03  0.69403362697E+03  0.44848213724E+03  0.12748457132E+04  0.10100000352E+00 0. -1.
</event>
<event>
 5   0  0.2025353E-05  0.2347428E+04  0.7818609E-02  0.8459452E-01
        2   -1    0    0  501    0  0.00000000000E+00  0.00000000000E+00  0.88749624961E+03  0.88749624962E+03  0.25500000920E-02 0.  1.
       -2   -1    0    0    0  501  0.00000000000E+00  0.00000000000E+00 -0.15522375924E+04  0.15522375924E+04  0.25500000920E-02 0. -1.
    10030    2    1    2    0    0  0.00000000000E+00  0.00000000000E+00 -0.66474134282E+03  0.24397338421E+04  0.23474284158E+04 0.  0.
        4    1    3    3  502    0 -0.45007825132E+03 -0.10511562459E+04 -0.60755270629E+03  0.12948443109E+04  0.12699999809E+01 0. -1.
       -4    1    3    3    0  502  0.45007825132E+03  0.10511562459E+04 -0.57188636530E+02  0.11448895312E+04  0.12699999809E+01 0.  1.
</event>
<event>
 5   0  0.2048028E-05  0.2391099E+04  0.7818609E-02  0.8442843E-01
       -2   -1    0    0    0  501  0.00000000000E+00  0.00000000000E+00  0.79947138167E+03  0.79947138168E+03  0.25500000920E-02 0. -1.
        2   -1    0    0  501    0  0.00000000000E+00  0.00000000000E+00 -0.17878546010E+04  0.17878546010E+04  0.25500000920E-02 0.  1.
    10030    2    1    2    0    0  0.00000000000E+00  0.00000000000E+00 -0.98838321932E+03  0.25873259827E+04  0.23910989842E+04 0.  0.
        5    1    3    3  502    0  0.32194492745E+03 -0.68877193495E+03 -0.14925466391E+04  0.16750441411E+04  0.46999998093E+01 0.  1.
       -5    1    3    3    0  502 -0.32194492745E+03  0.68877193495E+03  0.50416341976E+03  0.91228184160E+03  0.46999998093E+01 0. -1.
</event>
<event>
 5   0  0.2080257E-05  0.2396662E+04  0.7818609E-02  0.8440754E-01
       -2   -1    0    0    0  501  0.00000000000E+00  0.00000000000E+00  0.17432017989E+04  0.17432017989E+04  0.25500000920E-02 0. -1.
        2   -1    0    0  501    0  0.00000000000E+00  0.00000000000E+00 -0.82376995192E+03  0.82376995192E+03  0.25500000920E-02 0.  1.
    10030    2    1    2    0    0  0.00000000000E+00  0.00000000000E+00  0.91943184696E+03  0.25669717508E+04  0.23966620638E+04 0.  0.
        1    1    3    3  502    0  0.36642266798E+03 -0.71933104860E+03 -0.48882021451E+03  0.94374145359E+03  0.50400001928E-02 0.  1.
       -1    1    3    3    0  502 -0.36642266798E+03  0.71933104860E+03  0.14082520615E+04  0.16232302972E+04  0.50400001928E-02 0. -1.
</event>
<event>
 5   0  0.9038897E-06  0.2395248E+04  0.7818609E-02  0.8441285E-01
       -1   -1    0    0    0  501  0.00000000000E+00  0.00000000000E+00  0.16005890286E+04  0.16005890287E+04  0.50400001928E-02 0. -1.
        1   -1    0    0  501    0  0.00000000000E+00  0.00000000000E+00 -0.89610963420E+03  0.89610963421E+03  0.50400001928E-02 0.  1.
    10030    2    1    2    0    0  0.00000000000E+00  0.00000000000E+00  0.70447939445E+03  0.24966986629E+04  0.23952480030E+04 0.  0.
        1    1    3    3  502    0 -0.30890458925E+03 -0.11443222116E+04  0.17348910090E+03  0.11979122828E+04  0.50400001928E-02 0.  1.
       -1    1    3    3    0  502  0.30890458925E+03  0.11443222116E+04  0.53099029355E+03  0.12987863801E+04  0.50400001928E-02 0. -1.
</event>
<event>
 5   0  0.7233625E-06  0.2378040E+04  0.7818609E-02  0.8447771E-01
        4   -1    0    0  501    0  0.00000000000E+00  0.00000000000E+00  0.13348671749E+04  0.13348677790E+04  0.12699999809E+01 0. -1.
       -4   -1    0    0    0  501  0.00000000000E+00  0.00000000000E+00 -0.10591070514E+04  0.10591078128E+04  0.12699999809E+01 0.  1.
    10030    2    1    2    0    0  0.00000000000E+00  0.00000000000E+00  0.27576012351E+03  0.23939755919E+04  0.23780402622E+04 0.  0.
        3    1    3    3  502    0  0.17322616499E+03 -0.11735494804E+04  0.21931199996E+03  0.12063678754E+04  0.10100000352E+00 0.  1.
       -3    1    3    3    0  502 -0.17322616499E+03  0.11735494804E+04  0.56448123555E+02  0.11876077164E+04  0.10100000352E+00 0. -1.
</event>
<event>
 5   0  0.9083687E-06  0.2418284E+04  0.7818609E-02  0.8432690E-01
       -1   -1    0    0    0  501  0.00000000000E+00  0.00000000000E+00  0.69238897780E+03  0.69238897782E+03  0.50400001928E-02 0.  1.
        1   -1    0    0  501    0  0.00000000000E+00  0.00000000000E+00 -0.21115643312E+04  0.21115643312E+04  0.50400001928E-02 0. -1.
    10030    2    1    2    0    0  0.00000000000E+00  0.00000000000E+00 -0.14191753534E+04  0.28039533091E+04  0.24182835805E+04 0.  0.
        2    1    3    3  502    0  0.17928189532E+03 -0.11197602193E+04 -0.22313205238E+03  0.11557650538E+04  0.25500000920E-02 0.  1.
       -2    1    3    3    0  502 -0.17928189532E+03  0.11197602193E+04 -0.11960433010E+04  0.16481882553E+04  0.25500000920E-02 0. -1.
</event>
<event>
 5   0  0.2087882E-05  0.2397008E+04  0.7818609E-02  0.8440624E-01
        2   -1    0    0  501    0  0.00000000000E+00  0.00000000000E+00  0.15780482110E+04  0.15780482110E+04  0.25500000920E-02 0.  1.
       -2   -1    0    0    0  501  0.00000000000E+00  0.00000000000E+00 -0.91024609011E+03  0.91024609012E+03  0.25500000920E-02 0. -1.
    10030    2    1    2    0    0  0.00000000000E+00  0.00000000000E+00  0.66780212085E+03  0.24882943011E+04  0.23970083137E+04 0.  0.
        2    1    3    3  502    0 -0.27990447328E+03  0.10581043016E+04  0.84084400671E+03  0.13801992142E+04  0.25500000920E-02 0.  1.
       -2    1    3    3    0  502  0.27990447328E+03 -0.10581043016E+04 -0.17304188586E+03  0.11080950869E+04  0.25500000920E-02 0. -1.
</event>
<event>
 5   0  0.2025353E-05  0.2396818E+04  0.7818609E-02  0.8440696E-01
        2   -1    0    0  501    0  0.00000000000E+00  0.00000000000E+00  0.12167980128E+04  0.12167980128E+04  0.25500000920E-02 0. -1.
       -2   -1    0    0    0  501  0.00000000000E+00  0.00000000000E+00 -0.11802976641E+04  0.11802976641E+04  0.25500000920E-02 0.  1.
    10030    2    1    2    0    0  0.00000000000E+00  0.00000000000E+00  0.36500348775E+02  0.23970956769E+04  0.23968177671E+04 0.  0.
        4    1    3    3  502    0  0.68942010121E+03  0.65804674735E+03  0.74487184908E+03  0.12096120378E+04  0.12699999809E+01 0. -1.
       -4    1    3    3    0  502 -0.68942010121E+03 -0.65804674735E+03 -0.70837150031E+03  0.11874836390E+04  0.12699999809E+01 0.  1.
</event>
<event>
 5   0  0.2048028E-05  0.2395997E+04  0.7818609E-02  0.8441004E-01
        2   -1    0    0  501    0  0.00000000000E+00  0.00000000000E+00  0.14008158878E+04  0.14008158878E+04  0.25500000920E-02 0. -1.
       -2   -1    0    0    0  501  0.00000000000E+00  0.00000000000E+00 -0.10245463505E+04  0.10245463505E+04  0.25500000920E-02 0.  1.
    10030    2    1    2    0    0  0.00000000000E+00  0.00000000000E+00  0.37626953724E+03  0.24253622383E+04  0.23959973336E+04 0.  0.
        5    1    3    3  502    0 -0.71625290201E+02  0.89004248309E+03  0.99659257875E+03  0.13381048770E+04  0.46999998093E+01 0. -1.
       -5    1    3    3    0  502  0.71625290201E+02 -0.89004248309E+03 -0.62032304151E+03  0.10872573613E+04  0.46999998093E+01 0.  1.
</event>
<event>
 5   0  0.8528103E-06  0.2441907E+04  0.7818609E-02  0.8423979E-01
       -1   -1    0    0    0  501  0.00000000000E+00  0.00000000000E+00  0.22654167962E+04  0.22654167962E+04  0.50400001928E-02 0. -1.
        1   -1    0    0  501    0  0.00000000000E+00  0.00000000000E+00 -0.65803646053E+03  0.65803646055E+03  0.50400001928E-02 0.  1.
    10030    2    1    2    0    0  0.00000000000E+00  0.00000000000E+00  0.16073803356E+04  0.29234532567E+04  0.24419065094E+04 0.  0.
        4    1    3    3  502    0 -0.66534535858E+03  0.14006674643E+03  0.20177855899E+04  0.21292635909E+04  0.12699999809E+01 0. -1.
       -4    1    3    3    0  502  0.66534535858E+03 -0.14006674643E+03 -0.41040525431E+03  0.79418966583E+03  0.12699999809E+01 0.  1.
</event>
<event>
 5   0  0.8528103E-06  0.2424198E+04  0.7818609E-02  0.8430499E-01
        1   -1    0    0  501    0  0.00000000000E+00  0.00000000000E+00  0.10943996714E+04  0.10943996714E+04  0.50400001928E-02 0. -1.
       -1   -1    0    0    0  501  0.00000000000E+00  0.00000000000E+00 -0.13424562163E+04  0.13424562163E+04  0.50400001928E-02 0.  1.
    10030    2    1    2    0    0  0.00000000000E+00  0.00000000000E+00 -0.24805654489E+03  0.24368558878E+04  0.24241977164E+04 0.  0.
        4    1    3    3  502    0  0.37804511000E+03 -0.77643040715E+03 -0.97901030524E+03  0.13054597171E+04  0.12699999809E+01 0.  1.
       -4    1    3    3    0  502 -0.37804511000E+03  0.77643040715E+03  0.73095376035E+03  0.11313961707E+04  0.12699999809E+01 0. -1.
</event>
<event>
 5   0  0.2087882E-05  0.2398943E+04  0.7818609E-02  0.8439899E-01
        2   -1    0    0  501    0  0.00000000000E+00  0.00000000000E+00  0.12845621858E+04  0.12845621858E+04  0.25500000920E-02 0. -1.
       -2   -1    0    0    0  501  0.00000000000E+00  0.00000000000E+00 -0.11200172600E+04  0.11200172600E+04  0.25500000920E-02 0.  1.
    10030    2    1    2    0    0  0.00000000000E+00  0.00000000000E+00  0.16454492575E+03  0.24045794458E+04  0.23989429503E+04 0.  0.
        2    1    3    3  502    0  0.40140121144E+03 -0.80771994326E+03  0.87482449754E+03  0.12565239117E+04  0.25500000920E-02 0. -1.
       -2    1    3    3    0  502 -0.40140121144E+03  0.80771994326E+03 -0.71027957179E+03  0.11480555341E+04  0.25500000920E-02 0.  1.
</event>
<event>
 5   0  0.2080257E-05  0.2442475E+04  0.7818609E-02  0.8423771E-01
       -2   -1    0    0    0  501  0.00000000000E+00  0.00000000000E+00  0.86808557757E+03  0.86808557758E+03  0.25500000920E-02 0. -1.
        2   -1    0    0  501    0  0.00000000000E+00  0.00000000000E+00 -0.17180575504E+04  0.17180575504E+04  0.25500000920E-02 0.  1.
    10030    2    1    2    0    0  0.00000000000E+00  0.00000000000E+00 -0.84997197287E+03  0.25861431280E+04  0.24424749587E+04 0.  0.
        1    1    3    3  502    0 -0.88481913349E+02  0.10864956724E+04  0.15796102253E+03  0.11014779071E+04  0.50400001928E-02 0. -1.
       -1    1    3    3    0  502  0.88481913349E+02 -0.10864956724E+04 -0.10079329954E+04  0.14846652210E+04  0.50400001928E-02 0.  1.
</event>
<event>
 5   0  0.2025353E-05  0.2445406E+04  0.7818609E-02  0.8422697E-01
        2   -1    0    0  501    0  0.00000000000E+00  0.00000000000E+00  0.13693693314E+04  0.13693693314E+04  0.25500000920E-02 0.  1.
       -2   -1    0    0    0  501  0.00000000000E+00  0.00000000000E+00 -0.10917453465E+04  0.10917453465E+04  0.25500000920E-02 0. -1.
    10030    2    1    2    0    0  0.00000000000E+00  0.00000000000E+00  0.27762398498E+03  0.24611146779E+04  0.24454059746E+04 0.  0.
        4    1    3    3  502    0 -0.73812362189E+03 -0.75622911575E+02  0.11168858976E+04  0.13408881486E+04  0.12699999809E+01 0.  1.
       -4    1    3    3    0  502  0.73812362189E+03  0.75622911575E+02 -0.83926191266E+03  0.11202265293E+04  0.12699999809E+01 0. -1.
</event>
<event>
 5   0  0.9083687E-06  0.2417051E+04  0.7818609E-02  0.8433147E-01
        1   -1    0    0  501    0  0.00000000000E+00  0.00000000000E+00  0.70883466937E+03  0.70883466939E+03  0.50400001928E-02 0.  1.
       -1   -1    0    0    0  501  0.00000000000E+00  0.00000000000E+00 -0.20604723492E+04  0.20604723492E+04  0.50400001928E-02 0. -1.
    10030    2    1    2    0    0  0.00000000000E+00  0.00000000000E+00 -0.13516376798E+04  0.27693070186E+04  0.24170512915E+04 0.  0.
        2    1    3    3  502    0  0.72137390855E+03  0.25055903380E+03  0.39737369380E+03  0.86085190242E+03  0.25500000920E-02 0.  1.
       -2    1    3    3    0  502 -0.72137390855E+03 -0.25055903380E+03 -0.17490113736E+04  0.19084551162E+04  0.25500000920E-02 0. -1.
</event>
<event>
 5   0  0.2048028E-05  0.2404033E+04  0.7818609E-02  0.8437995E-01
        2   -1    0    0  501    0  0.00000000000E+00  0.00000000000E+00  0.18876603271E+04  0.18876603271E+04  0.25500000920E-02 0. -1.
       -2   -1    0    0    0  501  0.00000000000E+00  0.00000000000E+00 -0.76541514877E+03  0.76541514878E+03  0.25500000920E-02 0.  1.
    10030    2    1    2    0    0  0.00000000000E+00  0.00000000000E+00  0.11222451783E+04  0.26530754759E+04  0.24040331196E+04 0.  0.
        5    1    3    3  502    0  0.10091996807E+04  0.51122255150E+03  0.11285539885E+03  0.11369216876E+04  0.46999998093E+01 0.  1.
       -5    1    3    3    0  502 -0.10091996807E+04 -0.51122255150E+03  0.10093897795E+04  0.15161537882E+04  0.46999998093E+01 0. -1.
</event>
<event>
 5   0  0.8528103E-06  0.2385190E+04  0.7818609E-02  0.8445069E-01
       -1   -1    0    0    0  501  0.00000000000E+00  0.00000000000E+00  0.15089364572E+04  0.15089364572E+04  0.50400001928E-02 0. -1.
        1   -1    0    0  501    0  0.00000000000E+00  0.00000000000E+00 -0.94257326224E+03  0.94257326225E+03  0.50400001928E-02 0.  1.
    10030    2    1    2    0    0  0.00000000000E+00  0.00000000000E+00  0.56636319494E+03  0.24515097194E+04  0.23851902725E+04 0.  0.
        4    1    3    3  502    0  0.29562152146E+03  0.11807300495E+02 -0.90425536308E+03  0.95142570433E+03  0.12699999809E+01 0.  1.
       -4    1    3    3    0  502 -0.29562152146E+03 -0.11807300495E+02  0.14706185580E+04  0.15000840151E+04  0.12699999809E+01 0. -1.
</event>
<event>
 5   0  0.9038897E-06  0.2406344E+04  0.7818609E-02  0.8437132E-01
       -1   -1    0    0    0  501  0.00000000000E+00  0.00000000000E+00  0.15105661560E+04  0.15105661560E+04  0.50400001928E-02 0.  1.
        1   -1    0    0  501    0  0.00000000000E+00  0.00000000000E+00 -0.95833151435E+03  0.95833151436E+03  0.50400001928E-02 0. -1.
    10030    2    1    2    0    0  0.00000000000E+00  0.00000000000E+00  0.55223464166E+03  0.24688976704E+04  0.24063442412E+04 0.  0.
        1    1    3    3  502    0  0.81422727041E+03 -0.88423924431E+03  0.22203985146E+03  0.12223529706E+04  0.50400001928E-02 0.  1.
       -1    1    3    3    0  502 -0.81422727041E+03  0.88423924431E+03  0.33019479020E+03  0.12465446998E+04  0.50400001928E-02 0. -1.
</event>
<event>
 5   0  0.9038897E-06  0.2383808E+04  0.7818609E-02  0.8445591E-01
       -1   -1    0    0    0  501  0.00000000000E+00  0.00000000000E+00  0.10777689002E+04  0.10777689002E+04  0.50400001928E-02 0.  1.
        1   -1    0    0  501    0  0.00000000000E+00  0.00000000000E+00 -0.13181258246E+04  0.13181258246E+04  0.50400001928E-02 0. -1.
    10030    2    1    2    0    0  0.00000000000E+00  0.00000000000E+00 -0.24035692439E+03  0.23958947248E+04  0.23838078952E+04 0.  0.
        1    1    3    3  502    0 -0.73342418116E+03  0.89551958822E+03  0.16546080536E+03  0.11692919398E+04  0.50400001928E-02 0.  1.
       -1    1    3    3    0  502  0.73342418116E+03 -0.89551958822E+03 -0.40581772975E+03  0.12266027850E+04  0.50400001928E-02 0. -1.
</event>
<event>
 5   0  0.9083687E-06  0.2404062E+04  0.7818609E-02  0.8437984E-01
       -1   -1    0    0    0  501  0.00000000000E+00  0.00000000000E+00  0.17002567874E+04  0.17002567874E+04  0.50400001928E-02 0. -1.
        1   -1    0    0  501    0  0.00000000000E+00  0.00000000000E+00 -0.84980011134E+03  0.84980011136E+03  0.50400001928E-02 0.  1.
    10030    2    1    2    0    0  0.00000000000E+00  0.00000000000E+00  0.85045667605E+03  0.25500568988E+04  0.24040619021E+04 0.  0.
        2    1    3    3  502    0 -0.11069977524E+04  0.26935763957E+03  0.83175291513E+03  0.14106064205E+04  0.25500000920E-02 0. -1.
       -2    1    3    3    0  502  0.11069977524E+04 -0.26935763957E+03  0.18703760917E+02  0.11394504783E+04  0.25500000920E-02 0.  1.
</event>
<event>
 5   0  0.9038897E-06  0.2397109E+04  0.7818609E-02  0.8440587E-01
       -1   -1    0    0    0  501  0.00000000000E+00  0.00000000000E+00  0.13302902118E+04  0.13302902118E+04  0.50400001928E-02 0. -1.
        1   -1    0    0  501    0  0.00000000000E+00  0.00000000000E+00 -0.10798640705E+04  0.10798640705E+04  0.50400001928E-02 0.  1.
    10030    2    1    2    0    0  0.00000000000E+00  0.00000000000E+00  0.25042614126E+03  0.24101542823E+04  0.23971087610E+04 0.  0.
        1    1    3    3  502    0 -0.61111629835E+03  0.77493990877E+03  0.80901548725E+03  0.12761273647E+04  0.50400001928E-02 0. -1.
       -1    1    3    3    0  502  0.61111629835E+03 -0.77493990877E+03 -0.55858934599E+03  0.11340269176E+04  0.50400001928E-02 0.  1.
</event>
<event>
 5   0  0.2080257E-05  0.2400650E+04  0.7818609E-02  0.8439260E-01
       -2   -1    0    0    0  501  0.00000000000E+00  0.00000000000E+00  0.85199622603E+03  0.85199622603E+03  0.25500000920E-02 0.  1.
        2   -1    0    0  501    0  0.00000000000E+00  0.00000000000E+00 -0.16910643930E+04  0.16910643930E+04  0.25500000920E-02 0. -1.
    10030    2    1    2    0    0  0.00000000000E+00  0.00000000000E+00 -0.83906816697E+03  0.25430606190E+04  0.24006503126E+04 0.  0.
        1    1    3    3  502    0 -0.15383814577E+03  0.34040289327E+03 -0.16279224643E+04  0.16702310782E+04  0.50400001928E-02 0. -1.
       -1    1    3    3    0  502  0.15383814577E+03 -0.34040289327E+03  0.78885429734E+03  0.87282954080E+03  0.50400001928E-02 0.  1.
</event>
<event>
 5   0  0.9176817E-06  0.2364423E+04  0.7818609E-02  0.8452944E-01
       -1   -1    0    0    0  501  0.00000000000E+00  0.00000000000E+00  0.27235864352E+04  0.27235864352E+04  0.50400001928E-02 0.  1.
        1   -1    0    0  501    0  0.00000000000E+00  0.00000000000E+00 -0.51315586256E+03  0.51315586259E+03  0.50400001928E-02 0. -1.
    10030    2    1    2    0    0  0.00000000000E+00  0.00000000000E+00  0.22104305727E+04  0.32367422978E+04  0.23644232671E+04 0.  0.
        3    1    3    3  502    0  0.92697833926E+03  0.34752435052E+02  0.10193633881E+03  0.93321358786E+03  0.10100000352E+00 0. -1.
       -3    1    3    3    0  502 -0.92697833926E+03 -0.34752435052E+02  0.21084942338E+04  0.23035287099E+04  0.10100000352E+00 0.  1.
</event>
<event>
 5   0  0.2025353E-05  0.2504460E+04  0.7818609E-02  0.8401399E-01
       -2   -1    0    0    0  501  0.00000000000E+00  0.00000000000E+00  0.94174292661E+03  0.94174292662E+03  0.25500000920E-02 0. -1.
        2   -1    0    0  501    0  0.00000000000E+00  0.00000000000E+00 -0.16650822913E+04  0.16650822913E+04  0.25500000920E-02 0.  1.
    10030    2    1    2    0    0  0.00000000000E+00  0.00000000000E+00 -0.72333936471E+03  0.26068252179E+04  0.25044595985E+04 0.  0.
        4    1    3    3  502    0 -0.76916838984E+03 -0.98403281299E+03 -0.26777582108E+03  0.12773590303E+04  0.12699999809E+01 0.  1.
       -4    1    3    3    0  502  0.76916838984E+03  0.98403281299E+03 -0.45556354363E+03  0.13294661877E+04  0.12699999809E+01 0. -1.
</event>
<event>
 5   0  0.2122194E-05  0.2219889E+04  0.7818609E-02  0.8510195E-01
       -2   -1    0    0    0  501  0.00000000000E+00  0.00000000000E+00  0.63373776207E+03  0.63373776207E+03  0.25500000920E-02 0. -1.
        2   -1    0    0  501    0  0.00000000000E+00  0.00000000000E+00 -0.19439857599E+04  0.19439857599E+04  0.25500000920E-02 0.  1.
    10030    2    1    2    0    0  0.00000000000E+00  0.00000000000E+00 -0.13102479978E+04  0.25777235219E+04  0.22198893531E+04 0.  0.
        3    1    3    3  502    0 -0.35102880858E+03 -0.50285419960E+03  0.41914958535E+03  0.74281219403E+03  0.10100000352E+00 0. -1.
       -3    1    3    3    0  502  0.35102880858E+03  0.50285419960E+03 -0.17293975831E+04  0.18349113279E+04  0.10100000352E+00 0.  1.
</event>
<event>
 5   0  0.2087882E-05  0.2393516E+04  0.7818609E-02  0.8441935E-01
       -2   -1    0    0    0  501  0.00000000000E+00  0.00000000000E+00  0.62330792160E+03  0.62330792160E+03  0.25500000920E-02 0. -1.
        2   -1    0    0  501    0  0.00000000000E+00  0.00000000000E+00 -0.22977880046E+04  0.22977880046E+04  0.25500000920E-02 0.  1.
    10030    2    1    2    0    0  0.00000000000E+00  0.00000000000E+00 -0.16744800830E+04  0.29210959262E+04  0.23935157951E+04 0.  0.
        2    1    3    3  502    0  0.11781261963E+04 -0.49281370110E+02 -0.10868137442E+04  0.16036128281E+04  0.25500000920E-02 0. -1.
       -2    1    3    3    0  502 -0.11781261963E+04  0.49281370110E+02 -0.58766633873E+03  0.13174830980E+04  0.25500000920E-02 0.  1.
</event>
<event>
 5   0  0.8898848E-06  0.2412071E+04  0.7818609E-02  0.8434998E-01
        1   -1    0    0  501    0  0.00000000000E+00  0.00000000000E+00  0.24071703600E+04  0.24071703600E+04  0.50400001928E-02 0. -1.
       -1   -1    0    0    0  501  0.00000000000E+00  0.00000000000E+00 -0.60424548447E+03  0.60424548449E+03  0.50400001928E-02 0.  1.
    10030    2    1    2    0    0  0.00000000000E+00  0.00000000000E+00  0.18029248755E+04  0.30114158445E+04  0.24120711602E+04 0.  0.
        5    1    3    3  502    0 -0.44896098317E+03 -0.10861703896E+04  0.12391695217E+04  0.17078920555E+04  0.46999998093E+01 0. -1.
       -5    1    3    3    0  502  0.44896098317E+03  0.10861703896E+04  0.56375535384E+03  0.13035237890E+04  0.46999998093E+01 0.  1.
</event>
<event>
 5   0  0.9038897E-06  0.2416205E+04  0.7818609E-02  0.8433462E-01
       -1   -1    0    0    0  501  0.00000000000E+00  0.00000000000E+00  0.98846535060E+03  0.98846535061E+03  0.50400001928E-02 0.  1.
        1   -1    0    0  501    0  0.00000000000E+00  0.00000000000E+00 -0.14765426317E+04  0.14765426317E+04  0.50400001928E-02 0. -1.
    10030    2    1    2    0    0  0.00000000000E+00  0.00000000000E+00 -0.48807728106E+03  0.24650079823E+04  0.24162046520E+04 0.  0.
        1    1    3    3  502    0 -0.10835724317E+04  0.22635617086E+02 -0.78855094791E+03  0.13403186872E+04  0.50400001928E-02 0. -1.
       -1    1    3    3    0  502  0.10835724317E+04 -0.22635617086E+02  0.30047366685E+03  0.11246892950E+04  0.50400001928E-02 0.  1.
</event>
<event>
 5   0  0.2025353E-05  0.2387619E+04  0.7818609E-02  0.8444153E-01
        2   -1    0    0  501    0  0.00000000000E+00  0.00000000000E+00  0.19929869594E+04  0.19929869594E+04  0.25500000920E-02 0. -1.
       -2   -1    0    0    0  501  0.00000000000E+00  0.00000000000E+00 -0.71509790501E+03  0.71509790501E+03  0.25500000920E-02 0.  1.
    10030    2    1    2    0    0  0.00000000000E+00  0.00000000000E+00  0.12778890544E+04  0.27080848644E+04  0.23876187295E+04 0.  0.
        4    1    3    3  502    0  0.90043220076E+03  0.25500390879E+03  0.14796257776E+04  0.17507424700E+04  0.12699999809E+01 0.  1.
       -4    1    3    3    0  502 -0.90043220076E+03 -0.25500390879E+03 -0.20173672324E+03  0.95734239438E+03  0.12699999809E+01 0. -1.
</event>
<event>
 5   0  0.2025353E-05  0.2404723E+04  0.7818609E-02  0.8437737E-01
       -2   -1    0    0    0  501  0.00000000000E+00  0.00000000000E+00  0.84323608390E+03  0.84323608391E+03  0.25500000920E-02 0. -1.
        2   -1    0    0  501    0  0.00000000000E+00  0.00000000000E+00 -0.17144346599E+04  0.17144346599E+04  0.25500000920E-02 0.  1.
    10030    2    1    2    0    0  0.00000000000E+00  0.00000000000E+00 -0.87119857600E+03  0.25576707438E+04  0.24047229934E+04 0.  0.
        4    1    3    3  502    0 -0.13931895132E+03 -0.11833586085E+04 -0.26434866004E+03  0.12205036638E+04  0.12699999809E+01 0. -1.
       -4    1    3    3    0  502  0.13931895132E+03  0.11833586085E+04 -0.60684991596E+03  0.13371670800E+04  0.12699999809E+01 0.  1.
</event>
<event>
 5   0  0.2048028E-05  0.2400677E+04  0.7818609E-02  0.8439250E-01
       -2   -1    0    0    0  501  0.00000000000E+00  0.00000000000E+00  0.93538139135E+03  0.93538139135E+03  0.25500000920E-02 0. -1.
        2   -1    0    0  501    0  0.00000000000E+00  0.00000000000E+00 -0.15403480035E+04  0.15403480035E+04  0.25500000920E-02 0.  1.
    10030    2    1    2    0    0  0.00000000000E+00  0.00000000000E+00 -0.60496661213E+03  0.24757293948E+04  0.24006772866E+04 0.  0.
        5    1    3    3  502    0 -0.78911594662E+03  0.86083992670E+02 -0.12310073155E+04  0.14647578407E+04  0.46999998093E+01 0.  1.
       -5    1    3    3    0  502  0.78911594662E+03 -0.86083992670E+02  0.62604070338E+03  0.10109715541E+04  0.46999998093E+01 0. -1.
</event>
<event>
 5   0  0.2122194E-05  0.2374597E+04  0.7818609E-02  0.8449076E-01
       -2   -1    0    0    0  501  0.00000000000E+00  0.00000000000E+00  0.59669030494E+03  0.59669030495E+03  0.25500000920E-02 0. -1.
        2   -1    0    0  501    0  0.00000000000E+00  0.00000000000E+00 -0.23624956713E+04  0.23624956713E+04  0.25500000920E-02 0.  1.
    10030    2    1    2    0    0  0.00000000000E+00  0.00000000000E+00 -0.17658053664E+04  0.29591859763E+04  0.23745974502E+04 0.  0.
        3    1    3    3  502    0 -0.50522131915E+02 -0.10269725359E+03 -0.23556051798E+04  0.23583839774E+04  0.10100000352E+00 0.  1.
       -3    1    3    3    0  502  0.50522131915E+02  0.10269725359E+03  0.58979981342E+03  0.60080199885E+03  0.10100000352E+00 0. -1.
</event>
<event>
 5   0  0.2025353E-05  0.2355225E+04  0.7818609E-02  0.8456459E-01
       -2   -1    0    0    0  501  0.00000000000E+00  0.00000000000E+00  0.13863842800E+04  0.13863842800E+04  0.25500000920E-02 0. -1.
        2   -1    0    0  501    0  0.00000000000E+00  0.00000000000E+00 -0.10002789708E+04  0.10002789708E+04  0.25500000920E-02 0.  1.
    10030    2    1    2    0    0  0.00000000000E+00  0.00000000000E+00  0.38610530927E+03  0.23866632508E+04  0.23552248646E+04 0.  0.
        4    1    3    3  502    0 -0.10249634641E+04 -0.24766320438E+03  0.72434324792E+03  0.12792817982E+04  0.12699999809E+01 0. -1.
       -4    1    3    3    0  502  0.10249634641E+04  0.24766320438E+03 -0.33823793864E+03  0.11073814526E+04  0.12699999809E+01 0.  1.
</event>
<event>
 5   0  0.8898848E-06  0.2405613E+04  0.7818609E-02  0.8437405E-01
       -1   -1    0    0    0  501  0.00000000000E+00  0.00000000000E+00  0.10902734720E+04  0.10902734720E+04  0.50400001928E-02 0. -1.
        1   -1    0    0  501    0  0.00000000000E+00  0.00000000000E+00 -0.13269542668E+04  0.13269542668E+04  0.50400001928E-02 0.  1.
    10030    2    1    2    0    0  0.00000000000E+00  0.00000000000E+00 -0.23668079474E+03  0.24172277388E+04  0.24056126336E+04 0.  0.
        5    1    3    3  502    0 -0.61817928422E+03  0.22419993907E+03  0.89365179995E+03  0.11095255156E+04  0.46999998093E+01 0. -1.
       -5    1    3    3    0  502  0.61817928422E+03 -0.22419993907E+03 -0.11303325947E+04  0.13077022233E+04  0.46999998093E+01 0.  1.
</event>
<event>
 5   0  0.9083687E-06  0.2393082E+04  0.7818609E-02  0.8442098E-01
        1   -1    0    0  501    0  0.00000000000E+00  0.00000000000E+00  0.13948134033E+04  0.13948134033E+04  0.50400001928E-02 0.  1.
       -1   -1    0    0    0  501  0.00000000000E+00  0.00000000000E+00 -0.10264528769E+04  0.10264528769E+04  0.50400001928E-02 0. -1.
    10030    2    1    2    0    0  0.00000000000E+00  0.00000000000E+00  0.36836052645E+03  0.24212662802E+04  0.23930818879E+04 0.  0.
        2    1    3    3  502    0 -0.47037772567E+02  0.49777557325E+03  0.12840512969E+04  0.13779625563E+04  0.25500000920E-02 0.  1.
       -2    1    3    3    0  502  0.47037772567E+02 -0.49777557325E+03 -0.91569077045E+03  0.10433037240E+04  0.25500000920E-02 0. -1.
</event>
<event>
 5   0  0.2025353E-05  0.2378534E+04  0.7818609E-02  0.8447584E-01
       -2   -1    0    0    0  501  0.00000000000E+00  0.00000000000E+00  0.11063753780E+04  0.11063753780E+04  0.25500000920E-02 0. -1.
        2   -1    0    0  501    0  0.00000000000E+00  0.00000000000E+00 -0.12783693847E+04  0.12783693847E+04  0.25500000920E-02 0.  1.
    10030    2    1    2    0    0  0.00000000000E+00  0.00000000000E+00 -0.17199400672E+03  0.23847447628E+04  0.23785343481E+04 0.  0.
        4    1    3    3  502    0  0.10843119723E+04 -0.27760512600E+02  0.40297681433E+03  0.11571063154E+04  0.12699999809E+01 0. -1.
       -4    1    3    3    0  502 -0.10843119723E+04  0.27760512600E+02 -0.57497082104E+03  0.12276384473E+04  0.12699999809E+01 0.  1.
</event>
<event>
 5   0  0.2122194E-05  0.2401246E+04  0.7818609E-02  0.8439037E-01
        2   -1    0    0  501    0  0.00000000000E+00  0.00000000000E+00  0.12775767225E+04  0.12775767225E+04  0.25500000920E-02 0.  1.
       -2   -1    0    0    0  501  0.00000000000E+00  0.00000000000E+00 -0.11283047201E+04  0.11283047202E+04  0.25500000920E-02 0. -1.
    10030    2    1    2    0    0  0.00000000000E+00  0.00000000000E+00  0.14927200231E+03  0.24058814426E+04  0.24012462150E+04 0.  0.
        3    1    3    3  502    0 -0.66414094003E+02 -0.10148727186E+04  0.71392595256E+03  0.12426052241E+04  0.10100000352E+00 0.  1.
       -3    1    3    3    0  502  0.66414094003E+02  0.10148727186E+04 -0.56465395025E+03  0.11632762186E+04  0.10100000352E+00 0. -1.
</event>
<event>
 5   0  0.7233625E-06  0.2398678E+04  0.7818609E-02  0.8439999E-01
        3   -1    0    0  501    0  0.00000000000E+00  0.00000000000E+00  0.88628334893E+03  0.88628335469E+03  0.10100000352E+00 0. -1.
       -3   -1    0    0    0  501  0.00000000000E+00  0.00000000000E+00 -0.16229729189E+04  0.16229729221E+04  0.10100000352E+00 0.  1.
    10030    2    1    2    0    0  0.00000000000E+00  0.00000000000E+00 -0.73668956998E+03  0.25092562767E+04  0.23986778733E+04 0.  0.
        4    1    3    3  502    0 -0.65647163137E+03 -0.63200372620E+03  0.44736388729E+03  0.10151451981E+04  0.12699999809E+01 0. -1.
       -4    1    3    3    0  502  0.65647163137E+03  0.63200372620E+03 -0.11840534573E+04  0.14941110786E+04  0.12699999809E+01 0.  1.
</event>
<event>
 5   0  0.2087882E-05  0.2371767E+04  0.7818609E-02  0.8450150E-01
        2   -1    0    0  501    0  0.00000000000E+00  0.00000000000E+00  0.11188075289E+04  0.11188075289E+04  0.25500000920E-02 0.  1.
       -2   -1    0    0    0  501  0.00000000000E+00  0.00000000000E+00 -0.12569811829E+04  0.12569811829E+04  0.25500000920E-02 0. -1.
    10030    2    1    2    0    0  0.00000000000E+00  0.00000000000E+00 -0.13817365395E+03  0.23757887118E+04  0.23717672830E+04 0.  0.
        2    1    3    3  502    0 -0.53083146333E+03  0.98201916200E+03  0.33181212008E+03  0.11645784474E+04  0.25500000920E-02 0.  1.
       -2    1    3    3    0  502  0.53083146333E+03 -0.98201916200E+03 -0.46998577403E+03  0.12112102645E+04  0.25500000920E-02 0. -1.
</event>
<event>
 5   0  0.2025353E-05  0.2407350E+04  0.7818609E-02  0.8436757E-01
       -2   -1    0    0    0  501  0.00000000000E+00  0.00000000000E+00  0.76906422066E+03  0.76906422066E+03  0.25500000920E-02 0.  1.
        2   -1    0    0  501    0  0.00000000000E+00  0.00000000000E+00 -0.18838917046E+04  0.18838917046E+04  0.25500000920E-02 0. -1.
    10030    2    1    2    0    0  0.00000000000E+00  0.00000000000E+00 -0.11148274840E+04  0.26529559253E+04  0.24073501662E+04 0.  0.
        4    1    3    3  502    0  0.29198034340E+03 -0.26917776704E+03 -0.18096162264E+04  0.18526795975E+04  0.12699999809E+01 0. -1.
       -4    1    3    3    0  502 -0.29198034340E+03  0.26917776704E+03  0.69478874248E+03  0.80027632776E+03  0.12699999809E+01 0.  1.
</event>
<event>
 5   0  0.9038897E-06  0.2396370E+04  0.7818609E-02  0.8440864E-01
        1   -1    0    0  501    0  0.00000000000E+00  0.00000000000E+00  0.10899785714E+04  0.10899785714E+04  0.50400001928E-02 0.  1.
       -1   -1    0    0    0  501  0.00000000000E+00  0.00000000000E+00 -0.13171337511E+04  0.13171337511E+04  0.50400001928E-02 0. -1.
    10030    2    1    2    0    0  0.00000000000E+00  0.00000000000E+00 -0.22715517971E+03  0.24071123225E+04  0.23963702255E+04 0.  0.
        1    1    3    3  502    0 -0.46982614469E+02  0.80632612841E+03  0.77541984724E+03  0.11196629542E+04  0.50400001928E-02 0.  1.
       -1    1    3    3    0  502  0.46982614469E+02 -0.80632612841E+03 -0.10025750270E+04  0.12874493684E+04  0.50400001928E-02 0. -1.
</event>
<event>
 5   0  0.2087882E-05  0.2394778E+04  0.7818609E-02  0.8441461E-01
       -2   -1    0    0    0  501  0.00000000000E+00  0.00000000000E+00  0.15087389116E+04  0.15087389116E+04  0.25500000920E-02 0.  1.
        2   -1    0    0  501    0  0.00000000000E+00  0.00000000000E+00 -0.95029078725E+03  0.95029078725E+03  0.25500000920E-02 0. -1.
    10030    2    1    2    0    0  0.00000000000E+00  0.00000000000E+00  0.55844812431E+03  0.24590296988E+04  0.23947782261E+04 0.  0.
        2    1    3    3  502    0  0.24265377648E+03 -0.40086641595E+03  0.14106796139E+04  0.14864695462E+04  0.25500000920E-02 0.  1.
       -2    1    3    3    0  502 -0.24265377648E+03  0.40086641595E+03 -0.85223148957E+03  0.97256015264E+03  0.25500000920E-02 0. -1.
</event>
<event>
 5   0  0.8898848E-06  0.2429044E+04  0.7818609E-02  0.8428709E-01
        1   -1    0    0  501    0  0.00000000000E+00  0.00000000000E+00  0.92196638260E+03  0.92196638262E+03  0.50400001928E-02 0. -1.
       -1   -1    0    0    0  501  0.00000000000E+00  0.00000000000E+00 -0.15999111247E+04  0.15999111247E+04  0.50400001928E-02 0.  1.
    10030    2    1    2    0    0  0.00000000000E+00  0.00000000000E+00 -0.67794474209E+03  0.25218775073E+04  0.24290444806E+04 0.  0.
        5    1    3    3  502    0  0.11201431437E+04 -0.45526097921E+03 -0.22032917794E+03  0.12290444492E+04  0.46999998093E+01 0.  1.
       -5    1    3    3    0  502 -0.11201431437E+04  0.45526097921E+03 -0.45761556415E+03  0.12928330581E+04  0.46999998093E+01 0. -1.
</event>
<event>
 5   0  0.9176817E-06  0.2402475E+04  0.7818609E-02  0.8438578E-01
        1   -1    0    0  501    0  0.00000000000E+00  0.00000000000E+00  0.11328275104E+04  0.11328275104E+04  0.50400001928E-02 0.  1.
       -1   -1    0    0    0  501  0.00000000000E+00  0.00000000000E+00 -0.12737784152E+04  0.12737784152E+04  0.50400001928E-02 0. -1.
    10030    2    1    2    0    0  0.00000000000E+00  0.00000000000E+00 -0.14095090486E+03  0.24066059256E+04  0.24024747498E+04 0.  0.
        3    1    3    3  502    0  0.82768519202E+03 -0.83081038125E+03 -0.33104301064E+03  0.12185639711E+04  0.10100000352E+00 0.  1.
       -3    1    3    3    0  502 -0.82768519202E+03  0.83081038125E+03  0.19009210579E+03  0.11880419545E+04  0.10100000352E+00 0. -1.
</event>
<event>
 5   0  0.2048028E-05  0.2380640E+04  0.7818609E-02  0.8446788E-01
       -2   -1    0    0    0  501  0.00000000000E+00  0.00000000000E+00  0.61772650742E+03  0.61772650742E+03  0.25500000920E-02 0.  1.
        2   -1    0    0  501    0  0.00000000000E+00  0.00000000000E+00 -0.22936708381E+04  0.22936708381E+04  0.25500000920E-02 0. -1.
    10030    2    1    2    0    0  0.00000000000E+00  0.00000000000E+00 -0.16759443307E+04  0.29113973456E+04  0.23806396418E+04 0.  0.
        5    1    3    3  502    0 -0.10639636555E+04 -0.10549771398E+03 -0.14777628124E+04  0.18239938179E+04  0.46999998093E+01 0. -1.
       -5    1    3    3    0  502  0.10639636555E+04  0.10549771398E+03 -0.19818151829E+03  0.10874035277E+04  0.46999998093E+01 0.  1.
</event>
<event>
 5   0  0.8898848E-06  0.2399938E+04  0.7818609E-02  0.8439527E-01
        1   -1    0    0  501    0  0.00000000000E+00  0.00000000000E+00  0.79382847320E+03  0.79382847322E+03  0.50400001928E-02 0.  1.
       -1   -1    0    0    0  501  0.00000000000E+00  0.00000000000E+00 -0.18138999990E+04  0.18138999990E+04  0.50400001928E-02 0. -1.
    10030    2    1    2    0    0  0.00000000000E+00  0.00000000000E+00 -0.10200715258E+04  0.26077284722E+04  0.23999378881E+04 0.  0.
        5    1    3    3  502    0 -0.28481424673E+03 -0.11393096016E+04 -0.77786844919E+03  0.14086330032E+04  0.46999998093E+01 0. -1.
       -5    1    3    3    0  502  0.28481424673E+03  0.11393096016E+04 -0.24220307658E+03  0.11990954690E+04  0.46999998093E+01 0.  1.
</event>
<event>
 5   0  0.2122194E-05  0.2405283E+04  0.7818609E-02  0.8437528E-01
       -2   -1    0    0    0  501  0.00000000000E+00  0.00000000000E+00  0.98991779146E+03  0.98991779146E+03  0.25500000920E-02 0. -1.
        2   -1    0    0  501    0  0.00000000000E+00  0.00000000000E+00 -0.14610780290E+04  0.14610780290E+04  0.25500000920E-02 0.  1.
    10030    2    1    2    0    0  0.00000000000E+00  0.00000000000E+00 -0.47116023752E+03  0.24509958204E+04  0.24052834640E+04 0.  0.
        3    1    3    3  502    0 -0.72130911697E+03 -0.26612230158E+03 -0.11779471966E+04  0.14066511756E+04  0.10100000352E+00 0.  1.
       -3    1    3    3    0  502  0.72130911697E+03  0.26612230158E+03  0.70678695904E+03  0.10443446449E+04  0.10100000352E+00 0. -1.
</event>
<event>
 5   0  0.9038897E-06  0.2396225E+04  0.7818609E-02  0.8440918E-01
        1   -1    0    0  501    0  0.00000000000E+00  0.00000000000E+00  0.10025171399E+04  0.10025171399E+04  0.50400001928E-02 0. -1.
       -1   -1    0    0    0  501  0.00000000000E+00  0.00000000000E+00 -0.14318689069E+04  0.14318689069E+04  0.50400001928E-02 0.  1.
    10030    2    1    2    0    0  0.00000000000E+00  0.00000000000E+00 -0.42935176695E+03  0.24343860468E+04  0.23962246316E+04 0.  0.
        1    1    3    3  502    0  0.11753008957E+03 -0.10953702190E+04  0.26380663283E+03  0.11328032389E+04  0.50400001928E-02 0. -1.
       -1    1    3    3    0  502 -0.11753008957E+03  0.10953702190E+04 -0.69315839978E+03  0.13015828079E+04  0.50400001928E-02 0.  1.
</event>
<event>
 5   0  0.9176817E-06  0.2388681E+04  0.7818609E-02  0.8443753E-01
       -1   -1    0    0    0  501  0.00000000000E+00  0.00000000000E+00  0.95880517439E+03  0.95880517441E+03  0.50400001928E-02 0. -1.
        1   -1    0    0  501    0  0.00000000000E+00  0.00000000000E+00 -0.14877366039E+04  0.14877366039E+04  0.50400001928E-02 0.  1.
    10030    2    1    2    0    0  0.00000000000E+00  0.00000000000E+00 -0.52893142952E+03  0.24465417783E+04  0.23886812713E+04 0.  0.
        3    1    3    3  502    0 -0.51831392477E+03  0.49318556939E+02  0.83645129126E+03  0.98525753867E+03  0.10100000352E+00 0. -1.
       -3    1    3    3    0  502  0.51831392477E+03 -0.49318556939E+02 -0.13653827208E+04  0.14612842397E+04  0.10100000352E+00 0.  1.
</event>
<event>
 5   0  0.2122194E-05  0.2403045E+04  0.7818609E-02  0.8438365E-01
        2   -1    0    0  501    0  0.00000000000E+00  0.00000000000E+00  0.88284438231E+03  0.88284438232E+03  0.25500000920E-02 0.  1.
       -2   -1    0    0    0  501  0.00000000000E+00  0.00000000000E+00 -0.16352328081E+04  0.16352328081E+04  0.25500000920E-02 0. -1.
    10030    2    1    2    0    0  0.00000000000E+00  0.00000000000E+00 -0.75238842581E+03  0.25180771904E+04  0.24030448173E+04 0.  0.
        3    1    3    3  502    0 -0.20197397890E+03 -0.10225809551E+03  0.86029432004E+03  0.88958222416E+03  0.10100000352E+00 0.  1.
       -3    1    3    3    0  502  0.20197397890E+03  0.10225809551E+03 -0.16126827458E+04  0.16284949663E+04  0.10100000352E+00 0. -1.
</event>
<event>
 5   0  0.2048028E-05  0.2401074E+04  0.7818609E-02  0.8439102E-01
       -2   -1    0    0    0  501  0.00000000000E+00  0.00000000000E+00  0.13041471827E+04  0.13041471827E+04  0.25500000920E-02 0. -1.
        2   -1    0    0  501    0  0.00000000000E+00  0.00000000000E+00 -0.11051580085E+04  0.11051580085E+04  0.25500000920E-02 0.  1.
    10030    2    1    2    0    0  0.00000000000E+00  0.00000000000E+00  0.19898917413E+03  0.24093051912E+04  0.24010736792E+04 0.  0.
        5    1    3    3  502    0  0.10608693507E+04  0.26756021904E+03 -0.39640039467E+03  0.11636956702E+04  0.46999998093E+01 0. -1.
       -5    1    3    3    0  502 -0.10608693507E+04 -0.26756021904E+03  0.59538956880E+03  0.12456095210E+04  0.46999998093E+01 0.  1.
</event>
<event>
 5   0  0.2048028E-05  0.2394942E+04  0.7818609E-02  0.8441400E-01
       -2   -1    0    0    0  501  0.00000000000E+00  0.00000000000E+00  0.64879035439E+03  0.64879035439E+03  0.25500000920E-02 0. -1.
        2   -1    0    0  501    0  0.00000000000E+00  0.00000000000E+00 -0.22101701257E+04  0.22101701257E+04  0.25500000920E-02 0.  1.
    10030    2    1    2    0    0  0.00000000000E+00  0.00000000000E+00 -0.15613797713E+04  0.28589604801E+04  0.23949422198E+04 0.  0.
        5    1    3    3  502    0  0.68324522147E+03  0.95437962919E+03 -0.49756623439E+03  0.12748563672E+04  0.46999998093E+01 0. -1.
       -5    1    3    3    0  502 -0.68324522147E+03 -0.95437962919E+03 -0.10638135369E+04  0.15841041129E+04  0.46999998093E+01 0.  1.
</event>
<event>
 5   0  0.8528103E-06  0.2397859E+04  0.7818609E-02  0.8440306E-01
        1   -1    0    0  501    0  0.00000000000E+00  0.00000000000E+00  0.18649788125E+04  0.18649788125E+04  0.50400001928E-02 0.  1.
       -1   -1    0    0    0  501  0.00000000000E+00  0.00000000000E+00 -0.77074966280E+03  0.77074966282E+03  0.50400001928E-02 0. -1.
    10030    2    1    2    0    0  0.00000000000E+00  0.00000000000E+00  0.10942291497E+04  0.26357284753E+04  0.23978588707E+04 0.  0.
        4    1    3    3  502    0  0.17271070906E+03  0.30592416575E+03  0.18071322827E+04  0.18409636836E+04  0.12699999809E+01 0.  1.
       -4    1    3    3    0  502 -0.17271070906E+03 -0.30592416575E+03 -0.71290313301E+03  0.79476479173E+03  0.12699999809E+01 0. -1.
</event>
<event>
 5   0  0.8898848E-06  0.2376802E+04  0.7818609E-02  0.8448240E-01
       -1   -1    0    0    0  501  0.00000000000E+00  0.00000000000E+00  0.58091536592E+03  0.58091536594E+03  0.50400001928E-02 0.  1.
        1   -1    0    0  501    0  0.00000000000E+00  0.00000000000E+00 -0.24311578193E+04  0.24311578193E+04  0.50400001928E-02 0. -1.
    10030    2    1    2    0    0  0.00000000000E+00  0.00000000000E+00 -0.18502424534E+04  0.30120731853E+04  0.23768019979E+04 0.  0.
        5    1    3    3  502    0 -0.16245293808E+03  0.78595305043E+03  0.18558405729E+03  0.82375766272E+03  0.46999998093E+01 0.  1.
       -5    1    3    3    0  502  0.16245293808E+03 -0.78595305043E+03 -0.20358265107E+04  0.21883155226E+04  0.46999998093E+01 0. -1.
</event>
<event>
 5   0  0.8528103E-06  0.2428230E+04  0.7818609E-02  0.8429010E-01
       -1   -1    0    0    0  501  0.00000000000E+00  0.00000000000E+00  0.66630050342E+03  0.66630050343E+03  0.50400001928E-02 0.  1.
        1   -1    0    0  501    0  0.00000000000E+00  0.00000000000E+00 -0.22123285192E+04  0.22123285192E+04  0.50400001928E-02 0. -1.
    10030    2    1    2    0    0  0.00000000000E+00  0.00000000000E+00 -0.15460280158E+04  0.28786290226E+04  0.24282303071E+04 0.  0.
        4    1    3    3  502    0  0.11131296820E+04  0.45267606363E+03 -0.97869019759E+03  0.15497772173E+04  0.12699999809E+01 0.  1.
       -4    1    3    3    0  502 -0.11131296820E+04 -0.45267606363E+03 -0.56733781819E+03  0.13288518053E+04  0.12699999809E+01 0. -1.
</event>
<event>
 5   0  0.9176817E-06  0.2391335E+04  0.7818609E-02  0.8442755E-01
       -1   -1    0    0    0  501  0.00000000000E+00  0.00000000000E+00  0.15049316013E+04  0.15049316013E+04  0.50400001928E-02 0. -1.
        1   -1    0    0  501    0  0.00000000000E+00  0.00000000000E+00 -0.94995752285E+03  0.94995752286E+03  0.50400001928E-02 0.  1.
    10030    2    1    2    0    0  0.00000000000E+00  0.00000000000E+00  0.55497407847E+03  0.24548891242E+04  0.23913352723E+04 0.  0.
        3    1    3    3  502    0  0.39650103319E+03  0.16337452896E+03 -0.86829251785E+03  0.96841944053E+03  0.10100000352E+00 0.  1.
       -3    1    3    3    0  502 -0.39650103319E+03 -0.16337452896E+03  0.14232665963E+04  0.14864696837E+04  0.10100000352E+00 0. -1.
</event>
<event>
 5   0  0.8528103E-06  0.2357946E+04  0.7818609E-02  0.8455418E-01
       -1   -1    0    0    0  501  0.00000000000E+00  0.00000000000E+00  0.13674930246E+04  0.13674930246E+04  0.50400001928E-02 0. -1.
        1   -1    0    0  501    0  0.00000000000E+00  0.00000000000E+00 -0.10164421878E+04  0.10164421878E+04  0.50400001928E-02 0.  1.
    10030    2    1    2    0    0  0.00000000000E+00  0.00000000000E+00  0.35105083676E+03  0.23839352124E+04  0.23579462264E+04 0.  0.
        4    1    3    3  502    0  0.39855292408E+03  0.83388405682E+03 -0.56450456526E+03  0.10829931074E+04  0.12699999809E+01 0.  1.
       -4    1    3    3    0  502 -0.39855292408E+03 -0.83388405682E+03  0.91555540203E+03  0.13009421050E+04  0.12699999809E+01 0. -1.
</event>
<event>
 5   0  0.2122194E-05  0.2400953E+04  0.7818609E-02  0.8439147E-01
        2   -1    0    0  501    0  0.00000000000E+00  0.00000000000E+00  0.20640071633E+04  0.20640071633E+04  0.25500000920E-02 0. -1.
       -2   -1    0    0    0  501  0.00000000000E+00  0.00000000000E+00 -0.69822589333E+03  0.69822589333E+03  0.25500000920E-02 0.  1.
    10030    2    1    2    0    0  0.00000000000E+00  0.00000000000E+00  0.13657812699E+04  0.27622330566E+04  0.24009525155E+04 0.  0.
        3    1    3    3  502    0 -0.65584342028E+03  0.29218685967E+03  0.17897633519E+04  0.19284077938E+04  0.10100000352E+00 0. -1.
       -3    1    3    3    0  502  0.65584342028E+03 -0.29218685967E+03 -0.42398208201E+03  0.83382526284E+03  0.10100000352E+00 0.  1.
</event>
<event>
 5   0  0.2048028E-05  0.2402142E+04  0.7818609E-02  0.8438702E-01
        2   -1    0    0  501    0  0.00000000000E+00  0.00000000000E+00  0.13883772430E+04  0.13883772430E+04  0.25500000920E-02 0.  1.
       -2   -1    0    0    0  501  0.00000000000E+00  0.00000000000E+00 -0.10390345972E+04  0.10390345972E+04  0.25500000920E-02 0. -1.
    10030    2    1    2    0    0  0.00000000000E+00  0.00000000000E+00  0.34934264586E+03  0.24274118402E+04  0.24021423683E+04 0.  0.
        5    1    3    3  502    0 -0.11059978043E+04 -0.10980673028E+03  0.63471997955E+03  0.12799141392E+04  0.46999998093E+01 0.  1.
       -5    1    3    3    0  502  0.11059978043E+04  0.10980673028E+03 -0.28537733369E+03  0.11474977010E+04  0.46999998093E+01 0. -1.
</event>
<event>
 5   0  0.2048028E-05  0.2407391E+04  0.7818609E-02  0.8436741E-01
       -2   -1    0    0    0  501  0.00000000000E+00  0.00000000000E+00  0.11755568984E+04  0.11755568984E+04  0.25500000920E-02 0. -1.
        2   -1    0    0  501    0  0.00000000000E+00  0.00000000000E+00 -0.12325081032E+04  0.12325081032E+04  0.25500000920E-02 0.  1.
    10030    2    1    2    0    0  0.00000000000E+00  0.00000000000E+00 -0.56951204847E+02  0.24080650016E+04  0.24073914539E+04 0.  0.
        5    1    3    3  502    0  0.13242665046E+03 -0.92117091992E+03 -0.79208202919E+03  0.12220919411E+04  0.46999998093E+01 0. -1.
       -5    1    3    3    0  502 -0.13242665046E+03  0.92117091992E+03  0.73513082434E+03  0.11859730606E+04  0.46999998093E+01 0.  1.
</event>
<event>
 5   0  0.9038897E-06  0.2393315E+04  0.7818609E-02  0.8442011E-01
        1   -1    0    0  501    0  0.00000000000E+00  0.00000000000E+00  0.13126173246E+04  0.13126173246E+04  0.50400001928E-02 0.  1.
       -1   -1    0    0    0  501  0.00000000000E+00  0.00000000000E+00 -0.10909414169E+04  0.10909414169E+04  0.50400001928E-02 0. -1.
    10030    2    1    2    0    0  0.00000000000E+00  0.00000000000E+00  0.22167590768E+03  0.24035587415E+04  0.23933145251E+04 0.  0.
        1    1    3    3  502    0  0.70146287455E+03 -0.86557384354E+03  0.54942267068E+03  0.12422292518E+04  0.50400001928E-02 0.  1.
       -1    1    3    3    0  502 -0.70146287455E+03  0.86557384354E+03 -0.32774676300E+03  0.11613294897E+04  0.50400001928E-02 0. -1.
</event>
<event>
 5   0  0.2080257E-05  0.2401461E+04  0.7818609E-02  0.8438957E-01
       -2   -1    0    0    0  501  0.00000000000E+00  0.00000000000E+00  0.79155470297E+03  0.79155470297E+03  0.25500000920E-02 0. -1.
        2   -1    0    0  501    0  0.00000000000E+00  0.00000000000E+00 -0.18214207216E+04  0.18214207216E+04  0.25500000920E-02 0.  1.
    10030    2    1    2    0    0  0.00000000000E+00  0.00000000000E+00 -0.10298660186E+04  0.26129754245E+04  0.24014613370E+04 0.  0.
        1    1    3    3  502    0  0.21531204363E+03 -0.96043426815E+03 -0.12632271347E+04  0.16014168894E+04  0.50400001928E-02 0.  1.
       -1    1    3    3    0  502 -0.21531204363E+03  0.96043426815E+03  0.23336111613E+03  0.10115585352E+04  0.50400001928E-02 0. -1.
</event>
<event>
 5   0  0.2080257E-05  0.2415108E+04  0.7818609E-02  0.8433869E-01
       -2   -1    0    0    0  501  0.00000000000E+00  0.00000000000E+00  0.57432001510E+03  0.57432001510E+03  0.25500000920E-02 0.  1.
        2   -1    0    0  501    0  0.00000000000E+00  0.00000000000E+00 -0.25389787377E+04  0.25389787377E+04  0.25500000920E-02 0. -1.
    10030    2    1    2    0    0  0.00000000000E+00  0.00000000000E+00 -0.19646587226E+04  0.31132987528E+04  0.24151077052E+04 0.  0.
        1    1    3    3  502    0 -0.10209538239E+04 -0.50831717927E+03 -0.14938463911E+04  0.18794440949E+04  0.50400001928E-02 0. -1.
       -1    1    3    3    0  502  0.10209538239E+04  0.50831717927E+03 -0.47081233142E+03  0.12338546579E+04  0.50400001928E-02 0.  1.
</event>
<event>
 5   0  0.9176817E-06  0.2386958E+04  0.7818609E-02  0.8444403E-01
        1   -1    0    0  501    0  0.00000000000E+00  0.00000000000E+00  0.14118965445E+04  0.14118965446E+04  0.50400001928E-02 0.  1.
       -1   -1    0    0    0  501  0.00000000000E+00  0.00000000000E+00 -0.10088500189E+04  0.10088500189E+04  0.50400001928E-02 0. -1.
    10030    2    1    2    0    0  0.00000000000E+00  0.00000000000E+00  0.40304652567E+03  0.24207465634E+04  0.23869577756E+04 0.  0.
        3    1    3    3  502    0  0.85352066295E+02 -0.38529057890E+03 -0.94076805394E+03  0.10201854473E+04  0.10100000352E+00 0. -1.
       -3    1    3    3    0  502 -0.85352066295E+02  0.38529057890E+03  0.13438145796E+04  0.14005611161E+04  0.10100000352E+00 0.  1.
</event>
<event>
 5   0  0.2025353E-05  0.2442498E+04  0.7818609E-02  0.8423762E-01
        2   -1    0    0  501    0  0.00000000000E+00  0.00000000000E+00  0.13082299057E+04  0.13082299057E+04  0.25500000920E-02 0. -1.
       -2   -1    0    0    0  501  0.00000000000E+00  0.00000000000E+00 -0.11400512989E+04  0.11400512989E+04  0.25500000920E-02 0.  1.
    10030    2    1    2    0    0  0.00000000000E+00  0.00000000000E+00  0.16817860677E+03  0.24482812047E+04  0.24424980682E+04 0.  0.
        4    1    3    3  502    0 -0.65461187873E+03 -0.89026181392E+03 -0.43710796239E+03  0.11883382485E+04  0.12699999809E+01 0.  1.
       -4    1    3    3    0  502  0.65461187873E+03  0.89026181392E+03  0.60528656916E+03  0.12599429562E+04  0.12699999809E+01 0. -1.
</event>
<event>
 5   0  0.9083687E-06  0.2407360E+04  0.7818609E-02  0.8436753E-01
        1   -1    0    0  501    0  0.00000000000E+00  0.00000000000E+00  0.16306907484E+04  0.16306907484E+04  0.50400001928E-02 0.  1.
       -1   -1    0    0    0  501  0.00000000000E+00  0.00000000000E+00 -0.88848582408E+03  0.88848582410E+03  0.50400001928E-02 0. -1.
    10030    2    1    2    0    0  0.00000000000E+00  0.00000000000E+00  0.74220492434E+03  0.25191765725E+04  0.24073600590E+04 0.  0.
        2    1    3    3  502    0  0.43807225596E+03  0.10018771128E+04  0.89764412247E+03  0.14147190609E+04  0.25500000920E-02 0.  1.
       -2    1    3    3    0  502 -0.43807225596E+03 -0.10018771128E+04 -0.15543919813E+03  0.11044575116E+04  0.25500000920E-02 0. -1.
</event>
<event>
 5   0  0.2087882E-05  0.2381449E+04  0.7818609E-02  0.8446482E-01
       -2   -1    0    0    0  501  0.00000000000E+00  0.00000000000E+00  0.86600162351E+03  0.86600162352E+03  0.25500000920E-02 0. -1.
        2   -1    0    0  501    0  0.00000000000E+00  0.00000000000E+00 -0.16372077904E+04  0.16372077904E+04  0.25500000920E-02 0.  1.
    10030    2    1    2    0    0  0.00000000000E+00  0.00000000000E+00 -0.77120616689E+03  0.25032094139E+04  0.23814488065E+04 0.  0.
        2    1    3    3  502    0  0.58391870519E+03  0.85131410983E+03  0.23814053116E+03  0.10594374358E+04  0.25500000920E-02 0. -1.
       -2    1    3    3    0  502 -0.58391870519E+03 -0.85131410983E+03 -0.10093466980E+04  0.14437719781E+04  0.25500000920E-02 0.  1.
</event>
<event>
 5   0  0.9038897E-06  0.2400207E+04  0.7818609E-02  0.8439426E-01
       -1   -1    0    0    0  501  0.00000000000E+00  0.00000000000E+00  0.12142785419E+04  0.12142785419E+04  0.50400001928E-02 0.  1.
        1   -1    0    0  501    0  0.00000000000E+00  0.00000000000E+00 -0.11860937062E+04  0.11860937062E+04  0.50400001928E-02 0. -1.
    10030    2    1    2    0    0  0.00000000000E+00  0.00000000000E+00  0.28184835706E+02  0.24003722482E+04  0.24002067713E+04 0.  0.
        1    1    3    3  502    0 -0.30422355296E+03  0.77810788851E+03  0.87568781485E+03  0.12103028569E+04  0.50400001928E-02 0.  1.
       -1    1    3    3    0  502  0.30422355296E+03 -0.77810788851E+03 -0.84750297914E+03  0.11900693913E+04  0.50400001928E-02 0. -1.
</event>
<event>
 5   0  0.2087882E-05  0.2395693E+04  0.7818609E-02  0.8441118E-01
       -2   -1    0    0    0  501  0.00000000000E+00  0.00000000000E+00  0.73461227012E+03  0.73461227013E+03  0.25500000920E-02 0.  1.
        2   -1    0    0  501    0  0.00000000000E+00  0.00000000000E+00 -0.19531885908E+04  0.19531885908E+04  0.25500000920E-02 0. -1.
    10030    2    1    2    0    0  0.00000000000E+00  0.00000000000E+00 -0.12185763206E+04  0.26878008609E+04  0.23956930560E+04 0.  0.
        2    1    3    3  502    0 -0.72477174302E+03 -0.85316254475E+03 -0.13110897756E+03  0.11271069032E+04  0.25500000920E-02 0.  1.
       -2    1    3    3    0  502  0.72477174302E+03  0.85316254475E+03 -0.10874673431E+04  0.15606939577E+04  0.25500000920E-02 0. -1.
</event>
<event>
 5   0  0.2048028E-05  0.2395828E+04  0.7818609E-02  0.8441067E-01
        2   -1    0    0  501    0  0.00000000000E+00  0.00000000000E+00  0.21521521917E+04  0.21521521917E+04  0.25500000920E-02 0. -1.
       -2   -1    0    0    0  501  0.00000000000E+00  0.00000000000E+00 -0.66677350793E+03  0.66677350793E+03  0.25500000920E-02 0.  1.
    10030    2    1    2    0    0  0.00000000000E+00  0.00000000000E+00  0.14853786838E+04  0.28189256997E+04  0.23958280961E+04 0.  0.
        5    1    3    3  502    0 -0.55890361001E+03  0.37978130218E+02  0.19885281324E+04  0.20659336405E+04  0.46999998093E+01 0. -1.
       -5    1    3    3    0  502  0.55890361001E+03 -0.37978130218E+02 -0.50314944855E+03  0.75299205921E+03  0.46999998093E+01 0.  1.
</event>
<event>
 5   0  0.2048028E-05  0.2421513E+04  0.7818609E-02  0.8431493E-01
        2   -1    0    0  501    0  0.00000000000E+00  0.00000000000E+00  0.29153479599E+04  0.29153479599E+04  0.25500000920E-02 0.  1.
       -2   -1    0    0    0  501  0.00000000000E+00  0.00000000000E+00 -0.50283228412E+03  0.50283228413E+03  0.25500000920E-02 0. -1.
    10030    2    1    2    0    0  0.00000000000E+00  0.00000000000E+00  0.24125156757E+04  0.34181802440E+04  0.24215128112E+04 0.  0.
        5    1    3    3  502    0 -0.25549429832E+03  0.99820165118E+03  0.30878805924E+03  0.10756653887E+04  0.46999998093E+01 0. -1.
       -5    1    3    3    0  502  0.25549429832E+03 -0.99820165118E+03  0.21037276165E+04  0.23425148553E+04  0.46999998093E+01 0.  1.
</event>
<event>
 5   0  0.2048028E-05  0.2410586E+04  0.7818609E-02  0.8435551E-01
       -2   -1    0    0    0  501  0.00000000000E+00  0.00000000000E+00  0.15802420214E+04  0.15802420214E+04  0.25500000920E-02 0.  1.
        2   -1    0    0  501    0  0.00000000000E+00  0.00000000000E+00 -0.91930918111E+03  0.91930918111E+03  0.25500000920E-02 0. -1.
    10030    2    1    2    0    0  0.00000000000E+00  0.00000000000E+00  0.66093284031E+03  0.24995512025E+04  0.24105858198E+04 0.  0.
        5    1    3    3  502    0  0.84056514586E+03 -0.40770367442E+02  0.12251529384E+04  0.14863491514E+04  0.46999998093E+01 0.  1.
       -5    1    3    3    0  502 -0.84056514586E+03  0.40770367442E+02 -0.56422009813E+03  0.10132020511E+04  0.46999998093E+01 0. -1.
</event>
<event>
 5   0  0.9038897E-06  0.2383071E+04  0.7818609E-02  0.8445869E-01
        1   -1    0    0  501    0  0.00000000000E+00  0.00000000000E+00  0.22737741988E+04  0.22737741989E+04  0.50400001928E-02 0. -1.
       -1   -1    0    0    0  501  0.00000000000E+00  0.00000000000E+00 -0.62440528462E+03  0.62440528464E+03  0.50400001928E-02 0.  1.
    10030    2    1    2    0    0  0.00000000000E+00  0.00000000000E+00  0.16493689142E+04  0.28981794835E+04  0.23830708137E+04 0.  0.
        1    1    3    3  502    0  0.43658436687E+03 -0.10557369191E+04  0.12363308420E+04  0.16833598257E+04  0.50400001928E-02 0.  1.
       -1    1    3    3    0  502 -0.43658436687E+03  0.10557369191E+04  0.41303807220E+03  0.12148196578E+04  0.50400001928E-02 0. -1.
</event>
<event>
 5   0  0.9176817E-06  0.2433721E+04  0.7818609E-02  0.8426986E-01
        1   -1    0    0  501    0  0.00000000000E+00  0.00000000000E+00  0.10903616499E+04  0.10903616499E+04  0.50400001928E-02 0.  1.
       -1   -1    0    0    0  501  0.00000000000E+00  0.00000000000E+00 -0.13580352767E+04  0.13580352767E+04  0.50400001928E-02 0. -1.
    10030    2    1    2    0    0  0.00000000000E+00  0.00000000000E+00 -0.26767362678E+03  0.24483969266E+04  0.24337210892E+04 0.  0.
        3    1    3    3  502    0 -0.80013062773E+03  0.17305132813E+03 -0.10395958105E+04  0.13232215396E+04  0.10100000352E+00 0. -1.
       -3    1    3    3    0  502  0.80013062773E+03 -0.17305132813E+03  0.77192218369E+03  0.11251753870E+04  0.10100000352E+00 0.  1.
</event>
<event>
 5   0  0.9176817E-06  0.2400986E+04  0.7818609E-02  0.8439134E-01
       -1   -1    0    0    0  501  0.00000000000E+00  0.00000000000E+00  0.85539937174E+03  0.85539937175E+03  0.50400001928E-02 0.  1.
        1   -1    0    0  501    0  0.00000000000E+00  0.00000000000E+00 -0.16848077702E+04  0.16848077703E+04  0.50400001928E-02 0. -1.
    10030    2    1    2    0    0  0.00000000000E+00  0.00000000000E+00 -0.82940839851E+03  0.25402071420E+04  0.24009860543E+04 0.  0.
        3    1    3    3  502    0 -0.10633376523E+04 -0.52143367333E+03 -0.62257457871E+03  0.13379757676E+04  0.10100000352E+00 0. -1.
       -3    1    3    3    0  502  0.10633376523E+04  0.52143367333E+03 -0.20683381980E+03  0.12022313744E+04  0.10100000352E+00 0.  1.
</event>
<event>
 5   0  0.2080257E-05  0.2402825E+04  0.7818609E-02  0.8438447E-01
       -2   -1    0    0    0  501  0.00000000000E+00  0.00000000000E+00  0.11008426362E+04  0.11008426362E+04  0.25500000920E-02 0.  1.
        2   -1    0    0  501    0  0.00000000000E+00  0.00000000000E+00 -0.13111703509E+04  0.13111703509E+04  0.25500000920E-02 0. -1.
    10030    2    1    2    0    0  0.00000000000E+00  0.00000000000E+00 -0.21032771477E+03  0.24120129871E+04  0.24028251918E+04 0.  0.
        1    1    3    3  502    0  0.75306756289E+03  0.41967347406E+02 -0.10438975189E+04  0.12878641398E+04  0.50400001928E-02 0. -1.
       -1    1    3    3    0  502 -0.75306756289E+03 -0.41967347406E+02  0.83356980416E+03  0.11241488473E+04  0.50400001928E-02 0.  1.
</event>
<event>
 5   0  0.8898848E-06  0.2402417E+04  0.7818609E-02  0.8438599E-01
       -1   -1    0    0    0  501  0.00000000000E+00  0.00000000000E+00  0.86809976062E+03  0.86809976063E+03  0.50400001928E-02 0. -1.
        1   -1    0    0  501    0  0.00000000000E+00  0.00000000000E+00 -0.16621386761E+04  0.16621386761E+04  0.50400001928E-02 0.  1.
    10030    2    1    2    0    0  0.00000000000E+00  0.00000000000E+00 -0.79403891547E+03  0.25302384367E+04  0.24024172717E+04 0.  0.
        5    1    3    3  502    0  0.35196429630E+03 -0.37561786113E+03 -0.15400807384E+04  0.16238344787E+04  0.46999998093E+01 0.  1.
       -5    1    3    3    0  502 -0.35196429630E+03  0.37561786113E+03  0.74604182295E+03  0.90640395799E+03  0.46999998093E+01 0. -1.
</event>
<event>
 5   0  0.2080257E-05  0.2414827E+04  0.7818609E-02  0.8433973E-01
       -2   -1    0    0    0  501  0.00000000000E+00  0.00000000000E+00  0.15094725776E+04  0.15094725776E+04  0.25500000920E-02 0.  1.
        2   -1    0    0  501    0  0.00000000000E+00  0.00000000000E+00 -0.96579905771E+03  0.96579905772E+03  0.25500000920E-02 0. -1.
    10030    2    1    2    0    0  0.00000000000E+00  0.00000000000E+00  0.54367351993E+03  0.24752716354E+04  0.24148268618E+04 0.  0.
        1    1    3    3  502    0 -0.33207627275E+03  0.10885709622E+04  0.68514891403E+03  0.13284165104E+04  0.50400001928E-02 0.  1.
       -1    1    3    3    0  502  0.33207627275E+03 -0.10885709622E+04 -0.14147539410E+03  0.11468551250E+04  0.50400001928E-02 0. -1.
</event>
<event>
 5   0  0.2122194E-05  0.2411068E+04  0.7818609E-02  0.8435371E-01
        2   -1    0    0  501    0  0.00000000000E+00  0.00000000000E+00  0.17254326232E+04  0.17254326232E+04  0.25500000920E-02 0. -1.
       -2   -1    0    0    0  501  0.00000000000E+00  0.00000000000E+00 -0.84228869360E+03  0.84228869360E+03  0.25500000920E-02 0.  1.
    10030    2    1    2    0    0  0.00000000000E+00  0.00000000000E+00  0.88314392956E+03  0.25677213168E+04  0.24110681368E+04 0.  0.
        3    1    3    3  502    0 -0.51245786053E+02  0.34525278606E+03 -0.78730054616E+03  0.86120135686E+03  0.10100000352E+00 0.  1.
       -3    1    3    3    0  502  0.51245786053E+02 -0.34525278606E+03  0.16704444757E+04  0.17065199599E+04  0.10100000352E+00 0. -1.
</event>
<event>
 5   0  0.2087882E-05  0.2394665E+04  0.7818609E-02  0.8441504E-01
       -2   -1    0    0    0  501  0.00000000000E+00  0.00000000000E+00  0.86614537010E+03  0.86614537011E+03  0.25500000920E-02 0.  1.
        2   -1    0    0  501    0  0.00000000000E+00  0.00000000000E+00 -0.16551553812E+04  0.16551553812E+04  0.25500000920E-02 0. -1.
    10030    2    1    2    0    0  0.00000000000E+00  0.00000000000E+00 -0.78901001107E+03  0.25213007513E+04  0.23946650456E+04 0.  0.
        2    1    3    3  502    0 -0.52367427831E+03  0.94910942663E+03 -0.92988481594E+03  0.14281908921E+04  0.25500000920E-02 0. -1.
       -2    1    3    3    0  502  0.52367427831E+03 -0.94910942663E+03  0.14087480487E+03  0.10931098591E+04  0.25500000920E-02 0.  1.
</event>
<event>
 5   0  0.9083687E-06  0.2403477E+04  0.7818609E-02  0.8438203E-01
        1   -1    0    0  501    0  0.00000000000E+00  0.00000000000E+00  0.26379318246E+04  0.26379318246E+04  0.50400001928E-02 0.  1.
       -1   -1    0    0    0  501  0.00000000000E+00  0.00000000000E+00 -0.54746505531E+03  0.54746505533E+03  0.50400001928E-02 0. -1.
    10030    2    1    2    0    0  0.00000000000E+00  0.00000000000E+00  0.20904667693E+04  0.31853968799E+04  0.24034770582E+04 0.  0.
        2    1    3    3  502    0  0.78652864923E+03 -0.87719611025E+03  0.73139299703E+03  0.13867357528E+04  0.25500000920E-02 0.  1.
       -2    1    3    3    0  502 -0.78652864923E+03  0.87719611025E+03  0.13590737722E+04  0.17986611271E+04  0.25500000920E-02 0. -1.
</event>
<event>
 5   0  0.2048028E-05  0.2404962E+04  0.7818609E-02  0.8437648E-01
       -2   -1    0    0    0  501  0.00000000000E+00  0.00000000000E+00  0.99743027345E+03  0.99743027345E+03  0.25500000920E-02 0.  1.
        2   -1    0    0  501    0  0.00000000000E+00  0.00000000000E+00 -0.14496862078E+04  0.14496862078E+04  0.25500000920E-02 0. -1.
    10030    2    1    2    0    0  0.00000000000E+00  0.00000000000E+00 -0.45225593438E+03  0.24471164813E+04  0.24049622955E+04 0.  0.
        5    1    3    3  502    0 -0.16288937029E+03 -0.75637298563E+03  0.71049856189E+03  0.10504586316E+04  0.46999998093E+01 0.  1.
       -5    1    3    3    0  502  0.16288937029E+03  0.75637298563E+03 -0.11627544963E+04  0.13966578496E+04  0.46999998093E+01 0. -1.
</event>
<event>
 5   0  0.7233625E-06  0.2404268E+04  0.7818609E-02  0.8437907E-01
       -3   -1    0    0    0  501  0.00000000000E+00  0.00000000000E+00  0.20565657727E+04  0.20565657752E+04  0.10100000352E+00 0.  1.
        3   -1    0    0  501    0  0.00000000000E+00  0.00000000000E+00 -0.70268887291E+03  0.70268888017E+03  0.10100000352E+00 0. -1.
    10030    2    1    2    0    0  0.00000000000E+00  0.00000000000E+00  0.13538768998E+04  0.27592546554E+04  0.24042677873E+04 0.  0.
        1    1    3    3  502    0 -0.36647482286E+02  0.10452042627E+04 -0.33093193344E+01  0.10458517774E+04  0.50400001928E-02 0. -1.
       -1    1    3    3    0  502  0.36647482286E+02 -0.10452042627E+04  0.13571862191E+04  0.17134028779E+04  0.50400001928E-02 0.  1.
</event>
<event>
 5   0  0.2048028E-05  0.2399822E+04  0.7818609E-02  0.8439570E-01
        2   -1    0    0  501    0  0.00000000000E+00  0.00000000000E+00  0.94720905914E+03  0.94720905914E+03  0.25500000920E-02 0.  1.
       -2   -1    0    0    0  501  0.00000000000E+00  0.00000000000E+00 -0.15200305675E+04  0.15200305675E+04  0.25500000920E-02 0. -1.
    10030    2    1    2    0    0  0.00000000000E+00  0.00000000000E+00 -0.57282150840E+03  0.24672396267E+04  0.23998222632E+04 0.  0.
        5    1    3    3  502    0  0.88264769361E+03 -0.27221484141E+03 -0.10738228551E+04  0.14164340736E+04  0.46999998093E+01 0. -1.
       -5    1    3    3    0  502 -0.88264769361E+03  0.27221484141E+03  0.50100134667E+03  0.10508055530E+04  0.46999998093E+01 0.  1.
</event>
<event>
 5   0  0.2080257E-05  0.2421031E+04  0.7818609E-02  0.8431672E-01
        2   -1    0    0  501    0  0.00000000000E+00  0.00000000000E+00  0.12534399991E+04  0.12534399991E+04  0.25500000920E-02 0.  1.
       -2   -1    0    0    0  501  0.00000000000E+00  0.00000000000E+00 -0.11690610172E+04  0.11690610172E+04  0.25500000920E-02 0. -1.
    10030    2    1    2    0    0  0.00000000000E+00  0.00000000000E+00  0.84378981881E+02  0.24225010164E+04  0.24210310534E+04 0.  0.
        1    1    3    3  502    0 -0.92575316112E+03 -0.68427134621E+03 -0.33233932082E+03  0.11982051639E+04  0.50400001928E-02 0. -1.
       -1    1    3    3    0  502  0.92575316112E+03  0.68427134621E+03  0.41671830270E+03  0.12242958525E+04  0.50400001928E-02 0.  1.
</event>
<event>
 5   0  0.2025353E-05  0.2403039E+04  0.7818609E-02  0.8438367E-01
       -2   -1    0    0    0  501  0.00000000000E+00  0.00000000000E+00  0.70235779997E+03  0.70235779997E+03  0.25500000920E-02 0. -1.
        2   -1    0    0  501    0  0.00000000000E+00  0.00000000000E+00 -0.20554332174E+04  0.20554332174E+04  0.25500000920E-02 0.  1.
    10030    2    1    2    0    0  0.00000000000E+00  0.00000000000E+00 -0.13530754174E+04  0.27577910174E+04  0.24030393693E+04 0.  0.
        4    1    3    3  502    0  0.11703164284E+04 -0.24744768102E+03 -0.80626030468E+03  0.14425422660E+04  0.12699999809E+01 0. -1.
       -4    1    3    3    0  502 -0.11703164284E+04  0.24744768102E+03 -0.54681511274E+03  0.13152487513E+04  0.12699999809E+01 0.  1.
</event>
<event>
 5   0  0.9083687E-06  0.2396755E+04  0.7818609E-02  0.8440720E-01
       -1   -1    0    0    0  501  0.00000000000E+00  0.00000000000E+00  0.11026915064E+04  0.11026915064E+04  0.50400001928E-02 0.  1.
        1   -1    0    0  501    0  0.00000000000E+00  0.00000000000E+00 -0.13023663489E+04  0.13023663489E+04  0.50400001928E-02 0. -1.
    10030    2    1    2    0    0  0.00000000000E+00  0.00000000000E+00 -0.19967484244E+03  0.24050578553E+04  0.23967547318E+04 0.  0.
        2    1    3    3  502    0 -0.59430712475E+03  0.58263509502E+03 -0.96505628006E+03  0.12743618937E+04  0.25500000920E-02 0. -1.
       -2    1    3    3    0  502  0.59430712475E+03 -0.58263509502E+03  0.76538143762E+03  0.11306959616E+04  0.25500000920E-02 0.  1.
</event>
<event>
 5   0  0.9083687E-06  0.2382868E+04  0.7818609E-02  0.8445945E-01
        1   -1    0    0  501    0  0.00000000000E+00  0.00000000000E+00  0.11860533155E+04  0.11860533155E+04  0.50400001928E-02 0.  1.
       -1   -1    0    0    0  501  0.00000000000E+00  0.00000000000E+00 -0.11968395210E+04  0.11968395210E+04  0.50400001928E-02 0. -1.
    10030    2    1    2    0    0  0.00000000000E+00  0.00000000000E+00 -0.10786205531E+02  0.23828928366E+04  0.23828684245E+04 0.  0.
        2    1    3    3  502    0  0.30571357953E+03 -0.68583616943E+03  0.91964796164E+03  0.11872592039E+04  0.25500000920E-02 0.  1.
       -2    1    3    3    0  502 -0.30571357953E+03  0.68583616943E+03 -0.93043416717E+03  0.11956336326E+04  0.25500000920E-02 0. -1.
</event>
<event>
 5   0  0.2048028E-05  0.2402545E+04  0.7818609E-02  0.8438552E-01
        2   -1    0    0  501    0  0.00000000000E+00  0.00000000000E+00  0.15757171808E+04  0.15757171808E+04  0.25500000920E-02 0.  1.
       -2   -1    0    0    0  501  0.00000000000E+00  0.00000000000E+00 -0.91580846802E+03  0.91580846803E+03  0.25500000920E-02 0. -1.
    10030    2    1    2    0    0  0.00000000000E+00  0.00000000000E+00  0.65990871279E+03  0.24915256488E+04  0.24025445989E+04 0.  0.
        5    1    3    3  502    0 -0.18153685221E+03 -0.11759516725E+04  0.50103415564E+03  0.12910752418E+04  0.46999998093E+01 0. -1.
       -5    1    3    3    0  502  0.18153685221E+03  0.11759516725E+04  0.15887455715E+03  0.12004504070E+04  0.46999998093E+01 0.  1.
</event>
<event>
 5   0  0.2122194E-05  0.2400166E+04  0.7818609E-02  0.8439441E-01
       -2   -1    0    0    0  501  0.00000000000E+00  0.00000000000E+00  0.89759429010E+03  0.89759429011E+03  0.25500000920E-02 0.  1.
        2   -1    0    0  501    0  0.00000000000E+00  0.00000000000E+00 -0.16045101458E+04  0.16045101458E+04  0.25500000920E-02 0. -1.
    10030    2    1    2    0    0  0.00000000000E+00  0.00000000000E+00 -0.70691585568E+03  0.25021044359E+04  0.24001659487E+04 0.  0.
        3    1    3    3  502    0 -0.10247396846E+02 -0.97089362416E+03 -0.10887216070E+04  0.14587851748E+04  0.10100000352E+00 0. -1.
       -3    1    3    3    0  502  0.10247396846E+02  0.97089362416E+03  0.38180575131E+03  0.10433192611E+04  0.10100000352E+00 0.  1.
</event>
<event>
 5   0  0.9083687E-06  0.2427656E+04  0.7818609E-02  0.8429222E-01
        1   -1    0    0  501    0  0.00000000000E+00  0.00000000000E+00  0.12311412649E+04  0.12311412649E+04  0.50400001928E-02 0.  1.
       -1   -1    0    0    0  501  0.00000000000E+00  0.00000000000E+00 -0.11967578785E+04  0.11967578785E+04  0.50400001928E-02 0. -1.
    10030    2    1    2    0    0  0.00000000000E+00  0.00000000000E+00  0.34383386367E+02  0.24278991434E+04  0.24276556662E+04 0.  0.
        2    1    3    3  502    0 -0.71220046417E+03  0.90185407035E+02 -0.96168892974E+03  0.12000868745E+04  0.25500000920E-02 0. -1.
       -2    1    3    3    0  502  0.71220046417E+03 -0.90185407035E+02  0.99607231611E+03  0.12278122689E+04  0.25500000920E-02 0.  1.
</event>
<event>
 5   0  0.2025353E-05  0.2421088E+04  0.7818609E-02  0.8431650E-01
        2   -1    0    0  501    0  0.00000000000E+00  0.00000000000E+00  0.10378580645E+04  0.10378580645E+04  0.25500000920E-02 0. -1.
       -2   -1    0    0    0  501  0.00000000000E+00  0.00000000000E+00 -0.14119628553E+04  0.14119628553E+04  0.25500000920E-02 0.  1.
    10030    2    1    2    0    0  0.00000000000E+00  0.00000000000E+00 -0.37410479080E+03  0.24498209198E+04  0.24210882150E+04 0.  0.
        4    1    3    3  502    0  0.27852641964E+03 -0.24942853797E+02  0.10047268513E+04  0.10429174325E+04  0.12699999809E+01 0. -1.
       -4    1    3    3    0  502 -0.27852641964E+03  0.24942853797E+02 -0.13788316421E+04  0.14069034873E+04  0.12699999809E+01 0.  1.
</event>
<event>
 5   0  0.8528103E-06  0.2395583E+04  0.7818609E-02  0.8441159E-01
       -1   -1    0    0    0  501  0.00000000000E+00  0.00000000000E+00  0.68287262191E+03  0.68287262193E+03  0.50400001928E-02 0. -1.
        1   -1    0    0  501    0  0.00000000000E+00  0.00000000000E+00 -0.21009846948E+04  0.21009846948E+04  0.50400001928E-02 0.  1.
    10030    2    1    2    0    0  0.00000000000E+00  0.00000000000E+00 -0.14181120729E+04  0.27838573168E+04  0.23955833755E+04 0.  0.
        4    1    3    3  502    0  0.93562032894E+03  0.77985965384E+02 -0.15734086284E+04  0.18322345744E+04  0.12699999809E+01 0.  1.
       -4    1    3    3    0  502 -0.93562032894E+03 -0.77985965384E+02  0.15529655551E+03  0.95162274236E+03  0.12699999809E+01 0. -1.
</event>
<event>
 5   0  0.9176817E-06  0.2410848E+04  0.7818609E-02  0.8435453E-01
       -1   -1    0    0    0  501  0.00000000000E+00  0.00000000000E+00  0.14022592273E+04  0.14022592273E+04  0.50400001928E-02 0. -1.
        1   -1    0    0  501    0  0.00000000000E+00  0.00000000000E+00 -0.10362187662E+04  0.10362187662E+04  0.50400001928E-02 0.  1.
    10030    2    1    2    0    0  0.00000000000E+00  0.00000000000E+00  0.36604046109E+03  0.24384779935E+04  0.24108482543E+04 0.  0.
        3    1    3    3  502    0  0.77651023871E+03 -0.60871099157E+03 -0.51741173115E+03  0.11140970029E+04  0.10100000352E+00 0.  1.
       -3    1    3    3    0  502 -0.77651023871E+03  0.60871099157E+03  0.88345219224E+03  0.13243809906E+04  0.10100000352E+00 0. -1.
</event>
<event>
 5   0  0.2080257E-05  0.2403339E+04  0.7818609E-02  0.8438254E-01
        2   -1    0    0  501    0  0.00000000000E+00  0.00000000000E+00  0.17241448698E+04  0.17241448698E+04  0.25500000920E-02 0.  1.
       -2   -1    0    0    0  501  0.00000000000E+00  0.00000000000E+00 -0.83752236967E+03  0.83752236967E+03  0.25500000920E-02 0. -1.
    10030    2    1    2    0    0  0.00000000000E+00  0.00000000000E+00  0.88662250010E+03  0.25616672394E+04  0.24033392578E+04 0.  0.
        1    1    3    3  502    0 -0.46340208332E+03 -0.10670449647E+04  0.12233592347E+03  0.11697403668E+04  0.50400001928E-02 0. -1.
       -1    1    3    3    0  502  0.46340208332E+03  0.10670449647E+04  0.76428657663E+03  0.13919268726E+04  0.50400001928E-02 0.  1.
</event>
<event>
 5   0  0.9083687E-06  0.2395567E+04  0.7818609E-02  0.8441165E-01
       -1   -1    0    0    0  501  0.00000000000E+00  0.00000000000E+00  0.77135112638E+03  0.77135112639E+03  0.50400001928E-02 0.  1.
        1   -1    0    0  501    0  0.00000000000E+00  0.00000000000E+00 -0.18599643450E+04  0.18599643450E+04  0.50400001928E-02 0. -1.
    10030    2    1    2    0    0  0.00000000000E+00  0.00000000000E+00 -0.10886132186E+04  0.26313154714E+04  0.23955672335E+04 0.  0.
        2    1    3    3  502    0  0.59057689974E+03 -0.45652789162E+03 -0.15732342917E+04  0.17413399802E+04  0.25500000920E-02 0. -1.
       -2    1    3    3    0  502 -0.59057689974E+03  0.45652789162E+03  0.48462107307E+03  0.88997549112E+03  0.25500000920E-02 0.  1.
</event>
<event>
 5   0  0.2080257E-05  0.2394585E+04  0.7818609E-02  0.8441534E-01
       -2   -1    0    0    0  501  0.00000000000E+00  0.00000000000E+00  0.11335632077E+04  0.11335632077E+04  0.25500000920E-02 0.  1.
        2   -1    0    0  501    0  0.00000000000E+00  0.00000000000E+00 -0.12646050187E+04  0.12646050187E+04  0.25500000920E-02 0. -1.
    10030    2    1    2    0    0  0.00000000000E+00  0.00000000000E+00 -0.13104181103E+03  0.23981682264E+04  0.23945853265E+04 0.  0.
        1    1    3    3  502    0  0.70379880929E+03  0.89114670194E+03 -0.44560755223E+03  0.12198529825E+04  0.50400001928E-02 0. -1.
       -1    1    3    3    0  502 -0.70379880929E+03 -0.89114670194E+03  0.31456574120E+03  0.11783152439E+04  0.50400001928E-02 0.  1.
</event>
<event>
 5   0  0.2122194E-05  0.2332511E+04  0.7818609E-02  0.8465212E-01
        2   -1    0    0  501    0  0.00000000000E+00  0.00000000000E+00  0.15089300282E+04  0.15089300282E+04  0.25500000920E-02 0. -1.
       -2   -1    0    0    0  501  0.00000000000E+00  0.00000000000E+00 -0.90140151938E+03  0.90140151938E+03  0.25500000920E-02 0.  1.
    10030    2    1    2    0    0  0.00000000000E+00  0.00000000000E+00  0.60752850877E+03  0.24103315475E+04  0.23325109389E+04 0.  0.
        3    1    3    3  502    0 -0.23561164171E+02  0.98418775436E+02  0.15043842492E+04  0.15077842562E+04  0.10100000352E+00 0. -1.
       -3    1    3    3    0  502  0.23561164171E+02 -0.98418775436E+02 -0.89685574041E+03  0.90254729135E+03  0.10100000352E+00 0.  1.
</event>
<event>
 5   0  0.9038897E-06  0.2395647E+04  0.7818609E-02  0.8441135E-01
        1   -1    0    0  501    0  0.00000000000E+00  0.00000000000E+00  0.16934765207E+04  0.16934765207E+04  0.50400001928E-02 0.  1.
       -1   -1    0    0    0  501  0.00000000000E+00  0.00000000000E+00 -0.84724012274E+03  0.84724012276E+03  0.50400001928E-02 0. -1.
    10030    2    1    2    0    0  0.00000000000E+00  0.00000000000E+00  0.84623639797E+03  0.25407166435E+04  0.23956470986E+04 0.  0.
        1    1    3    3  502    0  0.93939840395E+03  0.56829745019E+03 -0.84787012736E+02  0.11011903518E+04  0.50400001928E-02 0. -1.
       -1    1    3    3    0  502 -0.93939840395E+03 -0.56829745019E+03  0.93102341070E+03  0.14395262917E+04  0.50400001928E-02 0.  1.
</event>
<event>
 5   0  0.9038897E-06  0.2394335E+04  0.7818609E-02  0.8441627E-01
       -1   -1    0    0    0  501  0.00000000000E+00  0.00000000000E+00  0.10642908506E+04  0.10642908507E+04  0.50400001928E-02 0.  1.
        1   -1    0    0  501    0  0.00000000000E+00  0.00000000000E+00 -0.13466342098E+04  0.13466342098E+04  0.50400001928E-02 0. -1.
    10030    2    1    2    0    0  0.00000000000E+00  0.00000000000E+00 -0.28234335914E+03  0.24109250605E+04  0.23943353722E+04 0.  0.
        1    1    3    3  502    0  0.44208468528E+02 -0.23668260543E+03 -0.13220022033E+04  0.13437495563E+04  0.50400001928E-02 0. -1.
       -1    1    3    3    0  502 -0.44208468528E+02  0.23668260543E+03  0.10396588442E+04  0.10671755042E+04  0.50400001928E-02 0.  1.
</event>
<event>
 5   0  0.2080257E-05  0.2371725E+04  0.7818609E-02  0.8450166E-01
        2   -1    0    0  501    0  0.00000000000E+00  0.00000000000E+00  0.12657776592E+04  0.12657776592E+04  0.25500000920E-02 0. -1.
       -2   -1    0    0    0  501  0.00000000000E+00  0.00000000000E+00 -0.11109924129E+04  0.11109924129E+04  0.25500000920E-02 0.  1.
    10030    2    1    2    0    0  0.00000000000E+00  0.00000000000E+00  0.15478524632E+03  0.23767700721E+04  0.23717245841E+04 0.  0.
        1    1    3    3  502    0  0.30461054198E+03 -0.75421063568E+03 -0.78737308761E+03  0.11320678621E+04  0.50400001928E-02 0.  1.
       -1    1    3    3    0  502 -0.30461054198E+03  0.75421063568E+03  0.94215833393E+03  0.12447022100E+04  0.50400001928E-02 0. -1.
</event>
<event>
 5   0  0.9083687E-06  0.2401198E+04  0.7818609E-02  0.8439055E-01
        1   -1    0    0  501    0  0.00000000000E+00  0.00000000000E+00  0.16700260595E+04  0.16700260595E+04  0.50400001928E-02 0. -1.
       -1   -1    0    0    0  501  0.00000000000E+00  0.00000000000E+00 -0.86312305612E+03  0.86312305613E+03  0.50400001928E-02 0.  1.
    10030    2    1    2    0    0  0.00000000000E+00  0.00000000000E+00  0.80690300335E+03  0.25331491156E+04  0.24011980312E+04 0.  0.
        2    1    3    3  502    0  0.60147424246E+03 -0.23753900834E+03  0.14705928448E+04  0.16064991005E+04  0.25500000920E-02 0. -1.
       -2    1    3    3    0  502 -0.60147424246E+03  0.23753900834E+03 -0.66368984144E+03  0.92665001509E+03  0.25500000920E-02 0.  1.
</event>
<event>
 5   0  0.9038897E-06  0.2394252E+04  0.7818609E-02  0.8441659E-01
        1   -1    0    0  501    0  0.00000000000E+00  0.00000000000E+00  0.13253794772E+04  0.13253794772E+04  0.50400001928E-02 0. -1.
       -1   -1    0    0    0  501  0.00000000000E+00  0.00000000000E+00 -0.10812835609E+04  0.10812835609E+04  0.50400001928E-02 0.  1.
    10030    2    1    2    0    0  0.00000000000E+00  0.00000000000E+00  0.24409591627E+03  0.24066630381E+04  0.23942523181E+04 0.  0.
        1    1    3    3  502    0 -0.76759766709E+03  0.34973156761E+03 -0.73182141185E+03  0.11167277765E+04  0.50400001928E-02 0.  1.
       -1    1    3    3    0  502  0.76759766709E+03 -0.34973156761E+03  0.97591732812E+03  0.12899352617E+04  0.50400001928E-02 0. -1.
</event>
<event>
 5   0  0.2122194E-05  0.2401327E+04  0.7818609E-02  0.8439007E-01
        2   -1    0    0  501    0  0.00000000000E+00  0.00000000000E+00  0.16141196364E+04  0.16141196364E+04  0.25500000920E-02 0.  1.
       -2   -1    0    0    0  501  0.00000000000E+00  0.00000000000E+00 -0.89311379316E+03  0.89311379316E+03  0.25500000920E-02 0. -1.
    10030    2    1    2    0    0  0.00000000000E+00  0.00000000000E+00  0.72100584326E+03  0.25072334296E+04  0.24013267259E+04 0.  0.
        3    1    3    3  502    0 -0.27633155074E+03  0.30750667209E+03  0.15374594438E+04  0.15920744426E+04  0.10100000352E+00 0.  1.
       -3    1    3    3    0  502  0.27633155074E+03 -0.30750667209E+03 -0.81645360056E+03  0.91515898694E+03  0.10100000352E+00 0. -1.
</event>
<event>
 5   0  0.8528103E-06  0.2211986E+04  0.7818609E-02  0.8513456E-01
       -1   -1    0    0    0  501  0.00000000000E+00  0.00000000000E+00  0.10301735291E+04  0.10301735291E+04  0.50400001928E-02 0. -1.
        1   -1    0    0  501    0  0.00000000000E+00  0.00000000000E+00 -0.11873927495E+04  0.11873927495E+04  0.50400001928E-02 0.  1.
    10030    2    1    2    0    0  0.00000000000E+00  0.00000000000E+00 -0.15721922043E+03  0.22175662786E+04  0.22119860570E+04 0.  0.
        4    1    3    3  502    0 -0.56573340919E+03  0.90735560676E+03 -0.36193622186E+03  0.11288702002E+04  0.12699999809E+01 0.  1.
       -4    1    3    3    0  502  0.56573340919E+03 -0.90735560676E+03  0.20471700143E+03  0.10886960783E+04  0.12699999809E+01 0. -1.
</event>
<event>
 5   0  0.8528103E-06  0.2308376E+04  0.7818609E-02  0.8474626E-01
       -1   -1    0    0    0  501  0.00000000000E+00  0.00000000000E+00  0.92926074547E+03  0.92926074549E+03  0.50400001928E-02 0. -1.
        1   -1    0    0  501    0  0.00000000000E+00  0.00000000000E+00 -0.14335587516E+04  0.14335587516E+04  0.50400001928E-02 0.  1.
    10030    2    1    2    0    0  0.00000000000E+00  0.00000000000E+00 -0.50429800612E+03  0.23628194971E+04  0.23083759436E+04 0.  0.
        4    1    3    3  502    0 -0.81031979936E+03  0.63923952398E+03  0.27666222118E+03  0.10685452465E+04  0.12699999809E+01 0. -1.
       -4    1    3    3    0  502  0.81031979936E+03 -0.63923952398E+03 -0.78096022730E+03  0.12942742506E+04  0.12699999809E+01 0.  1.
</event>
<event>
 5   0  0.8528103E-06  0.2357378E+04  0.7818609E-02  0.8455635E-01
       -1   -1    0    0    0  501  0.00000000000E+00  0.00000000000E+00  0.65636504391E+03  0.65636504393E+03  0.50400001928E-02 0.  1.
        1   -1    0    0  501    0  0.00000000000E+00  0.00000000000E+00 -0.21166700878E+04  0.21166700878E+04  0.50400001928E-02 0. -1.
    10030    2    1    2    0    0  0.00000000000E+00  0.00000000000E+00 -0.14603050439E+04  0.27730351317E+04  0.23573784212E+04 0.  0.
        4    1    3    3  502    0  0.11579701038E+04  0.11548670274E+02 -0.47168677717E+03  0.12504071984E+04  0.12699999809E+01 0. -1.
       -4    1    3    3    0  502 -0.11579701038E+04 -0.11548670274E+02 -0.98861826670E+03  0.15226279333E+04  0.12699999809E+01 0.  1.
</event>
<event>
 5   0  0.2087882E-05  0.2368963E+04  0.7818609E-02  0.8451216E-01
       -2   -1    0    0    0  501  0.00000000000E+00  0.00000000000E+00  0.11186972780E+04  0.11186972780E+04  0.25500000920E-02 0. -1.
        2   -1    0    0  501    0  0.00000000000E+00  0.00000000000E+00 -0.12541338878E+04  0.12541338878E+04  0.25500000920E-02 0.  1.
    10030    2    1    2    0    0  0.00000000000E+00  0.00000000000E+00 -0.13543660974E+03  0.23728311658E+04  0.23689627828E+04 0.  0.
        2    1    3    3  502    0 -0.55431274358E+03 -0.90763493376E+03  0.45460458522E+03  0.11566024034E+04  0.25500000920E-02 0. -1.
       -2    1    3    3    0  502  0.55431274358E+03  0.90763493376E+03 -0.59004119496E+03  0.12162287624E+04  0.25500000920E-02 0.  1.
</event>
<event>
 5   0  0.2025353E-05  0.2398921E+04  0.7818609E-02  0.8439908E-01
        2   -1    0    0  501    0  0.00000000000E+00  0.00000000000E+00  0.10810802226E+04  0.10810802226E+04  0.25500000920E-02 0. -1.
       -2   -1    0    0    0  501  0.00000000000E+00  0.00000000000E+00 -0.13308036369E+04  0.13308036369E+04  0.25500000920E-02 0.  1.
    10030    2    1    2    0    0  0.00000000000E+00  0.00000000000E+00 -0.24972341430E+03  0.24118838594E+04  0.23989210007E+04 0.  0.
        4    1    3    3  502    0 -0.48831450367E+02 -0.14023378536E+03  0.10718025476E+04  0.10820408213E+04  0.12699999809E+01 0. -1.
       -4    1    3    3    0  502  0.48831450367E+02  0.14023378536E+03 -0.13215259619E+04  0.13298430381E+04  0.12699999809E+01 0.  1.
</event>
<event>
 5   0  0.2122194E-05  0.2395114E+04  0.7818609E-02  0.8441335E-01
        2   -1    0    0  501    0  0.00000000000E+00  0.00000000000E+00  0.18750924946E+04  0.18750924946E+04  0.25500000920E-02 0.  1.
       -2   -1    0    0    0  501  0.00000000000E+00  0.00000000000E+00 -0.76483833997E+03  0.76483833998E+03  0.25500000920E-02 0. -1.
    10030    2    1    2    0    0  0.00000000000E+00  0.00000000000E+00  0.11102541546E+04  0.26399308346E+04  0.23951138853E+04 0.  0.
        3    1    3    3  502    0  0.11222901632E+04  0.31897026517E+03  0.85265449829E+03  0.14450940953E+04  0.10100000352E+00 0.  1.
       -3    1    3    3    0  502 -0.11222901632E+04 -0.31897026517E+03  0.25759965633E+03  0.11948367393E+04  0.10100000352E+00 0. -1.
</event>
<event>
 5   0  0.9176817E-06  0.2387650E+04  0.7818609E-02  0.8444142E-01
        1   -1    0    0  501    0  0.00000000000E+00  0.00000000000E+00  0.15256793551E+04  0.15256793551E+04  0.50400001928E-02 0. -1.
       -1   -1    0    0    0  501  0.00000000000E+00  0.00000000000E+00 -0.93415306710E+03  0.93415306712E+03  0.50400001928E-02 0.  1.
    10030    2    1    2    0    0  0.00000000000E+00  0.00000000000E+00  0.59152628802E+03  0.24598324222E+04  0.23876499317E+04 0.  0.
        3    1    3    3  502    0 -0.11052328082E+04 -0.25615867943E+03  0.67856206592E+03  0.13219694841E+04  0.10100000352E+00 0. -1.
       -3    1    3    3    0  502  0.11052328082E+04  0.25615867943E+03 -0.87035777906E+02  0.11378629382E+04  0.10100000352E+00 0.  1.
</event>
<event>
 5   0  0.2122194E-05  0.2406043E+04  0.7818609E-02  0.8437245E-01
       -2   -1    0    0    0  501  0.00000000000E+00  0.00000000000E+00  0.97451190190E+03  0.97451190190E+03  0.25500000920E-02 0. -1.
        2   -1    0    0  501    0  0.00000000000E+00  0.00000000000E+00 -0.14851132294E+04  0.14851132294E+04  0.25500000920E-02 0.  1.
    10030    2    1    2    0    0  0.00000000000E+00  0.00000000000E+00 -0.51060132747E+03  0.24596251313E+04  0.24060428240E+04 0.  0.
        3    1    3    3  502    0  0.20969785257E+03  0.78633788403E+03  0.65040971846E+03  0.10417932949E+04  0.10100000352E+00 0. -1.
       -3    1    3    3    0  502 -0.20969785257E+03 -0.78633788403E+03 -0.11610110459E+04  0.14178318364E+04  0.10100000352E+00 0.  1.
</event>
<event>
 5   0  0.2087882E-05  0.2398165E+04  0.7818609E-02  0.8440191E-01
        2   -1    0    0  501    0  0.00000000000E+00  0.00000000000E+00  0.14677662039E+04  0.14677662039E+04  0.25500000920E-02 0.  1.
       -2   -1    0    0    0  501  0.00000000000E+00  0.00000000000E+00 -0.97958302040E+03  0.97958302041E+03  0.25500000920E-02 0. -1.
    10030    2    1    2    0    0  0.00000000000E+00  0.00000000000E+00  0.48818318350E+03  0.24473492243E+04  0.23981650079E+04 0.  0.
        2    1    3    3  502    0 -0.56147000683E+03  0.18088979093E+03 -0.82126769697E+03  0.10111628529E+04  0.25500000920E-02 0. -1.
       -2    1    3    3    0  502  0.56147000683E+03 -0.18088979093E+03  0.13094508805E+04  0.14361863714E+04  0.25500000920E-02 0.  1.
</event>
<event>
 5   0  0.9176817E-06  0.2395563E+04  0.7818609E-02  0.8441166E-01
       -1   -1    0    0    0  501  0.00000000000E+00  0.00000000000E+00  0.15622983865E+04  0.15622983866E+04  0.50400001928E-02 0. -1.
        1   -1    0    0  501    0  0.00000000000E+00  0.00000000000E+00 -0.91831417246E+03  0.91831417248E+03  0.50400001928E-02 0.  1.
    10030    2    1    2    0    0  0.00000000000E+00  0.00000000000E+00  0.64398421408E+03  0.24806125590E+04  0.23955631906E+04 0.  0.
        3    1    3    3  502    0  0.36488171438E+03 -0.55389472049E+03 -0.71078520803E+03  0.97219013008E+03  0.10100000352E+00 0.  1.
       -3    1    3    3    0  502 -0.36488171438E+03  0.55389472049E+03  0.13547694221E+04  0.15084224290E+04  0.10100000352E+00 0. -1.
</event>
<event>
 5   0  0.2048028E-05  0.2416878E+04  0.7818609E-02  0.8433212E-01
       -2   -1    0    0    0  501  0.00000000000E+00  0.00000000000E+00  0.65670085595E+03  0.65670085595E+03  0.25500000920E-02 0. -1.
        2   -1    0    0  501    0  0.00000000000E+00  0.00000000000E+00 -0.22237295807E+04  0.22237295807E+04  0.25500000920E-02 0.  1.
    10030    2    1    2    0    0  0.00000000000E+00  0.00000000000E+00 -0.15670287248E+04  0.28804304367E+04  0.24168782502E+04 0.  0.
        5    1    3    3  502    0  0.47177294909E+02 -0.10645638157E+04 -0.14627149741E+04  0.18097179340E+04  0.46999998093E+01 0.  1.
       -5    1    3    3    0  502 -0.47177294909E+02  0.10645638157E+04 -0.10431375065E+03  0.10707125027E+04  0.46999998093E+01 0. -1.
</event>
<event>
 5   0  0.8898848E-06  0.2391071E+04  0.7818609E-02  0.8442854E-01
        1   -1    0    0  501    0  0.00000000000E+00  0.00000000000E+00  0.15130633325E+04  0.15130633325E+04  0.50400001928E-02 0. -1.
       -1   -1    0    0    0  501  0.00000000000E+00  0.00000000000E+00 -0.94464291752E+03  0.94464291753E+03  0.50400001928E-02 0.  1.
    10030    2    1    2    0    0  0.00000000000E+00  0.00000000000E+00  0.56842041502E+03  0.24577062501E+04  0.23910705225E+04 0.  0.
        5    1    3    3  502    0  0.26642371362E+03 -0.11600489259E+04  0.39953030570E+03  0.12555244565E+04  0.46999998093E+01 0.  1.
       -5    1    3    3    0  502 -0.26642371362E+03  0.11600489259E+04  0.16889010932E+03  0.12021817936E+04  0.46999998093E+01 0. -1.
</event>
<event>
 5   0  0.2048028E-05  0.2398482E+04  0.7818609E-02  0.8440072E-01
       -2   -1    0    0    0  501  0.00000000000E+00  0.00000000000E+00  0.74943994927E+03  0.74943994927E+03  0.25500000920E-02 0.  1.
        2   -1    0    0  501    0  0.00000000000E+00  0.00000000000E+00 -0.19190046543E+04  0.19190046543E+04  0.25500000920E-02 0. -1.
    10030    2    1    2    0    0  0.00000000000E+00  0.00000000000E+00 -0.11695647051E+04  0.26684446036E+04  0.23984818121E+04 0.  0.
        5    1    3    3  502    0  0.37079642354E+03 -0.93124979791E+03 -0.13172467157E+04  0.16552574343E+04  0.46999998093E+01 0. -1.
       -5    1    3    3    0  502 -0.37079642354E+03  0.93124979791E+03  0.14768201060E+03  0.10131871693E+04  0.46999998093E+01 0.  1.
</event>
<event>
 5   0  0.2080257E-05  0.2374997E+04  0.7818609E-02  0.8448924E-01
        2   -1    0    0  501    0  0.00000000000E+00  0.00000000000E+00  0.21671199152E+04  0.21671199152E+04  0.25500000920E-02 0.  1.
       -2   -1    0    0    0  501  0.00000000000E+00  0.00000000000E+00 -0.65070374013E+03  0.65070374014E+03  0.25500000920E-02 0. -1.
    10030    2    1    2    0    0  0.00000000000E+00  0.00000000000E+00  0.15164161750E+04  0.28178236553E+04  0.23749972919E+04 0.  0.
        1    1    3    3  502    0 -0.55377806557E+03 -0.98563221739E+03  0.32712852786E+03  0.11769256933E+04  0.50400001928E-02 0. -1.
       -1    1    3    3    0  502  0.55377806557E+03  0.98563221739E+03  0.11892876472E+04  0.16408979620E+04  0.50400001928E-02 0.  1.
</event>
<event>
 5   0  0.2025353E-05  0.2392479E+04  0.7818609E-02  0.8442325E-01
       -2   -1    0    0    0  501  0.00000000000E+00  0.00000000000E+00  0.58810707316E+03  0.58810707317E+03  0.25500000920E-02 0.  1.
        2   -1    0    0  501    0  0.00000000000E+00  0.00000000000E+00 -0.24332115393E+04  0.24332115393E+04  0.25500000920E-02 0. -1.
    10030    2    1    2    0    0  0.00000000000E+00  0.00000000000E+00 -0.18451044662E+04  0.30213186125E+04  0.23924789795E+04 0.  0.
        4    1    3    3  502    0 -0.13589238989E+02 -0.46688467011E+03 -0.23132950022E+04  0.23599790979E+04  0.12699999809E+01 0. -1.
       -4    1    3    3    0  502  0.13589238989E+02  0.46688467011E+03  0.46819053603E+03  0.66133951457E+03  0.12699999809E+01 0.  1.
</event>
<event>
 5   0  0.9176817E-06  0.2426393E+04  0.7818609E-02  0.8429688E-01
        1   -1    0    0  501    0  0.00000000000E+00  0.00000000000E+00  0.89321056724E+03  0.89321056726E+03  0.50400001928E-02 0.  1.
       -1   -1    0    0    0  501  0.00000000000E+00  0.00000000000E+00 -0.16478154790E+04  0.16478154791E+04  0.50400001928E-02 0. -1.
    10030    2    1    2    0    0  0.00000000000E+00  0.00000000000E+00 -0.75460491180E+03  0.25410260463E+04  0.24263933719E+04 0.  0.
        3    1    3    3  502    0  0.64637545977E+03 -0.63591763626E+03  0.46678776416E+03  0.10198447441E+04  0.10100000352E+00 0.  1.
       -3    1    3    3    0  502 -0.64637545977E+03  0.63591763626E+03 -0.12213926760E+04  0.15211813022E+04  0.10100000352E+00 0. -1.
</event>
<event>
 5   0  0.8528103E-06  0.2401215E+04  0.7818609E-02  0.8439049E-01
       -1   -1    0    0    0  501  0.00000000000E+00  0.00000000000E+00  0.94069487637E+03  0.94069487638E+03  0.50400001928E-02 0. -1.
        1   -1    0    0  501    0  0.00000000000E+00  0.00000000000E+00 -0.15323331882E+04  0.15323331882E+04  0.50400001928E-02 0.  1.
    10030    2    1    2    0    0  0.00000000000E+00  0.00000000000E+00 -0.59163831184E+03  0.24730280646E+04  0.24012146752E+04 0.  0.
        4    1    3    3  502    0  0.22132932342E+02 -0.11974717891E+04 -0.20947992390E+03  0.12158585459E+04  0.12699999809E+01 0. -1.
       -4    1    3    3    0  502 -0.22132932342E+02  0.11974717891E+04 -0.38215838795E+03  0.12571695187E+04  0.12699999809E+01 0.  1.
</event>
<event>
 5   0  0.2080257E-05  0.2415691E+04  0.7818609E-02  0.8433652E-01
       -2   -1    0    0    0  501  0.00000000000E+00  0.00000000000E+00  0.24849859263E+04  0.24849859263E+04  0.25500000920E-02 0.  1.
        2   -1    0    0  501    0  0.00000000000E+00  0.00000000000E+00 -0.58708223802E+03  0.58708223802E+03  0.25500000920E-02 0. -1.
    10030    2    1    2    0    0  0.00000000000E+00  0.00000000000E+00  0.18979036883E+04  0.30720681643E+04  0.24156912875E+04 0.  0.
        1    1    3    3  502    0 -0.42341535759E+03 -0.10805096613E+04  0.52314715444E+03  0.12729747202E+04  0.50400001928E-02 0. -1.
       -1    1    3    3    0  502  0.42341535759E+03  0.10805096613E+04  0.13747565339E+04  0.17990934441E+04  0.50400001928E-02 0.  1.
</event>
<event>
 5   0  0.9038897E-06  0.2400548E+04  0.7818609E-02  0.8439299E-01
       -1   -1    0    0    0  501  0.00000000000E+00  0.00000000000E+00  0.91650632114E+03  0.91650632116E+03  0.50400001928E-02 0. -1.
        1   -1    0    0  501    0  0.00000000000E+00  0.00000000000E+00 -0.15719010017E+04  0.15719010018E+04  0.50400001928E-02 0.  1.
    10030    2    1    2    0    0  0.00000000000E+00  0.00000000000E+00 -0.65539468061E+03  0.24884073229E+04  0.24005476078E+04 0.  0.
        1    1    3    3  502    0  0.15788443658E+03 -0.47104166345E+03  0.80492710596E+03  0.94589396337E+03  0.50400001928E-02 0. -1.
       -1    1    3    3    0  502 -0.15788443658E+03  0.47104166345E+03 -0.14603217866E+04  0.15425133595E+04  0.50400001928E-02 0.  1.
</event>
<event>
 5   0  0.2025353E-05  0.2396628E+04  0.7818609E-02  0.8440767E-01
       -2   -1    0    0    0  501  0.00000000000E+00  0.00000000000E+00  0.74163994101E+03  0.74163994101E+03  0.25500000920E-02 0.  1.
        2   -1    0    0  501    0  0.00000000000E+00  0.00000000000E+00 -0.19361911490E+04  0.19361911490E+04  0.25500000920E-02 0. -1.
    10030    2    1    2    0    0  0.00000000000E+00  0.00000000000E+00 -0.11945512079E+04  0.26778310900E+04  0.23966282060E+04 0.  0.
        4    1    3    3  502    0  0.70736617194E+03 -0.54161091648E+03 -0.14927087086E+04  0.17383584751E+04  0.12699999809E+01 0. -1.
       -4    1    3    3    0  502 -0.70736617194E+03  0.54161091648E+03  0.29815750069E+03  0.93947261491E+03  0.12699999809E+01 0.  1.
</event>
<event>
 5   0  0.2048028E-05  0.2520526E+04  0.7818609E-02  0.8395709E-01
       -2   -1    0    0    0  501  0.00000000000E+00  0.00000000000E+00  0.70237271752E+03  0.70237271753E+03  0.25500000920E-02 0. -1.
        2   -1    0    0  501    0  0.00000000000E+00  0.00000000000E+00 -0.22612829214E+04  0.22612829214E+04  0.25500000920E-02 0.  1.
    10030    2    1    2    0    0  0.00000000000E+00  0.00000000000E+00 -0.15589102039E+04  0.29636556390E+04  0.25205264772E+04 0.  0.
        5    1    3    3  502    0  0.86417414569E+03 -0.15959537189E+02  0.29895374872E+03  0.91457481639E+03  0.46999998093E+01 0. -1.
       -5    1    3    3    0  502 -0.86417414569E+03  0.15959537189E+02 -0.18578639526E+04  0.20490808226E+04  0.46999998093E+01 0.  1.
</event>
<event>
 5   0  0.2048028E-05  0.2381305E+04  0.7818609E-02  0.8446536E-01
       -2   -1    0    0    0  501  0.00000000000E+00  0.00000000000E+00  0.11054154935E+04  0.11054154935E+04  0.25500000920E-02 0. -1.
        2   -1    0    0  501    0  0.00000000000E+00  0.00000000000E+00 -0.12824619740E+04  0.12824619740E+04  0.25500000920E-02 0.  1.
    10030    2    1    2    0    0  0.00000000000E+00  0.00000000000E+00 -0.17704648057E+03  0.23878774675E+04  0.23813049665E+04 0.  0.
        5    1    3    3  502    0  0.11079253611E+04 -0.19301350867E+03  0.30355263493E+03  0.11648687104E+04  0.46999998093E+01 0. -1.
       -5    1    3    3    0  502 -0.11079253611E+04  0.19301350867E+03 -0.48059911550E+03  0.12230087571E+04  0.46999998093E+01 0.  1.
</event>
<event>
 5   0  0.8528103E-06  0.2396373E+04  0.7818609E-02  0.8440863E-01
        1   -1    0    0  501    0  0.00000000000E+00  0.00000000000E+00  0.67315299345E+03  0.67315299347E+03  0.50400001928E-02 0. -1.
       -1   -1    0    0    0  501  0.00000000000E+00  0.00000000000E+00 -0.21327262001E+04  0.21327262001E+04  0.50400001928E-02 0.  1.
    10030    2    1    2    0    0  0.00000000000E+00  0.00000000000E+00 -0.14595732067E+04  0.28058791936E+04  0.23963731144E+04 0.  0.
        4    1    3    3  502    0 -0.66569750780E+03  0.95517907966E+03 -0.10612303608E+04  0.15753513061E+04  0.12699999809E+01 0.  1.
       -4    1    3    3    0  502  0.66569750780E+03 -0.95517907966E+03 -0.39834284588E+03  0.12305278875E+04  0.12699999809E+01 0. -1.
</event>
<event>
 5   0  0.8528103E-06  0.2402495E+04  0.7818609E-02  0.8438570E-01
        1   -1    0    0  501    0  0.00000000000E+00  0.00000000000E+00  0.14331441578E+04  0.14331441578E+04  0.50400001928E-02 0.  1.
       -1   -1    0    0    0  501  0.00000000000E+00  0.00000000000E+00 -0.10068740704E+04  0.10068740704E+04  0.50400001928E-02 0. -1.
    10030    2    1    2    0    0  0.00000000000E+00  0.00000000000E+00  0.42627008745E+03  0.24400182282E+04  0.24024951127E+04 0.  0.
        4    1    3    3  502    0 -0.30570307869E+03  0.34040686851E+03 -0.91491613803E+03  0.10229390798E+04  0.12699999809E+01 0. -1.
       -4    1    3    3    0  502  0.30570307869E+03 -0.34040686851E+03  0.13411862255E+04  0.14170791484E+04  0.12699999809E+01 0.  1.
</event>
<event>
 5   0  0.9038897E-06  0.2369373E+04  0.7818609E-02  0.8451060E-01
        1   -1    0    0  501    0  0.00000000000E+00  0.00000000000E+00  0.28889648150E+04  0.28889648150E+04  0.50400001928E-02 0.  1.
       -1   -1    0    0    0  501  0.00000000000E+00  0.00000000000E+00 -0.48580791569E+03  0.48580791571E+03  0.50400001928E-02 0. -1.
    10030    2    1    2    0    0  0.00000000000E+00  0.00000000000E+00  0.24031568993E+04  0.33747727307E+04  0.23693728920E+04 0.  0.
        1    1    3    3  502    0 -0.55791101106E+03 -0.69446706316E+03  0.89201189705E+02  0.89526870287E+03  0.50400001928E-02 0. -1.
       -1    1    3    3    0  502  0.55791101106E+03  0.69446706316E+03  0.23139557096E+04  0.24795040278E+04  0.50400001928E-02 0.  1.
</event>
<event>
 5   0  0.2048028E-05  0.2392403E+04  0.7818609E-02  0.8442353E-01
        2   -1    0    0  501    0  0.00000000000E+00  0.00000000000E+00  0.16365229852E+04  0.16365229852E+04  0.25500000920E-02 0. -1.
       -2   -1    0    0    0  501  0.00000000000E+00  0.00000000000E+00 -0.87435224892E+03  0.87435224892E+03  0.25500000920E-02 0.  1.
    10030    2    1    2    0    0  0.00000000000E+00  0.00000000000E+00  0.76217073626E+03  0.25108752341E+04  0.23924026020E+04 0.  0.
        5    1    3    3  502    0  0.32000324111E+02  0.10806662919E+04  0.91830428696E+03  0.14185092557E+04  0.46999998093E+01 0. -1.
       -5    1    3    3    0  502 -0.32000324111E+02 -0.10806662919E+04 -0.15613355070E+03  0.10923659784E+04  0.46999998093E+01 0.  1.
</event>
<event>
 5   0  0.2025353E-05  0.2396609E+04  0.7818609E-02  0.8440774E-01
        2   -1    0    0  501    0  0.00000000000E+00  0.00000000000E+00  0.20573673588E+04  0.20573673588E+04  0.25500000920E-02 0. -1.
       -2   -1    0    0    0  501  0.00000000000E+00  0.00000000000E+00 -0.69794710896E+03  0.69794710897E+03  0.25500000920E-02 0.  1.
    10030    2    1    2    0    0  0.00000000000E+00  0.00000000000E+00  0.13594202498E+04  0.27553144677E+04  0.23966089378E+04 0.  0.
        4    1    3    3  502    0 -0.32628192988E+03 -0.10545701029E+04  0.14371874639E+03  0.11132091855E+04  0.12699999809E+01 0.  1.
       -4    1    3    3    0  502  0.32628192988E+03  0.10545701029E+04  0.12157015034E+04  0.16421052822E+04  0.12699999809E+01 0. -1.
</event>
<event>
 5   0  0.2080257E-05  0.2372525E+04  0.7818609E-02  0.8449862E-01
        2   -1    0    0  501    0  0.00000000000E+00  0.00000000000E+00  0.11187612882E+04  0.11187612882E+04  0.25500000920E-02 0.  1.
       -2   -1    0    0    0  501  0.00000000000E+00  0.00000000000E+00 -0.12578359603E+04  0.12578359603E+04  0.25500000920E-02 0. -1.
    10030    2    1    2    0    0  0.00000000000E+00  0.00000000000E+00 -0.13907467205E+03  0.23765972485E+04  0.23725245451E+04 0.  0.
        1    1    3    3  502    0 -0.81750431754E+03 -0.74779834734E+03 -0.49417834926E+03  0.12131479375E+04  0.50400001928E-02 0. -1.
       -1    1    3    3    0  502  0.81750431754E+03  0.74779834734E+03  0.35510367721E+03  0.11634493109E+04  0.50400001928E-02 0.  1.
</event>
<event>
 5   0  0.2080257E-05  0.2407792E+04  0.7818609E-02  0.8436592E-01
       -2   -1    0    0    0  501  0.00000000000E+00  0.00000000000E+00  0.11274587549E+04  0.11274587549E+04  0.25500000920E-02 0.  1.
        2   -1    0    0  501    0  0.00000000000E+00  0.00000000000E+00 -0.12855150925E+04  0.12855150925E+04  0.25500000920E-02 0. -1.
    10030    2    1    2    0    0  0.00000000000E+00  0.00000000000E+00 -0.15805633763E+03  0.24129738474E+04  0.24077917233E+04 0.  0.
        1    1    3    3  502    0  0.67069800902E+03  0.95207859078E+03 -0.38476801839E+03  0.12265137139E+04  0.50400001928E-02 0.  1.
       -1    1    3    3    0  502 -0.67069800902E+03 -0.95207859078E+03  0.22671168076E+03  0.11864601336E+04  0.50400001928E-02 0. -1.
</event>
<event>
 5   0  0.9083687E-06  0.2420324E+04  0.7818609E-02  0.8431934E-01
       -1   -1    0    0    0  501  0.00000000000E+00  0.00000000000E+00  0.95589352732E+03  0.95589352733E+03  0.50400001928E-02 0.  1.
        1   -1    0    0  501    0  0.00000000000E+00  0.00000000000E+00 -0.15320654742E+04  0.15320654742E+04  0.50400001928E-02 0. -1.
    10030    2    1    2    0    0  0.00000000000E+00  0.00000000000E+00 -0.57617194684E+03  0.24879590015E+04  0.24203235075E+04 0.  0.
        2    1    3    3  502    0 -0.11921684724E+04 -0.20694740505E+03 -0.30860822228E+03  0.12487321289E+04  0.25500000920E-02 0.  1.
       -2    1    3    3    0  502  0.11921684724E+04  0.20694740505E+03 -0.26756372455E+03  0.12392268726E+04  0.25500000920E-02 0. -1.
</event>
<event>
 5   0  0.8898848E-06  0.2403293E+04  0.7818609E-02  0.8438272E-01
        1   -1    0    0  501    0  0.00000000000E+00  0.00000000000E+00  0.17420789963E+04  0.17420789963E+04  0.50400001928E-02 0.  1.
       -1   -1    0    0    0  501  0.00000000000E+00  0.00000000000E+00 -0.82886862467E+03  0.82886862469E+03  0.50400001928E-02 0. -1.
    10030    2    1    2    0    0  0.00000000000E+00  0.00000000000E+00  0.91321037158E+03  0.25709476209E+04  0.24032932586E+04 0.  0.
        5    1    3    3  502    0 -0.91622821020E+03  0.31669950038E+03  0.12161800383E+04  0.15552776865E+04  0.46999998093E+01 0.  1.
       -5    1    3    3    0  502  0.91622821020E+03 -0.31669950038E+03 -0.30296966671E+03  0.10156699344E+04  0.46999998093E+01 0. -1.
</event>
<event>
 5   0  0.2048028E-05  0.2367139E+04  0.7818609E-02  0.8451910E-01
       -2   -1    0    0    0  501  0.00000000000E+00  0.00000000000E+00  0.79767929588E+03  0.79767929589E+03  0.25500000920E-02 0. -1.
        2   -1    0    0  501    0  0.00000000000E+00  0.00000000000E+00 -0.17561407911E+04  0.17561407911E+04  0.25500000920E-02 0.  1.
    10030    2    1    2    0    0  0.00000000000E+00  0.00000000000E+00 -0.95846149519E+03  0.25538200870E+04  0.23671393281E+04 0.  0.
        5    1    3    3  502    0 -0.81809942619E+02 -0.85148757991E+03  0.40325784922E+03  0.94570764426E+03  0.46999998093E+01 0. -1.
       -5    1    3    3    0  502  0.81809942619E+02  0.85148757991E+03 -0.13617193444E+04  0.16081124427E+04  0.46999998093E+01 0.  1.
</event>
<event>
 5   0  0.8528103E-06  0.2426651E+04  0.7818609E-02  0.8429593E-01
        1   -1    0    0  501    0  0.00000000000E+00  0.00000000000E+00  0.99153683890E+03  0.99153683891E+03  0.50400001928E-02 0.  1.
       -1   -1    0    0    0  501  0.00000000000E+00  0.00000000000E+00 -0.14847246141E+04  0.14847246141E+04  0.50400001928E-02 0. -1.
    10030    2    1    2    0    0  0.00000000000E+00  0.00000000000E+00 -0.49318777524E+03  0.24762614531E+04  0.24266513145E+04 0.  0.
        4    1    3    3  502    0  0.81401351737E+03  0.89081287021E+03 -0.11754924247E+03  0.12124293849E+04  0.12699999809E+01 0. -1.
       -4    1    3    3    0  502 -0.81401351737E+03 -0.89081287021E+03 -0.37563853277E+03  0.12638320681E+04  0.12699999809E+01 0.  1.
</event>
<event>
 5   0  0.2087882E-05  0.2404978E+04  0.7818609E-02  0.8437642E-01
        2   -1    0    0  501    0  0.00000000000E+00  0.00000000000E+00  0.12526736366E+04  0.12526736366E+04  0.25500000920E-02 0.  1.
       -2   -1    0    0    0  501  0.00000000000E+00  0.00000000000E+00 -0.11543147684E+04  0.11543147684E+04  0.25500000920E-02 0. -1.
    10030    2    1    2    0    0  0.00000000000E+00  0.00000000000E+00  0.98358868180E+02  0.24069884050E+04  0.24049779032E+04 0.  0.
        2    1    3    3  502    0 -0.20531258945E+03  0.54417449136E+03  0.11025328110E+04  0.12465383010E+04  0.25500000920E-02 0.  1.
       -2    1    3    3    0  502  0.20531258945E+03 -0.54417449136E+03 -0.10041739429E+04  0.11604501040E+04  0.25500000920E-02 0. -1.
</event>
<event>
 5   0  0.9038897E-06  0.2398870E+04  0.7818609E-02  0.8439927E-01
        1   -1    0    0  501    0  0.00000000000E+00  0.00000000000E+00  0.31149224863E+04  0.31149224863E+04  0.50400001928E-02 0.  1.
       -1   -1    0    0    0  501  0.00000000000E+00  0.00000000000E+00 -0.46185563032E+03  0.46185563035E+03  0.50400001928E-02 0. -1.
    10030    2    1    2    0    0  0.00000000000E+00  0.00000000000E+00  0.26530668560E+04  0.35767781167E+04  0.23988701410E+04 0.  0.
        1    1    3    3  502    0  0.25348422312E+03  0.72237865776E+03  0.27032595795E+04  0.28095724819E+04  0.50400001928E-02 0.  1.
       -1    1    3    3    0  502 -0.25348422312E+03 -0.72237865776E+03 -0.50192723523E+02  0.76720563481E+03  0.50400001928E-02 0. -1.
</event>
<event>
 5   0  0.2122194E-05  0.2319850E+04  0.7818609E-02  0.8470135E-01
        2   -1    0    0  501    0  0.00000000000E+00  0.00000000000E+00  0.88600423093E+03  0.88600423093E+03  0.25500000920E-02 0.  1.
       -2   -1    0    0    0  501  0.00000000000E+00  0.00000000000E+00 -0.15185321564E+04  0.15185321564E+04  0.25500000920E-02 0. -1.
    10030    2    1    2    0    0  0.00000000000E+00  0.00000000000E+00 -0.63252792545E+03  0.24045363873E+04  0.23198499222E+04 0.  0.
        3    1    3    3  502    0  0.33019642431E+03  0.10506893174E+04 -0.69348375261E+03  0.13014981543E+04  0.10100000352E+00 0. -1.
       -3    1    3    3    0  502 -0.33019642431E+03 -0.10506893174E+04  0.60955827161E+02  0.11030382330E+04  0.10100000352E+00 0.  1.
</event>
<event>
 5   0  0.2048028E-05  0.2394669E+04  0.7818609E-02  0.8441502E-01
        2   -1    0    0  501    0  0.00000000000E+00  0.00000000000E+00  0.18673769233E+04  0.18673769233E+04  0.25500000920E-02 0. -1.
       -2   -1    0    0    0  501  0.00000000000E+00  0.00000000000E+00 -0.76771298151E+03  0.76771298151E+03  0.25500000920E-02 0.  1.
    10030    2    1    2    0    0  0.00000000000E+00  0.00000000000E+00  0.10996639418E+04  0.26350899048E+04  0.23946686663E+04 0.  0.
        5    1    3    3  502    0 -0.43252221171E+02 -0.10357332372E+04 -0.10946501875E+03  0.10424100793E+04  0.46999998093E+01 0.  1.
       -5    1    3    3    0  502  0.43252221171E+02  0.10357332372E+04  0.12091289605E+04  0.15926798254E+04  0.46999998093E+01 0. -1.
</event>
<event>
 5   0  0.9038897E-06  0.2369054E+04  0.7818609E-02  0.8451181E-01
       -1   -1    0    0    0  501  0.00000000000E+00  0.00000000000E+00  0.11493556798E+04  0.11493556798E+04  0.50400001928E-02 0. -1.
        1   -1    0    0  501    0  0.00000000000E+00  0.00000000000E+00 -0.12207740823E+04  0.12207740824E+04  0.50400001928E-02 0.  1.
    10030    2    1    2    0    0  0.00000000000E+00  0.00000000000E+00 -0.71418402526E+02  0.23701297622E+04  0.23690535033E+04 0.  0.
        1    1    3    3  502    0 -0.53573471285E+03 -0.43877801353E+03  0.92575069830E+03  0.11560935010E+04  0.50400001928E-02 0. -1.
       -1    1    3    3    0  502  0.53573471285E+03  0.43877801353E+03 -0.99716910083E+03  0.12140362611E+04  0.50400001928E-02 0.  1.
</event>
<event>
 5   0  0.8528103E-06  0.2387657E+04  0.7818609E-02  0.8444139E-01
       -1   -1    0    0    0  501  0.00000000000E+00  0.00000000000E+00  0.72195701518E+03  0.72195701520E+03  0.50400001928E-02 0.  1.
        1   -1    0    0  501    0  0.00000000000E+00  0.00000000000E+00 -0.19741151618E+04  0.19741151619E+04  0.50400001928E-02 0. -1.
    10030    2    1    2    0    0  0.00000000000E+00  0.00000000000E+00 -0.12521581467E+04  0.26960721771E+04  0.23876568346E+04 0.  0.
        4    1    3    3  502    0  0.10082853203E+04 -0.62933345210E+03 -0.75244935010E+03  0.14067272367E+04  0.12699999809E+01 0. -1.
       -4    1    3    3    0  502 -0.10082853203E+04  0.62933345210E+03 -0.49970879657E+03  0.12893449404E+04  0.12699999809E+01 0.  1.
</event>
<event>
 5   0  0.8898848E-06  0.2397319E+04  0.7818609E-02  0.8440508E-01
        1   -1    0    0  501    0  0.00000000000E+00  0.00000000000E+00  0.62515285871E+03  0.62515285873E+03  0.50400001928E-02 0. -1.
       -1   -1    0    0    0  501  0.00000000000E+00  0.00000000000E+00 -0.22982935207E+04  0.22982935207E+04  0.50400001928E-02 0.  1.
    10030    2    1    2    0    0  0.00000000000E+00  0.00000000000E+00 -0.16731406619E+04  0.29234463794E+04  0.23973191399E+04 0.  0.
        5    1    3    3  502    0 -0.32794179250E+02  0.46109387894E+03 -0.21852122368E+04  0.22335750789E+04  0.46999998093E+01 0.  1.
       -5    1    3    3    0  502  0.32794179250E+02 -0.46109387894E+03  0.51207157486E+03  0.68987130044E+03  0.46999998093E+01 0. -1.
</event>
<event>
 5   0  0.8898848E-06  0.2416884E+04  0.7818609E-02  0.8433210E-01
       -1   -1    0    0    0  501  0.00000000000E+00  0.00000000000E+00  0.10051604082E+04  0.10051604082E+04  0.50400001928E-02 0.  1.
        1   -1    0    0  501    0  0.00000000000E+00  0.00000000000E+00 -0.14528344694E+04  0.14528344694E+04  0.50400001928E-02 0. -1.
    10030    2    1    2    0    0  0.00000000000E+00  0.00000000000E+00 -0.44767406118E+03  0.24579948776E+04  0.24168836864E+04 0.  0.
        5    1    3    3  502    0  0.10730099733E+04 -0.38904341824E+02 -0.78774651357E+03  0.13317021477E+04  0.46999998093E+01 0. -1.
       -5    1    3    3    0  502 -0.10730099733E+04  0.38904341824E+02  0.34007245239E+03  0.11262927299E+04  0.46999998093E+01 0.  1.
</event>
<event>
 5   0  0.2048028E-05  0.2398787E+04  0.7818609E-02  0.8439958E-01
       -2   -1    0    0    0  501  0.00000000000E+00  0.00000000000E+00  0.10305949686E+04  0.10305949686E+04  0.25500000920E-02 0.  1.
        2   -1    0    0  501    0  0.00000000000E+00  0.00000000000E+00 -0.13958392469E+04  0.13958392469E+04  0.25500000920E-02 0. -1.
    10030    2    1    2    0    0  0.00000000000E+00  0.00000000000E+00 -0.36524427827E+03  0.24264342155E+04  0.23987871142E+04 0.  0.
        5    1    3    3  502    0  0.30877769163E+03 -0.59607648918E+03  0.82275069436E+03  0.10618811793E+04  0.46999998093E+01 0.  1.
       -5    1    3    3    0  502 -0.30877769163E+03  0.59607648918E+03 -0.11879949726E+04  0.13645530363E+04  0.46999998093E+01 0. -1.
</event>
<event>
 5   0  0.2048028E-05  0.2449935E+04  0.7818609E-02  0.8421042E-01
       -2   -1    0    0    0  501  0.00000000000E+00  0.00000000000E+00  0.62237471092E+03  0.62237471092E+03  0.25500000920E-02 0.  1.
        2   -1    0    0  501    0  0.00000000000E+00  0.00000000000E+00 -0.24109998161E+04  0.24109998161E+04  0.25500000920E-02 0. -1.
    10030    2    1    2    0    0  0.00000000000E+00  0.00000000000E+00 -0.17886251052E+04  0.30333745271E+04  0.24499349490E+04 0.  0.
        5    1    3    3  502    0  0.10108605190E+04  0.14132445393E+02 -0.17507692763E+04  0.20216957892E+04  0.46999998093E+01 0. -1.
       -5    1    3    3    0  502 -0.10108605190E+04 -0.14132445393E+02 -0.37855828900E+02  0.10116787379E+04  0.46999998093E+01 0.  1.
</event>
<event>
 5   0  0.2122194E-05  0.2384025E+04  0.7818609E-02  0.8445509E-01
       -2   -1    0    0    0  501  0.00000000000E+00  0.00000000000E+00  0.95074595708E+03  0.95074595708E+03  0.25500000920E-02 0. -1.
        2   -1    0    0  501    0  0.00000000000E+00  0.00000000000E+00 -0.14945045806E+04  0.14945045806E+04  0.25500000920E-02 0.  1.
    10030    2    1    2    0    0  0.00000000000E+00  0.00000000000E+00 -0.54375862349E+03  0.24452505377E+04  0.23840253252E+04 0.  0.
        3    1    3    3  502    0  0.36307055846E+03 -0.24076105252E+03 -0.14099273286E+04  0.14756968513E+04  0.10100000352E+00 0.  1.
       -3    1    3    3    0  502 -0.36307055846E+03  0.24076105252E+03  0.86616870510E+03  0.96955368636E+03  0.10100000352E+00 0. -1.
</event>
<event>
 5   0  0.2048028E-05  0.2141908E+04  0.7818609E-02  0.8543004E-01
       -2   -1    0    0    0  501  0.00000000000E+00  0.00000000000E+00  0.87793347846E+03  0.87793347846E+03  0.25500000920E-02 0. -1.
        2   -1    0    0  501    0  0.00000000000E+00  0.00000000000E+00 -0.13064118460E+04  0.13064118460E+04  0.25500000920E-02 0.  1.
    10030    2    1    2    0    0  0.00000000000E+00  0.00000000000E+00 -0.42847836757E+03  0.21843453245E+04  0.21419082112E+04 0.  0.
        5    1    3    3  502    0 -0.10586982784E+04  0.44947040131E+02 -0.37241975428E+03  0.11232011594E+04  0.46999998093E+01 0.  1.
       -5    1    3    3    0  502  0.10586982784E+04 -0.44947040131E+02 -0.56058613293E+02  0.10611441651E+04  0.46999998093E+01 0. -1.
</event>
<event>
 5   0  0.9083687E-06  0.2371962E+04  0.7818609E-02  0.8450076E-01
        1   -1    0    0  501    0  0.00000000000E+00  0.00000000000E+00  0.12573278983E+04  0.12573278983E+04  0.50400001928E-02 0. -1.
       -1   -1    0    0    0  501  0.00000000000E+00  0.00000000000E+00 -0.11186829629E+04  0.11186829629E+04  0.50400001928E-02 0.  1.
    10030    2    1    2    0    0  0.00000000000E+00  0.00000000000E+00  0.13864493542E+03  0.23760108611E+04  0.23719623088E+04 0.  0.
        2    1    3    3  502    0 -0.50414005928E+03 -0.63701843688E+03  0.93485839383E+03  0.12385111646E+04  0.25500000920E-02 0. -1.
       -2    1    3    3    0  502  0.50414005928E+03  0.63701843688E+03 -0.79621345841E+03  0.11374996966E+04  0.25500000920E-02 0.  1.
</event>
<event>
 5   0  0.2122194E-05  0.2401507E+04  0.7818609E-02  0.8438940E-01
       -2   -1    0    0    0  501  0.00000000000E+00  0.00000000000E+00  0.10168414295E+04  0.10168414295E+04  0.25500000920E-02 0.  1.
        2   -1    0    0  501    0  0.00000000000E+00  0.00000000000E+00 -0.14179292167E+04  0.14179292167E+04  0.25500000920E-02 0. -1.
    10030    2    1    2    0    0  0.00000000000E+00  0.00000000000E+00 -0.40108778720E+03  0.24347706462E+04  0.24015071698E+04 0.  0.
        3    1    3    3  502    0 -0.26557276179E-01 -0.38774185961E+03 -0.13527112306E+04  0.14071856431E+04  0.10100000352E+00 0. -1.
       -3    1    3    3    0  502  0.26557276179E-01  0.38774185961E+03  0.95162344343E+03  0.10275850031E+04  0.10100000352E+00 0.  1.
</event>
<event>
 5   0  0.2087882E-05  0.2411565E+04  0.7818609E-02  0.8435186E-01
       -2   -1    0    0    0  501  0.00000000000E+00  0.00000000000E+00  0.13662628200E+04  0.13662628200E+04  0.25500000920E-02 0. -1.
        2   -1    0    0  501    0  0.00000000000E+00  0.00000000000E+00 -0.10641525089E+04  0.10641525089E+04  0.25500000920E-02 0.  1.
    10030    2    1    2    0    0  0.00000000000E+00  0.00000000000E+00  0.30211031106E+03  0.24304153289E+04  0.24115654730E+04 0.  0.
        2    1    3    3  502    0  0.10239285940E+04 -0.62166716369E+03  0.29001758293E+03  0.12324812479E+04  0.25500000920E-02 0. -1.
       -2    1    3    3    0  502 -0.10239285940E+04  0.62166716369E+03  0.12092728125E+02  0.11979340809E+04  0.25500000920E-02 0.  1.
</event>
<event>
 5   0  0.2122194E-05  0.2348317E+04  0.7818609E-02  0.8459110E-01
       -2   -1    0    0    0  501  0.00000000000E+00  0.00000000000E+00  0.10654782078E+04  0.10654782078E+04  0.25500000920E-02 0. -1.
        2   -1    0    0  501    0  0.00000000000E+00  0.00000000000E+00 -0.12939242297E+04  0.12939242297E+04  0.25500000920E-02 0.  1.
    10030    2    1    2    0    0  0.00000000000E+00  0.00000000000E+00 -0.22844602186E+03  0.23594024375E+04  0.23483169031E+04 0.  0.
        3    1    3    3  502    0 -0.62450565124E+03  0.86964922775E+03 -0.59852646427E+03  0.12265932604E+04  0.10100000352E+00 0. -1.
       -3    1    3    3    0  502  0.62450565124E+03 -0.86964922775E+03  0.37008044240E+03  0.11328091771E+04  0.10100000352E+00 0.  1.
</event>
<event>
 5   0  0.9083687E-06  0.2393913E+04  0.7818609E-02  0.8441786E-01
       -1   -1    0    0    0  501  0.00000000000E+00  0.00000000000E+00  0.93313528278E+03  0.93313528280E+03  0.50400001928E-02 0. -1.
        1   -1    0    0  501    0  0.00000000000E+00  0.00000000000E+00 -0.15353662154E+04  0.15353662154E+04  0.50400001928E-02 0.  1.
    10030    2    1    2    0    0  0.00000000000E+00  0.00000000000E+00 -0.60223093257E+03  0.24685014982E+04  0.23939126029E+04 0.  0.
        2    1    3    3  502    0 -0.67784183191E+03  0.86367968344E+03 -0.79272173386E+03  0.13541860626E+04  0.25500000920E-02 0.  1.
       -2    1    3    3    0  502  0.67784183191E+03 -0.86367968344E+03  0.19049080129E+03  0.11143154356E+04  0.25500000920E-02 0. -1.
</event>
<event>
 5   0  0.2087882E-05  0.2410828E+04  0.7818609E-02  0.8435461E-01
        2   -1    0    0  501    0  0.00000000000E+00  0.00000000000E+00  0.10959211150E+04  0.10959211150E+04  0.25500000920E-02 0. -1.
       -2   -1    0    0    0  501  0.00000000000E+00  0.00000000000E+00 -0.13258467426E+04  0.13258467426E+04  0.25500000920E-02 0.  1.
    10030    2    1    2    0    0  0.00000000000E+00  0.00000000000E+00 -0.22992562762E+03  0.24217678576E+04  0.24108284389E+04 0.  0.
        2    1    3    3  502    0 -0.53894110700E+03  0.94639623522E+03 -0.63393079589E+03  0.12601553892E+04  0.25500000920E-02 0.  1.
       -2    1    3    3    0  502  0.53894110700E+03 -0.94639623522E+03  0.40400516827E+03  0.11616124684E+04  0.25500000920E-02 0. -1.
</event>
<event>
 5   0  0.8528103E-06  0.2379368E+04  0.7818609E-02  0.8447269E-01
        1   -1    0    0  501    0  0.00000000000E+00  0.00000000000E+00  0.16894002150E+04  0.16894002150E+04  0.50400001928E-02 0. -1.
       -1   -1    0    0    0  501  0.00000000000E+00  0.00000000000E+00 -0.83778131159E+03  0.83778131160E+03  0.50400001928E-02 0.  1.
    10030    2    1    2    0    0  0.00000000000E+00  0.00000000000E+00  0.85161890342E+03  0.25271815266E+04  0.23793679228E+04 0.  0.
        4    1    3    3  502    0  0.72033551067E+03 -0.81623039357E+03  0.93544151879E+03  0.14353284472E+04  0.12699999809E+01 0. -1.
       -4    1    3    3    0  502 -0.72033551067E+03  0.81623039357E+03 -0.83822615361E+02  0.10918530794E+04  0.12699999809E+01 0.  1.
</event>
<event>
 5   0  0.8528103E-06  0.2378025E+04  0.7818609E-02  0.8447777E-01
       -1   -1    0    0    0  501  0.00000000000E+00  0.00000000000E+00  0.61203230140E+03  0.61203230142E+03  0.50400001928E-02 0.  1.
        1   -1    0    0  501    0  0.00000000000E+00  0.00000000000E+00 -0.23099289475E+04  0.23099289475E+04  0.50400001928E-02 0. -1.
    10030    2    1    2    0    0  0.00000000000E+00  0.00000000000E+00 -0.16978966461E+04  0.29219612489E+04  0.23780253404E+04 0.  0.
        4    1    3    3  502    0 -0.56296347717E+03  0.10472601658E+04 -0.83883191581E+03  0.14551021708E+04  0.12699999809E+01 0. -1.
       -4    1    3    3    0  502  0.56296347717E+03 -0.10472601658E+04 -0.85906473029E+03  0.14668590782E+04  0.12699999809E+01 0.  1.
</event>
<event>
 5   0  0.2025353E-05  0.2372990E+04  0.7818609E-02  0.8449685E-01
       -2   -1    0    0    0  501  0.00000000000E+00  0.00000000000E+00  0.82975802305E+03  0.82975802306E+03  0.25500000920E-02 0. -1.
        2   -1    0    0  501    0  0.00000000000E+00  0.00000000000E+00 -0.16966039041E+04  0.16966039041E+04  0.25500000920E-02 0.  1.
    10030    2    1    2    0    0  0.00000000000E+00  0.00000000000E+00 -0.86684588100E+03  0.25263619271E+04  0.23729902666E+04 0.  0.
        4    1    3    3  502    0  0.83593873198E+03  0.21865474447E+03  0.43225179854E+03  0.96615044953E+03  0.12699999809E+01 0. -1.
       -4    1    3    3    0  502 -0.83593873198E+03 -0.21865474447E+03 -0.12990976795E+04  0.15602114776E+04  0.12699999809E+01 0.  1.
</event>
<event>
 5   0  0.9176817E-06  0.2399858E+04  0.7818609E-02  0.8439557E-01
        1   -1    0    0  501    0  0.00000000000E+00  0.00000000000E+00  0.20384702366E+04  0.20384702366E+04  0.50400001928E-02 0. -1.
       -1   -1    0    0    0  501  0.00000000000E+00  0.00000000000E+00 -0.70632845929E+03  0.70632845931E+03  0.50400001928E-02 0.  1.
    10030    2    1    2    0    0  0.00000000000E+00  0.00000000000E+00  0.13321417773E+04  0.27447986959E+04  0.23998579471E+04 0.  0.
        3    1    3    3  502    0  0.49674771190E+03  0.68188001313E+03 -0.30987047746E+03  0.89874265760E+03  0.10100000352E+00 0.  1.
       -3    1    3    3    0  502 -0.49674771190E+03 -0.68188001313E+03  0.16420122547E+04  0.18460560383E+04  0.10100000352E+00 0. -1.
</event>
<event>
 5   0  0.7233625E-06  0.2409610E+04  0.7818609E-02  0.8435915E-01
        4   -1    0    0  501    0  0.00000000000E+00  0.00000000000E+00  0.84438519557E+03  0.84438615064E+03  0.12699999809E+01 0. -1.
       -4   -1    0    0    0  501  0.00000000000E+00  0.00000000000E+00 -0.17190651543E+04  0.17190656234E+04  0.12699999809E+01 0.  1.
    10030    2    1    2    0    0  0.00000000000E+00  0.00000000000E+00 -0.87467995871E+03  0.25634517740E+04  0.24096099202E+04 0.  0.
        5    1    3    3  502    0 -0.68210555632E+03  0.89608245227E+03 -0.89281126690E+03  0.14371380586E+04  0.46999998093E+01 0.  1.
       -5    1    3    3    0  502  0.68210555632E+03 -0.89608245227E+03  0.18131308181E+02  0.11263137154E+04  0.46999998093E+01 0. -1.
</event>
<event>
 5   0  0.2080257E-05  0.2276726E+04  0.7818609E-02  0.8487155E-01
        2   -1    0    0  501    0  0.00000000000E+00  0.00000000000E+00  0.10128680596E+04  0.10128680596E+04  0.25500000920E-02 0.  1.
       -2   -1    0    0    0  501  0.00000000000E+00  0.00000000000E+00 -0.12794064275E+04  0.12794064275E+04  0.25500000920E-02 0. -1.
    10030    2    1    2    0    0  0.00000000000E+00  0.00000000000E+00 -0.26653836796E+03  0.22922744871E+04  0.22767256363E+04 0.  0.
        1    1    3    3  502    0 -0.62100166857E+03  0.95405271464E+03 -0.13649276458E+03  0.11465120712E+04  0.50400001928E-02 0. -1.
       -1    1    3    3    0  502  0.62100166857E+03 -0.95405271464E+03 -0.13004560337E+03  0.11457624159E+04  0.50400001928E-02 0.  1.
</event>
<event>
 5   0  0.2122194E-05  0.2395421E+04  0.7818609E-02  0.8441220E-01
        2   -1    0    0  501    0  0.00000000000E+00  0.00000000000E+00  0.14858786806E+04  0.14858786806E+04  0.25500000920E-02 0.  1.
       -2   -1    0    0    0  501  0.00000000000E+00  0.00000000000E+00 -0.96542898938E+03  0.96542898938E+03  0.25500000920E-02 0. -1.
    10030    2    1    2    0    0  0.00000000000E+00  0.00000000000E+00  0.52044969123E+03  0.24513076700E+04  0.23954209258E+04 0.  0.
        3    1    3    3  502    0  0.14791595712E+03  0.24304616824E+03  0.14507942133E+04  0.14784297176E+04  0.10100000352E+00 0.  1.
       -3    1    3    3    0  502 -0.14791595712E+03 -0.24304616824E+03 -0.93034452209E+03  0.97287795239E+03  0.10100000352E+00 0. -1.
</event>
<event>
 5   0  0.2087882E-05  0.2406315E+04  0.7818609E-02  0.8437143E-01
       -2   -1    0    0    0  501  0.00000000000E+00  0.00000000000E+00  0.70569936716E+03  0.70569936717E+03  0.25500000920E-02 0. -1.
        2   -1    0    0  501    0  0.00000000000E+00  0.00000000000E+00 -0.20512813611E+04  0.20512813611E+04  0.25500000920E-02 0.  1.
    10030    2    1    2    0    0  0.00000000000E+00  0.00000000000E+00 -0.13455819939E+04  0.27569807283E+04  0.24063149905E+04 0.  0.
        2    1    3    3  502    0 -0.64112666717E+03 -0.24652036363E+03 -0.18045539891E+04  0.19308627068E+04  0.25500000920E-02 0.  1.
       -2    1    3    3    0  502  0.64112666717E+03  0.24652036363E+03  0.45897199515E+03  0.82611802145E+03  0.25500000920E-02 0. -1.
</event>
<event>
 5   0  0.9038897E-06  0.2404441E+04  0.7818609E-02  0.8437843E-01
       -1   -1    0    0    0  501  0.00000000000E+00  0.00000000000E+00  0.61220303794E+03  0.61220303796E+03  0.50400001928E-02 0.  1.
        1   -1    0    0  501    0  0.00000000000E+00  0.00000000000E+00 -0.23608730797E+04  0.23608730797E+04  0.50400001928E-02 0. -1.
    10030    2    1    2    0    0  0.00000000000E+00  0.00000000000E+00 -0.17486700417E+04  0.29730761176E+04  0.24044406182E+04 0.  0.
        1    1    3    3  502    0  0.10119050546E+04  0.37322705819E+02 -0.16756640051E+04  0.19578546121E+04  0.50400001928E-02 0. -1.
       -1    1    3    3    0  502 -0.10119050546E+04 -0.37322705819E+02 -0.73006036610E+02  0.10152215056E+04  0.50400001928E-02 0.  1.
</event>
<event>
 5   0  0.2025353E-05  0.2394534E+04  0.7818609E-02  0.8441553E-01
        2   -1    0    0  501    0  0.00000000000E+00  0.00000000000E+00  0.72587543696E+03  0.72587543696E+03  0.25500000920E-02 0. -1.
       -2   -1    0    0    0  501  0.00000000000E+00  0.00000000000E+00 -0.19747848185E+04  0.19747848185E+04  0.25500000920E-02 0.  1.
    10030    2    1    2    0    0  0.00000000000E+00  0.00000000000E+00 -0.12489093815E+04  0.27006602554E+04  0.23945336022E+04 0.  0.
        4    1    3    3  502    0 -0.42249497758E+02 -0.52876080709E+03  0.58611291571E+03  0.79050804805E+03  0.12699999809E+01 0. -1.
       -4    1    3    3    0  502  0.42249497758E+02  0.52876080709E+03 -0.18350222972E+04  0.19101522074E+04  0.12699999809E+01 0.  1.
</event>
<event>
 5   0  0.9176817E-06  0.2415266E+04  0.7818609E-02  0.8433810E-01
        1   -1    0    0  501    0  0.00000000000E+00  0.00000000000E+00  0.12949250181E+04  0.12949250181E+04  0.50400001928E-02 0.  1.
       -1   -1    0    0    0  501  0.00000000000E+00  0.00000000000E+00 -0.11262250941E+04  0.11262250941E+04  0.50400001928E-02 0. -1.
    10030    2    1    2    0    0  0.00000000000E+00  0.00000000000E+00  0.16869992407E+03  0.24211501122E+04  0.24152656586E+04 0.  0.
        3    1    3    3  502    0 -0.89751686469E+03  0.75889148804E+03  0.36237786314E+03  0.12299473724E+04  0.10100000352E+00 0.  1.
       -3    1    3    3    0  502  0.89751686469E+03 -0.75889148804E+03 -0.19367793907E+03  0.11912027398E+04  0.10100000352E+00 0. -1.
</event>
<event>
 5   0  0.2122194E-05  0.2406671E+04  0.7818609E-02  0.8437010E-01
        2   -1    0    0  501    0  0.00000000000E+00  0.00000000000E+00  0.23458063203E+04  0.23458063203E+04  0.25500000920E-02 0. -1.
       -2   -1    0    0    0  501  0.00000000000E+00  0.00000000000E+00 -0.61727858310E+03  0.61727858310E+03  0.25500000920E-02 0.  1.
    10030    2    1    2    0    0  0.00000000000E+00  0.00000000000E+00  0.17285277372E+04  0.29630849034E+04  0.24066707308E+04 0.  0.
        3    1    3    3  502    0  0.11605775686E+04 -0.26685318920E+03  0.10770332930E+04  0.16056623685E+04  0.10100000352E+00 0. -1.
       -3    1    3    3    0  502 -0.11605775686E+04  0.26685318920E+03  0.65149444420E+03  0.13574225349E+04  0.10100000352E+00 0.  1.
</event>
<event>
 5   0  0.2122194E-05  0.2434702E+04  0.7818609E-02  0.8426625E-01
       -2   -1    0    0    0  501  0.00000000000E+00  0.00000000000E+00  0.84918793660E+03  0.84918793661E+03  0.25500000920E-02 0. -1.
        2   -1    0    0  501    0  0.00000000000E+00  0.00000000000E+00 -0.17451307627E+04  0.17451307627E+04  0.25500000920E-02 0.  1.
    10030    2    1    2    0    0  0.00000000000E+00  0.00000000000E+00 -0.89594282614E+03  0.25943186994E+04  0.24347024389E+04 0.  0.
        3    1    3    3  502    0 -0.86901678214E+03  0.80083135069E+03 -0.75940449738E+03  0.14047121487E+04  0.10100000352E+00 0.  1.
       -3    1    3    3    0  502  0.86901678214E+03 -0.80083135069E+03 -0.13653832876E+03  0.11896065506E+04  0.10100000352E+00 0. -1.
</event>
<event>
 5   0  0.8528103E-06  0.2355501E+04  0.7818609E-02  0.8456354E-01
        1   -1    0    0  501    0  0.00000000000E+00  0.00000000000E+00  0.12796098392E+04  0.12796098392E+04  0.50400001928E-02 0. -1.
       -1   -1    0    0    0  501  0.00000000000E+00  0.00000000000E+00 -0.10839990125E+04  0.10839990125E+04  0.50400001928E-02 0.  1.
    10030    2    1    2    0    0  0.00000000000E+00  0.00000000000E+00  0.19561082670E+03  0.23636088517E+04  0.23555006280E+04 0.  0.
        4    1    3    3  502    0  0.88743648681E+03  0.15677084470E+02 -0.67900725183E+03  0.11175158836E+04  0.12699999809E+01 0.  1.
       -4    1    3    3    0  502 -0.88743648681E+03 -0.15677084470E+02  0.87461807853E+03  0.12460929682E+04  0.12699999809E+01 0. -1.
</event>
<event>
 5   0  0.9038897E-06  0.2390202E+04  0.7818609E-02  0.8443181E-01
       -1   -1    0    0    0  501  0.00000000000E+00  0.00000000000E+00  0.13795428807E+04  0.13795428807E+04  0.50400001928E-02 0. -1.
        1   -1    0    0  501    0  0.00000000000E+00  0.00000000000E+00 -0.10353183360E+04  0.10353183360E+04  0.50400001928E-02 0.  1.
    10030    2    1    2    0    0  0.00000000000E+00  0.00000000000E+00  0.34422454468E+03  0.24148612167E+04  0.23902016984E+04 0.  0.
        1    1    3    3  502    0  0.14079396856E+03  0.70832776566E+03  0.11341519767E+04  0.13445638220E+04  0.50400001928E-02 0. -1.
       -1    1    3    3    0  502 -0.14079396856E+03 -0.70832776566E+03 -0.78992743205E+03  0.10702973947E+04  0.50400001928E-02 0.  1.
</event>
<event>
 5   0  0.2080257E-05  0.2407144E+04  0.7818609E-02  0.8436834E-01
       -2   -1    0    0    0  501  0.00000000000E+00  0.00000000000E+00  0.73332308236E+03  0.73332308237E+03  0.25500000920E-02 0. -1.
        2   -1    0    0  501    0  0.00000000000E+00  0.00000000000E+00 -0.19753719726E+04  0.19753719726E+04  0.25500000920E-02 0.  1.
    10030    2    1    2    0    0  0.00000000000E+00  0.00000000000E+00 -0.12420488902E+04  0.27086950549E+04  0.24071442530E+04 0.  0.
        1    1    3    3  502    0 -0.33383302429E+03 -0.26848428992E+03  0.64462414971E+03  0.77399521734E+03  0.50400001928E-02 0. -1.
       -1    1    3    3    0  502  0.33383302429E+03  0.26848428992E+03 -0.18866730399E+04  0.19346998376E+04  0.50400001928E-02 0.  1.
</event>
<event>
 5   0  0.8528103E-06  0.2398753E+04  0.7818609E-02  0.8439970E-01
        1   -1    0    0  501    0  0.00000000000E+00  0.00000000000E+00  0.19931531060E+04  0.19931531060E+04  0.50400001928E-02 0. -1.
       -1   -1    0    0    0  501  0.00000000000E+00  0.00000000000E+00 -0.72172303436E+03  0.72172303438E+03  0.50400001928E-02 0.  1.
    10030    2    1    2    0    0  0.00000000000E+00  0.00000000000E+00  0.12714300716E+04  0.27148761404E+04  0.23987534326E+04 0.  0.
        4    1    3    3  502    0  0.28056295681E+03 -0.11641025910E+04  0.71291314306E+03  0.13935914672E+04  0.12699999809E+01 0.  1.
       -4    1    3    3    0  502 -0.28056295681E+03  0.11641025910E+04  0.55851692857E+03  0.13212846731E+04  0.12699999809E+01 0. -1.
</event>
<event>
 5   0  0.2048028E-05  0.2408821E+04  0.7818609E-02  0.8436209E-01
        2   -1    0    0  501    0  0.00000000000E+00  0.00000000000E+00  0.74826332906E+03  0.74826332906E+03  0.25500000920E-02 0. -1.
       -2   -1    0    0    0  501  0.00000000000E+00  0.00000000000E+00 -0.19386281312E+04  0.19386281312E+04  0.25500000920E-02 0.  1.
    10030    2    1    2    0    0  0.00000000000E+00  0.00000000000E+00 -0.11903648022E+04  0.26868914603E+04  0.24088207399E+04 0.  0.
        5    1    3    3  502    0 -0.99534836527E+03 -0.32596264266E+02  0.16035852074E+03  0.10087208880E+04  0.46999998093E+01 0. -1.
       -5    1    3    3    0  502  0.99534836527E+03  0.32596264266E+02 -0.13507233229E+04  0.16781705723E+04  0.46999998093E+01 0.  1.
</event>
<event>
 5   0  0.9083687E-06  0.2408953E+04  0.7818609E-02  0.8436159E-01
        1   -1    0    0  501    0  0.00000000000E+00  0.00000000000E+00  0.21509628648E+04  0.21509628649E+04  0.50400001928E-02 0. -1.
       -1   -1    0    0    0  501  0.00000000000E+00  0.00000000000E+00 -0.67447172771E+03  0.67447172773E+03  0.50400001928E-02 0.  1.
    10030    2    1    2    0    0  0.00000000000E+00  0.00000000000E+00  0.14764911371E+04  0.28254345926E+04  0.24089530006E+04 0.  0.
        2    1    3    3  502    0 -0.91326319426E+03  0.50231170670E+03  0.14462635445E+04  0.17827071977E+04  0.25500000920E-02 0. -1.
       -2    1    3    3    0  502  0.91326319426E+03 -0.50231170670E+03  0.30227592658E+02  0.10427273949E+04  0.25500000920E-02 0.  1.
</event>
<event>
 5   0  0.8898848E-06  0.2398341E+04  0.7818609E-02  0.8440125E-01
        1   -1    0    0  501    0  0.00000000000E+00  0.00000000000E+00  0.12979526159E+04  0.12979526159E+04  0.50400001928E-02 0.  1.
       -1   -1    0    0    0  501  0.00000000000E+00  0.00000000000E+00 -0.11079064951E+04  0.11079064952E+04  0.50400001928E-02 0. -1.
    10030    2    1    2    0    0  0.00000000000E+00  0.00000000000E+00  0.19004612072E+03  0.24058591110E+04  0.23983412047E+04 0.  0.
        5    1    3    3  502    0  0.10619180713E+04 -0.24336930815E+03 -0.40763591352E+03  0.11632229960E+04  0.46999998093E+01 0. -1.
       -5    1    3    3    0  502 -0.10619180713E+04  0.24336930815E+03  0.59768203424E+03  0.12426361151E+04  0.46999998093E+01 0.  1.
</event>
<event>
 5   0  0.9038897E-06  0.2370460E+04  0.7818609E-02  0.8450646E-01
       -1   -1    0    0    0  501  0.00000000000E+00  0.00000000000E+00  0.41281067202E+03  0.41281067205E+03  0.50400001928E-02 0. -1.
        1   -1    0    0  501    0  0.00000000000E+00  0.00000000000E+00 -0.34029412956E+04  0.34029412956E+04  0.50400001928E-02 0.  1.
    10030    2    1    2    0    0  0.00000000000E+00  0.00000000000E+00 -0.29901306236E+04  0.38157519677E+04  0.23704602786E+04 0.  0.
        1    1    3    3  502    0  0.42009172525E+02  0.11200012283E+04 -0.87453759250E+03  0.14216130003E+04  0.50400001928E-02 0. -1.
       -1    1    3    3    0  502 -0.42009172525E+02 -0.11200012283E+04 -0.21155930311E+04  0.23941389674E+04  0.50400001928E-02 0.  1.
</event>
<event>
 5   0  0.2048028E-05  0.2388444E+04  0.7818609E-02  0.8443843E-01
        2   -1    0    0  501    0  0.00000000000E+00  0.00000000000E+00  0.15309579531E+04  0.15309579531E+04  0.25500000920E-02 0.  1.
       -2   -1    0    0    0  501  0.00000000000E+00  0.00000000000E+00 -0.93155142229E+03  0.93155142230E+03  0.25500000920E-02 0. -1.
    10030    2    1    2    0    0  0.00000000000E+00  0.00000000000E+00  0.59940653084E+03  0.24625093754E+04  0.23884438940E+04 0.  0.
        5    1    3    3  502    0 -0.30774670825E+03 -0.18002362141E+03 -0.87538911238E+03  0.94522205263E+03  0.46999998093E+01 0. -1.
       -5    1    3    3    0  502  0.30774670825E+03  0.18002362141E+03  0.14747956432E+04  0.15172873228E+04  0.46999998093E+01 0.  1.
</event>
<event>
 5   0  0.9083687E-06  0.2392110E+04  0.7818609E-02  0.8442463E-01
        1   -1    0    0  501    0  0.00000000000E+00  0.00000000000E+00  0.14179494683E+04  0.14179494683E+04  0.50400001928E-02 0.  1.
       -1   -1    0    0    0  501  0.00000000000E+00  0.00000000000E+00 -0.10088844844E+04  0.10088844845E+04  0.50400001928E-02 0. -1.
    10030    2    1    2    0    0  0.00000000000E+00  0.00000000000E+00  0.40906498382E+03  0.24268339527E+04  0.23921097118E+04 0.  0.
        2    1    3    3  502    0 -0.50555213271E+03  0.34451432764E+03 -0.83813850003E+03  0.10376652765E+04  0.25500000920E-02 0. -1.
       -2    1    3    3    0  502  0.50555213271E+03 -0.34451432764E+03  0.12472034839E+04  0.13891686762E+04  0.25500000920E-02 0.  1.
</event>
<event>
 5   0  0.9176817E-06  0.2393453E+04  0.7818609E-02  0.8441959E-01
       -1   -1    0    0    0  501  0.00000000000E+00  0.00000000000E+00  0.98024941159E+03  0.98024941161E+03  0.50400001928E-02 0. -1.
        1   -1    0    0  501    0  0.00000000000E+00  0.00000000000E+00 -0.14610104540E+04  0.14610104540E+04  0.50400001928E-02 0.  1.
    10030    2    1    2    0    0  0.00000000000E+00  0.00000000000E+00 -0.48076104236E+03  0.24412598656E+04  0.23934532691E+04 0.  0.
        3    1    3    3  502    0  0.10590553635E+04 -0.58488957749E+02 -0.80564800131E+03  0.13319489229E+04  0.10100000352E+00 0.  1.
       -3    1    3    3    0  502 -0.10590553635E+04  0.58488957749E+02  0.32488695895E+03  0.11093109426E+04  0.10100000352E+00 0. -1.
</event>
<event>
 5   0  0.2122194E-05  0.2435870E+04  0.7818609E-02  0.8426195E-01
        2   -1    0    0  501    0  0.00000000000E+00  0.00000000000E+00  0.72726008681E+03  0.72726008682E+03  0.25500000920E-02 0.  1.
       -2   -1    0    0    0  501  0.00000000000E+00  0.00000000000E+00 -0.20396628770E+04  0.20396628770E+04  0.25500000920E-02 0. -1.
    10030    2    1    2    0    0  0.00000000000E+00  0.00000000000E+00 -0.13124027902E+04  0.27669229638E+04  0.24358697839E+04 0.  0.
        3    1    3    3  502    0  0.11625284951E+04  0.38401657020E+02 -0.10664169302E+04  0.15780343052E+04  0.10100000352E+00 0.  1.
       -3    1    3    3    0  502 -0.11625284951E+04 -0.38401657020E+02 -0.24598586002E+03  0.11888886586E+04  0.10100000352E+00 0. -1.
</event>
<event>
 5   0  0.2048028E-05  0.2413698E+04  0.7818609E-02  0.8434393E-01
       -2   -1    0    0    0  501  0.00000000000E+00  0.00000000000E+00  0.50516985994E+03  0.50516985994E+03  0.25500000920E-02 0. -1.
        2   -1    0    0  501    0  0.00000000000E+00  0.00000000000E+00 -0.28831591596E+04  0.28831591596E+04  0.25500000920E-02 0.  1.
    10030    2    1    2    0    0  0.00000000000E+00  0.00000000000E+00 -0.23779892997E+04  0.33883290196E+04  0.24136984972E+04 0.  0.
        5    1    3    3  502    0 -0.11074581934E+04 -0.32148170859E+02 -0.51727519838E+03  0.12227399053E+04  0.46999998093E+01 0. -1.
       -5    1    3    3    0  502  0.11074581934E+04  0.32148170859E+02 -0.18607141013E+04  0.21655891143E+04  0.46999998093E+01 0.  1.
</event>
<event>
 5   0  0.2080257E-05  0.2411162E+04  0.7818609E-02  0.8435337E-01
        2   -1    0    0  501    0  0.00000000000E+00  0.00000000000E+00  0.18745377149E+04  0.18745377149E+04  0.25500000920E-02 0.  1.
       -2   -1    0    0    0  501  0.00000000000E+00  0.00000000000E+00 -0.77535140840E+03  0.77535140840E+03  0.25500000920E-02 0. -1.
    10030    2    1    2    0    0  0.00000000000E+00  0.00000000000E+00  0.10991863065E+04  0.26498891233E+04  0.24111619252E+04 0.  0.
        1    1    3    3  502    0 -0.54452705375E+02  0.88691308685E+03  0.14450297606E+04  0.16963758221E+04  0.50400001928E-02 0.  1.
       -1    1    3    3    0  502  0.54452705375E+02 -0.88691308685E+03 -0.34584345413E+03  0.95351330118E+03  0.50400001928E-02 0. -1.
</event>
<event>
 5   0  0.8528103E-06  0.2387676E+04  0.7818609E-02  0.8444132E-01
        1   -1    0    0  501    0  0.00000000000E+00  0.00000000000E+00  0.13676411665E+04  0.13676411665E+04  0.50400001928E-02 0.  1.
       -1   -1    0    0    0  501  0.00000000000E+00  0.00000000000E+00 -0.10421224846E+04  0.10421224846E+04  0.50400001928E-02 0. -1.
    10030    2    1    2    0    0  0.00000000000E+00  0.00000000000E+00  0.32551868188E+03  0.24097636512E+04  0.23876763688E+04 0.  0.
        4    1    3    3  502    0 -0.67231221384E+03  0.32781319525E+03 -0.77632254468E+03  0.10780276018E+04  0.12699999809E+01 0. -1.
       -4    1    3    3    0  502  0.67231221384E+03 -0.32781319525E+03  0.11018412266E+04  0.13317360494E+04  0.12699999809E+01 0.  1.
</event>
<event>
 5   0  0.9176817E-06  0.2392362E+04  0.7818609E-02  0.8442368E-01
       -1   -1    0    0    0  501  0.00000000000E+00  0.00000000000E+00  0.13410524678E+04  0.13410524678E+04  0.50400001928E-02 0. -1.
        1   -1    0    0  501    0  0.00000000000E+00  0.00000000000E+00 -0.10669601408E+04  0.10669601408E+04  0.50400001928E-02 0.  1.
    10030    2    1    2    0    0  0.00000000000E+00  0.00000000000E+00  0.27409232702E+03  0.24080126087E+04  0.23923624558E+04 0.  0.
        3    1    3    3  502    0  0.10867192514E+03  0.80602534677E+03  0.10199175610E+04  0.13044992482E+04  0.10100000352E+00 0. -1.
       -3    1    3    3    0  502 -0.10867192514E+03 -0.80602534677E+03 -0.74582523401E+03  0.11035133605E+04  0.10100000352E+00 0.  1.
</event>
<event>
 5   0  0.9038897E-06  0.2398991E+04  0.7818609E-02  0.8439881E-01
        1   -1    0    0  501    0  0.00000000000E+00  0.00000000000E+00  0.16732355253E+04  0.16732355253E+04  0.50400001928E-02 0. -1.
       -1   -1    0    0    0  501  0.00000000000E+00  0.00000000000E+00 -0.85988488689E+03  0.85988488690E+03  0.50400001928E-02 0.  1.
    10030    2    1    2    0    0  0.00000000000E+00  0.00000000000E+00  0.81335063845E+03  0.25331204122E+04  0.23989914051E+04 0.  0.
        1    1    3    3  502    0 -0.11622302305E+04 -0.22335503809E+03  0.20050662513E+03  0.12003622322E+04  0.50400001928E-02 0. -1.
       -1    1    3    3    0  502  0.11622302305E+04  0.22335503809E+03  0.61284401333E+03  0.13327581800E+04  0.50400001928E-02 0.  1.
</event>
<event>
 5   0  0.2087882E-05  0.2404316E+04  0.7818609E-02  0.8437890E-01
        2   -1    0    0  501    0  0.00000000000E+00  0.00000000000E+00  0.10117531465E+04  0.10117531465E+04  0.25500000920E-02 0.  1.
       -2   -1    0    0    0  501  0.00000000000E+00  0.00000000000E+00 -0.14283955790E+04  0.14283955790E+04  0.25500000920E-02 0. -1.
    10030    2    1    2    0    0  0.00000000000E+00  0.00000000000E+00 -0.41664243241E+03  0.24401487255E+04  0.24043158873E+04 0.  0.
        2    1    3    3  502    0 -0.21407934646E+03 -0.34949826329E+03 -0.13552990586E+04  0.14159147364E+04  0.25500000920E-02 0. -1.
       -2    1    3    3    0  502  0.21407934646E+03  0.34949826329E+03  0.93865662614E+03  0.10242339891E+04  0.25500000920E-02 0.  1.
</event>
<event>
 5   0  0.9038897E-06  0.2403350E+04  0.7818609E-02  0.8438250E-01
        1   -1    0    0  501    0  0.00000000000E+00  0.00000000000E+00  0.96785615341E+03  0.96785615342E+03  0.50400001928E-02 0.  1.
       -1   -1    0    0    0  501  0.00000000000E+00  0.00000000000E+00 -0.14919807769E+04  0.14919807769E+04  0.50400001928E-02 0. -1.
    10030    2    1    2    0    0  0.00000000000E+00  0.00000000000E+00 -0.52412462346E+03  0.24598369303E+04  0.24033499751E+04 0.  0.
        1    1    3    3  502    0  0.36487494338E+03  0.15031344941E+03  0.89964559983E+03  0.98238997486E+03  0.50400001928E-02 0.  1.
       -1    1    3    3    0  502 -0.36487494338E+03 -0.15031344941E+03 -0.14237702233E+04  0.14774469554E+04  0.50400001928E-02 0. -1.
</event>
<event>
 5   0  0.7233625E-06  0.2391710E+04  0.7818609E-02  0.8442614E-01
        4   -1    0    0  501    0  0.00000000000E+00  0.00000000000E+00  0.13086370922E+04  0.13086377084E+04  0.12699999809E+01 0. -1.
       -4   -1    0    0    0  501  0.00000000000E+00  0.00000000000E+00 -0.10927912293E+04  0.10927919672E+04  0.12699999809E+01 0.  1.
    10030    2    1    2    0    0  0.00000000000E+00  0.00000000000E+00  0.21584586293E+03  0.24014296757E+04  0.23917096501E+04 0.  0.
        1    1    3    3  502    0  0.72417132808E+03  0.93795013641E+03  0.26949362816E+03  0.12152371729E+04  0.50400001928E-02 0.  1.
       -1    1    3    3    0  502 -0.72417132808E+03 -0.93795013641E+03 -0.53647765229E+02  0.11861925027E+04  0.50400001928E-02 0. -1.
</event>
<event>
 5   0  0.8528103E-06  0.2386800E+04  0.7818609E-02  0.8444462E-01
       -1   -1    0    0    0  501  0.00000000000E+00  0.00000000000E+00  0.12016449543E+04  0.12016449543E+04  0.50400001928E-02 0.  1.
        1   -1    0    0  501    0  0.00000000000E+00  0.00000000000E+00 -0.11852111261E+04  0.11852111261E+04  0.50400001928E-02 0. -1.
    10030    2    1    2    0    0  0.00000000000E+00  0.00000000000E+00  0.16433828199E+02  0.23868560804E+04  0.23867995052E+04 0.  0.
        4    1    3    3  502    0 -0.16730284752E+03  0.33948779173E+03  0.11400384018E+04  0.12012207848E+04  0.12699999809E+01 0.  1.
       -4    1    3    3    0  502  0.16730284752E+03 -0.33948779173E+03 -0.11236045736E+04  0.11856352956E+04  0.12699999809E+01 0. -1.
</event>
<event>
 5   0  0.2080257E-05  0.2399438E+04  0.7818609E-02  0.8439714E-01
       -2   -1    0    0    0  501  0.00000000000E+00  0.00000000000E+00  0.16757923443E+04  0.16757923443E+04  0.25500000920E-02 0. -1.
        2   -1    0    0  501    0  0.00000000000E+00  0.00000000000E+00 -0.85889269009E+03  0.85889269010E+03  0.25500000920E-02 0.  1.
    10030    2    1    2    0    0  0.00000000000E+00  0.00000000000E+00  0.81689965420E+03  0.25346850344E+04  0.23994380964E+04 0.  0.
        1    1    3    3  502    0 -0.11887559253E+04  0.16144198690E+03  0.39679961208E+03  0.12635877877E+04  0.50400001928E-02 0.  1.
       -1    1    3    3    0  502  0.11887559253E+04 -0.16144198690E+03  0.42010004212E+03  0.12710972467E+04  0.50400001928E-02 0. -1.
</event>
<event>
 5   0  0.2122194E-05  0.2406477E+04  0.7818609E-02  0.8437083E-01
        2   -1    0    0  501    0  0.00000000000E+00  0.00000000000E+00  0.23122710356E+04  0.23122710356E+04  0.25500000920E-02 0.  1.
       -2   -1    0    0    0  501  0.00000000000E+00  0.00000000000E+00 -0.62613007786E+03  0.62613007787E+03  0.25500000920E-02 0. -1.
    10030    2    1    2    0    0  0.00000000000E+00  0.00000000000E+00  0.16861409578E+04  0.29384011135E+04  0.24064766308E+04 0.  0.
        3    1    3    3  502    0 -0.10680254080E+04  0.42180714410E+03  0.40420447823E+03  0.12173663414E+04  0.10100000352E+00 0. -1.
       -3    1    3    3    0  502  0.10680254080E+04 -0.42180714410E+03  0.12819364796E+04  0.17210347721E+04  0.10100000352E+00 0.  1.
</event>
<event>
 5   0  0.9083687E-06  0.2387413E+04  0.7818609E-02  0.8444231E-01
        1   -1    0    0  501    0  0.00000000000E+00  0.00000000000E+00  0.15768548108E+04  0.15768548108E+04  0.50400001928E-02 0. -1.
       -1   -1    0    0    0  501  0.00000000000E+00  0.00000000000E+00 -0.90365676017E+03  0.90365676018E+03  0.50400001928E-02 0.  1.
    10030    2    1    2    0    0  0.00000000000E+00  0.00000000000E+00  0.67319805062E+03  0.24805115710E+04  0.23874132525E+04 0.  0.
        2    1    3    3  502    0  0.54886094444E+03  0.10515329017E+04  0.47586213515E+03  0.12780510754E+04  0.25500000920E-02 0.  1.
       -2    1    3    3    0  502 -0.54886094444E+03 -0.10515329017E+04  0.19733591547E+03  0.12024604955E+04  0.25500000920E-02 0. -1.
</event>
<event>
 5   0  0.7233625E-06  0.2279211E+04  0.7818609E-02  0.8486163E-01
        3   -1    0    0  501    0  0.00000000000E+00  0.00000000000E+00  0.87279060157E+03  0.87279060741E+03  0.10100000352E+00 0.  1.
       -3   -1    0    0    0  501  0.00000000000E+00  0.00000000000E+00 -0.14879864148E+04  0.14879864183E+04  0.10100000352E+00 0. -1.
    10030    2    1    2    0    0  0.00000000000E+00  0.00000000000E+00 -0.61519581328E+03  0.23607770257E+04  0.22792108890E+04 0.  0.
        5    1    3    3  502    0  0.17874711070E+01  0.11378816497E+04 -0.37228805228E+03  0.11972461433E+04  0.46999998093E+01 0.  1.
       -5    1    3    3    0  502 -0.17874711070E+01 -0.11378816497E+04 -0.24290776100E+03  0.11635308824E+04  0.46999998093E+01 0. -1.
</event>
<event>
 5   0  0.8898848E-06  0.2398259E+04  0.7818609E-02  0.8440155E-01
        1   -1    0    0  501    0  0.00000000000E+00  0.00000000000E+00  0.10621512346E+04  0.10621512346E+04  0.50400001928E-02 0.  1.
       -1   -1    0    0    0  501  0.00000000000E+00  0.00000000000E+00 -0.13537734581E+04  0.13537734582E+04  0.50400001928E-02 0. -1.
    10030    2    1    2    0    0  0.00000000000E+00  0.00000000000E+00 -0.29162222353E+03  0.24159246928E+04  0.23982594939E+04 0.  0.
        5    1    3    3  502    0  0.80249514860E+03 -0.38297475937E+03  0.66461575949E+03  0.11101370760E+04  0.46999998093E+01 0.  1.
       -5    1    3    3    0  502 -0.80249514860E+03  0.38297475937E+03 -0.95623798302E+03  0.13057876167E+04  0.46999998093E+01 0. -1.
</event>
<event>
 5   0  0.2048028E-05  0.2399184E+04  0.7818609E-02  0.8439809E-01
       -2   -1    0    0    0  501  0.00000000000E+00  0.00000000000E+00  0.72277055638E+03  0.72277055638E+03  0.25500000920E-02 0.  1.
        2   -1    0    0  501    0  0.00000000000E+00  0.00000000000E+00 -0.19909796744E+04  0.19909796744E+04  0.25500000920E-02 0. -1.
    10030    2    1    2    0    0  0.00000000000E+00  0.00000000000E+00 -0.12682091180E+04  0.27137502308E+04  0.23991844339E+04 0.  0.
        5    1    3    3  502    0 -0.31648734667E+03  0.88809973928E+03 -0.14730478221E+04  0.17489360662E+04  0.46999998093E+01 0. -1.
       -5    1    3    3    0  502  0.31648734667E+03 -0.88809973928E+03  0.20483870406E+03  0.96481416458E+03  0.46999998093E+01 0.  1.
</event>
<event>
 5   0  0.2080257E-05  0.2386903E+04  0.7818609E-02  0.8444423E-01
        2   -1    0    0  501    0  0.00000000000E+00  0.00000000000E+00  0.21502220838E+04  0.21502220838E+04  0.25500000920E-02 0.  1.
       -2   -1    0    0    0  501  0.00000000000E+00  0.00000000000E+00 -0.66240903166E+03  0.66240903167E+03  0.25500000920E-02 0. -1.
    10030    2    1    2    0    0  0.00000000000E+00  0.00000000000E+00  0.14878130521E+04  0.28126311155E+04  0.23869030382E+04 0.  0.
        1    1    3    3  502    0  0.10337217974E+04  0.58486814692E+03  0.60610879725E+03  0.13334239303E+04  0.50400001928E-02 0.  1.
       -1    1    3    3    0  502 -0.10337217974E+04 -0.58486814692E+03  0.88170425487E+03  0.14792071852E+04  0.50400001928E-02 0. -1.
</event>
<event>
 5   0  0.8898848E-06  0.2410807E+04  0.7818609E-02  0.8435469E-01
       -1   -1    0    0    0  501  0.00000000000E+00  0.00000000000E+00  0.81316780094E+03  0.81316780096E+03  0.50400001928E-02 0.  1.
        1   -1    0    0  501    0  0.00000000000E+00  0.00000000000E+00 -0.17868358185E+04  0.17868358185E+04  0.50400001928E-02 0. -1.
    10030    2    1    2    0    0  0.00000000000E+00  0.00000000000E+00 -0.97366801759E+03  0.26000036195E+04  0.24108067971E+04 0.  0.
        5    1    3    3  502    0  0.23296553159E+03 -0.10967794572E+04 -0.96426809979E+01  0.11212997762E+04  0.46999998093E+01 0.  1.
       -5    1    3    3    0  502 -0.23296553159E+03  0.10967794572E+04 -0.96402533659E+03  0.14787038433E+04  0.46999998093E+01 0. -1.
</event>
<event>
 5   0  0.8528103E-06  0.2401323E+04  0.7818609E-02  0.8439008E-01
        1   -1    0    0  501    0  0.00000000000E+00  0.00000000000E+00  0.17406746592E+04  0.17406746592E+04  0.50400001928E-02 0.  1.
       -1   -1    0    0    0  501  0.00000000000E+00  0.00000000000E+00 -0.82817762746E+03  0.82817762747E+03  0.50400001928E-02 0. -1.
    10030    2    1    2    0    0  0.00000000000E+00  0.00000000000E+00  0.91249703178E+03  0.25688522867E+04  0.24013228100E+04 0.  0.
        4    1    3    3  502    0  0.61806091155E+01 -0.71158360352E+03 -0.57827432946E+03  0.91694723825E+03  0.12699999809E+01 0. -1.
       -4    1    3    3    0  502 -0.61806091155E+01  0.71158360352E+03  0.14907713612E+04  0.16519050485E+04  0.12699999809E+01 0.  1.
</event>
<event>
 5   0  0.2025353E-05  0.2425970E+04  0.7818609E-02  0.8429844E-01
        2   -1    0    0  501    0  0.00000000000E+00  0.00000000000E+00  0.23426871810E+04  0.23426871810E+04  0.25500000920E-02 0. -1.
       -2   -1    0    0    0  501  0.00000000000E+00  0.00000000000E+00 -0.62805332483E+03  0.62805332484E+03  0.25500000920E-02 0.  1.
    10030    2    1    2    0    0  0.00000000000E+00  0.00000000000E+00  0.17146338561E+04  0.29707405058E+04  0.24259698869E+04 0.  0.
        4    1    3    3  502    0  0.13073705923E+03  0.11122066746E+04  0.14280646749E+04  0.18147909506E+04  0.12699999809E+01 0. -1.
       -4    1    3    3    0  502 -0.13073705923E+03 -0.11122066746E+04  0.28656918123E+03  0.11559495552E+04  0.12699999809E+01 0.  1.
</event>
<event>
 5   0  0.2080257E-05  0.2387565E+04  0.7818609E-02  0.8444174E-01
        2   -1    0    0  501    0  0.00000000000E+00  0.00000000000E+00  0.30396884998E+04  0.30396884998E+04  0.25500000920E-02 0. -1.
       -2   -1    0    0    0  501  0.00000000000E+00  0.00000000000E+00 -0.46883657610E+03  0.46883657610E+03  0.25500000920E-02 0.  1.
    10030    2    1    2    0    0  0.00000000000E+00  0.00000000000E+00  0.25708519237E+04  0.35085250759E+04  0.23875654116E+04 0.  0.
        1    1    3    3  502    0  0.57212982821E+03 -0.33675183006E+03 -0.17255320187E+03  0.68593654435E+03  0.50400001928E-02 0.  1.
       -1    1    3    3    0  502 -0.57212982821E+03  0.33675183006E+03  0.27434051256E+04  0.28225885315E+04  0.50400001928E-02 0. -1.
</event>
<event>
 5   0  0.2048028E-05  0.2346331E+04  0.7818609E-02  0.8459874E-01
        2   -1    0    0  501    0  0.00000000000E+00  0.00000000000E+00  0.81540743013E+03  0.81540743013E+03  0.25500000920E-02 0. -1.
       -2   -1    0    0    0  501  0.00000000000E+00  0.00000000000E+00 -0.16878897644E+04  0.16878897644E+04  0.25500000920E-02 0.  1.
    10030    2    1    2    0    0  0.00000000000E+00  0.00000000000E+00 -0.87248233429E+03  0.25032971946E+04  0.23463314814E+04 0.  0.
        5    1    3    3  502    0  0.44520291385E+03  0.98028878973E+03 -0.93337918908E+03  0.14249177332E+04  0.46999998093E+01 0.  1.
       -5    1    3    3    0  502 -0.44520291385E+03 -0.98028878973E+03  0.60896854790E+02  0.10783794614E+04  0.46999998093E+01 0. -1.
</event>
<event>
 5   0  0.2048028E-05  0.2399424E+04  0.7818609E-02  0.8439719E-01
       -2   -1    0    0    0  501  0.00000000000E+00  0.00000000000E+00  0.13315666714E+04  0.13315666714E+04  0.25500000920E-02 0. -1.
        2   -1    0    0  501    0  0.00000000000E+00  0.00000000000E+00 -0.10809142656E+04  0.10809142656E+04  0.25500000920E-02 0.  1.
    10030    2    1    2    0    0  0.00000000000E+00  0.00000000000E+00  0.25065240583E+03  0.24124809370E+04  0.23994244399E+04 0.  0.
        5    1    3    3  502    0 -0.64780521115E+03  0.61668104688E+03 -0.67861229066E+03  0.11227127131E+04  0.46999998093E+01 0.  1.
       -5    1    3    3    0  502  0.64780521115E+03 -0.61668104688E+03  0.92926469649E+03  0.12897682239E+04  0.46999998093E+01 0. -1.
</event>
<event>
 5   0  0.2048028E-05  0.2391695E+04  0.7818609E-02  0.8442619E-01
       -2   -1    0    0    0  501  0.00000000000E+00  0.00000000000E+00  0.19482084994E+04  0.19482084994E+04  0.25500000920E-02 0.  1.
        2   -1    0    0  501    0  0.00000000000E+00  0.00000000000E+00 -0.73403422828E+03  0.73403422829E+03  0.25500000920E-02 0. -1.
    10030    2    1    2    0    0  0.00000000000E+00  0.00000000000E+00  0.12141742712E+04  0.26822427277E+04  0.23916954007E+04 0.  0.
        5    1    3    3  502    0 -0.62680421523E+03 -0.42281999952E+03 -0.43194579137E+03  0.87078099021E+03  0.46999998093E+01 0. -1.
       -5    1    3    3    0  502  0.62680421523E+03  0.42281999952E+03  0.16461200625E+04  0.18114617375E+04  0.46999998093E+01 0.  1.
</event>
<event>
 5   0  0.8898848E-06  0.2423915E+04  0.7818609E-02  0.8430604E-01
       -1   -1    0    0    0  501  0.00000000000E+00  0.00000000000E+00  0.14072675564E+04  0.14072675564E+04  0.50400001928E-02 0. -1.
        1   -1    0    0  501    0  0.00000000000E+00  0.00000000000E+00 -0.10437534659E+04  0.10437534659E+04  0.50400001928E-02 0.  1.
    10030    2    1    2    0    0  0.00000000000E+00  0.00000000000E+00  0.36351409057E+03  0.24510210223E+04  0.24239145112E+04 0.  0.
        5    1    3    3  502    0 -0.20114488795E+01 -0.31319918647E+03 -0.10021134447E+04  0.10499291511E+04  0.46999998093E+01 0.  1.
       -5    1    3    3    0  502  0.20114488795E+01  0.31319918647E+03  0.13656275353E+04  0.14010918712E+04  0.46999998093E+01 0. -1.
</event>
<event>
 5   0  0.2080257E-05  0.2400227E+04  0.7818609E-02  0.8439418E-01
        2   -1    0    0  501    0  0.00000000000E+00  0.00000000000E+00  0.19696449921E+04  0.19696449921E+04  0.25500000920E-02 0.  1.
       -2   -1    0    0    0  501  0.00000000000E+00  0.00000000000E+00 -0.73123471602E+03  0.73123471603E+03  0.25500000920E-02 0. -1.
    10030    2    1    2    0    0  0.00000000000E+00  0.00000000000E+00  0.12384102761E+04  0.27008797081E+04  0.24002273196E+04 0.  0.
        1    1    3    3  502    0  0.10038525308E+04 -0.60650344472E+03  0.90544275155E+03  0.14816858333E+04  0.50400001928E-02 0.  1.
       -1    1    3    3    0  502 -0.10038525308E+04  0.60650344472E+03  0.33296752454E+03  0.12191938749E+04  0.50400001928E-02 0. -1.
</event>
<event>
 5   0  0.9083687E-06  0.2399199E+04  0.7818609E-02  0.8439803E-01
       -1   -1    0    0    0  501  0.00000000000E+00  0.00000000000E+00  0.74486839419E+03  0.74486839421E+03  0.50400001928E-02 0.  1.
        1   -1    0    0  501    0  0.00000000000E+00  0.00000000000E+00 -0.19319376670E+04  0.19319376670E+04  0.50400001928E-02 0. -1.
    10030    2    1    2    0    0  0.00000000000E+00  0.00000000000E+00 -0.11870692728E+04  0.26768060612E+04  0.23991992895E+04 0.  0.
        2    1    3    3  502    0 -0.90521805229E+03 -0.49391814371E+03  0.90299275241E+02  0.10351467596E+04  0.25500000920E-02 0.  1.
       -2    1    3    3    0  502  0.90521805229E+03  0.49391814371E+03 -0.12773685480E+04  0.16416593015E+04  0.25500000920E-02 0. -1.
</event>
<event>
 5   0  0.9083687E-06  0.2391698E+04  0.7818609E-02  0.8442618E-01
        1   -1    0    0  501    0  0.00000000000E+00  0.00000000000E+00  0.57078417435E+03  0.57078417437E+03  0.50400001928E-02 0. -1.
       -1   -1    0    0    0  501  0.00000000000E+00  0.00000000000E+00 -0.25054205569E+04  0.25054205569E+04  0.50400001928E-02 0.  1.
    10030    2    1    2    0    0  0.00000000000E+00  0.00000000000E+00 -0.19346363826E+04  0.30762047313E+04  0.23916976431E+04 0.  0.
        2    1    3    3  502    0 -0.82032252015E+03 -0.16041838076E+03  0.13265945173E+03  0.84632241143E+03  0.25500000920E-02 0. -1.
       -2    1    3    3    0  502  0.82032252015E+03  0.16041838076E+03 -0.20672958343E+04  0.22298823199E+04  0.25500000920E-02 0.  1.
</event>
<event>
 5   0  0.9176817E-06  0.2395710E+04  0.7818609E-02  0.8441111E-01
        1   -1    0    0  501    0  0.00000000000E+00  0.00000000000E+00  0.11634778207E+04  0.11634778207E+04  0.50400001928E-02 0.  1.
       -1   -1    0    0    0  501  0.00000000000E+00  0.00000000000E+00 -0.12332479367E+04  0.12332479367E+04  0.50400001928E-02 0. -1.
    10030    2    1    2    0    0  0.00000000000E+00  0.00000000000E+00 -0.69770116046E+02  0.23967257574E+04  0.23957100173E+04 0.  0.
        3    1    3    3  502    0  0.28890494984E+03  0.11548042459E+04  0.98654476371E+02  0.11944754632E+04  0.10100000352E+00 0.  1.
       -3    1    3    3    0  502 -0.28890494984E+03 -0.11548042459E+04 -0.16842459242E+03  0.12022502942E+04  0.10100000352E+00 0. -1.
</event>
<event>
 5   0  0.2080257E-05  0.2433638E+04  0.7818609E-02  0.8427016E-01
        2   -1    0    0  501    0  0.00000000000E+00  0.00000000000E+00  0.25399997759E+04  0.25399997759E+04  0.25500000920E-02 0.  1.
       -2   -1    0    0    0  501  0.00000000000E+00  0.00000000000E+00 -0.58293264649E+03  0.58293264650E+03  0.25500000920E-02 0. -1.
    10030    2    1    2    0    0  0.00000000000E+00  0.00000000000E+00  0.19570671294E+04  0.31229324224E+04  0.24336382570E+04 0.  0.
        1    1    3    3  502    0  0.62368256951E+03 -0.23978629657E+03 -0.32644332058E+03  0.74366837846E+03  0.50400001928E-02 0. -1.
       -1    1    3    3    0  502 -0.62368256951E+03  0.23978629657E+03  0.22835104499E+04  0.23792640439E+04  0.50400001928E-02 0.  1.
</event>
<event>
 5   0  0.8528103E-06  0.2419672E+04  0.7818609E-02  0.8432175E-01
       -1   -1    0    0    0  501  0.00000000000E+00  0.00000000000E+00  0.14194385022E+04  0.14194385022E+04  0.50400001928E-02 0.  1.
        1   -1    0    0  501    0  0.00000000000E+00  0.00000000000E+00 -0.10311843845E+04  0.10311843845E+04  0.50400001928E-02 0. -1.
    10030    2    1    2    0    0  0.00000000000E+00  0.00000000000E+00  0.38825411772E+03  0.24506228867E+04  0.24196717283E+04 0.  0.
        4    1    3    3  502    0 -0.66253209077E+03 -0.62195159601E+03  0.10030480164E+04  0.13534694290E+04  0.12699999809E+01 0.  1.
       -4    1    3    3    0  502  0.66253209077E+03  0.62195159601E+03 -0.61479389867E+03  0.10971534577E+04  0.12699999809E+01 0. -1.
</event>
<event>
 5   0  0.8528103E-06  0.2382445E+04  0.7818609E-02  0.8446105E-01
       -1   -1    0    0    0  501  0.00000000000E+00  0.00000000000E+00  0.99284156555E+03  0.99284156556E+03  0.50400001928E-02 0. -1.
        1   -1    0    0  501    0  0.00000000000E+00  0.00000000000E+00 -0.14292421737E+04  0.14292421737E+04  0.50400001928E-02 0.  1.
    10030    2    1    2    0    0  0.00000000000E+00  0.00000000000E+00 -0.43640060811E+03  0.24220837392E+04  0.23824449939E+04 0.  0.
        4    1    3    3  502    0  0.10824170287E+03  0.11481407125E+04  0.85204461672E+02  0.11563757067E+04  0.12699999809E+01 0. -1.
       -4    1    3    3    0  502 -0.10824170287E+03 -0.11481407125E+04 -0.52160506978E+03  0.12657080325E+04  0.12699999809E+01 0.  1.
</event>
<event>
 5   0  0.8898848E-06  0.2429183E+04  0.7818609E-02  0.8428658E-01
        1   -1    0    0  501    0  0.00000000000E+00  0.00000000000E+00  0.11337054859E+04  0.11337054859E+04  0.50400001928E-02 0. -1.
       -1   -1    0    0    0  501  0.00000000000E+00  0.00000000000E+00 -0.13012485789E+04  0.13012485790E+04  0.50400001928E-02 0.  1.
    10030    2    1    2    0    0  0.00000000000E+00  0.00000000000E+00 -0.16754309304E+03  0.24349540649E+04  0.24291831158E+04 0.  0.
        5    1    3    3  502    0  0.52730144301E+03 -0.99850513192E+03  0.36467395791E+03  0.11866206200E+04  0.46999998093E+01 0. -1.
       -5    1    3    3    0  502 -0.52730144301E+03  0.99850513192E+03 -0.53221705095E+03  0.12483334449E+04  0.46999998093E+01 0.  1.
</event>
<event>
 5   0  0.2087882E-05  0.2402376E+04  0.7818609E-02  0.8438615E-01
       -2   -1    0    0    0  501  0.00000000000E+00  0.00000000000E+00  0.66211850575E+03  0.66211850575E+03  0.25500000920E-02 0. -1.
        2   -1    0    0  501    0  0.00000000000E+00  0.00000000000E+00 -0.21791448943E+04  0.21791448943E+04  0.25500000920E-02 0.  1.
    10030    2    1    2    0    0  0.00000000000E+00  0.00000000000E+00 -0.15170263886E+04  0.28412634001E+04  0.24023756253E+04 0.  0.
        2    1    3    3  502    0 -0.89909064249E+03 -0.32598257846E+03  0.10105326025E+03  0.96168622028E+03  0.25500000920E-02 0. -1.
       -2    1    3    3    0  502  0.89909064249E+03  0.32598257846E+03 -0.16180796488E+04  0.18795771798E+04  0.25500000920E-02 0.  1.
</event>
<event>
 5   0  0.2025353E-05  0.2403117E+04  0.7818609E-02  0.8438337E-01
        2   -1    0    0  501    0  0.00000000000E+00  0.00000000000E+00  0.11674068436E+04  0.11674068436E+04  0.25500000920E-02 0. -1.
       -2   -1    0    0    0  501  0.00000000000E+00  0.00000000000E+00 -0.12367095037E+04  0.12367095037E+04  0.25500000920E-02 0.  1.
    10030    2    1    2    0    0  0.00000000000E+00  0.00000000000E+00 -0.69302660077E+02  0.24041163473E+04  0.24031172574E+04 0.  0.
        4    1    3    3  502    0  0.10216372107E+04 -0.62415108477E+03  0.67539844906E+02  0.11991123427E+04  0.12699999809E+01 0. -1.
       -4    1    3    3    0  502 -0.10216372107E+04  0.62415108477E+03 -0.13684250498E+03  0.12050040046E+04  0.12699999809E+01 0.  1.
</event>
<event>
 5   0  0.2048028E-05  0.2393470E+04  0.7818609E-02  0.8441952E-01
        2   -1    0    0  501    0  0.00000000000E+00  0.00000000000E+00  0.22753960775E+04  0.22753960775E+04  0.25500000920E-02 0.  1.
       -2   -1    0    0    0  501  0.00000000000E+00  0.00000000000E+00 -0.62941785422E+03  0.62941785422E+03  0.25500000920E-02 0. -1.
    10030    2    1    2    0    0  0.00000000000E+00  0.00000000000E+00  0.16459782233E+04  0.29048139317E+04  0.23934702142E+04 0.  0.
        5    1    3    3  502    0  0.39250434149E+03 -0.95890605375E+03  0.15497487513E+04  0.18642166613E+04  0.46999998093E+01 0.  1.
       -5    1    3    3    0  502 -0.39250434149E+03  0.95890605375E+03  0.96229471977E+02  0.10405972705E+04  0.46999998093E+01 0. -1.
</event>
<event>
 5   0  0.2122194E-05  0.2401298E+04  0.7818609E-02  0.8439018E-01
       -2   -1    0    0    0  501  0.00000000000E+00  0.00000000000E+00  0.13929755430E+04  0.13929755430E+04  0.25500000920E-02 0.  1.
        2   -1    0    0  501    0  0.00000000000E+00  0.00000000000E+00 -0.10348764750E+04  0.10348764750E+04  0.25500000920E-02 0. -1.
    10030    2    1    2    0    0  0.00000000000E+00  0.00000000000E+00  0.35809906806E+03  0.24278520180E+04  0.24012976656E+04 0.  0.
        3    1    3    3  502    0  0.60829000858E+03 -0.99866684239E+03  0.45446860333E+03  0.12545492889E+04  0.10100000352E+00 0.  1.
       -3    1    3    3    0  502 -0.60829000858E+03  0.99866684239E+03 -0.96369535274E+02  0.11733027291E+04  0.10100000352E+00 0. -1.
</event>
<event>
 5   0  0.2048028E-05  0.2395216E+04  0.7818609E-02  0.8441297E-01
        2   -1    0    0  501    0  0.00000000000E+00  0.00000000000E+00  0.91302285552E+03  0.91302285552E+03  0.25500000920E-02 0. -1.
       -2   -1    0    0    0  501  0.00000000000E+00  0.00000000000E+00 -0.15708964739E+04  0.15708964739E+04  0.25500000920E-02 0.  1.
    10030    2    1    2    0    0  0.00000000000E+00  0.00000000000E+00 -0.65787361842E+03  0.24839193295E+04  0.23952155514E+04 0.  0.
        5    1    3    3  502    0  0.88155957299E+03  0.10543649681E+03 -0.11624295112E+04  0.14627127517E+04  0.46999998093E+01 0.  1.
       -5    1    3    3    0  502 -0.88155957299E+03 -0.10543649681E+03  0.50455589273E+03  0.10212065778E+04  0.46999998093E+01 0. -1.
</event>
<event>
 5   0  0.2087882E-05  0.2402905E+04  0.7818609E-02  0.8438417E-01
       -2   -1    0    0    0  501  0.00000000000E+00  0.00000000000E+00  0.12711929650E+04  0.12711929650E+04  0.25500000920E-02 0. -1.
        2   -1    0    0  501    0  0.00000000000E+00  0.00000000000E+00 -0.11355384508E+04  0.11355384508E+04  0.25500000920E-02 0.  1.
    10030    2    1    2    0    0  0.00000000000E+00  0.00000000000E+00  0.13565451418E+03  0.24067314159E+04  0.24029053167E+04 0.  0.
        2    1    3    3  502    0  0.45196100473E+03 -0.10647445472E+04  0.39321187868E+03  0.12217058902E+04  0.25500000920E-02 0. -1.
       -2    1    3    3    0  502 -0.45196100473E+03  0.10647445472E+04 -0.25755736450E+03  0.11850255257E+04  0.25500000920E-02 0.  1.
</event>
<event>
 5   0  0.9038897E-06  0.2403030E+04  0.7818609E-02  0.8438370E-01
       -1   -1    0    0    0  501  0.00000000000E+00  0.00000000000E+00  0.76066101971E+03  0.76066101973E+03  0.50400001928E-02 0.  1.
        1   -1    0    0  501    0  0.00000000000E+00  0.00000000000E+00 -0.18978740676E+04  0.18978740676E+04  0.50400001928E-02 0. -1.
    10030    2    1    2    0    0  0.00000000000E+00  0.00000000000E+00 -0.11372130479E+04  0.26585350873E+04  0.24030304397E+04 0.  0.
        1    1    3    3  502    0 -0.11328496232E+04  0.36743729009E+03 -0.74451024703E+03  0.14045119931E+04  0.50400001928E-02 0. -1.
       -1    1    3    3    0  502  0.11328496232E+04 -0.36743729009E+03 -0.39270280085E+03  0.12540230942E+04  0.50400001928E-02 0.  1.
</event>
<event>
 5   0  0.8528103E-06  0.2400280E+04  0.7818609E-02  0.8439399E-01
       -1   -1    0    0    0  501  0.00000000000E+00  0.00000000000E+00  0.17313273291E+04  0.17313273291E+04  0.50400001928E-02 0.  1.
        1   -1    0    0  501    0  0.00000000000E+00  0.00000000000E+00 -0.83192588932E+03  0.83192588934E+03  0.50400001928E-02 0. -1.
    10030    2    1    2    0    0  0.00000000000E+00  0.00000000000E+00  0.89940143977E+03  0.25632532184E+04  0.24002800070E+04 0.  0.
        4    1    3    3  502    0  0.29699054708E+03 -0.11594727951E+04  0.54373555937E+03  0.13146218160E+04  0.12699999809E+01 0. -1.
       -4    1    3    3    0  502 -0.29699054708E+03  0.11594727951E+04  0.35566588040E+03  0.12486314024E+04  0.12699999809E+01 0.  1.
</event>
<event>
 5   0  0.2025353E-05  0.2396116E+04  0.7818609E-02  0.8440959E-01
       -2   -1    0    0    0  501  0.00000000000E+00  0.00000000000E+00  0.61498037022E+03  0.61498037023E+03  0.25500000920E-02 0.  1.
        2   -1    0    0  501    0  0.00000000000E+00  0.00000000000E+00 -0.23339651263E+04  0.23339651263E+04  0.25500000920E-02 0. -1.
    10030    2    1    2    0    0  0.00000000000E+00  0.00000000000E+00 -0.17189847561E+04  0.29489454966E+04  0.23961158048E+04 0.  0.
        4    1    3    3  502    0 -0.63052121219E+03 -0.10862194835E+03  0.38711453800E+03  0.74780679665E+03  0.12699999809E+01 0.  1.
       -4    1    3    3    0  502  0.63052121219E+03  0.10862194835E+03 -0.21060992941E+04  0.22011386999E+04  0.12699999809E+01 0. -1.
</event>
<event>
 5   0  0.2025353E-05  0.2382791E+04  0.7818609E-02  0.8445974E-01
       -2   -1    0    0    0  501  0.00000000000E+00  0.00000000000E+00  0.75383210801E+03  0.75383210802E+03  0.25500000920E-02 0. -1.
        2   -1    0    0  501    0  0.00000000000E+00  0.00000000000E+00 -0.18829437692E+04  0.18829437692E+04  0.25500000920E-02 0.  1.
    10030    2    1    2    0    0  0.00000000000E+00  0.00000000000E+00 -0.11291116612E+04  0.26367758772E+04  0.23827911959E+04 0.  0.
        4    1    3    3  502    0 -0.82986499310E+03  0.28076869031E+03 -0.14580313993E+04  0.17009891647E+04  0.12699999809E+01 0.  1.
       -4    1    3    3    0  502  0.82986499310E+03 -0.28076869031E+03  0.32891973813E+03  0.93578671249E+03  0.12699999809E+01 0. -1.
</event>
<event>
 5   0  0.9083687E-06  0.2361922E+04  0.7818609E-02  0.8453899E-01
        1   -1    0    0  501    0  0.00000000000E+00  0.00000000000E+00  0.11243221788E+04  0.11243221788E+04  0.50400001928E-02 0. -1.
       -1   -1    0    0    0  501  0.00000000000E+00  0.00000000000E+00 -0.12404528804E+04  0.12404528805E+04  0.50400001928E-02 0.  1.
    10030    2    1    2    0    0  0.00000000000E+00  0.00000000000E+00 -0.11613070163E+03  0.23647750593E+04  0.23619218321E+04 0.  0.
        2    1    3    3  502    0 -0.64428415806E+03  0.36341170807E+03  0.86364357880E+03  0.11371237299E+04  0.25500000920E-02 0. -1.
       -2    1    3    3    0  502  0.64428415806E+03 -0.36341170807E+03 -0.97977428044E+03  0.12276513294E+04  0.25500000920E-02 0.  1.
</event>
<event>
 5   0  0.9083687E-06  0.2418954E+04  0.7818609E-02  0.8432442E-01
        1   -1    0    0  501    0  0.00000000000E+00  0.00000000000E+00  0.98014870017E+03  0.98014870018E+03  0.50400001928E-02 0.  1.
       -1   -1    0    0    0  501  0.00000000000E+00  0.00000000000E+00 -0.14924613597E+04  0.14924613597E+04  0.50400001928E-02 0. -1.
    10030    2    1    2    0    0  0.00000000000E+00  0.00000000000E+00 -0.51231265949E+03  0.24726100598E+04  0.24189535438E+04 0.  0.
        2    1    3    3  502    0  0.11524787092E+03 -0.11749865773E+04  0.12268144914E+02  0.11806887972E+04  0.25500000920E-02 0.  1.
       -2    1    3    3    0  502 -0.11524787092E+03  0.11749865773E+04 -0.52458080441E+03  0.12919212626E+04  0.25500000920E-02 0. -1.
</event>
<event>
 5   0  0.2087882E-05  0.2427215E+04  0.7818609E-02  0.8429385E-01
       -2   -1    0    0    0  501  0.00000000000E+00  0.00000000000E+00  0.96220642829E+03  0.96220642829E+03  0.25500000920E-02 0.  1.
        2   -1    0    0  501    0  0.00000000000E+00  0.00000000000E+00 -0.15306930506E+04  0.15306930506E+04  0.25500000920E-02 0. -1.
    10030    2    1    2    0    0  0.00000000000E+00  0.00000000000E+00 -0.56848662228E+03  0.24928994789E+04  0.24272146119E+04 0.  0.
        2    1    3    3  502    0  0.94607059953E+02  0.15820835119E+03  0.94774392382E+03  0.96550449161E+03  0.25500000920E-02 0.  1.
       -2    1    3    3    0  502 -0.94607059953E+02 -0.15820835119E+03 -0.15162305461E+04  0.15273949873E+04  0.25500000920E-02 0. -1.
</event>
<event>
 5   0  0.2122194E-05  0.2414079E+04  0.7818609E-02  0.8434251E-01
       -2   -1    0    0    0  501  0.00000000000E+00  0.00000000000E+00  0.94325693380E+03  0.94325693380E+03  0.25500000920E-02 0. -1.
        2   -1    0    0  501    0  0.00000000000E+00  0.00000000000E+00 -0.15445893613E+04  0.15445893613E+04  0.25500000920E-02 0.  1.
    10030    2    1    2    0    0  0.00000000000E+00  0.00000000000E+00 -0.60133242753E+03  0.24878462951E+04  0.24140792240E+04 0.  0.
        3    1    3    3  502    0 -0.46647842622E+03 -0.15764522902E+03 -0.14363804850E+04  0.15184344070E+04  0.10100000352E+00 0.  1.
       -3    1    3    3    0  502  0.46647842622E+03  0.15764522902E+03  0.83504805749E+03  0.96941188815E+03  0.10100000352E+00 0. -1.
</event>
<event>
 5   0  0.2087882E-05  0.2400456E+04  0.7818609E-02  0.8439333E-01
        2   -1    0    0  501    0  0.00000000000E+00  0.00000000000E+00  0.19480991908E+04  0.19480991908E+04  0.25500000920E-02 0. -1.
       -2   -1    0    0    0  501  0.00000000000E+00  0.00000000000E+00 -0.73946288208E+03  0.73946288209E+03  0.25500000920E-02 0.  1.
    10030    2    1    2    0    0  0.00000000000E+00  0.00000000000E+00  0.12086363087E+04  0.26875620729E+04  0.24004558252E+04 0.  0.
        2    1    3    3  502    0  0.11968379989E+04  0.90045838891E+02  0.60901429003E+03  0.13458929579E+04  0.25500000920E-02 0.  1.
       -2    1    3    3    0  502 -0.11968379989E+04 -0.90045838891E+02  0.59962201868E+03  0.13416691150E+04  0.25500000920E-02 0. -1.
</event>
<event>
 5   0  0.2080257E-05  0.2393267E+04  0.7818609E-02  0.8442028E-01
       -2   -1    0    0    0  501  0.00000000000E+00  0.00000000000E+00  0.10996941389E+04  0.10996941389E+04  0.25500000920E-02 0. -1.
        2   -1    0    0  501    0  0.00000000000E+00  0.00000000000E+00 -0.13021185145E+04  0.13021185145E+04  0.25500000920E-02 0.  1.
    10030    2    1    2    0    0  0.00000000000E+00  0.00000000000E+00 -0.20242437562E+03  0.24018126534E+04  0.23932673052E+04 0.  0.
        1    1    3    3  502    0 -0.28907811373E+03  0.41439189987E+03  0.98739375802E+03  0.11091587965E+04  0.50400001928E-02 0. -1.
       -1    1    3    3    0  502  0.28907811373E+03 -0.41439189987E+03 -0.11898181336E+04  0.12926538569E+04  0.50400001928E-02 0.  1.
</event>
<event>
 5   0  0.9176817E-06  0.2396052E+04  0.7818609E-02  0.8440983E-01
        1   -1    0    0  501    0  0.00000000000E+00  0.00000000000E+00  0.20530398391E+04  0.20530398391E+04  0.50400001928E-02 0. -1.
       -1   -1    0    0    0  501  0.00000000000E+00  0.00000000000E+00 -0.69909344169E+03  0.69909344170E+03  0.50400001928E-02 0.  1.
    10030    2    1    2    0    0  0.00000000000E+00  0.00000000000E+00  0.13539463975E+04  0.27521332809E+04  0.23960523259E+04 0.  0.
        3    1    3    3  502    0 -0.17046726561E+03 -0.93262406298E+03  0.15182242557E+04  0.17899306222E+04  0.10100000352E+00 0. -1.
       -3    1    3    3    0  502  0.17046726561E+03  0.93262406298E+03 -0.16427785819E+03  0.96220265869E+03  0.10100000352E+00 0.  1.
</event>
<event>
 5   0  0.2048028E-05  0.2502448E+04  0.7818609E-02  0.8402114E-01
        2   -1    0    0  501    0  0.00000000000E+00  0.00000000000E+00  0.12758059916E+04  0.12758059916E+04  0.25500000920E-02 0.  1.
       -2   -1    0    0    0  501  0.00000000000E+00  0.00000000000E+00 -0.12271151747E+04  0.12271151747E+04  0.25500000920E-02 0. -1.
    10030    2    1    2    0    0  0.00000000000E+00  0.00000000000E+00  0.48690816867E+02  0.25029211663E+04  0.25024475157E+04 0.  0.
        5    1    3    3  502    0 -0.25761527523E+03 -0.86400669324E+03  0.89207264359E+03  0.12683409981E+04  0.46999998093E+01 0.  1.
       -5    1    3    3    0  502  0.25761527523E+03  0.86400669324E+03 -0.84338182672E+03  0.12345801682E+04  0.46999998093E+01 0. -1.
</event>
<event>
 5   0  0.2025353E-05  0.2402740E+04  0.7818609E-02  0.8438478E-01
        2   -1    0    0  501    0  0.00000000000E+00  0.00000000000E+00  0.22778970055E+04  0.22778970055E+04  0.25500000920E-02 0.  1.
       -2   -1    0    0    0  501  0.00000000000E+00  0.00000000000E+00 -0.63360636794E+03  0.63360636794E+03  0.25500000920E-02 0. -1.
    10030    2    1    2    0    0  0.00000000000E+00  0.00000000000E+00  0.16442906376E+04  0.29115033735E+04  0.24027401426E+04 0.  0.
        4    1    3    3  502    0 -0.11638384041E+04  0.11154080730E+03  0.48737240737E+03  0.12666864880E+04  0.12699999809E+01 0. -1.
       -4    1    3    3    0  502  0.11638384041E+04 -0.11154080730E+03  0.11569182302E+04  0.16448168855E+04  0.12699999809E+01 0.  1.
</event>
<event>
 5   0  0.2087882E-05  0.2400949E+04  0.7818609E-02  0.8439148E-01
       -2   -1    0    0    0  501  0.00000000000E+00  0.00000000000E+00  0.58635997439E+03  0.58635997439E+03  0.25500000920E-02 0. -1.
        2   -1    0    0  501    0  0.00000000000E+00  0.00000000000E+00 -0.24577717807E+04  0.24577717807E+04  0.25500000920E-02 0.  1.
    10030    2    1    2    0    0  0.00000000000E+00  0.00000000000E+00 -0.18714118063E+04  0.30441317551E+04  0.24009489777E+04 0.  0.
        2    1    3    3  502    0  0.34476695614E+03  0.75090202851E+03  0.16846336958E+03  0.84326627904E+03  0.25500000920E-02 0. -1.
       -2    1    3    3    0  502 -0.34476695614E+03 -0.75090202851E+03 -0.20398751759E+04  0.22008654760E+04  0.25500000920E-02 0.  1.
</event>
<event>
 5   0  0.9176817E-06  0.2474149E+04  0.7818609E-02  0.8412253E-01
       -1   -1    0    0    0  501  0.00000000000E+00  0.00000000000E+00  0.83438248499E+03  0.83438248500E+03  0.50400001928E-02 0.  1.
        1   -1    0    0  501    0  0.00000000000E+00  0.00000000000E+00 -0.18341150884E+04  0.18341150884E+04  0.50400001928E-02 0. -1.
    10030    2    1    2    0    0  0.00000000000E+00  0.00000000000E+00 -0.99973260337E+03  0.26684975734E+04  0.24741491509E+04 0.  0.
        3    1    3    3  502    0  0.29210548889E+03  0.99567226449E+03  0.22658815241E+03  0.10620880735E+04  0.10100000352E+00 0.  1.
       -3    1    3    3    0  502 -0.29210548889E+03 -0.99567226449E+03 -0.12263207558E+04  0.16064094998E+04  0.10100000352E+00 0. -1.
</event>
<event>
 5   0  0.8898848E-06  0.2405762E+04  0.7818609E-02  0.8437350E-01
        1   -1    0    0  501    0  0.00000000000E+00  0.00000000000E+00  0.23005254974E+04  0.23005254974E+04  0.50400001928E-02 0.  1.
       -1   -1    0    0    0  501  0.00000000000E+00  0.00000000000E+00 -0.62895293816E+03  0.62895293818E+03  0.50400001928E-02 0. -1.
    10030    2    1    2    0    0  0.00000000000E+00  0.00000000000E+00  0.16715725593E+04  0.29294784356E+04  0.24057616432E+04 0.  0.
        5    1    3    3  502    0 -0.10845248816E+04 -0.50078233289E+03  0.10076622897E+04  0.15628123828E+04  0.46999998093E+01 0.  1.
       -5    1    3    3    0  502  0.10845248816E+04  0.50078233289E+03  0.66391026962E+03  0.13666660528E+04  0.46999998093E+01 0. -1.
</event>
<event>
 5   0  0.2080257E-05  0.2392470E+04  0.7818609E-02  0.8442328E-01
        2   -1    0    0  501    0  0.00000000000E+00  0.00000000000E+00  0.14624489411E+04  0.14624489412E+04  0.25500000920E-02 0.  1.
       -2   -1    0    0    0  501  0.00000000000E+00  0.00000000000E+00 -0.97848068614E+03  0.97848068614E+03  0.25500000920E-02 0. -1.
    10030    2    1    2    0    0  0.00000000000E+00  0.00000000000E+00  0.48396825501E+03  0.24409296273E+04  0.23924698898E+04 0.  0.
        1    1    3    3  502    0  0.53555356683E+03  0.90664436576E+03 -0.33710067779E+03  0.11056484504E+04  0.50400001928E-02 0. -1.
       -1    1    3    3    0  502 -0.53555356683E+03 -0.90664436576E+03  0.82106893280E+03  0.13352811769E+04  0.50400001928E-02 0.  1.
</event>
<event>
 5   0  0.2048028E-05  0.2394426E+04  0.7818609E-02  0.8441593E-01
       -2   -1    0    0    0  501  0.00000000000E+00  0.00000000000E+00  0.11223157343E+04  0.11223157343E+04  0.25500000920E-02 0. -1.
        2   -1    0    0  501    0  0.00000000000E+00  0.00000000000E+00 -0.12771085635E+04  0.12771085635E+04  0.25500000920E-02 0.  1.
    10030    2    1    2    0    0  0.00000000000E+00  0.00000000000E+00 -0.15479282912E+03  0.23994242978E+04  0.23944260567E+04 0.  0.
        5    1    3    3  502    0 -0.11661989421E+04  0.26986385355E+03 -0.98665074830E+02  0.12010842431E+04  0.46999998093E+01 0. -1.
       -5    1    3    3    0  502  0.11661989421E+04 -0.26986385355E+03 -0.56127754289E+02  0.11983400547E+04  0.46999998093E+01 0.  1.
</event>
<event>
 5   0  0.2048028E-05  0.2402640E+04  0.7818609E-02  0.8438516E-01
       -2   -1    0    0    0  501  0.00000000000E+00  0.00000000000E+00  0.74886398808E+03  0.74886398809E+03  0.25500000920E-02 0.  1.
        2   -1    0    0  501    0  0.00000000000E+00  0.00000000000E+00 -0.19271461188E+04  0.19271461188E+04  0.25500000920E-02 0. -1.
    10030    2    1    2    0    0  0.00000000000E+00  0.00000000000E+00 -0.11782821307E+04  0.26760101069E+04  0.24026404876E+04 0.  0.
        5    1    3    3  502    0  0.93429305164E+02 -0.76050866119E+03  0.44135764669E+03  0.88426303841E+03  0.46999998093E+01 0.  1.
       -5    1    3    3    0  502 -0.93429305164E+02  0.76050866119E+03 -0.16196397774E+04  0.17917470685E+04  0.46999998093E+01 0. -1.
</event>
<event>
 5   0  0.8528103E-06  0.2404879E+04  0.7818609E-02  0.8437679E-01
        1   -1    0    0  501    0  0.00000000000E+00  0.00000000000E+00  0.19855907119E+04  0.19855907119E+04  0.50400001928E-02 0. -1.
       -1   -1    0    0    0  501  0.00000000000E+00  0.00000000000E+00 -0.72817663802E+03  0.72817663804E+03  0.50400001928E-02 0.  1.
    10030    2    1    2    0    0  0.00000000000E+00  0.00000000000E+00  0.12574140739E+04  0.27137673500E+04  0.24048790149E+04 0.  0.
        4    1    3    3  502    0  0.14901611583E+03 -0.60210339959E+03  0.17911258306E+04  0.18954861277E+04  0.12699999809E+01 0. -1.
       -4    1    3    3    0  502 -0.14901611583E+03  0.60210339959E+03 -0.53371175667E+03  0.81828122224E+03  0.12699999809E+01 0.  1.
</event>
<event>
 5   0  0.8528103E-06  0.2656571E+04  0.7818609E-02  0.8349235E-01
       -1   -1    0    0    0  501  0.00000000000E+00  0.00000000000E+00  0.20296083634E+04  0.20296083634E+04  0.50400001928E-02 0. -1.
        1   -1    0    0  501    0  0.00000000000E+00  0.00000000000E+00 -0.86930192033E+03  0.86930192034E+03  0.50400001928E-02 0.  1.
    10030    2    1    2    0    0  0.00000000000E+00  0.00000000000E+00  0.11603064431E+04  0.28989102838E+04  0.26565710590E+04 0.  0.
        4    1    3    3  502    0 -0.14419078203E+03  0.53877447109E+03  0.18956408840E+04  0.19759870664E+04  0.12699999809E+01 0. -1.
       -4    1    3    3    0  502  0.14419078203E+03 -0.53877447109E+03 -0.73533444093E+03  0.92292321741E+03  0.12699999809E+01 0.  1.
</event>
<event>
 5   0  0.9083687E-06  0.2340402E+04  0.7818609E-02  0.8462159E-01
        1   -1    0    0  501    0  0.00000000000E+00  0.00000000000E+00  0.16298110998E+04  0.16298110998E+04  0.50400001928E-02 0. -1.
       -1   -1    0    0    0  501  0.00000000000E+00  0.00000000000E+00 -0.84020180809E+03  0.84020180811E+03  0.50400001928E-02 0.  1.
    10030    2    1    2    0    0  0.00000000000E+00  0.00000000000E+00  0.78960929167E+03  0.24700129079E+04  0.23404018739E+04 0.  0.
        2    1    3    3  502    0 -0.58600372510E+03  0.41338891800E+03 -0.58111042601E+03  0.92302767595E+03  0.25500000920E-02 0.  1.
       -2    1    3    3    0  502  0.58600372510E+03 -0.41338891800E+03  0.13707197177E+04  0.15469852319E+04  0.25500000920E-02 0. -1.
</event>
<event>
 5   0  0.2080257E-05  0.2353440E+04  0.7818609E-02  0.8457143E-01
       -2   -1    0    0    0  501  0.00000000000E+00  0.00000000000E+00  0.53349988627E+03  0.53349988628E+03  0.25500000920E-02 0.  1.
        2   -1    0    0  501    0  0.00000000000E+00  0.00000000000E+00 -0.25954461363E+04  0.25954461363E+04  0.25500000920E-02 0. -1.
    10030    2    1    2    0    0  0.00000000000E+00  0.00000000000E+00 -0.20619462500E+04  0.31289460226E+04  0.23534402211E+04 0.  0.
        1    1    3    3  502    0 -0.71835726526E+03 -0.81534671846E+03 -0.16312375061E+04  0.19600416407E+04  0.50400001928E-02 0. -1.
       -1    1    3    3    0  502  0.71835726526E+03  0.81534671846E+03 -0.43070874389E+03  0.11689043819E+04  0.50400001928E-02 0.  1.
</event>
<event>
 5   0  0.2048028E-05  0.2400802E+04  0.7818609E-02  0.8439203E-01
        2   -1    0    0  501    0  0.00000000000E+00  0.00000000000E+00  0.74480782165E+03  0.74480782166E+03  0.25500000920E-02 0. -1.
       -2   -1    0    0    0  501  0.00000000000E+00  0.00000000000E+00 -0.19346772292E+04  0.19346772292E+04  0.25500000920E-02 0.  1.
    10030    2    1    2    0    0  0.00000000000E+00  0.00000000000E+00 -0.11898694075E+04  0.26794850508E+04  0.24008021432E+04 0.  0.
        5    1    3    3  502    0  0.57622298819E+03  0.92951413522E+03 -0.11472655223E+04  0.15850141098E+04  0.46999998093E+01 0. -1.
       -5    1    3    3    0  502 -0.57622298819E+03 -0.92951413522E+03 -0.42603885231E+02  0.10944709410E+04  0.46999998093E+01 0.  1.
</event>
<event>
 5   0  0.2122194E-05  0.2415255E+04  0.7818609E-02  0.8433814E-01
       -2   -1    0    0    0  501  0.00000000000E+00  0.00000000000E+00  0.12333407086E+04  0.12333407086E+04  0.25500000920E-02 0.  1.
        2   -1    0    0  501    0  0.00000000000E+00  0.00000000000E+00 -0.11824502179E+04  0.11824502179E+04  0.25500000920E-02 0. -1.
    10030    2    1    2    0    0  0.00000000000E+00  0.00000000000E+00  0.50890490736E+02  0.24157909265E+04  0.24152548434E+04 0.  0.
        3    1    3    3  502    0 -0.73269167552E+03  0.58053002198E+02 -0.93297239072E+03  0.11877056599E+04  0.10100000352E+00 0. -1.
       -3    1    3    3    0  502  0.73269167552E+03 -0.58053002198E+02  0.98386288145E+03  0.12280852666E+04  0.10100000352E+00 0.  1.
</event>
<event>
 5   0  0.8528103E-06  0.2392217E+04  0.7818609E-02  0.8442423E-01
       -1   -1    0    0    0  501  0.00000000000E+00  0.00000000000E+00  0.93351314873E+03  0.93351314874E+03  0.50400001928E-02 0.  1.
        1   -1    0    0  501    0  0.00000000000E+00  0.00000000000E+00 -0.15325709331E+04  0.15325709331E+04  0.50400001928E-02 0. -1.
    10030    2    1    2    0    0  0.00000000000E+00  0.00000000000E+00 -0.59905778435E+03  0.24660840818E+04  0.23922166435E+04 0.  0.
        4    1    3    3  502    0 -0.78253207746E+02  0.53953317746E+03  0.79798316744E+03  0.96643590710E+03  0.12699999809E+01 0.  1.
       -4    1    3    3    0  502  0.78253207746E+02 -0.53953317746E+03 -0.13970409518E+04  0.14996481747E+04  0.12699999809E+01 0. -1.
</event>
<event>
 5   0  0.2080257E-05  0.2399694E+04  0.7818609E-02  0.8439618E-01
       -2   -1    0    0    0  501  0.00000000000E+00  0.00000000000E+00  0.11086793098E+04  0.11086793098E+04  0.25500000920E-02 0. -1.
        2   -1    0    0  501    0  0.00000000000E+00  0.00000000000E+00 -0.12985111638E+04  0.12985111638E+04  0.25500000920E-02 0.  1.
    10030    2    1    2    0    0  0.00000000000E+00  0.00000000000E+00 -0.18983185405E+03  0.24071904736E+04  0.23996936978E+04 0.  0.
        1    1    3    3  502    0  0.56878812269E+03 -0.99012554089E+03 -0.46452861450E+03  0.12327430182E+04  0.50400001928E-02 0.  1.
       -1    1    3    3    0  502 -0.56878812269E+03  0.99012554089E+03  0.27469676045E+03  0.11744474554E+04  0.50400001928E-02 0. -1.
</event>
<event>
 5   0  0.8528103E-06  0.2409230E+04  0.7818609E-02  0.8436056E-01
        1   -1    0    0  501    0  0.00000000000E+00  0.00000000000E+00  0.10171233326E+04  0.10171233327E+04  0.50400001928E-02 0.  1.
       -1   -1    0    0    0  501  0.00000000000E+00  0.00000000000E+00 -0.14266676463E+04  0.14266676463E+04  0.50400001928E-02 0. -1.
    10030    2    1    2    0    0  0.00000000000E+00  0.00000000000E+00 -0.40954431365E+03  0.24437909790E+04  0.24092297118E+04 0.  0.
        4    1    3    3  502    0  0.69051608304E+03 -0.98659249842E+03 -0.17403700305E+03  0.12167447186E+04  0.12699999809E+01 0. -1.
       -4    1    3    3    0  502 -0.69051608304E+03  0.98659249842E+03 -0.23550731060E+03  0.12270462604E+04  0.12699999809E+01 0.  1.
</event>
<event>
 5   0  0.2122194E-05  0.2396360E+04  0.7818609E-02  0.8440868E-01
        2   -1    0    0  501    0  0.00000000000E+00  0.00000000000E+00  0.19502818801E+04  0.19502818801E+04  0.25500000920E-02 0.  1.
       -2   -1    0    0    0  501  0.00000000000E+00  0.00000000000E+00 -0.73611656083E+03  0.73611656083E+03  0.25500000920E-02 0. -1.
    10030    2    1    2    0    0  0.00000000000E+00  0.00000000000E+00  0.12141653192E+04  0.26863984409E+04  0.23963595642E+04 0.  0.
        3    1    3    3  502    0  0.34396338866E+03  0.68753037218E+03  0.16373517140E+04  0.18088475533E+04  0.10100000352E+00 0.  1.
       -3    1    3    3    0  502 -0.34396338866E+03 -0.68753037218E+03 -0.42318639479E+03  0.87755088761E+03  0.10100000352E+00 0. -1.
</event>
<event>
 5   0  0.2025353E-05  0.2400019E+04  0.7818609E-02  0.8439496E-01
        2   -1    0    0  501    0  0.00000000000E+00  0.00000000000E+00  0.10017087684E+04  0.10017087684E+04  0.25500000920E-02 0.  1.
       -2   -1    0    0    0  501  0.00000000000E+00  0.00000000000E+00 -0.14375663747E+04  0.14375663747E+04  0.25500000920E-02 0. -1.
    10030    2    1    2    0    0  0.00000000000E+00  0.00000000000E+00 -0.43585760636E+03  0.24392751431E+04  0.24000190355E+04 0.  0.
        4    1    3    3  502    0  0.24819375632E+02 -0.11369662331E+04  0.17136762791E+03  0.11500768206E+04  0.12699999809E+01 0.  1.
       -4    1    3    3    0  502 -0.24819375632E+02  0.11369662331E+04 -0.60722523427E+03  0.12891983224E+04  0.12699999809E+01 0. -1.
</event>
<event>
 5   0  0.9038897E-06  0.2460563E+04  0.7818609E-02  0.8417171E-01
       -1   -1    0    0    0  501  0.00000000000E+00  0.00000000000E+00  0.13788105887E+04  0.13788105887E+04  0.50400001928E-02 0. -1.
        1   -1    0    0  501    0  0.00000000000E+00  0.00000000000E+00 -0.10977526044E+04  0.10977526044E+04  0.50400001928E-02 0.  1.
    10030    2    1    2    0    0  0.00000000000E+00  0.00000000000E+00  0.28105798427E+03  0.24765631931E+04  0.24605632808E+04 0.  0.
        1    1    3    3  502    0  0.59121226599E+03 -0.76623199622E+03 -0.62398207338E+03  0.11515194499E+04  0.50400001928E-02 0.  1.
       -1    1    3    3    0  502 -0.59121226599E+03  0.76623199622E+03  0.90504005766E+03  0.13250437432E+04  0.50400001928E-02 0. -1.
</event>
<event>
 5   0  0.2080257E-05  0.2401212E+04  0.7818609E-02  0.8439050E-01
        2   -1    0    0  501    0  0.00000000000E+00  0.00000000000E+00  0.13705998388E+04  0.13705998388E+04  0.25500000920E-02 0. -1.
       -2   -1    0    0    0  501  0.00000000000E+00  0.00000000000E+00 -0.10516963683E+04  0.10516963683E+04  0.25500000920E-02 0.  1.
    10030    2    1    2    0    0  0.00000000000E+00  0.00000000000E+00  0.31890347046E+03  0.24222962072E+04  0.24012120880E+04 0.  0.
        1    1    3    3  502    0 -0.33690219849E+03  0.64994058154E+03 -0.80049672234E+03  0.10847676495E+04  0.50400001928E-02 0.  1.
       -1    1    3    3    0  502  0.33690219849E+03 -0.64994058154E+03  0.11194001928E+04  0.13375285577E+04  0.50400001928E-02 0. -1.
</event>
<event>
 5   0  0.8898848E-06  0.2469505E+04  0.7818609E-02  0.8413931E-01
       -1   -1    0    0    0  501  0.00000000000E+00  0.00000000000E+00  0.13866024729E+04  0.13866024729E+04  0.50400001928E-02 0.  1.
        1   -1    0    0  501    0  0.00000000000E+00  0.00000000000E+00 -0.10995315853E+04  0.10995315853E+04  0.50400001928E-02 0. -1.
    10030    2    1    2    0    0  0.00000000000E+00  0.00000000000E+00  0.28707088764E+03  0.24861340582E+04  0.24695045780E+04 0.  0.
        5    1    3    3  502    0 -0.30458610919E+03 -0.40367773613E+03  0.12775588674E+04  0.13740113399E+04  0.46999998093E+01 0.  1.
       -5    1    3    3    0  502  0.30458610919E+03  0.40367773613E+03 -0.99048797974E+03  0.11121227183E+04  0.46999998093E+01 0. -1.
</event>
<event>
 5   0  0.8898848E-06  0.2395736E+04  0.7818609E-02  0.8441102E-01
        1   -1    0    0  501    0  0.00000000000E+00  0.00000000000E+00  0.15643760903E+04  0.15643760903E+04  0.50400001928E-02 0. -1.
       -1   -1    0    0    0  501  0.00000000000E+00  0.00000000000E+00 -0.91722658592E+03  0.91722658593E+03  0.50400001928E-02 0.  1.
    10030    2    1    2    0    0  0.00000000000E+00  0.00000000000E+00  0.64714950441E+03  0.24816026763E+04  0.23957356619E+04 0.  0.
        5    1    3    3  502    0  0.97822635984E+03  0.61341189654E+03 -0.67016579828E+01  0.11546722341E+04  0.46999998093E+01 0. -1.
       -5    1    3    3    0  502 -0.97822635984E+03 -0.61341189654E+03  0.65385116239E+03  0.13269304422E+04  0.46999998093E+01 0.  1.
</event>
<event>
 5   0  0.8528103E-06  0.2420213E+04  0.7818609E-02  0.8431975E-01
        1   -1    0    0  501    0  0.00000000000E+00  0.00000000000E+00  0.19688042806E+04  0.19688042806E+04  0.50400001928E-02 0.  1.
       -1   -1    0    0    0  501  0.00000000000E+00  0.00000000000E+00 -0.74378013876E+03  0.74378013877E+03  0.50400001928E-02 0. -1.
    10030    2    1    2    0    0  0.00000000000E+00  0.00000000000E+00  0.12250241419E+04  0.27125844194E+04  0.24202128180E+04 0.  0.
        4    1    3    3  502    0  0.96513165097E+03  0.54835475943E+03  0.11525766841E+04  0.16001895736E+04  0.12699999809E+01 0.  1.
       -4    1    3    3    0  502 -0.96513165097E+03 -0.54835475943E+03  0.72447457757E+02  0.11123948458E+04  0.12699999809E+01 0. -1.
</event>
<event>
 5   0  0.9176817E-06  0.2377487E+04  0.7818609E-02  0.8447980E-01
       -1   -1    0    0    0  501  0.00000000000E+00  0.00000000000E+00  0.10344293702E+04  0.10344293702E+04  0.50400001928E-02 0.  1.
        1   -1    0    0  501    0  0.00000000000E+00  0.00000000000E+00 -0.13660780077E+04  0.13660780077E+04  0.50400001928E-02 0. -1.
    10030    2    1    2    0    0  0.00000000000E+00  0.00000000000E+00 -0.33164863751E+03  0.24005073780E+04  0.23774870879E+04 0.  0.
        3    1    3    3  502    0 -0.36511582865E+03  0.14623650761E+03 -0.12984778501E+04  0.13567385238E+04  0.10100000352E+00 0. -1.
       -3    1    3    3    0  502  0.36511582865E+03 -0.14623650761E+03  0.96682921259E+03  0.10437688542E+04  0.10100000352E+00 0.  1.
</event>
<event>
 5   0  0.9176817E-06  0.2399119E+04  0.7818609E-02  0.8439833E-01
       -1   -1    0    0    0  501  0.00000000000E+00  0.00000000000E+00  0.16924833874E+04  0.16924833874E+04  0.50400001928E-02 0.  1.
        1   -1    0    0  501    0  0.00000000000E+00  0.00000000000E+00 -0.85019646782E+03  0.85019646783E+03  0.50400001928E-02 0. -1.
    10030    2    1    2    0    0  0.00000000000E+00  0.00000000000E+00  0.84228691959E+03  0.25426798552E+04  0.23991193366E+04 0.  0.
        3    1    3    3  502    0  0.59274040615E+03 -0.23775201171E+03 -0.65503726195E+03  0.91484481356E+03  0.10100000352E+00 0. -1.
       -3    1    3    3    0  502 -0.59274040615E+03  0.23775201171E+03  0.14973241815E+04  0.16278350417E+04  0.10100000352E+00 0.  1.
</event>
<event>
 5   0  0.8528103E-06  0.2404748E+04  0.7818609E-02  0.8437728E-01
        1   -1    0    0  501    0  0.00000000000E+00  0.00000000000E+00  0.74992454703E+03  0.74992454705E+03  0.50400001928E-02 0. -1.
       -1   -1    0    0    0  501  0.00000000000E+00  0.00000000000E+00 -0.19277979162E+04  0.19277979162E+04  0.50400001928E-02 0.  1.
    10030    2    1    2    0    0  0.00000000000E+00  0.00000000000E+00 -0.11778733692E+04  0.26777224633E+04  0.24047477865E+04 0.  0.
        4    1    3    3  502    0 -0.62533424354E+03 -0.66189358660E+03  0.28540675649E+03  0.95425607972E+03  0.12699999809E+01 0. -1.
       -4    1    3    3    0  502  0.62533424354E+03  0.66189358660E+03 -0.14632801257E+04  0.17234663836E+04  0.12699999809E+01 0.  1.
</event>
<event>
 5   0  0.9176817E-06  0.2423630E+04  0.7818609E-02  0.8430710E-01
       -1   -1    0    0    0  501  0.00000000000E+00  0.00000000000E+00  0.84523989687E+03  0.84523989689E+03  0.50400001928E-02 0.  1.
        1   -1    0    0  501    0  0.00000000000E+00  0.00000000000E+00 -0.17373706718E+04  0.17373706718E+04  0.50400001928E-02 0. -1.
    10030    2    1    2    0    0  0.00000000000E+00  0.00000000000E+00 -0.89213077497E+03  0.25826105687E+04  0.24236295158E+04 0.  0.
        3    1    3    3  502    0  0.11240739096E+04  0.43216476909E+03 -0.58976868135E+03  0.13409458041E+04  0.10100000352E+00 0. -1.
       -3    1    3    3    0  502 -0.11240739096E+04 -0.43216476909E+03 -0.30236209362E+03  0.12416647646E+04  0.10100000352E+00 0.  1.
</event>
<event>
 5   0  0.9038897E-06  0.2458946E+04  0.7818609E-02  0.8417759E-01
       -1   -1    0    0    0  501  0.00000000000E+00  0.00000000000E+00  0.86301752801E+03  0.86301752803E+03  0.50400001928E-02 0.  1.
        1   -1    0    0  501    0  0.00000000000E+00  0.00000000000E+00 -0.17515325300E+04  0.17515325300E+04  0.50400001928E-02 0. -1.
    10030    2    1    2    0    0  0.00000000000E+00  0.00000000000E+00 -0.88851500194E+03  0.26145500580E+04  0.24589455254E+04 0.  0.
        1    1    3    3  502    0 -0.14937721643E+03  0.10980048528E+04 -0.10105732441E+04  0.14997288059E+04  0.50400001928E-02 0.  1.
       -1    1    3    3    0  502  0.14937721643E+03 -0.10980048528E+04  0.12205824220E+03  0.11148212521E+04  0.50400001928E-02 0. -1.
</event>
<event>
 5   0  0.8898848E-06  0.2405889E+04  0.7818609E-02  0.8437302E-01
        1   -1    0    0  501    0  0.00000000000E+00  0.00000000000E+00  0.18840355901E+04  0.18840355901E+04  0.50400001928E-02 0.  1.
       -1   -1    0    0    0  501  0.00000000000E+00  0.00000000000E+00 -0.76807236122E+03  0.76807236123E+03  0.50400001928E-02 0. -1.
    10030    2    1    2    0    0  0.00000000000E+00  0.00000000000E+00  0.11159632288E+04  0.26521079513E+04  0.24058891615E+04 0.  0.
        5    1    3    3  502    0 -0.29907161542E+03 -0.11534292370E+04  0.73982007471E+03  0.14025685968E+04  0.46999998093E+01 0.  1.
       -5    1    3    3    0  502  0.29907161542E+03  0.11534292370E+04  0.37614315414E+03  0.12495393545E+04  0.46999998093E+01 0. -1.
</event>
<event>
 5   0  0.2122194E-05  0.2410792E+04  0.7818609E-02  0.8435474E-01
       -2   -1    0    0    0  501  0.00000000000E+00  0.00000000000E+00  0.51632896992E+03  0.51632896993E+03  0.25500000920E-02 0. -1.
        2   -1    0    0  501    0  0.00000000000E+00  0.00000000000E+00 -0.28140571027E+04  0.28140571027E+04  0.25500000920E-02 0.  1.
    10030    2    1    2    0    0  0.00000000000E+00  0.00000000000E+00 -0.22977281328E+04  0.33303860727E+04  0.24107917415E+04 0.  0.
        3    1    3    3  502    0  0.28813513868E+03  0.58535673603E+03  0.25132494517E+03  0.69916278850E+03  0.10100000352E+00 0. -1.
       -3    1    3    3    0  502 -0.28813513868E+03 -0.58535673603E+03 -0.25490530780E+04  0.26312232842E+04  0.10100000352E+00 0.  1.
</event>
<event>
 5   0  0.2087882E-05  0.2408317E+04  0.7818609E-02  0.8436396E-01
        2   -1    0    0  501    0  0.00000000000E+00  0.00000000000E+00  0.12906778167E+04  0.12906778167E+04  0.25500000920E-02 0. -1.
       -2   -1    0    0    0  501  0.00000000000E+00  0.00000000000E+00 -0.11234393110E+04  0.11234393110E+04  0.25500000920E-02 0.  1.
    10030    2    1    2    0    0  0.00000000000E+00  0.00000000000E+00  0.16723850569E+03  0.24141171276E+04  0.24083174185E+04 0.  0.
        2    1    3    3  502    0 -0.65648925389E+02  0.11250634512E+04  0.50881127957E+03  0.12365138369E+04  0.25500000920E-02 0. -1.
       -2    1    3    3    0  502  0.65648925389E+02 -0.11250634512E+04 -0.34157277387E+03  0.11776032908E+04  0.25500000920E-02 0.  1.
</event>
<event>
 5   0  0.8898848E-06  0.2370968E+04  0.7818609E-02  0.8450453E-01
       -1   -1    0    0    0  501  0.00000000000E+00  0.00000000000E+00  0.70629139487E+03  0.70629139489E+03  0.50400001928E-02 0. -1.
        1   -1    0    0  501    0  0.00000000000E+00  0.00000000000E+00 -0.19897915119E+04  0.19897915119E+04  0.50400001928E-02 0.  1.
    10030    2    1    2    0    0  0.00000000000E+00  0.00000000000E+00 -0.12835001170E+04  0.26960829067E+04  0.23709682600E+04 0.  0.
        5    1    3    3  502    0 -0.38790472232E+03  0.91801958047E+03 -0.13717446063E+04  0.16955634399E+04  0.46999998093E+01 0.  1.
       -5    1    3    3    0  502  0.38790472232E+03 -0.91801958047E+03  0.88244489310E+02  0.10005194669E+04  0.46999998093E+01 0. -1.
</event>
<event>
 5   0  0.2122194E-05  0.2401627E+04  0.7818609E-02  0.8438895E-01
        2   -1    0    0  501    0  0.00000000000E+00  0.00000000000E+00  0.12859552447E+04  0.12859552447E+04  0.25500000920E-02 0.  1.
       -2   -1    0    0    0  501  0.00000000000E+00  0.00000000000E+00 -0.11213088053E+04  0.11213088053E+04  0.25500000920E-02 0. -1.
    10030    2    1    2    0    0  0.00000000000E+00  0.00000000000E+00  0.16464643940E+03  0.24072640501E+04  0.24016268979E+04 0.  0.
        3    1    3    3  502    0  0.56965084408E+02  0.64889776509E+03 -0.92882585829E+03  0.11344738056E+04  0.10100000352E+00 0. -1.
       -3    1    3    3    0  502 -0.56965084408E+02 -0.64889776509E+03  0.10934722977E+04  0.12727902445E+04  0.10100000352E+00 0.  1.
</event>
<event>
 5   0  0.2080257E-05  0.2388806E+04  0.7818609E-02  0.8443706E-01
       -2   -1    0    0    0  501  0.00000000000E+00  0.00000000000E+00  0.14533752696E+04  0.14533752697E+04  0.25500000920E-02 0. -1.
        2   -1    0    0  501    0  0.00000000000E+00  0.00000000000E+00 -0.98157598964E+03  0.98157598965E+03  0.25500000920E-02 0.  1.
    10030    2    1    2    0    0  0.00000000000E+00  0.00000000000E+00  0.47179928001E+03  0.24349512593E+04  0.23888057842E+04 0.  0.
        1    1    3    3  502    0 -0.40888660349E+02  0.72622749736E+03  0.12015757775E+04  0.14045862770E+04  0.50400001928E-02 0. -1.
       -1    1    3    3    0  502  0.40888660349E+02 -0.72622749736E+03 -0.72977649747E+03  0.10303649823E+04  0.50400001928E-02 0.  1.
</event>
<event>
 5   0  0.2025353E-05  0.2422959E+04  0.7818609E-02  0.8430958E-01
        2   -1    0    0  501    0  0.00000000000E+00  0.00000000000E+00  0.15692689587E+04  0.15692689587E+04  0.25500000920E-02 0.  1.
       -2   -1    0    0    0  501  0.00000000000E+00  0.00000000000E+00 -0.93526534989E+03  0.93526534990E+03  0.25500000920E-02 0. -1.
    10030    2    1    2    0    0  0.00000000000E+00  0.00000000000E+00  0.63400360884E+03  0.25045343086E+04  0.24229592500E+04 0.  0.
        4    1    3    3  502    0 -0.13882545810E+03  0.11892184146E+04  0.12593171397E+03  0.12038992296E+04  0.12699999809E+01 0.  1.
       -4    1    3    3    0  502  0.13882545810E+03 -0.11892184146E+04  0.50807189488E+03  0.13006350790E+04  0.12699999809E+01 0. -1.
</event>
<event>
 5   0  0.2087882E-05  0.2397427E+04  0.7818609E-02  0.8440468E-01
        2   -1    0    0  501    0  0.00000000000E+00  0.00000000000E+00  0.15882205521E+04  0.15882205521E+04  0.25500000920E-02 0.  1.
       -2   -1    0    0    0  501  0.00000000000E+00  0.00000000000E+00 -0.90473195150E+03  0.90473195150E+03  0.25500000920E-02 0. -1.
    10030    2    1    2    0    0  0.00000000000E+00  0.00000000000E+00  0.68348860062E+03  0.24929525036E+04  0.23974268535E+04 0.  0.
        2    1    3    3  502    0 -0.10544356047E+04 -0.25927127614E+03 -0.18628595694E+03  0.11017070831E+04  0.25500000920E-02 0. -1.
       -2    1    3    3    0  502  0.10544356047E+04  0.25927127614E+03  0.86977455756E+03  0.13912454205E+04  0.25500000920E-02 0.  1.
</event>
<event>
 5   0  0.8898848E-06  0.2415215E+04  0.7818609E-02  0.8433829E-01
        1   -1    0    0  501    0  0.00000000000E+00  0.00000000000E+00  0.86071294363E+03  0.86071294364E+03  0.50400001928E-02 0. -1.
       -1   -1    0    0    0  501  0.00000000000E+00  0.00000000000E+00 -0.16943116614E+04  0.16943116614E+04  0.50400001928E-02 0.  1.
    10030    2    1    2    0    0  0.00000000000E+00  0.00000000000E+00 -0.83359871772E+03  0.25550246050E+04  0.24152150857E+04 0.  0.
        5    1    3    3  502    0  0.23966835710E+03  0.90011865082E+03  0.39621922747E+03  0.10122580072E+04  0.46999998093E+01 0. -1.
       -5    1    3    3    0  502 -0.23966835710E+03 -0.90011865082E+03 -0.12298179452E+04  0.15427665978E+04  0.46999998093E+01 0.  1.
</event>
<event>
 5   0  0.2087882E-05  0.2413497E+04  0.7818609E-02  0.8434468E-01
       -2   -1    0    0    0  501  0.00000000000E+00  0.00000000000E+00  0.95054991388E+03  0.95054991388E+03  0.25500000920E-02 0.  1.
        2   -1    0    0  501    0  0.00000000000E+00  0.00000000000E+00 -0.15319988561E+04  0.15319988561E+04  0.25500000920E-02 0. -1.
    10030    2    1    2    0    0  0.00000000000E+00  0.00000000000E+00 -0.58144894218E+03  0.24825487699E+04  0.24134965346E+04 0.  0.
        2    1    3    3  502    0  0.51144187393E+03  0.86819702799E+03 -0.97372713170E+03  0.14012435180E+04  0.25500000920E-02 0. -1.
       -2    1    3    3    0  502 -0.51144187393E+03 -0.86819702799E+03  0.39227818952E+03  0.10813052519E+04  0.25500000920E-02 0.  1.
</event>
<event>
 5   0  0.8898848E-06  0.2411178E+04  0.7818609E-02  0.8435331E-01
       -1   -1    0    0    0  501  0.00000000000E+00  0.00000000000E+00  0.79525862906E+03  0.79525862908E+03  0.50400001928E-02 0. -1.
        1   -1    0    0  501    0  0.00000000000E+00  0.00000000000E+00 -0.18276380043E+04  0.18276380043E+04  0.50400001928E-02 0.  1.
    10030    2    1    2    0    0  0.00000000000E+00  0.00000000000E+00 -0.10323793752E+04  0.26228966334E+04  0.24111780471E+04 0.  0.
        5    1    3    3  502    0 -0.49030502253E+03 -0.10453187775E+04 -0.89353873666E+03  0.14599739469E+04  0.46999998093E+01 0.  1.
       -5    1    3    3    0  502  0.49030502253E+03  0.10453187775E+04 -0.13884063854E+03  0.11629226864E+04  0.46999998093E+01 0. -1.
</event>
<event>
 5   0  0.9083687E-06  0.2396505E+04  0.7818609E-02  0.8440813E-01
       -1   -1    0    0    0  501  0.00000000000E+00  0.00000000000E+00  0.11365537603E+04  0.11365537603E+04  0.50400001928E-02 0. -1.
        1   -1    0    0  501    0  0.00000000000E+00  0.00000000000E+00 -0.12633008587E+04  0.12633008587E+04  0.50400001928E-02 0.  1.
    10030    2    1    2    0    0  0.00000000000E+00  0.00000000000E+00 -0.12674709837E+03  0.23998546190E+04  0.23965052401E+04 0.  0.
        2    1    3    3  502    0 -0.62005238223E+03 -0.45257329584E+03  0.85797853567E+03  0.11512665688E+04  0.25500000920E-02 0. -1.
       -2    1    3    3    0  502  0.62005238223E+03  0.45257329584E+03 -0.98472563403E+03  0.12485880502E+04  0.25500000920E-02 0.  1.
</event>
<event>
 5   0  0.9083687E-06  0.2395014E+04  0.7818609E-02  0.8441372E-01
       -1   -1    0    0    0  501  0.00000000000E+00  0.00000000000E+00  0.87430778555E+03  0.87430778556E+03  0.50400001928E-02 0.  1.
        1   -1    0    0  501    0  0.00000000000E+00  0.00000000000E+00 -0.16401814354E+04  0.16401814354E+04  0.50400001928E-02 0. -1.
    10030    2    1    2    0    0  0.00000000000E+00  0.00000000000E+00 -0.76587364983E+03  0.25144892209E+04  0.23950143204E+04 0.  0.
        2    1    3    3  502    0 -0.24743208588E+03 -0.96346855105E+03 -0.10829267158E+04  0.14704504608E+04  0.25500000920E-02 0. -1.
       -2    1    3    3    0  502  0.24743208588E+03  0.96346855105E+03  0.31705306595E+03  0.10440387601E+04  0.25500000920E-02 0.  1.
</event>
<event>
 5   0  0.8528103E-06  0.2353432E+04  0.7818609E-02  0.8457146E-01
       -1   -1    0    0    0  501  0.00000000000E+00  0.00000000000E+00  0.73910243859E+03  0.73910243860E+03  0.50400001928E-02 0.  1.
        1   -1    0    0  501    0  0.00000000000E+00  0.00000000000E+00 -0.18734357974E+04  0.18734357974E+04  0.50400001928E-02 0. -1.
    10030    2    1    2    0    0  0.00000000000E+00  0.00000000000E+00 -0.11343333589E+04  0.26125382360E+04  0.23534323585E+04 0.  0.
        4    1    3    3  502    0  0.46380345663E+01 -0.14981832734E+03  0.72846078977E+03  0.74372291729E+03  0.12699999809E+01 0.  1.
       -4    1    3    3    0  502 -0.46380345663E+01  0.14981832734E+03 -0.18627941486E+04  0.18688153188E+04  0.12699999809E+01 0. -1.
</event>
<event>
 5   0  0.2080257E-05  0.2397121E+04  0.7818609E-02  0.8440582E-01
       -2   -1    0    0    0  501  0.00000000000E+00  0.00000000000E+00  0.12605424009E+04  0.12605424009E+04  0.25500000920E-02 0. -1.
        2   -1    0    0  501    0  0.00000000000E+00  0.00000000000E+00 -0.11396266377E+04  0.11396266377E+04  0.25500000920E-02 0.  1.
    10030    2    1    2    0    0  0.00000000000E+00  0.00000000000E+00  0.12091576320E+03  0.24001690386E+04  0.23971213553E+04 0.  0.
        1    1    3    3  502    0  0.22524654533E+02  0.11041550801E+04 -0.40584001885E+03  0.11765933545E+04  0.50400001928E-02 0.  1.
       -1    1    3    3    0  502 -0.22524654533E+02 -0.11041550801E+04  0.52675578204E+03  0.12235756841E+04  0.50400001928E-02 0. -1.
</event>
<event>
 5   0  0.2025353E-05  0.2393819E+04  0.7818609E-02  0.8441821E-01
       -2   -1    0    0    0  501  0.00000000000E+00  0.00000000000E+00  0.78149329379E+03  0.78149329380E+03  0.25500000920E-02 0. -1.
        2   -1    0    0  501    0  0.00000000000E+00  0.00000000000E+00 -0.18331473671E+04  0.18331473671E+04  0.25500000920E-02 0.  1.
    10030    2    1    2    0    0  0.00000000000E+00  0.00000000000E+00 -0.10516540734E+04  0.26146406609E+04  0.23938190190E+04 0.  0.
        4    1    3    3  502    0 -0.22701279333E+03 -0.70592012925E+03  0.50038076233E+03  0.89456165658E+03  0.12699999809E+01 0. -1.
       -4    1    3    3    0  502  0.22701279333E+03  0.70592012925E+03 -0.15520348357E+04  0.17200790044E+04  0.12699999809E+01 0.  1.
</event>
<event>
 5   0  0.9176817E-06  0.2390534E+04  0.7818609E-02  0.8443056E-01
        1   -1    0    0  501    0  0.00000000000E+00  0.00000000000E+00  0.15221877035E+04  0.15221877035E+04  0.50400001928E-02 0.  1.
       -1   -1    0    0    0  501  0.00000000000E+00  0.00000000000E+00 -0.93855894678E+03  0.93855894679E+03  0.50400001928E-02 0. -1.
    10030    2    1    2    0    0  0.00000000000E+00  0.00000000000E+00  0.58362875670E+03  0.24607466503E+04  0.23905337377E+04 0.  0.
        3    1    3    3  502    0  0.20953333700E+03 -0.11137155178E+04  0.68297057406E+03  0.13231459818E+04  0.10100000352E+00 0.  1.
       -3    1    3    3    0  502 -0.20953333700E+03  0.11137155178E+04 -0.99341817365E+02  0.11376006685E+04  0.10100000352E+00 0. -1.
</event>
<event>
 5   0  0.2122194E-05  0.2423160E+04  0.7818609E-02  0.8430883E-01
        2   -1    0    0  501    0  0.00000000000E+00  0.00000000000E+00  0.15766812359E+04  0.15766812359E+04  0.25500000920E-02 0. -1.
       -2   -1    0    0    0  501  0.00000000000E+00  0.00000000000E+00 -0.93102305587E+03  0.93102305588E+03  0.25500000920E-02 0.  1.
    10030    2    1    2    0    0  0.00000000000E+00  0.00000000000E+00  0.64565818004E+03  0.25077042918E+04  0.24231604011E+04 0.  0.
        3    1    3    3  502    0  0.90918940058E+03 -0.61810547735E+03 -0.20409843230E+03  0.11181842100E+04  0.10100000352E+00 0.  1.
       -3    1    3    3    0  502 -0.90918940058E+03  0.61810547735E+03  0.84975661234E+03  0.13895200818E+04  0.10100000352E+00 0. -1.
</event>
<event>
 5   0  0.9176817E-06  0.2395635E+04  0.7818609E-02  0.8441140E-01
       -1   -1    0    0    0  501  0.00000000000E+00  0.00000000000E+00  0.10132049193E+04  0.10132049193E+04  0.50400001928E-02 0.  1.
        1   -1    0    0  501    0  0.00000000000E+00  0.00000000000E+00 -0.14160673472E+04  0.14160673472E+04  0.50400001928E-02 0. -1.
    10030    2    1    2    0    0  0.00000000000E+00  0.00000000000E+00 -0.40286242792E+03  0.24292722665E+04  0.23956346986E+04 0.  0.
        3    1    3    3  502    0 -0.15727752713E+03  0.17831017966E+03  0.98903572035E+03  0.10172130588E+04  0.10100000352E+00 0.  1.
       -3    1    3    3    0  502  0.15727752713E+03 -0.17831017966E+03 -0.13918981483E+04  0.14120592077E+04  0.10100000352E+00 0. -1.
</event>
<event>
 5   0  0.9083687E-06  0.2409551E+04  0.7818609E-02  0.8435937E-01
       -1   -1    0    0    0  501  0.00000000000E+00  0.00000000000E+00  0.80151861623E+03  0.80151861625E+03  0.50400001928E-02 0. -1.
        1   -1    0    0  501    0  0.00000000000E+00  0.00000000000E+00 -0.18109166484E+04  0.18109166484E+04  0.50400001928E-02 0.  1.
    10030    2    1    2    0    0  0.00000000000E+00  0.00000000000E+00 -0.10093980322E+04  0.26124352646E+04  0.24095505026E+04 0.  0.
        2    1    3    3  502    0  0.75304991375E+03  0.29417907986E+01  0.51490504878E+03  0.91226094731E+03  0.25500000920E-02 0. -1.
       -2    1    3    3    0  502 -0.75304991375E+03 -0.29417907986E+01 -0.15243030809E+04  0.17001743173E+04  0.25500000920E-02 0.  1.
</event>
<event>
 5   0  0.2087882E-05  0.2410879E+04  0.7818609E-02  0.8435442E-01
       -2   -1    0    0    0  501  0.00000000000E+00  0.00000000000E+00  0.51946540049E+03  0.51946540049E+03  0.25500000920E-02 0.  1.
        2   -1    0    0  501    0  0.00000000000E+00  0.00000000000E+00 -0.27972697906E+04  0.27972697906E+04  0.25500000920E-02 0. -1.
    10030    2    1    2    0    0  0.00000000000E+00  0.00000000000E+00 -0.22778043901E+04  0.33167351911E+04  0.24108794014E+04 0.  0.
        2    1    3    3  502    0  0.20335979273E+03 -0.94230375320E+03 -0.14323251273E+03  0.97458048478E+03  0.25500000920E-02 0.  1.
       -2    1    3    3    0  502 -0.20335979273E+03  0.94230375320E+03 -0.21345718774E+04  0.23421547063E+04  0.25500000920E-02 0. -1.
</event>
<event>
 5   0  0.8898848E-06  0.2423967E+04  0.7818609E-02  0.8430585E-01
       -1   -1    0    0    0  501  0.00000000000E+00  0.00000000000E+00  0.84772921900E+03  0.84772921902E+03  0.50400001928E-02 0. -1.
        1   -1    0    0  501    0  0.00000000000E+00  0.00000000000E+00 -0.17327513949E+04  0.17327513949E+04  0.50400001928E-02 0.  1.
    10030    2    1    2    0    0  0.00000000000E+00  0.00000000000E+00 -0.88502217585E+03  0.25804806139E+04  0.24239669855E+04 0.  0.
        5    1    3    3  502    0  0.13546602984E+03  0.48603717095E+03 -0.16156155019E+04  0.16925775364E+04  0.46999998093E+01 0.  1.
       -5    1    3    3    0  502 -0.13546602984E+03 -0.48603717095E+03  0.73059332608E+03  0.88790307743E+03  0.46999998093E+01 0. -1.
</event>
<event>
 5   0  0.9038897E-06  0.2409969E+04  0.7818609E-02  0.8435781E-01
       -1   -1    0    0    0  501  0.00000000000E+00  0.00000000000E+00  0.11842031504E+04  0.11842031504E+04  0.50400001928E-02 0. -1.
        1   -1    0    0  501    0  0.00000000000E+00  0.00000000000E+00 -0.12261310069E+04  0.12261310069E+04  0.50400001928E-02 0.  1.
    10030    2    1    2    0    0  0.00000000000E+00  0.00000000000E+00 -0.41927856482E+02  0.24103341573E+04  0.24099694614E+04 0.  0.
        1    1    3    3  502    0 -0.48771015054E+03  0.33786242951E+03 -0.10699200420E+04  0.12234137111E+04  0.50400001928E-02 0.  1.
       -1    1    3    3    0  502  0.48771015054E+03 -0.33786242951E+03  0.10279921855E+04  0.11869204462E+04  0.50400001928E-02 0. -1.
</event>
<event>
 5   0  0.2025353E-05  0.2246116E+04  0.7818609E-02  0.8499475E-01
       -2   -1    0    0    0  501  0.00000000000E+00  0.00000000000E+00  0.10072669384E+04  0.10072669384E+04  0.25500000920E-02 0.  1.
        2   -1    0    0  501    0  0.00000000000E+00  0.00000000000E+00 -0.12521596784E+04  0.12521596784E+04  0.25500000920E-02 0. -1.
    10030    2    1    2    0    0  0.00000000000E+00  0.00000000000E+00 -0.24489274003E+03  0.22594266168E+04  0.22461157990E+04 0.  0.
        4    1    3    3  502    0 -0.65510970570E+03  0.25625764077E+03  0.75819628813E+03  0.10342629884E+04  0.12699999809E+01 0.  1.
       -4    1    3    3    0  502  0.65510970570E+03 -0.25625764077E+03 -0.10030890282E+04  0.12251636284E+04  0.12699999809E+01 0. -1.
</event>
<event>
 5   0  0.9038897E-06  0.2380757E+04  0.7818609E-02  0.8446743E-01
        1   -1    0    0  501    0  0.00000000000E+00  0.00000000000E+00  0.15576181679E+04  0.15576181679E+04  0.50400001928E-02 0. -1.
       -1   -1    0    0    0  501  0.00000000000E+00  0.00000000000E+00 -0.90972312873E+03  0.90972312874E+03  0.50400001928E-02 0.  1.
    10030    2    1    2    0    0  0.00000000000E+00  0.00000000000E+00  0.64789503918E+03  0.24673412967E+04  0.23807572519E+04 0.  0.
        1    1    3    3  502    0  0.30976455890E+03  0.10044225545E+04  0.90300063840E+03  0.13857232418E+04  0.50400001928E-02 0. -1.
       -1    1    3    3    0  502 -0.30976455890E+03 -0.10044225545E+04 -0.25510559922E+03  0.10816180549E+04  0.50400001928E-02 0.  1.
</event>
<event>
 5   0  0.2025353E-05  0.2400949E+04  0.7818609E-02  0.8439148E-01
       -2   -1    0    0    0  501  0.00000000000E+00  0.00000000000E+00  0.77661449830E+03  0.77661449831E+03  0.25500000920E-02 0. -1.
        2   -1    0    0  501    0  0.00000000000E+00  0.00000000000E+00 -0.18556688951E+04  0.18556688951E+04  0.25500000920E-02 0.  1.
    10030    2    1    2    0    0  0.00000000000E+00  0.00000000000E+00 -0.10790543968E+04  0.26322833934E+04  0.24009492856E+04 0.  0.
        4    1    3    3  502    0  0.21082534005E+03 -0.65906862706E+03  0.53596974897E+03  0.87526222579E+03  0.12699999809E+01 0. -1.
       -4    1    3    3    0  502 -0.21082534005E+03  0.65906862706E+03 -0.16150241458E+04  0.17570211677E+04  0.12699999809E+01 0.  1.
</event>
<event>
 5   0  0.2048028E-05  0.2387389E+04  0.7818609E-02  0.8444240E-01
       -2   -1    0    0    0  501  0.00000000000E+00  0.00000000000E+00  0.75853522683E+03  0.75853522683E+03  0.25500000920E-02 0. -1.
        2   -1    0    0  501    0  0.00000000000E+00  0.00000000000E+00 -0.18784971201E+04  0.18784971201E+04  0.25500000920E-02 0.  1.
    10030    2    1    2    0    0  0.00000000000E+00  0.00000000000E+00 -0.11199618932E+04  0.26370323469E+04  0.23873887317E+04 0.  0.
        5    1    3    3  502    0 -0.59311613958E+03  0.55843000525E+03  0.40375247026E+03  0.90921338146E+03  0.46999998093E+01 0. -1.
       -5    1    3    3    0  502  0.59311613958E+03 -0.55843000525E+03 -0.15237143635E+04  0.17278189654E+04  0.46999998093E+01 0.  1.
</event>
<event>
 5   0  0.8528103E-06  0.2397685E+04  0.7818609E-02  0.8440371E-01
        1   -1    0    0  501    0  0.00000000000E+00  0.00000000000E+00  0.29532778655E+04  0.29532778655E+04  0.50400001928E-02 0.  1.
       -1   -1    0    0    0  501  0.00000000000E+00  0.00000000000E+00 -0.48665355192E+03  0.48665355194E+03  0.50400001928E-02 0. -1.
    10030    2    1    2    0    0  0.00000000000E+00  0.00000000000E+00  0.24666243136E+04  0.34399314175E+04  0.23976848526E+04 0.  0.
        4    1    3    3  502    0 -0.93392463716E+03  0.34349550206E+03  0.21925355974E+04  0.24077828695E+04  0.12699999809E+01 0.  1.
       -4    1    3    3    0  502  0.93392463716E+03 -0.34349550206E+03  0.27408871618E+03  0.10321485480E+04  0.12699999809E+01 0. -1.
</event>
<event>
 5   0  0.2048028E-05  0.2371229E+04  0.7818609E-02  0.8450354E-01
       -2   -1    0    0    0  501  0.00000000000E+00  0.00000000000E+00  0.93971611586E+03  0.93971611587E+03  0.25500000920E-02 0.  1.
        2   -1    0    0  501    0  0.00000000000E+00  0.00000000000E+00 -0.14958583318E+04  0.14958583318E+04  0.25500000920E-02 0. -1.
    10030    2    1    2    0    0  0.00000000000E+00  0.00000000000E+00 -0.55614221594E+03  0.24355744477E+04  0.23712293701E+04 0.  0.
        5    1    3    3  502    0 -0.10751855510E+04  0.49742933288E+03 -0.32625002775E+03  0.12287884606E+04  0.46999998093E+01 0. -1.
       -5    1    3    3    0  502  0.10751855510E+04 -0.49742933288E+03 -0.22989218819E+03  0.12067859871E+04  0.46999998093E+01 0.  1.
</event>
<event>
 5   0  0.9083687E-06  0.2378154E+04  0.7818609E-02  0.8447728E-01
       -1   -1    0    0    0  501  0.00000000000E+00  0.00000000000E+00  0.10739009279E+04  0.10739009280E+04  0.50400001928E-02 0. -1.
        1   -1    0    0  501    0  0.00000000000E+00  0.00000000000E+00 -0.13166057676E+04  0.13166057676E+04  0.50400001928E-02 0.  1.
    10030    2    1    2    0    0  0.00000000000E+00  0.00000000000E+00 -0.24270483964E+03  0.23905066955E+04  0.23781540367E+04 0.  0.
        2    1    3    3  502    0  0.64977153121E+03 -0.12712405240E+03  0.87147246701E+03  0.10944532097E+04  0.25500000920E-02 0. -1.
       -2    1    3    3    0  502 -0.64977153121E+03  0.12712405240E+03 -0.11141773067E+04  0.12960534858E+04  0.25500000920E-02 0.  1.
</event>
<event>
 5   0  0.2087882E-05  0.2402257E+04  0.7818609E-02  0.8438659E-01
        2   -1    0    0  501    0  0.00000000000E+00  0.00000000000E+00  0.11920072499E+04  0.11920072499E+04  0.25500000920E-02 0. -1.
       -2   -1    0    0    0  501  0.00000000000E+00  0.00000000000E+00 -0.12103193475E+04  0.12103193475E+04  0.25500000920E-02 0.  1.
    10030    2    1    2    0    0  0.00000000000E+00  0.00000000000E+00 -0.18312097599E+02  0.24023265975E+04  0.24022568031E+04 0.  0.
        2    1    3    3  502    0  0.46793732325E+03  0.10572777116E+04  0.31628840598E+03  0.11986825492E+04  0.25500000920E-02 0. -1.
       -2    1    3    3    0  502 -0.46793732325E+03 -0.10572777116E+04 -0.33460050358E+03  0.12036440483E+04  0.25500000920E-02 0.  1.
</event>
<event>
 5   0  0.8898848E-06  0.2394033E+04  0.7818609E-02  0.8441741E-01
        1   -1    0    0  501    0  0.00000000000E+00  0.00000000000E+00  0.10640620225E+04  0.10640620225E+04  0.50400001928E-02 0.  1.
       -1   -1    0    0    0  501  0.00000000000E+00  0.00000000000E+00 -0.13465836041E+04  0.13465836041E+04  0.50400001928E-02 0. -1.
    10030    2    1    2    0    0  0.00000000000E+00  0.00000000000E+00 -0.28252158163E+03  0.24106456267E+04  0.23940329766E+04 0.  0.
        5    1    3    3  502    0  0.21466409922E+03  0.10749385815E+04 -0.62548522513E+03  0.12620726946E+04  0.46999998093E+01 0. -1.
       -5    1    3    3    0  502 -0.21466409922E+03 -0.10749385815E+04  0.34296364351E+03  0.11485729321E+04  0.46999998093E+01 0.  1.
</event>
</LesHouchesEvents>
